<LesHouchesEvents version="3.0">
<header>
<!--
#*********************************************************************
#                                                                    *
#                        MadGraph5_aMC@NLO                           *
#                                                                    *
#                           Going Beyond                             *
#                                                                    *
#                   http://madgraph.hep.uiuc.edu                     *
#                   http://madgraph.phys.ucl.ac.be                   *
#                   http://amcatnlo.cern.ch                          *
#                                                                    *
#                     The MadGraph5_aMC@NLO team                     *
#                                                                    *
#....................................................................*
#                                                                    *
# This file contains all the information necessary to reproduce      *
# the events generated:                                              *
#                                                                    *
# 1. software version                                                *
# 2. proc_card          : code generation info including model       *
# 3. param_card         : model primary parameters in the LH format  *
# 4. run_card           : running parameters (collider and cuts)     *
# 5. pythia_card        : present only if pythia has been run        *
# 6. pgs_card           : present only if pgs has been run           *
# 7. delphes_cards      : present only if delphes has been run       *
#                                                                    *
#                                                                    *
#*********************************************************************
-->
<MGVersion>
#5.2.2.3
</MGVersion>
<MG5ProcCard>
#************************************************************
#*                     MadGraph5_aMC@NLO                    *
#*                                                          *
#*                *                       *                 *
#*                  *        * *        *                   *
#*                    * * * * 5 * * * *                     *
#*                  *        * *        *                   *
#*                *                       *                 *
#*                                                          *
#*                                                          *
#*         VERSION 2.2.3                 2015-02-10         *
#*                                                          *
#*    The MadGraph5_aMC@NLO Development Team - Find us at   *
#*    https://server06.fynu.ucl.ac.be/projects/madgraph     *
#*                                                          *
#************************************************************
#*                                                          *
#*               Command File for MadGraph5_aMC@NLO         *
#*                                                          *
#*     run as ./bin/mg5_aMC  filename                       *
#*                                                          *
#************************************************************
set group_subprocesses Auto
set ignore_six_quark_processes False
set loop_optimized_output True
set gauge unitary
set complex_mass_scheme False
import model sm
define p = g u c d s u~ c~ d~ s~
define j = g u c d s u~ c~ d~ s~
define l+ = e+ mu+
define l- = e- mu-
define vl = ve vm vt
define vl~ = ve~ vm~ vt~
import model Zprime_UFO
generate p p > zph, zph > j j
add process p p > zph, zph > b b~
output Dijet_signal
</MG5ProcCard>
<MGProcCard>
#*********************************************************************
#                        MadGraph/MadEvent                           *
#                   http://madgraph.hep.uiuc.edu                     *
#                                                                    *
#                          proc_card.dat                             *
#*********************************************************************
#                                                                    *
#            This Files is generated by MADGRAPH 5                   *
#                                                                    *
# WARNING: This Files is generated for MADEVENT (compatibility issue)*
#          This files is NOT a valid MG4 proc_card.dat               *
#          Running this in MG4 will NEVER reproduce the result of MG5*
#                                                                    *
#*********************************************************************
#*********************************************************************
# Process(es) requested : mg2 input                                  *
#*********************************************************************
# Begin PROCESS # This is TAG. Do not modify this line
p p > zph , zph > j j           #Process
# Be carefull the coupling are here in MG5 convention
          
end_coup           # End the couplings input

done               # this tells MG there are no more procs
# End PROCESS  # This is TAG. Do not modify this line
#*********************************************************************
# Model information                                                  *
#*********************************************************************
# Begin MODEL  # This is TAG. Do not modify this line
Zprime_UFO
# End   MODEL  # This is TAG. Do not modify this line
#*********************************************************************
# Start multiparticle definitions                                    *
#*********************************************************************
# Begin MULTIPARTICLES # This is TAG. Do not modify this line

# End  MULTIPARTICLES # This is TAG. Do not modify this line
</MGProcCard>
<MGRunCard>
#*********************************************************************
#                       MadGraph5_aMC@NLO                            *
#                                                                    *
#                     run_card.dat MadEvent                          *
#                                                                    *
#  This file is used to set the parameters of the run.               *
#                                                                    *
#  Some notation/conventions:                                        *
#                                                                    *
#   Lines starting with a '# ' are info or comments                  *
#                                                                    *
#   mind the format:   value    = variable     ! comment             *
#*********************************************************************
#
#*******************                                                 
# Running parameters
#*******************                                                 
#                                                                    
#*********************************************************************
# Tag name for the run (one word)                                    *
#*********************************************************************
  tag_1     = run_tag ! name of the run 
#*********************************************************************
# Run to generate the grid pack                                      *
#*********************************************************************
  .false.     = gridpack  !True = setting up the grid pack
#*********************************************************************
# Number of events and rnd seed                                      *
# Warning: Do not generate more than 1M events in a single run       *
# If you want to run Pythia, avoid more than 50k events in a run.    *
#*********************************************************************
  2000 = nevents ! Number of unweighted events requested 
 2496 = iseed   ! rnd seed (0=assigned automatically=default))
#*********************************************************************
# Collider type and energy                                           *
# lpp: 0=No PDF, 1=proton, -1=antiproton, 2=photon from proton,      *
#                                         3=photon from electron     *
#*********************************************************************
        1     = lpp1    ! beam 1 type 
        1     = lpp2    ! beam 2 type
     4000     = ebeam1  ! beam 1 total energy in GeV
     4000     = ebeam2  ! beam 2 total energy in GeV
#*********************************************************************
# Beam polarization from -100 (left-handed) to 100 (right-handed)    *
#*********************************************************************
        0     = polbeam1 ! beam polarization for beam 1
        0     = polbeam2 ! beam polarization for beam 2
#*********************************************************************
# PDF CHOICE: this automatically fixes also alpha_s and its evol.    *
#*********************************************************************
 'nn23lo1'    = pdlabel     ! PDF set                                     
 230000    = lhaid     ! if pdlabel=lhapdf, this is the lhapdf number
#*********************************************************************
# Renormalization and factorization scales                           *
#*********************************************************************
 F        = fixed_ren_scale  ! if .true. use fixed ren scale
 F        = fixed_fac_scale  ! if .true. use fixed fac scale
 91.1880  = scale            ! fixed ren scale
 91.1880  = dsqrt_q2fact1    ! fixed fact scale for pdf1
 91.1880  = dsqrt_q2fact2    ! fixed fact scale for pdf2
 1        = scalefact        ! scale factor for event-by-event scales
#*********************************************************************
# Matching - Warning! ickkw > 1 is still beta
#*********************************************************************
 0        = ickkw            ! 0 no matching, 1 MLM, 2 CKKW matching
 1        = highestmult      ! for ickkw=2, highest mult group
 1        = ktscheme         ! for ickkw=1, 1 Durham kT, 2 Pythia pTE
 1        = alpsfact         ! scale factor for QCD emission vx
 F        = chcluster        ! cluster only according to channel diag
 T        = pdfwgt           ! for ickkw=1, perform pdf reweighting
 5        = asrwgtflavor     ! highest quark flavor for a_s reweight
 T        = clusinfo         ! include clustering tag in output
 3.0      = lhe_version       ! Change the way clustering information pass to shower.        
#*********************************************************************
#**********************************************************
#
#**********************************************************
# Automatic ptj and mjj cuts if xqcut > 0
# (turn off for VBF and single top processes)
#**********************************************************
   T  = auto_ptj_mjj  ! Automatic setting of ptj and mjj
#**********************************************************
#                                                                    
#**********************************
# BW cutoff (M+/-bwcutoff*Gamma)
#**********************************
  15  = bwcutoff      ! (M+/-bwcutoff*Gamma)
#**********************************************************
# Apply pt/E/eta/dr/mij cuts on decay products or not
# (note that etmiss/ptll/ptheavy/ht/sorted cuts always apply)
#**********************************************************
   T  = cut_decays    ! Cut decay products 
#*************************************************************
# Number of helicities to sum per event (0 = all helicities)
# 0 gives more stable result, but longer run time (needed for
# long decay chains e.g.).
# Use >=2 if most helicities contribute, e.g. pure QCD.
#*************************************************************
   0  = nhel          ! Number of helicities used per event
#*******************                                                 
# Standard Cuts
#*******************                                                 
#                                                                    
#*********************************************************************
# Minimum and maximum pt's (for max, -1 means no cut)                *
#*********************************************************************
 20  = ptj       ! minimum pt for the jets 
  0  = ptb       ! minimum pt for the b 
 10  = pta       ! minimum pt for the photons 
 10  = ptl       ! minimum pt for the charged leptons 
  0  = misset    ! minimum missing Et (sum of neutrino's momenta)
  0  = ptheavy   ! minimum pt for one heavy final state
 1.0 = ptonium   ! minimum pt for the quarkonium states
 -1  = ptjmax    ! maximum pt for the jets
 -1  = ptbmax    ! maximum pt for the b
 -1  = ptamax    ! maximum pt for the photons
 -1  = ptlmax    ! maximum pt for the charged leptons
 -1  = missetmax ! maximum missing Et (sum of neutrino's momenta)
#*********************************************************************
# Minimum and maximum E's (in the center of mass frame)              *
#*********************************************************************
  0  = ej     ! minimum E for the jets 
  0  = eb     ! minimum E for the b 
  0  = ea     ! minimum E for the photons 
  0  = el     ! minimum E for the charged leptons 
 -1   = ejmax ! maximum E for the jets
 -1   = ebmax ! maximum E for the b
 -1   = eamax ! maximum E for the photons
 -1   = elmax ! maximum E for the charged leptons
#*********************************************************************
# Maximum and minimum absolute rapidity (for max, -1 means no cut)   *
#*********************************************************************
   5  = etaj    ! max rap for the jets 
  -1  = etab    ! max rap for the b
 2.5  = etaa    ! max rap for the photons 
 2.5  = etal    ! max rap for the charged leptons 
 0.6  = etaonium ! max rap for the quarkonium states
   0  = etajmin ! min rap for the jets
   0  = etabmin ! min rap for the b
   0  = etaamin ! min rap for the photons
   0  = etalmin ! main rap for the charged leptons
#*********************************************************************
# Minimum and maximum DeltaR distance                                *
#*********************************************************************
 0.4 = drjj    ! min distance between jets 
 0   = drbb    ! min distance between b's 
 0.4 = drll    ! min distance between leptons 
 0.4 = draa    ! min distance between gammas 
 0   = drbj    ! min distance between b and jet 
 0.4 = draj    ! min distance between gamma and jet 
 0.4 = drjl    ! min distance between jet and lepton 
 0   = drab    ! min distance between gamma and b 
 0   = drbl    ! min distance between b and lepton 
 0.4 = dral    ! min distance between gamma and lepton 
 -1  = drjjmax ! max distance between jets
 -1  = drbbmax ! max distance between b's
 -1  = drllmax ! max distance between leptons
 -1  = draamax ! max distance between gammas
 -1  = drbjmax ! max distance between b and jet
 -1  = drajmax ! max distance between gamma and jet
 -1  = drjlmax ! max distance between jet and lepton
 -1  = drabmax ! max distance between gamma and b
 -1  = drblmax ! max distance between b and lepton
 -1  = dralmax ! maxdistance between gamma and lepton
#*********************************************************************
# Minimum and maximum invariant mass for pairs                       *
# WARNING: for four lepton final state mmll cut require to have      *
#          different lepton masses for each flavor!                  *           
#*********************************************************************
 0   = mmjj    ! min invariant mass of a jet pair 
 0   = mmbb    ! min invariant mass of a b pair 
 0   = mmaa    ! min invariant mass of gamma gamma pair
 0   = mmll    ! min invariant mass of l+l- (same flavour) lepton pair
 -1  = mmjjmax ! max invariant mass of a jet pair
 -1  = mmbbmax ! max invariant mass of a b pair
 -1  = mmaamax ! max invariant mass of gamma gamma pair
 -1  = mmllmax ! max invariant mass of l+l- (same flavour) lepton pair
#*********************************************************************
# Minimum and maximum invariant mass for all letpons                 *
#*********************************************************************
 0   = mmnl    ! min invariant mass for all letpons (l+- and vl) 
 -1  = mmnlmax ! max invariant mass for all letpons (l+- and vl) 
#*********************************************************************
# Minimum and maximum pt for 4-momenta sum of leptons                *
#*********************************************************************
 0   = ptllmin  ! Minimum pt for 4-momenta sum of leptons(l and vl)
 -1  = ptllmax  ! Maximum pt for 4-momenta sum of leptons(l and vl)
#*********************************************************************
# Inclusive cuts                                                     *
#*********************************************************************
 0  = xptj ! minimum pt for at least one jet  
 0  = xptb ! minimum pt for at least one b 
 0  = xpta ! minimum pt for at least one photon 
 0  = xptl ! minimum pt for at least one charged lepton 
#*********************************************************************
# Control the pt's of the jets sorted by pt                          *
#*********************************************************************
 0   = ptj1min ! minimum pt for the leading jet in pt
 0   = ptj2min ! minimum pt for the second jet in pt
 0   = ptj3min ! minimum pt for the third jet in pt
 0   = ptj4min ! minimum pt for the fourth jet in pt
 -1  = ptj1max ! maximum pt for the leading jet in pt 
 -1  = ptj2max ! maximum pt for the second jet in pt
 -1  = ptj3max ! maximum pt for the third jet in pt
 -1  = ptj4max ! maximum pt for the fourth jet in pt
 0   = cutuse  ! reject event if fails any (0) / all (1) jet pt cuts
#*********************************************************************
# Control the pt's of leptons sorted by pt                           *
#*********************************************************************
 0   = ptl1min ! minimum pt for the leading lepton in pt
 0   = ptl2min ! minimum pt for the second lepton in pt
 0   = ptl3min ! minimum pt for the third lepton in pt
 0   = ptl4min ! minimum pt for the fourth lepton in pt
 -1  = ptl1max ! maximum pt for the leading lepton in pt 
 -1  = ptl2max ! maximum pt for the second lepton in pt
 -1  = ptl3max ! maximum pt for the third lepton in pt
 -1  = ptl4max ! maximum pt for the fourth lepton in pt
#*********************************************************************
# Control the Ht(k)=Sum of k leading jets                            *
#*********************************************************************
 0   = htjmin ! minimum jet HT=Sum(jet pt)
 -1  = htjmax ! maximum jet HT=Sum(jet pt)
 0   = ihtmin  !inclusive Ht for all partons (including b)
 -1  = ihtmax  !inclusive Ht for all partons (including b)
 0   = ht2min ! minimum Ht for the two leading jets
 0   = ht3min ! minimum Ht for the three leading jets
 0   = ht4min ! minimum Ht for the four leading jets
 -1  = ht2max ! maximum Ht for the two leading jets
 -1  = ht3max ! maximum Ht for the three leading jets
 -1  = ht4max ! maximum Ht for the four leading jets
#***********************************************************************
# Photon-isolation cuts, according to hep-ph/9801442                   *
# When ptgmin=0, all the other parameters are ignored                  *
# When ptgmin>0, pta and draj are not going to be used                 *
#***********************************************************************
   0 = ptgmin ! Min photon transverse momentum
 0.4 = R0gamma ! Radius of isolation code
 1.0 = xn ! n parameter of eq.(3.4) in hep-ph/9801442
 1.0 = epsgamma ! epsilon_gamma parameter of eq.(3.4) in hep-ph/9801442
 .true. = isoEM ! isolate photons from EM energy (photons and leptons)
#*********************************************************************
# WBF cuts                                                           *
#*********************************************************************
 0   = xetamin ! minimum rapidity for two jets in the WBF case  
 0   = deltaeta ! minimum rapidity for two jets in the WBF case 
#*********************************************************************
# KT DURHAM CUT                                                      *
#*********************************************************************
 -1    =  ktdurham        
 0.4  =  dparameter 
#*********************************************************************
# maximal pdg code for quark to be considered as a light jet         *
# (otherwise b cuts are applied)                                     *
#*********************************************************************
 4 = maxjetflavor    ! Maximum jet pdg code
#*********************************************************************
# Jet measure cuts                                                   *
#*********************************************************************
 0   = xqcut   ! minimum kt jet measure between partons
#*********************************************************************
#
#*********************************************************************
# Store info for systematics studies                                 *
# WARNING: If use_syst is T, matched Pythia output is                *
#          meaningful ONLY if plotted taking matchscale              *
#          reweighting into account!                                 *
#*********************************************************************
   F  = use_syst      ! Enable systematics studies
#
#**************************************
# Parameter of the systematics study
#  will be used by SysCalc (if installed)
#**************************************                                  
#
0.5 1 2 = sys_scalefact  # factorization/renormalization scale factor
0.5 1 2 = sys_alpsfact  # \alpha_s emission scale factors
30 50 = sys_matchscale # variation of merging scale
# PDF sets and number of members (0 or none for all members).
CT10nlo.LHgrid = sys_pdf # matching scales
# MSTW2008nlo68cl.LHgrid 1  = sys_pdf
</MGRunCard>
<slha>
######################################################################
## PARAM_CARD AUTOMATICALY GENERATED BY MG5 FOLLOWING UFO MODEL   ####
######################################################################
##                                                                  ##
##  Width set on Auto will be computed following the information    ##
##        present in the decay.py files of the model.               ##
##        See  arXiv:1402.1178 for more details.                    ##
##                                                                  ##
######################################################################

###################################
## INFORMATION FOR CKMBLOCK
###################################
Block ckmblock 
    1 2.277360e-01 # cabi 

###################################
## INFORMATION FOR FRBLOCK
###################################
Block frblock 
    1 1.400000e+00 # gz 

###################################
## INFORMATION FOR MASS
###################################
Block mass 
    1 5.040000e-03 # MD 
    2 2.550000e-03 # MU 
    3 1.010000e-01 # MS 
    4 1.270000e+00 # MC 
    5 4.700000e+00 # MB 
    6 1.720000e+02 # MT 
   11 5.110000e-04 # Me 
   13 1.056600e-01 # MM 
   15 1.777000e+00 # MTA 
   23 9.118760e+01 # MZ 
   25 1.200000e+02 # MH 
  10030 1.100000e+03 # MZph 
  10031 3.000000e+02 # MZpl 
## Dependent parameters, given by model restrictions.
## Those values should be edited following the 
## analytical expression. MG5 ignores those values 
## but they are important for interfacing the output of MG5
## to external program such as Pythia.
  12 0.000000 # ve : 0.0 
  14 0.000000 # vm : 0.0 
  16 0.000000 # vt : 0.0 
  21 0.000000 # g : 0.0 
  22 0.000000 # a : 0.0 
  24 79.824360 # w+ : cmath.sqrt(MZ__exp__2/2. + cmath.sqrt(MZ__exp__4/4. - (aEW*cmath.pi*MZ__exp__2)/(Gf*sqrt__2))) 

###################################
## INFORMATION FOR SMINPUTS
###################################
Block sminputs 
    1 1.279000e+02 # aEWM1 
    2 1.166370e-05 # Gf 
    3 1.184000e-01 # aS 

###################################
## INFORMATION FOR YUKAWA
###################################
Block yukawa 
    1 5.040000e-03 # ymdo 
    2 2.550000e-03 # ymup 
    3 1.010000e-01 # yms 
    4 1.270000e+00 # ymc 
    5 4.700000e+00 # ymb 
    6 1.720000e+02 # ymt 
   11 5.110000e-04 # yme 
   13 1.056600e-01 # ymm 
   15 1.777000e+00 # ymtau 

###################################
## INFORMATION FOR DECAY
###################################
DECAY   6 1.508336e+00 # WT 
DECAY  23 2.495200e+00 # WZ 
DECAY  24 2.085000e+00 # WW 
DECAY  25 5.753088e-03 # WH 
## Dependent parameters, given by model restrictions.
## Those values should be edited following the 
## analytical expression. MG5 ignores those values 
## but they are important for interfacing the output of MG5
## to external program such as Pythia.
DECAY  1 0.000000 # d : 0.0 
DECAY  2 0.000000 # u : 0.0 
DECAY  3 0.000000 # s : 0.0 
DECAY  4 0.000000 # c : 0.0 
DECAY  5 0.000000 # b : 0.0 
DECAY  11 0.000000 # e- : 0.0 
DECAY  12 0.000000 # ve : 0.0 
DECAY  13 0.000000 # mu- : 0.0 
DECAY  14 0.000000 # vm : 0.0 
DECAY  15 0.000000 # ta- : 0.0 
DECAY  16 0.000000 # vt : 0.0 
DECAY  21 0.000000 # g : 0.0 
DECAY  22 0.000000 # a : 0.0 
DECAY  10030 0.308725 # zph : (gz__exp__2*MZph*(5 + cmath.sqrt(1 - (4*MT__exp__2)/MZph__exp__2)))/(144.*cmath.pi) 
DECAY  10031 0.132629 # zpl : (5*gz__exp__2*MZpl)/(144.*cmath.pi) 
#===========================================================
# QUANTUM NUMBERS OF NEW STATE(S) (NON SM PDG CODE)
#===========================================================

Block QNUMBERS 10030  # zph 
        1 0  # 3 times electric charge
        2 3  # number of spin states (2S+1)
        3 1  # colour rep (1: singlet, 3: triplet, 8: octet)
        4 0  # Particle/Antiparticle distinction (0=own anti)
Block QNUMBERS 10031  # zpl 
        1 0  # 3 times electric charge
        2 3  # number of spin states (2S+1)
        3 1  # colour rep (1: singlet, 3: triplet, 8: octet)
        4 0  # Particle/Antiparticle distinction (0=own anti)
</slha>
## END BANNER##
<MGGenerationInfo>
#  Number of Events        :         4030
#  Integrated weight (pb)  :  0.23939E+01
#  Max wgt                 :  0.79521E-03
#  Average wgt             :  0.59402E-03
</MGGenerationInfo>
</header>
<init>
     2212     2212  0.40000000000E+04  0.40000000000E+04 0 0  247000  247000 2   1
  0.23944554972E+01  0.51376919092E-02  0.79521210000E-03   0
</init>
<event>
 5   0  0.7537480E-03  0.1091909E+04  0.7818609E-02  0.9213114E-01
        2   -1    0    0  501    0  0.00000000000E+00  0.00000000000E+00  0.11145394177E+04  0.11145394177E+04  0.25500000920E-02 0. -1.
       -2   -1    0    0    0  501  0.00000000000E+00  0.00000000000E+00 -0.26743427896E+03  0.26743427897E+03  0.25500000920E-02 0.  1.
    10030    2    1    2    0    0  0.00000000000E+00  0.00000000000E+00  0.84710513878E+03  0.13819736967E+04  0.10919085045E+04 0.  0.
        1    1    3    3  502    0  0.45333486023E+03 -0.61194991957E+02  0.46378922316E+02  0.45979161258E+03  0.50400001928E-02 0.  1.
       -1    1    3    3    0  502 -0.45333486023E+03  0.61194991957E+02  0.80072621646E+03  0.92218208413E+03  0.50400001928E-02 0. -1.
</event>
<event>
 5   0  0.7537480E-03  0.1095401E+04  0.7818609E-02  0.9209686E-01
        2   -1    0    0  501    0  0.00000000000E+00  0.00000000000E+00  0.68313742724E+03  0.68313742725E+03  0.25500000920E-02 0. -1.
       -2   -1    0    0    0  501  0.00000000000E+00  0.00000000000E+00 -0.43911483692E+03  0.43911483693E+03  0.25500000920E-02 0.  1.
    10030    2    1    2    0    0  0.00000000000E+00  0.00000000000E+00  0.24402259032E+03  0.11222522642E+04  0.10954008946E+04 0.  0.
        1    1    3    3  502    0 -0.32289219441E+03  0.40904963054E+03  0.29464949001E+03  0.59866459010E+03  0.50400001928E-02 0. -1.
       -1    1    3    3    0  502  0.32289219441E+03 -0.40904963054E+03 -0.50626899687E+02  0.52358767408E+03  0.50400001928E-02 0.  1.
</event>
<event>
 5   0  0.7952121E-03  0.1105208E+04  0.7818609E-02  0.9200131E-01
        2   -1    0    0  501    0  0.00000000000E+00  0.00000000000E+00  0.61379699267E+03  0.61379699267E+03  0.25500000920E-02 0.  1.
       -2   -1    0    0    0  501  0.00000000000E+00  0.00000000000E+00 -0.49751169664E+03  0.49751169665E+03  0.25500000920E-02 0. -1.
    10030    2    1    2    0    0  0.00000000000E+00  0.00000000000E+00  0.11628529603E+03  0.11113086893E+04  0.11052080044E+04 0.  0.
        3    1    3    3  502    0  0.18763883773E+03 -0.24903375004E+02 -0.46389814978E+03  0.50102895633E+03  0.10100000352E+00 0. -1.
       -3    1    3    3    0  502 -0.18763883773E+03  0.24903375004E+02  0.58018344581E+03  0.61027973299E+03  0.10100000352E+00 0.  1.
</event>
<event>
 5   0  0.7537480E-03  0.1093982E+04  0.7818609E-02  0.9211078E-01
       -2   -1    0    0    0  501  0.00000000000E+00  0.00000000000E+00  0.13976191743E+04  0.13976191743E+04  0.25500000920E-02 0. -1.
        2   -1    0    0  501    0  0.00000000000E+00  0.00000000000E+00 -0.21407758490E+03  0.21407758491E+03  0.25500000920E-02 0.  1.
    10030    2    1    2    0    0  0.00000000000E+00  0.00000000000E+00  0.11835415894E+04  0.16116967592E+04  0.10939816040E+04 0.  0.
        1    1    3    3  502    0  0.43174635277E+02 -0.34230081649E+03  0.12170998007E+04  0.12650556600E+04  0.50400001928E-02 0. -1.
       -1    1    3    3    0  502 -0.43174635277E+02  0.34230081649E+03 -0.33558211249E+02  0.34664109922E+03  0.50400001928E-02 0.  1.
</event>
<event>
 5   0  0.7952121E-03  0.1087218E+04  0.7818609E-02  0.9217740E-01
       -2   -1    0    0    0  501  0.00000000000E+00  0.00000000000E+00  0.30940387116E+04  0.30940387116E+04  0.25500000920E-02 0. -1.
        2   -1    0    0  501    0  0.00000000000E+00  0.00000000000E+00 -0.95509708911E+02  0.95509708945E+02  0.25500000920E-02 0.  1.
    10030    2    1    2    0    0  0.00000000000E+00  0.00000000000E+00  0.29985290027E+04  0.31895484206E+04  0.10872179851E+04 0.  0.
        3    1    3    3  502    0  0.31000356367E+03  0.35649434852E+03  0.71032687212E+03  0.85308540339E+03  0.10100000352E+00 0.  1.
       -3    1    3    3    0  502 -0.31000356367E+03 -0.35649434852E+03  0.22882021306E+04  0.23364630172E+04  0.10100000352E+00 0. -1.
</event>
<event>
 5   0  0.4641021E-03  0.1100694E+04  0.7818609E-02  0.9204516E-01
        1   -1    0    0  501    0  0.00000000000E+00  0.00000000000E+00  0.56049662474E+03  0.56049662477E+03  0.50400001928E-02 0.  1.
       -1   -1    0    0    0  501  0.00000000000E+00  0.00000000000E+00 -0.54038069719E+03  0.54038069722E+03  0.50400001928E-02 0. -1.
    10030    2    1    2    0    0  0.00000000000E+00  0.00000000000E+00  0.20115927550E+02  0.11008773220E+04  0.11006935212E+04 0.  0.
        1    1    3    3  502    0  0.22967428458E+03  0.28983103780E+03 -0.39759965809E+03  0.54298968278E+03  0.50400001928E-02 0. -1.
       -1    1    3    3    0  502 -0.22967428458E+03 -0.28983103780E+03  0.41771558564E+03  0.55788763921E+03  0.50400001928E-02 0.  1.
</event>
<event>
 5   0  0.4298101E-03  0.1097065E+04  0.7818609E-02  0.9208058E-01
        1   -1    0    0  501    0  0.00000000000E+00  0.00000000000E+00  0.39289498116E+03  0.39289498119E+03  0.50400001928E-02 0. -1.
       -1   -1    0    0    0  501  0.00000000000E+00  0.00000000000E+00 -0.76582229775E+03  0.76582229777E+03  0.50400001928E-02 0.  1.
    10030    2    1    2    0    0  0.00000000000E+00  0.00000000000E+00 -0.37292731659E+03  0.11587172790E+04  0.10970646969E+04 0.  0.
        3    1    3    3  502    0 -0.19109868627E+03 -0.35840078409E+03  0.20292524126E+03  0.45403578458E+03  0.10100000352E+00 0. -1.
       -3    1    3    3    0  502  0.19109868627E+03  0.35840078409E+03 -0.57585255786E+03  0.70468149438E+03  0.10100000352E+00 0.  1.
</event>
<event>
 5   0  0.7537480E-03  0.1116080E+04  0.7818609E-02  0.9189660E-01
       -2   -1    0    0    0  501  0.00000000000E+00  0.00000000000E+00  0.10240453587E+03  0.10240453590E+03  0.25500000920E-02 0.  1.
        2   -1    0    0  501    0  0.00000000000E+00  0.00000000000E+00 -0.30409634230E+04  0.30409634230E+04  0.25500000920E-02 0. -1.
    10030    2    1    2    0    0  0.00000000000E+00  0.00000000000E+00 -0.29385588872E+04  0.31433679589E+04  0.11160796531E+04 0.  0.
        1    1    3    3  502    0 -0.27287629343E+03  0.16622952424E+03 -0.18073346883E+03  0.36709441977E+03  0.50400001928E-02 0.  1.
       -1    1    3    3    0  502  0.27287629343E+03 -0.16622952424E+03 -0.27578254183E+04  0.27762735392E+04  0.50400001928E-02 0. -1.
</event>
<event>
 5   0  0.4598561E-03  0.1048953E+04  0.7818609E-02  0.9256426E-01
        1   -1    0    0  501    0  0.00000000000E+00  0.00000000000E+00  0.37006516348E+03  0.37006516352E+03  0.50400001928E-02 0. -1.
       -1   -1    0    0    0  501  0.00000000000E+00  0.00000000000E+00 -0.74331608571E+03  0.74331608572E+03  0.50400001928E-02 0.  1.
    10030    2    1    2    0    0  0.00000000000E+00  0.00000000000E+00 -0.37325092223E+03  0.11133812492E+04  0.10489525991E+04 0.  0.
        2    1    3    3  502    0  0.32954065331E+03  0.11475621376E+03  0.22897150840E+03  0.41736552619E+03  0.25500000920E-02 0. -1.
       -2    1    3    3    0  502 -0.32954065331E+03 -0.11475621376E+03 -0.60222243063E+03  0.69601572306E+03  0.25500000920E-02 0.  1.
</event>
<event>
 5   0  0.7537480E-03  0.1114494E+04  0.7818609E-02  0.9191179E-01
       -2   -1    0    0    0  501  0.00000000000E+00  0.00000000000E+00  0.28106111774E+03  0.28106111775E+03  0.25500000920E-02 0. -1.
        2   -1    0    0  501    0  0.00000000000E+00  0.00000000000E+00 -0.11048284697E+04  0.11048284697E+04  0.25500000920E-02 0.  1.
    10030    2    1    2    0    0  0.00000000000E+00  0.00000000000E+00 -0.82376735200E+03  0.13858895875E+04  0.11144941895E+04 0.  0.
        1    1    3    3  502    0 -0.84481607038E+02 -0.27483058134E+03 -0.10054652667E+04  0.10457673704E+04  0.50400001928E-02 0.  1.
       -1    1    3    3    0  502  0.84481607038E+02  0.27483058134E+03  0.18169791468E+03  0.34012221714E+03  0.50400001928E-02 0. -1.
</event>
<event>
 5   0  0.2992375E-03  0.1105124E+04  0.7818609E-02  0.9200212E-01
        4   -1    0    0  501    0  0.00000000000E+00  0.00000000000E+00  0.62538976297E+03  0.62539105249E+03  0.12699999809E+01 0. -1.
       -4   -1    0    0    0  501  0.00000000000E+00  0.00000000000E+00 -0.48821256443E+03  0.48821421627E+03  0.12699999809E+01 0.  1.
    10030    2    1    2    0    0  0.00000000000E+00  0.00000000000E+00  0.13717719854E+03  0.11136052688E+04  0.11051240251E+04 0.  0.
        4    1    3    3  502    0 -0.19793203502E+03 -0.33450316354E+03 -0.32717701907E+03  0.50805105217E+03  0.12699999809E+01 0.  1.
       -4    1    3    3    0  502  0.19793203502E+03  0.33450316354E+03  0.46435421761E+03  0.60555421658E+03  0.12699999809E+01 0. -1.
</event>
<event>
 5   0  0.7766551E-03  0.1096088E+04  0.7818609E-02  0.9209013E-01
       -2   -1    0    0    0  501  0.00000000000E+00  0.00000000000E+00  0.45549745107E+03  0.45549745108E+03  0.25500000920E-02 0. -1.
        2   -1    0    0  501    0  0.00000000000E+00  0.00000000000E+00 -0.65939429664E+03  0.65939429665E+03  0.25500000920E-02 0.  1.
    10030    2    1    2    0    0  0.00000000000E+00  0.00000000000E+00 -0.20389684557E+03  0.11148917477E+04  0.10960883566E+04 0.  0.
        5    1    3    3  502    0  0.43110713741E+03 -0.25602191225E+03 -0.32694381577E+03  0.59859412973E+03  0.46999998093E+01 0.  1.
       -5    1    3    3    0  502 -0.43110713741E+03  0.25602191225E+03  0.12304697020E+03  0.51629761800E+03  0.46999998093E+01 0. -1.
</event>
<event>
 5   0  0.4504740E-03  0.1110743E+04  0.7818609E-02  0.9194784E-01
        1   -1    0    0  501    0  0.00000000000E+00  0.00000000000E+00  0.87493580905E+03  0.87493580907E+03  0.50400001928E-02 0.  1.
       -1   -1    0    0    0  501  0.00000000000E+00  0.00000000000E+00 -0.35252573151E+03  0.35252573154E+03  0.50400001928E-02 0. -1.
    10030    2    1    2    0    0  0.00000000000E+00  0.00000000000E+00  0.52241007754E+03  0.12274615406E+04  0.11107427896E+04 0.  0.
        5    1    3    3  502    0 -0.44861274995E+03  0.27125643090E+03  0.58694947250E+02  0.52754207183E+03  0.46999998093E+01 0.  1.
       -5    1    3    3    0  502  0.44861274995E+03 -0.27125643090E+03  0.46371513029E+03  0.69991946878E+03  0.46999998093E+01 0. -1.
</event>
<event>
 5   0  0.2992375E-03  0.1080894E+04  0.7818609E-02  0.9224016E-01
       -3   -1    0    0    0  501  0.00000000000E+00  0.00000000000E+00  0.93459062324E+03  0.93459062870E+03  0.10100000352E+00 0.  1.
        3   -1    0    0  501    0  0.00000000000E+00  0.00000000000E+00 -0.31252509235E+03  0.31252510867E+03  0.10100000352E+00 0. -1.
    10030    2    1    2    0    0  0.00000000000E+00  0.00000000000E+00  0.62206553089E+03  0.12471157374E+04  0.10808941380E+04 0.  0.
        1    1    3    3  502    0 -0.50362144477E+03  0.12307306192E+03  0.48715553333E+03  0.71140849860E+03  0.50400001928E-02 0.  1.
       -1    1    3    3    0  502  0.50362144477E+03 -0.12307306192E+03  0.13490999757E+03  0.53570723877E+03  0.50400001928E-02 0. -1.
</event>
<event>
 5   0  0.4641021E-03  0.1118966E+04  0.7818609E-02  0.9186901E-01
       -1   -1    0    0    0  501  0.00000000000E+00  0.00000000000E+00  0.16882591713E+03  0.16882591720E+03  0.50400001928E-02 0. -1.
        1   -1    0    0  501    0  0.00000000000E+00  0.00000000000E+00 -0.18541057732E+04  0.18541057732E+04  0.50400001928E-02 0.  1.
    10030    2    1    2    0    0  0.00000000000E+00  0.00000000000E+00 -0.16852798560E+04  0.20229316904E+04  0.11189657862E+04 0.  0.
        1    1    3    3  502    0  0.41503991361E+03  0.27679650585E+03 -0.38476013746E+03  0.63001174508E+03  0.50400001928E-02 0. -1.
       -1    1    3    3    0  502 -0.41503991361E+03 -0.27679650585E+03 -0.13005197186E+04  0.13929199453E+04  0.50400001928E-02 0.  1.
</event>
<event>
 5   0  0.4298101E-03  0.1071371E+04  0.7818609E-02  0.9233554E-01
       -1   -1    0    0    0  501  0.00000000000E+00  0.00000000000E+00  0.42424252097E+03  0.42424252100E+03  0.50400001928E-02 0.  1.
        1   -1    0    0  501    0  0.00000000000E+00  0.00000000000E+00 -0.67640265227E+03  0.67640265229E+03  0.50400001928E-02 0. -1.
    10030    2    1    2    0    0  0.00000000000E+00  0.00000000000E+00 -0.25216013130E+03  0.11006451733E+04  0.10713706481E+04 0.  0.
        3    1    3    3  502    0  0.56383704097E+01 -0.29841888892E+03  0.33090394310E+03  0.44562658611E+03  0.10100000352E+00 0.  1.
       -3    1    3    3    0  502 -0.56383704097E+01  0.29841888892E+03 -0.58306407440E+03  0.65501858718E+03  0.10100000352E+00 0. -1.
</event>
<event>
 5   0  0.4298101E-03  0.1109010E+04  0.7818609E-02  0.9196454E-01
        1   -1    0    0  501    0  0.00000000000E+00  0.00000000000E+00  0.66992180165E+03  0.66992180167E+03  0.50400001928E-02 0. -1.
       -1   -1    0    0    0  501  0.00000000000E+00  0.00000000000E+00 -0.45897307883E+03  0.45897307886E+03  0.50400001928E-02 0.  1.
    10030    2    1    2    0    0  0.00000000000E+00  0.00000000000E+00  0.21094872282E+03  0.11288948805E+04  0.11090104993E+04 0.  0.
        3    1    3    3  502    0  0.45318498787E+03  0.64179274520E+02  0.42410501827E+03  0.62398773164E+03  0.10100000352E+00 0. -1.
       -3    1    3    3    0  502 -0.45318498787E+03 -0.64179274520E+02 -0.21315629545E+03  0.50490714889E+03  0.10100000352E+00 0.  1.
</event>
<event>
 5   0  0.7537480E-03  0.7326765E+03  0.7818609E-02  0.9662927E-01
       -2   -1    0    0    0  501  0.00000000000E+00  0.00000000000E+00  0.13449503817E+03  0.13449503819E+03  0.25500000920E-02 0.  1.
        2   -1    0    0  501    0  0.00000000000E+00  0.00000000000E+00 -0.99783393833E+03  0.99783393833E+03  0.25500000920E-02 0. -1.
    10030    2    1    2    0    0  0.00000000000E+00  0.00000000000E+00 -0.86333890016E+03  0.11323289765E+04  0.73267650060E+03 0.  0.
        1    1    3    3  502    0  0.72603340362E+02  0.25244908786E+03 -0.37039018008E+02  0.26528037219E+03  0.50400001928E-02 0.  1.
       -1    1    3    3    0  502 -0.72603340362E+02 -0.25244908786E+03 -0.82629988215E+03  0.86704860432E+03  0.50400001928E-02 0. -1.
</event>
<event>
 5   0  0.4428114E-03  0.1097449E+04  0.7818609E-02  0.9207682E-01
       -1   -1    0    0    0  501  0.00000000000E+00  0.00000000000E+00  0.34812786258E+03  0.34812786262E+03  0.50400001928E-02 0. -1.
        1   -1    0    0  501    0  0.00000000000E+00  0.00000000000E+00 -0.86490829156E+03  0.86490829157E+03  0.50400001928E-02 0.  1.
    10030    2    1    2    0    0  0.00000000000E+00  0.00000000000E+00 -0.51678042897E+03  0.12130361542E+04  0.10974491786E+04 0.  0.
        4    1    3    3  502    0 -0.29011168677E+03  0.36866242692E+03 -0.57301013262E+03  0.74055317217E+03  0.12699999809E+01 0. -1.
       -4    1    3    3    0  502  0.29011168677E+03 -0.36866242692E+03  0.56229703647E+02  0.47248298202E+03  0.12699999809E+01 0.  1.
</event>
<event>
 5   0  0.4641021E-03  0.1106576E+04  0.7818609E-02  0.9198806E-01
       -1   -1    0    0    0  501  0.00000000000E+00  0.00000000000E+00  0.37313705008E+03  0.37313705011E+03  0.50400001928E-02 0. -1.
        1   -1    0    0  501    0  0.00000000000E+00  0.00000000000E+00 -0.82041660227E+03  0.82041660228E+03  0.50400001928E-02 0.  1.
    10030    2    1    2    0    0  0.00000000000E+00  0.00000000000E+00 -0.44727955219E+03  0.11935536524E+04  0.11065763974E+04 0.  0.
        1    1    3    3  502    0 -0.16365561989E+03 -0.48848786623E+03 -0.44130408172E+03  0.67834567143E+03  0.50400001928E-02 0.  1.
       -1    1    3    3    0  502  0.16365561989E+03  0.48848786623E+03 -0.59754704696E+01  0.51520798096E+03  0.50400001928E-02 0. -1.
</event>
<event>
 5   0  0.7712816E-03  0.1107291E+04  0.7818609E-02  0.9198114E-01
       -2   -1    0    0    0  501  0.00000000000E+00  0.00000000000E+00  0.35278818230E+03  0.35278818231E+03  0.25500000920E-02 0. -1.
        2   -1    0    0  501    0  0.00000000000E+00  0.00000000000E+00 -0.86885986089E+03  0.86885986090E+03  0.25500000920E-02 0.  1.
    10030    2    1    2    0    0  0.00000000000E+00  0.00000000000E+00 -0.51607167859E+03  0.12216480432E+04  0.11072912733E+04 0.  0.
        2    1    3    3  502    0  0.20123789526E+03 -0.35573253905E+03 -0.67007832985E+03  0.78488680584E+03  0.25500000920E-02 0.  1.
       -2    1    3    3    0  502 -0.20123789526E+03  0.35573253905E+03  0.15400665126E+03  0.43676123737E+03  0.25500000920E-02 0. -1.
</event>
<event>
 5   0  0.4298101E-03  0.7435620E+03  0.7818609E-02  0.9645505E-01
       -1   -1    0    0    0  501  0.00000000000E+00  0.00000000000E+00  0.14088391334E+03  0.14088391343E+03  0.50400001928E-02 0. -1.
        1   -1    0    0  501    0  0.00000000000E+00  0.00000000000E+00 -0.98109943032E+03  0.98109943034E+03  0.50400001928E-02 0.  1.
    10030    2    1    2    0    0  0.00000000000E+00  0.00000000000E+00 -0.84021551698E+03  0.11219833438E+04  0.74356204093E+03 0.  0.
        3    1    3    3  502    0 -0.27684206482E+03 -0.55331211949E+02 -0.78512560923E+03  0.83434123974E+03  0.10100000352E+00 0.  1.
       -3    1    3    3    0  502  0.27684206482E+03  0.55331211949E+02 -0.55089907757E+02  0.28764210403E+03  0.10100000352E+00 0. -1.
</event>
<event>
 5   0  0.2992375E-03  0.1120595E+04  0.7818609E-02  0.9185348E-01
       -3   -1    0    0    0  501  0.00000000000E+00  0.00000000000E+00  0.81311292829E+03  0.81311293456E+03  0.10100000352E+00 0. -1.
        3   -1    0    0  501    0  0.00000000000E+00  0.00000000000E+00 -0.38608843080E+03  0.38608844401E+03  0.10100000352E+00 0.  1.
    10030    2    1    2    0    0  0.00000000000E+00  0.00000000000E+00  0.42702449749E+03  0.11992013786E+04  0.11205953886E+04 0.  0.
        3    1    3    3  502    0  0.30708645683E+03 -0.47155826035E+02 -0.28546504244E+03  0.42191950009E+03  0.10100000352E+00 0.  1.
       -3    1    3    3    0  502 -0.30708645683E+03  0.47155826035E+02  0.71248953993E+03  0.77728187848E+03  0.10100000352E+00 0. -1.
</event>
<event>
 5   0  0.7952121E-03  0.1157163E+04  0.7818609E-02  0.9151201E-01
        2   -1    0    0  501    0  0.00000000000E+00  0.00000000000E+00  0.13184495719E+04  0.13184495719E+04  0.25500000920E-02 0. -1.
       -2   -1    0    0    0  501  0.00000000000E+00  0.00000000000E+00 -0.25390171184E+03  0.25390171185E+03  0.25500000920E-02 0.  1.
    10030    2    1    2    0    0  0.00000000000E+00  0.00000000000E+00  0.10645478601E+04  0.15723512838E+04  0.11571630884E+04 0.  0.
        3    1    3    3  502    0 -0.33733495875E+03  0.11166519542E+03  0.11527147073E+04  0.12062401075E+04  0.10100000352E+00 0. -1.
       -3    1    3    3    0  502  0.33733495875E+03 -0.11166519542E+03 -0.88166847218E+02  0.36611117630E+03  0.10100000352E+00 0.  1.
</event>
<event>
 5   0  0.4641021E-03  0.1157238E+04  0.7818609E-02  0.9151132E-01
        1   -1    0    0  501    0  0.00000000000E+00  0.00000000000E+00  0.10604688259E+04  0.10604688259E+04  0.50400001928E-02 0. -1.
       -1   -1    0    0    0  501  0.00000000000E+00  0.00000000000E+00 -0.31570930768E+03  0.31570930772E+03  0.50400001928E-02 0.  1.
    10030    2    1    2    0    0  0.00000000000E+00  0.00000000000E+00  0.74475951818E+03  0.13761781336E+04  0.11572378820E+04 0.  0.
        1    1    3    3  502    0 -0.48595245812E+03 -0.66622908749E+02  0.73704728123E+01  0.49055349088E+03  0.50400001928E-02 0.  1.
       -1    1    3    3    0  502  0.48595245812E+03  0.66622908749E+02  0.73738904537E+03  0.88562464271E+03  0.50400001928E-02 0. -1.
</event>
<event>
 5   0  0.7712816E-03  0.1116672E+04  0.7818609E-02  0.9189093E-01
       -2   -1    0    0    0  501  0.00000000000E+00  0.00000000000E+00  0.66158646017E+03  0.66158646018E+03  0.25500000920E-02 0.  1.
        2   -1    0    0  501    0  0.00000000000E+00  0.00000000000E+00 -0.47119957828E+03  0.47119957829E+03  0.25500000920E-02 0. -1.
    10030    2    1    2    0    0  0.00000000000E+00  0.00000000000E+00  0.19038688189E+03  0.11327860385E+04  0.11166723083E+04 0.  0.
        2    1    3    3  502    0 -0.25784169355E+03 -0.31691710576E+03 -0.29085083542E+03  0.50151071706E+03  0.25500000920E-02 0. -1.
       -2    1    3    3    0  502  0.25784169355E+03  0.31691710576E+03  0.48123771731E+03  0.63127532141E+03  0.25500000920E-02 0.  1.
</event>
<event>
 5   0  0.4598561E-03  0.1107906E+04  0.7818609E-02  0.9197521E-01
       -1   -1    0    0    0  501  0.00000000000E+00  0.00000000000E+00  0.27427054452E+03  0.27427054457E+03  0.50400001928E-02 0.  1.
        1   -1    0    0  501    0  0.00000000000E+00  0.00000000000E+00 -0.11188359604E+04  0.11188359604E+04  0.50400001928E-02 0. -1.
    10030    2    1    2    0    0  0.00000000000E+00  0.00000000000E+00 -0.84456541590E+03  0.13931065050E+04  0.11079056785E+04 0.  0.
        2    1    3    3  502    0  0.13110103807E+03 -0.17505064896E+03 -0.10622525798E+04  0.10845325054E+04  0.25500000920E-02 0. -1.
       -2    1    3    3    0  502 -0.13110103807E+03  0.17505064896E+03  0.21768716394E+03  0.30857399961E+03  0.25500000920E-02 0.  1.
</event>
<event>
 5   0  0.7952121E-03  0.1094016E+04  0.7818609E-02  0.9211044E-01
       -2   -1    0    0    0  501  0.00000000000E+00  0.00000000000E+00  0.12853493015E+04  0.12853493015E+04  0.25500000920E-02 0. -1.
        2   -1    0    0  501    0  0.00000000000E+00  0.00000000000E+00 -0.23279099460E+03  0.23279099462E+03  0.25500000920E-02 0.  1.
    10030    2    1    2    0    0  0.00000000000E+00  0.00000000000E+00  0.10525583069E+04  0.15181402961E+04  0.10940159822E+04 0.  0.
        3    1    3    3  502    0  0.44660402698E+03 -0.11533841520E+03  0.11824650369E+03  0.47617260817E+03  0.10100000352E+00 0.  1.
       -3    1    3    3    0  502 -0.44660402698E+03  0.11533841520E+03  0.93431180323E+03  0.10419676880E+04  0.10100000352E+00 0. -1.
</event>
<event>
 5   0  0.7766551E-03  0.1092269E+04  0.7818609E-02  0.9212760E-01
       -2   -1    0    0    0  501  0.00000000000E+00  0.00000000000E+00  0.43745051798E+03  0.43745051798E+03  0.25500000920E-02 0.  1.
        2   -1    0    0  501    0  0.00000000000E+00  0.00000000000E+00 -0.68182107720E+03  0.68182107721E+03  0.25500000920E-02 0. -1.
    10030    2    1    2    0    0  0.00000000000E+00  0.00000000000E+00 -0.24437055923E+03  0.11192715952E+04  0.10922691672E+04 0.  0.
        5    1    3    3  502    0 -0.40086838553E+03 -0.36831943306E+03 -0.77680906928E+02  0.54991915823E+03  0.46999998093E+01 0.  1.
       -5    1    3    3    0  502  0.40086838553E+03  0.36831943306E+03 -0.16668965230E+03  0.56935243696E+03  0.46999998093E+01 0. -1.
</event>
<event>
 5   0  0.4598561E-03  0.1063821E+04  0.7818609E-02  0.9241190E-01
        1   -1    0    0  501    0  0.00000000000E+00  0.00000000000E+00  0.74024147839E+03  0.74024147840E+03  0.50400001928E-02 0.  1.
       -1   -1    0    0    0  501  0.00000000000E+00  0.00000000000E+00 -0.38221152129E+03  0.38221152132E+03  0.50400001928E-02 0. -1.
    10030    2    1    2    0    0  0.00000000000E+00  0.00000000000E+00  0.35802995709E+03  0.11224529997E+04  0.10638210782E+04 0.  0.
        2    1    3    3  502    0 -0.29189288030E+03  0.42934099594E+03  0.56905468580E+02  0.52227710722E+03  0.25500000920E-02 0. -1.
       -2    1    3    3    0  502  0.29189288030E+03 -0.42934099594E+03  0.30112448852E+03  0.60017589251E+03  0.25500000920E-02 0.  1.
</event>
<event>
 5   0  0.7952121E-03  0.1135917E+04  0.7818609E-02  0.9170875E-01
        2   -1    0    0  501    0  0.00000000000E+00  0.00000000000E+00  0.39618461485E+03  0.39618461486E+03  0.25500000920E-02 0. -1.
       -2   -1    0    0    0  501  0.00000000000E+00  0.00000000000E+00 -0.81420783767E+03  0.81420783768E+03  0.25500000920E-02 0.  1.
    10030    2    1    2    0    0  0.00000000000E+00  0.00000000000E+00 -0.41802322282E+03  0.12103924525E+04  0.11359165790E+04 0.  0.
        3    1    3    3  502    0 -0.48126201164E+03 -0.15925157980E+03 -0.48193433408E+03  0.69945328800E+03  0.10100000352E+00 0.  1.
       -3    1    3    3    0  502  0.48126201164E+03  0.15925157980E+03  0.63911111259E+02  0.51093916454E+03  0.10100000352E+00 0. -1.
</event>
<event>
 5   0  0.7537480E-03  0.1102975E+04  0.7818609E-02  0.9202297E-01
        2   -1    0    0  501    0  0.00000000000E+00  0.00000000000E+00  0.14640453078E+04  0.14640453078E+04  0.25500000920E-02 0. -1.
       -2   -1    0    0    0  501  0.00000000000E+00  0.00000000000E+00 -0.20773846860E+03  0.20773846862E+03  0.25500000920E-02 0.  1.
    10030    2    1    2    0    0  0.00000000000E+00  0.00000000000E+00  0.12563068392E+04  0.16717837764E+04  0.11029751225E+04 0.  0.
        1    1    3    3  502    0 -0.49688706839E+03 -0.15619218281E+03  0.90285055844E+03  0.10423204342E+04  0.50400001928E-02 0.  1.
       -1    1    3    3    0  502  0.49688706839E+03  0.15619218281E+03  0.35345628071E+03  0.62946334215E+03  0.50400001928E-02 0. -1.
</event>
<event>
 5   0  0.4298101E-03  0.1101135E+04  0.7818609E-02  0.9204087E-01
       -1   -1    0    0    0  501  0.00000000000E+00  0.00000000000E+00  0.71229810181E+03  0.71229810182E+03  0.50400001928E-02 0. -1.
        1   -1    0    0  501    0  0.00000000000E+00  0.00000000000E+00 -0.42555825147E+03  0.42555825150E+03  0.50400001928E-02 0.  1.
    10030    2    1    2    0    0  0.00000000000E+00  0.00000000000E+00  0.28673985033E+03  0.11378563533E+04  0.11011345690E+04 0.  0.
        3    1    3    3  502    0  0.25776089574E+03 -0.34487786098E+03  0.49795007340E+03  0.65828238938E+03  0.10100000352E+00 0. -1.
       -3    1    3    3    0  502 -0.25776089574E+03  0.34487786098E+03 -0.21121022306E+03  0.47957396395E+03  0.10100000352E+00 0.  1.
</event>
<event>
 5   0  0.7952121E-03  0.1166430E+04  0.7818609E-02  0.9142759E-01
       -2   -1    0    0    0  501  0.00000000000E+00  0.00000000000E+00  0.42354289979E+03  0.42354289980E+03  0.25500000920E-02 0.  1.
        2   -1    0    0  501    0  0.00000000000E+00  0.00000000000E+00 -0.80308167131E+03  0.80308167132E+03  0.25500000920E-02 0. -1.
    10030    2    1    2    0    0  0.00000000000E+00  0.00000000000E+00 -0.37953877152E+03  0.12266245711E+04  0.11664296633E+04 0.  0.
        3    1    3    3  502    0  0.35632025621E+02  0.62187345581E+02  0.41889404248E+03  0.42498133633E+03  0.10100000352E+00 0.  1.
       -3    1    3    3    0  502 -0.35632025621E+02 -0.62187345581E+02 -0.79843281400E+03  0.80164323479E+03  0.10100000352E+00 0. -1.
</event>
<event>
 5   0  0.4428114E-03  0.1103964E+04  0.7818609E-02  0.9201337E-01
        1   -1    0    0  501    0  0.00000000000E+00  0.00000000000E+00  0.22476398537E+04  0.22476398537E+04  0.50400001928E-02 0. -1.
       -1   -1    0    0    0  501  0.00000000000E+00  0.00000000000E+00 -0.13555744532E+03  0.13555744541E+03  0.50400001928E-02 0.  1.
    10030    2    1    2    0    0  0.00000000000E+00  0.00000000000E+00  0.21120824084E+04  0.23831972991E+04  0.11039643412E+04 0.  0.
        4    1    3    3  502    0 -0.32288741331E+03 -0.39722547524E+02  0.93396209246E+02  0.33846510493E+03  0.12699999809E+01 0.  1.
       -4    1    3    3    0  502  0.32288741331E+03  0.39722547524E+02  0.20186861991E+04  0.20447321942E+04  0.12699999809E+01 0. -1.
</event>
<event>
 5   0  0.4641021E-03  0.1101342E+04  0.7818609E-02  0.9203884E-01
       -1   -1    0    0    0  501  0.00000000000E+00  0.00000000000E+00  0.61593848815E+03  0.61593848817E+03  0.50400001928E-02 0.  1.
        1   -1    0    0  501    0  0.00000000000E+00  0.00000000000E+00 -0.49231990987E+03  0.49231990990E+03  0.50400001928E-02 0. -1.
    10030    2    1    2    0    0  0.00000000000E+00  0.00000000000E+00  0.12361857828E+03  0.11082583981E+04  0.11013424190E+04 0.  0.
        1    1    3    3  502    0 -0.10144239598E+03 -0.76563258050E+02  0.60097825894E+03  0.61426977781E+03  0.50400001928E-02 0.  1.
       -1    1    3    3    0  502  0.10144239598E+03  0.76563258050E+02 -0.47735968067E+03  0.49398862025E+03  0.50400001928E-02 0. -1.
</event>
<event>
 5   0  0.4298101E-03  0.1108808E+04  0.7818609E-02  0.9196649E-01
        1   -1    0    0  501    0  0.00000000000E+00  0.00000000000E+00  0.28337689942E+04  0.28337689942E+04  0.50400001928E-02 0.  1.
       -1   -1    0    0    0  501  0.00000000000E+00  0.00000000000E+00 -0.10846467183E+03  0.10846467195E+03  0.50400001928E-02 0. -1.
    10030    2    1    2    0    0  0.00000000000E+00  0.00000000000E+00  0.27253043224E+04  0.29422336661E+04  0.11088080522E+04 0.  0.
        3    1    3    3  502    0 -0.97775687798E+02  0.28189836920E+03  0.26025459853E+04  0.26195939364E+04  0.10100000352E+00 0.  1.
       -3    1    3    3    0  502  0.97775687798E+02 -0.28189836920E+03  0.12275833701E+03  0.32263972971E+03  0.10100000352E+00 0. -1.
</event>
<event>
 5   0  0.7738497E-03  0.1095838E+04  0.7818609E-02  0.9209258E-01
       -2   -1    0    0    0  501  0.00000000000E+00  0.00000000000E+00  0.25658781405E+03  0.25658781407E+03  0.25500000920E-02 0. -1.
        2   -1    0    0  501    0  0.00000000000E+00  0.00000000000E+00 -0.11700293958E+04  0.11700293958E+04  0.25500000920E-02 0.  1.
    10030    2    1    2    0    0  0.00000000000E+00  0.00000000000E+00 -0.91344158177E+03  0.14266172099E+04  0.10958380995E+04 0.  0.
        4    1    3    3  502    0  0.43148040510E+03  0.10198167825E+03 -0.37617838339E+02  0.44496327640E+03  0.12699999809E+01 0. -1.
       -4    1    3    3    0  502 -0.43148040510E+03 -0.10198167825E+03 -0.87582374343E+03  0.98165393350E+03  0.12699999809E+01 0.  1.
</event>
<event>
 5   0  0.7738497E-03  0.1085764E+04  0.7818609E-02  0.9219179E-01
        2   -1    0    0  501    0  0.00000000000E+00  0.00000000000E+00  0.10214679957E+04  0.10214679957E+04  0.25500000920E-02 0.  1.
       -2   -1    0    0    0  501  0.00000000000E+00  0.00000000000E+00 -0.28852683025E+03  0.28852683026E+03  0.25500000920E-02 0. -1.
    10030    2    1    2    0    0  0.00000000000E+00  0.00000000000E+00  0.73294116546E+03  0.13099948260E+04  0.10857641052E+04 0.  0.
        4    1    3    3  502    0 -0.16665645650E+03  0.48049087653E+03  0.13731631002E+03  0.52678576178E+03  0.12699999809E+01 0.  1.
       -4    1    3    3    0  502  0.16665645650E+03 -0.48049087653E+03  0.59562485544E+03  0.78320906420E+03  0.12699999809E+01 0. -1.
</event>
<event>
 5   0  0.2992375E-03  0.7589857E+03  0.7818609E-02  0.9621358E-01
       -4   -1    0    0    0  501  0.00000000000E+00  0.00000000000E+00  0.30935519782E+03  0.30935780468E+03  0.12699999809E+01 0. -1.
        4   -1    0    0  501    0  0.00000000000E+00  0.00000000000E+00 -0.46552681519E+03  0.46552854752E+03  0.12699999809E+01 0.  1.
    10030    2    1    2    0    0  0.00000000000E+00  0.00000000000E+00 -0.15617161737E+03  0.77488635220E+03  0.75898569470E+03 0.  0.
        1    1    3    3  502    0  0.10469060656E+03 -0.54112239367E+01  0.29428166258E+03  0.31239574485E+03  0.50400001928E-02 0. -1.
       -1    1    3    3    0  502 -0.10469060656E+03  0.54112239367E+01 -0.45045327995E+03  0.46249060735E+03  0.50400001928E-02 0.  1.
</event>
<event>
 5   0  0.4298101E-03  0.1089754E+04  0.7818609E-02  0.9215236E-01
       -1   -1    0    0    0  501  0.00000000000E+00  0.00000000000E+00  0.40546085244E+03  0.40546085248E+03  0.50400001928E-02 0. -1.
        1   -1    0    0  501    0  0.00000000000E+00  0.00000000000E+00 -0.73223098087E+03  0.73223098089E+03  0.50400001928E-02 0.  1.
    10030    2    1    2    0    0  0.00000000000E+00  0.00000000000E+00 -0.32677012843E+03  0.11376918334E+04  0.10897540965E+04 0.  0.
        3    1    3    3  502    0 -0.16848939803E+03  0.42677968033E+03 -0.47018552279E+03  0.65696575926E+03  0.10100000352E+00 0.  1.
       -3    1    3    3    0  502  0.16848939803E+03 -0.42677968033E+03  0.14341539436E+03  0.48072607411E+03  0.10100000352E+00 0. -1.
</event>
<event>
 5   0  0.4504740E-03  0.1051189E+04  0.7818609E-02  0.9254117E-01
        1   -1    0    0  501    0  0.00000000000E+00  0.00000000000E+00  0.99101664246E+03  0.99101664248E+03  0.50400001928E-02 0.  1.
       -1   -1    0    0    0  501  0.00000000000E+00  0.00000000000E+00 -0.27875388669E+03  0.27875388674E+03  0.50400001928E-02 0. -1.
    10030    2    1    2    0    0  0.00000000000E+00  0.00000000000E+00  0.71226275577E+03  0.12697705292E+04  0.10511893091E+04 0.  0.
        5    1    3    3  502    0  0.48698525480E+03  0.14183965304E+03  0.52243463853E+03  0.72817111114E+03  0.46999998093E+01 0.  1.
       -5    1    3    3    0  502 -0.48698525480E+03 -0.14183965304E+03  0.18982811723E+03  0.54159941807E+03  0.46999998093E+01 0. -1.
</event>
<event>
 5   0  0.7712816E-03  0.1106748E+04  0.7818609E-02  0.9198640E-01
       -2   -1    0    0    0  501  0.00000000000E+00  0.00000000000E+00  0.24864422623E+03  0.24864422624E+03  0.25500000920E-02 0.  1.
        2   -1    0    0  501    0  0.00000000000E+00  0.00000000000E+00 -0.12315692267E+04  0.12315692267E+04  0.25500000920E-02 0. -1.
    10030    2    1    2    0    0  0.00000000000E+00  0.00000000000E+00 -0.98292500048E+03  0.14802134530E+04  0.11067476269E+04 0.  0.
        2    1    3    3  502    0  0.53711843137E+03 -0.13139681980E+03 -0.46273875619E+03  0.72103293271E+03  0.25500000920E-02 0. -1.
       -2    1    3    3    0  502 -0.53711843137E+03  0.13139681980E+03 -0.52018624428E+03  0.75918052024E+03  0.25500000920E-02 0.  1.
</event>
<event>
 5   0  0.7952121E-03  0.1080520E+04  0.7818609E-02  0.9224389E-01
       -2   -1    0    0    0  501  0.00000000000E+00  0.00000000000E+00  0.35453009109E+03  0.35453009110E+03  0.25500000920E-02 0. -1.
        2   -1    0    0  501    0  0.00000000000E+00  0.00000000000E+00 -0.82328970953E+03  0.82328970954E+03  0.25500000920E-02 0.  1.
    10030    2    1    2    0    0  0.00000000000E+00  0.00000000000E+00 -0.46875961844E+03  0.11778198006E+04  0.10805202001E+04 0.  0.
        3    1    3    3  502    0  0.40055573841E+03  0.66959640010E+02 -0.62276847056E+03  0.74348441214E+03  0.10100000352E+00 0.  1.
       -3    1    3    3    0  502 -0.40055573841E+03 -0.66959640010E+02  0.15400885212E+03  0.43433538849E+03  0.10100000352E+00 0. -1.
</event>
<event>
 5   0  0.7537480E-03  0.1114456E+04  0.7818609E-02  0.9191216E-01
       -2   -1    0    0    0  501  0.00000000000E+00  0.00000000000E+00  0.46898862392E+03  0.46898862392E+03  0.25500000920E-02 0. -1.
        2   -1    0    0  501    0  0.00000000000E+00  0.00000000000E+00 -0.66206920781E+03  0.66206920782E+03  0.25500000920E-02 0.  1.
    10030    2    1    2    0    0  0.00000000000E+00  0.00000000000E+00 -0.19308058390E+03  0.11310578317E+04  0.11144557896E+04 0.  0.
        1    1    3    3  502    0 -0.20968865162E+03  0.51626797196E+03 -0.95537029595E+02  0.56535765099E+03  0.50400001928E-02 0.  1.
       -1    1    3    3    0  502  0.20968865162E+03 -0.51626797196E+03 -0.97543554301E+02  0.56570018075E+03  0.50400001928E-02 0. -1.
</event>
<event>
 5   0  0.7712816E-03  0.1085768E+04  0.7818609E-02  0.9219175E-01
        2   -1    0    0  501    0  0.00000000000E+00  0.00000000000E+00  0.74183840472E+03  0.74183840473E+03  0.25500000920E-02 0.  1.
       -2   -1    0    0    0  501  0.00000000000E+00  0.00000000000E+00 -0.39728735545E+03  0.39728735546E+03  0.25500000920E-02 0. -1.
    10030    2    1    2    0    0  0.00000000000E+00  0.00000000000E+00  0.34455104927E+03  0.11391257602E+04  0.10857679641E+04 0.  0.
        2    1    3    3  502    0  0.51463989177E+03  0.12563835950E+03  0.29678276612E+03  0.60722255051E+03  0.25500000920E-02 0.  1.
       -2    1    3    3    0  502 -0.51463989177E+03 -0.12563835950E+03  0.47768283153E+02  0.53190320968E+03  0.25500000920E-02 0. -1.
</event>
<event>
 5   0  0.7952121E-03  0.1091568E+04  0.7818609E-02  0.9213449E-01
        2   -1    0    0  501    0  0.00000000000E+00  0.00000000000E+00  0.76300670866E+03  0.76300670867E+03  0.25500000920E-02 0. -1.
       -2   -1    0    0    0  501  0.00000000000E+00  0.00000000000E+00 -0.39040334557E+03  0.39040334558E+03  0.25500000920E-02 0.  1.
    10030    2    1    2    0    0  0.00000000000E+00  0.00000000000E+00  0.37260336309E+03  0.11534100542E+04  0.10915683611E+04 0.  0.
        3    1    3    3  502    0 -0.88119321864E+02 -0.93073425529E+02 -0.37427559713E+03  0.39561333425E+03  0.10100000352E+00 0.  1.
       -3    1    3    3    0  502  0.88119321864E+02  0.93073425529E+02  0.74687896022E+03  0.75779672000E+03  0.10100000352E+00 0. -1.
</event>
<event>
 5   0  0.4298101E-03  0.1094935E+04  0.7818609E-02  0.9210142E-01
       -1   -1    0    0    0  501  0.00000000000E+00  0.00000000000E+00  0.53550788378E+03  0.53550788380E+03  0.50400001928E-02 0.  1.
        1   -1    0    0  501    0  0.00000000000E+00  0.00000000000E+00 -0.55969453281E+03  0.55969453284E+03  0.50400001928E-02 0. -1.
    10030    2    1    2    0    0  0.00000000000E+00  0.00000000000E+00 -0.24186649037E+02  0.10952024166E+04  0.10949353129E+04 0.  0.
        3    1    3    3  502    0 -0.54175602405E+03 -0.36095272562E+02  0.58054849140E+02  0.54605204331E+03  0.10100000352E+00 0. -1.
       -3    1    3    3    0  502  0.54175602405E+03  0.36095272562E+02 -0.82241498177E+02  0.54915037332E+03  0.10100000352E+00 0.  1.
</event>
<event>
 5   0  0.7766551E-03  0.1096214E+04  0.7818609E-02  0.9208890E-01
        2   -1    0    0  501    0  0.00000000000E+00  0.00000000000E+00  0.15018215938E+04  0.15018215938E+04  0.25500000920E-02 0.  1.
       -2   -1    0    0    0  501  0.00000000000E+00  0.00000000000E+00 -0.20003804917E+03  0.20003804919E+03  0.25500000920E-02 0. -1.
    10030    2    1    2    0    0  0.00000000000E+00  0.00000000000E+00  0.13017835446E+04  0.17018596430E+04  0.10962143255E+04 0.  0.
        5    1    3    3  502    0  0.66883877630E+02  0.16822256867E+03  0.14540355506E+04  0.14652691760E+04  0.46999998093E+01 0.  1.
       -5    1    3    3    0  502 -0.66883877630E+02 -0.16822256867E+03 -0.15225200605E+03  0.23659046692E+03  0.46999998093E+01 0. -1.
</event>
<event>
 5   0  0.4504740E-03  0.1134433E+04  0.7818609E-02  0.9172266E-01
        1   -1    0    0  501    0  0.00000000000E+00  0.00000000000E+00  0.36836956719E+03  0.36836956722E+03  0.50400001928E-02 0. -1.
       -1   -1    0    0    0  501  0.00000000000E+00  0.00000000000E+00 -0.87340118991E+03  0.87340118993E+03  0.50400001928E-02 0.  1.
    10030    2    1    2    0    0  0.00000000000E+00  0.00000000000E+00 -0.50503162272E+03  0.12417707572E+04  0.11344327540E+04 0.  0.
        5    1    3    3  502    0 -0.46842324932E+03 -0.27094510922E+03 -0.66492745986E+02  0.54522928019E+03  0.46999998093E+01 0.  1.
       -5    1    3    3    0  502  0.46842324932E+03  0.27094510922E+03 -0.43853887674E+03  0.69654147696E+03  0.46999998093E+01 0. -1.
</event>
<event>
 5   0  0.4298101E-03  0.1058083E+04  0.7818609E-02  0.9247038E-01
        1   -1    0    0  501    0  0.00000000000E+00  0.00000000000E+00  0.55424496165E+03  0.55424496167E+03  0.50400001928E-02 0. -1.
       -1   -1    0    0    0  501  0.00000000000E+00  0.00000000000E+00 -0.50498432962E+03  0.50498432965E+03  0.50400001928E-02 0.  1.
    10030    2    1    2    0    0  0.00000000000E+00  0.00000000000E+00  0.49260632025E+02  0.10592292913E+04  0.10580832111E+04 0.  0.
        3    1    3    3  502    0  0.41520628653E+02  0.89461511424E+02  0.54496026326E+03  0.55381316648E+03  0.10100000352E+00 0. -1.
       -3    1    3    3    0  502 -0.41520628653E+02 -0.89461511424E+02 -0.49569963124E+03  0.50541612483E+03  0.10100000352E+00 0.  1.
</event>
<event>
 5   0  0.7952121E-03  0.1125648E+04  0.7818609E-02  0.9180548E-01
       -2   -1    0    0    0  501  0.00000000000E+00  0.00000000000E+00  0.16079882526E+03  0.16079882528E+03  0.25500000920E-02 0.  1.
        2   -1    0    0  501    0  0.00000000000E+00  0.00000000000E+00 -0.19699837926E+04  0.19699837926E+04  0.25500000920E-02 0. -1.
    10030    2    1    2    0    0  0.00000000000E+00  0.00000000000E+00 -0.18091849674E+04  0.21307826179E+04  0.11256483992E+04 0.  0.
        3    1    3    3  502    0  0.33914080075E+03 -0.19887927293E+03 -0.14222566985E+03  0.41808802817E+03  0.10100000352E+00 0.  1.
       -3    1    3    3    0  502 -0.33914080075E+03  0.19887927293E+03 -0.16669592975E+04  0.17126945897E+04  0.10100000352E+00 0. -1.
</event>
<event>
 5   0  0.4641021E-03  0.1041377E+04  0.7818609E-02  0.9264292E-01
       -1   -1    0    0    0  501  0.00000000000E+00  0.00000000000E+00  0.49067159989E+03  0.49067159992E+03  0.50400001928E-02 0.  1.
        1   -1    0    0  501    0  0.00000000000E+00  0.00000000000E+00 -0.55254157132E+03  0.55254157134E+03  0.50400001928E-02 0. -1.
    10030    2    1    2    0    0  0.00000000000E+00  0.00000000000E+00 -0.61869971424E+02  0.10432131713E+04  0.10413768901E+04 0.  0.
        1    1    3    3  502    0  0.29241693717E+03 -0.78030912590E+02 -0.45538006929E+03  0.54677920223E+03  0.50400001928E-02 0. -1.
       -1    1    3    3    0  502 -0.29241693717E+03  0.78030912590E+02  0.39351009786E+03  0.49643396903E+03  0.50400001928E-02 0.  1.
</event>
<event>
 5   0  0.4298101E-03  0.1115870E+04  0.7818609E-02  0.9189860E-01
        1   -1    0    0  501    0  0.00000000000E+00  0.00000000000E+00  0.47146163045E+03  0.47146163047E+03  0.50400001928E-02 0.  1.
       -1   -1    0    0    0  501  0.00000000000E+00  0.00000000000E+00 -0.66026939108E+03  0.66026939110E+03  0.50400001928E-02 0. -1.
    10030    2    1    2    0    0  0.00000000000E+00  0.00000000000E+00 -0.18880776063E+03  0.11317310216E+04  0.11158703933E+04 0.  0.
        3    1    3    3  502    0 -0.82075636299E+02  0.31591659687E+03  0.36452301169E+03  0.48930230175E+03  0.10100000352E+00 0.  1.
       -3    1    3    3    0  502  0.82075636299E+02 -0.31591659687E+03 -0.55333077232E+03  0.64242871982E+03  0.10100000352E+00 0. -1.
</event>
<event>
 5   0  0.4598561E-03  0.1115281E+04  0.7818609E-02  0.9190425E-01
        1   -1    0    0  501    0  0.00000000000E+00  0.00000000000E+00  0.15372124005E+04  0.15372124005E+04  0.50400001928E-02 0. -1.
       -1   -1    0    0    0  501  0.00000000000E+00  0.00000000000E+00 -0.20229011912E+03  0.20229011918E+03  0.50400001928E-02 0.  1.
    10030    2    1    2    0    0  0.00000000000E+00  0.00000000000E+00  0.13349222814E+04  0.17395025197E+04  0.11152809147E+04 0.  0.
        2    1    3    3  502    0 -0.34674336701E+03 -0.43672823624E+03  0.66840314897E+03  0.87047417219E+03  0.25500000920E-02 0.  1.
       -2    1    3    3    0  502  0.34674336701E+03  0.43672823624E+03  0.66651913245E+03  0.86902834753E+03  0.25500000920E-02 0. -1.
</event>
<event>
 5   0  0.4504740E-03  0.1122755E+04  0.7818609E-02  0.9183292E-01
        1   -1    0    0  501    0  0.00000000000E+00  0.00000000000E+00  0.32665301114E+03  0.32665301118E+03  0.50400001928E-02 0.  1.
       -1   -1    0    0    0  501  0.00000000000E+00  0.00000000000E+00 -0.96476965139E+03  0.96476965140E+03  0.50400001928E-02 0. -1.
    10030    2    1    2    0    0  0.00000000000E+00  0.00000000000E+00 -0.63811664024E+03  0.12914226626E+04  0.11227553816E+04 0.  0.
        5    1    3    3  502    0  0.37787465838E+03  0.13972226231E+03 -0.76869416660E+03  0.86788500379E+03  0.46999998093E+01 0. -1.
       -5    1    3    3    0  502 -0.37787465838E+03 -0.13972226231E+03  0.13057752636E+03  0.42353765879E+03  0.46999998093E+01 0.  1.
</event>
<event>
 5   0  0.7738497E-03  0.1089859E+04  0.7818609E-02  0.9215132E-01
       -2   -1    0    0    0  501  0.00000000000E+00  0.00000000000E+00  0.19680512377E+03  0.19680512378E+03  0.25500000920E-02 0.  1.
        2   -1    0    0  501    0  0.00000000000E+00  0.00000000000E+00 -0.15088444292E+04  0.15088444292E+04  0.25500000920E-02 0. -1.
    10030    2    1    2    0    0  0.00000000000E+00  0.00000000000E+00 -0.13120393054E+04  0.17056495530E+04  0.10898592838E+04 0.  0.
        4    1    3    3  502    0  0.48804422690E+03 -0.57692458025E+02 -0.28755470242E+03  0.56938994276E+03  0.12699999809E+01 0.  1.
       -4    1    3    3    0  502 -0.48804422690E+03  0.57692458025E+02 -0.10244846030E+04  0.11362596102E+04  0.12699999809E+01 0. -1.
</event>
<event>
 5   0  0.7537480E-03  0.1103828E+04  0.7818609E-02  0.9201469E-01
       -2   -1    0    0    0  501  0.00000000000E+00  0.00000000000E+00  0.52791635733E+03  0.52791635734E+03  0.25500000920E-02 0.  1.
        2   -1    0    0  501    0  0.00000000000E+00  0.00000000000E+00 -0.57700225424E+03  0.57700225425E+03  0.25500000920E-02 0. -1.
    10030    2    1    2    0    0  0.00000000000E+00  0.00000000000E+00 -0.49085896909E+02  0.11049186116E+04  0.11038277551E+04 0.  0.
        1    1    3    3  502    0 -0.65158420692E+02  0.26690100197E+03 -0.50368828825E+03  0.57374528877E+03  0.50400001928E-02 0. -1.
       -1    1    3    3    0  502  0.65158420692E+02 -0.26690100197E+03  0.45460239134E+03  0.53117332282E+03  0.50400001928E-02 0.  1.
</event>
<event>
 5   0  0.4428114E-03  0.1160877E+04  0.7818609E-02  0.9147807E-01
       -1   -1    0    0    0  501  0.00000000000E+00  0.00000000000E+00  0.85963270858E+03  0.85963270860E+03  0.50400001928E-02 0.  1.
        1   -1    0    0  501    0  0.00000000000E+00  0.00000000000E+00 -0.39192203018E+03  0.39192203022E+03  0.50400001928E-02 0. -1.
    10030    2    1    2    0    0  0.00000000000E+00  0.00000000000E+00  0.46771067840E+03  0.12515547388E+04  0.11608772483E+04 0.  0.
        4    1    3    3  502    0  0.31654578545E+03 -0.47886916799E+03  0.32653822626E+03  0.66041331032E+03  0.12699999809E+01 0.  1.
       -4    1    3    3    0  502 -0.31654578545E+03  0.47886916799E+03  0.14117245214E+03  0.59114142849E+03  0.12699999809E+01 0. -1.
</event>
<event>
 5   0  0.7712816E-03  0.1097255E+04  0.7818609E-02  0.9207871E-01
        2   -1    0    0  501    0  0.00000000000E+00  0.00000000000E+00  0.17951686538E+04  0.17951686538E+04  0.25500000920E-02 0.  1.
       -2   -1    0    0    0  501  0.00000000000E+00  0.00000000000E+00 -0.16766788814E+03  0.16766788816E+03  0.25500000920E-02 0. -1.
    10030    2    1    2    0    0  0.00000000000E+00  0.00000000000E+00  0.16275007657E+04  0.19628365420E+04  0.10972550060E+04 0.  0.
        2    1    3    3  502    0 -0.14918410092E+03  0.52777577043E+03  0.83834167252E+03  0.10018083248E+04  0.25500000920E-02 0.  1.
       -2    1    3    3    0  502  0.14918410092E+03 -0.52777577043E+03  0.78915909314E+03  0.96102821713E+03  0.25500000920E-02 0. -1.
</event>
<event>
 5   0  0.4504740E-03  0.1095699E+04  0.7818609E-02  0.9209394E-01
        1   -1    0    0  501    0  0.00000000000E+00  0.00000000000E+00  0.49289182581E+03  0.49289182583E+03  0.50400001928E-02 0. -1.
       -1   -1    0    0    0  501  0.00000000000E+00  0.00000000000E+00 -0.60893466926E+03  0.60893466928E+03  0.50400001928E-02 0.  1.
    10030    2    1    2    0    0  0.00000000000E+00  0.00000000000E+00 -0.11604284345E+03  0.11018264951E+04  0.10956987195E+04 0.  0.
        5    1    3    3  502    0  0.24662270841E+03  0.33962300117E+03  0.29601327531E+03  0.51362680263E+03  0.46999998093E+01 0. -1.
       -5    1    3    3    0  502 -0.24662270841E+03 -0.33962300117E+03 -0.41205611876E+03  0.58819969248E+03  0.46999998093E+01 0.  1.
</event>
<event>
 5   0  0.7712816E-03  0.1074334E+04  0.7818609E-02  0.9230575E-01
        2   -1    0    0  501    0  0.00000000000E+00  0.00000000000E+00  0.68445278182E+03  0.68445278182E+03  0.25500000920E-02 0.  1.
       -2   -1    0    0    0  501  0.00000000000E+00  0.00000000000E+00 -0.42157540195E+03  0.42157540196E+03  0.25500000920E-02 0. -1.
    10030    2    1    2    0    0  0.00000000000E+00  0.00000000000E+00  0.26287737987E+03  0.11060281838E+04  0.10743341317E+04 0.  0.
        2    1    3    3  502    0  0.48354938986E+03  0.28352599995E+02 -0.10762861339E+03  0.49619330989E+03  0.25500000920E-02 0. -1.
       -2    1    3    3    0  502 -0.48354938986E+03 -0.28352599995E+02  0.37050599326E+03  0.60983487388E+03  0.25500000920E-02 0.  1.
</event>
<event>
 5   0  0.4428114E-03  0.1101838E+04  0.7818609E-02  0.9203402E-01
       -1   -1    0    0    0  501  0.00000000000E+00  0.00000000000E+00  0.58589932421E+03  0.58589932423E+03  0.50400001928E-02 0. -1.
        1   -1    0    0  501    0  0.00000000000E+00  0.00000000000E+00 -0.51802749037E+03  0.51802749039E+03  0.50400001928E-02 0.  1.
    10030    2    1    2    0    0  0.00000000000E+00  0.00000000000E+00  0.67871833837E+02  0.11039268146E+04  0.11018383848E+04 0.  0.
        4    1    3    3  502    0 -0.53606650909E+03 -0.11439626009E+03 -0.21454830478E+02  0.54855786307E+03  0.12699999809E+01 0.  1.
       -4    1    3    3    0  502  0.53606650909E+03  0.11439626009E+03  0.89326664315E+02  0.55536895155E+03  0.12699999809E+01 0. -1.
</event>
<event>
 5   0  0.4598561E-03  0.1099671E+04  0.7818609E-02  0.9205513E-01
        1   -1    0    0  501    0  0.00000000000E+00  0.00000000000E+00  0.64420984808E+03  0.64420984810E+03  0.50400001928E-02 0.  1.
       -1   -1    0    0    0  501  0.00000000000E+00  0.00000000000E+00 -0.46928641584E+03  0.46928641587E+03  0.50400001928E-02 0. -1.
    10030    2    1    2    0    0  0.00000000000E+00  0.00000000000E+00  0.17492343224E+03  0.11134962640E+04  0.10996707338E+04 0.  0.
        2    1    3    3  502    0 -0.14505843860E+03  0.60310830610E+02  0.62100147661E+03  0.64056395532E+03  0.25500000920E-02 0.  1.
       -2    1    3    3    0  502  0.14505843860E+03 -0.60310830610E+02 -0.44607804436E+03  0.47293230865E+03  0.25500000920E-02 0. -1.
</event>
<event>
 5   0  0.4598561E-03  0.1108454E+04  0.7818609E-02  0.9196991E-01
        1   -1    0    0  501    0  0.00000000000E+00  0.00000000000E+00  0.78904327549E+03  0.78904327551E+03  0.50400001928E-02 0. -1.
       -1   -1    0    0    0  501  0.00000000000E+00  0.00000000000E+00 -0.38929089176E+03  0.38929089179E+03  0.50400001928E-02 0.  1.
    10030    2    1    2    0    0  0.00000000000E+00  0.00000000000E+00  0.39975238373E+03  0.11783341673E+04  0.11084536262E+04 0.  0.
        2    1    3    3  502    0 -0.35872131675E+03  0.39822624508E+03  0.49907063474E+02  0.53828973644E+03  0.25500000920E-02 0.  1.
       -2    1    3    3    0  502  0.35872131675E+03 -0.39822624508E+03  0.34984532026E+03  0.64004443086E+03  0.25500000920E-02 0. -1.
</event>
<event>
 5   0  0.7712816E-03  0.1089736E+04  0.7818609E-02  0.9215254E-01
       -2   -1    0    0    0  501  0.00000000000E+00  0.00000000000E+00  0.50728918970E+03  0.50728918970E+03  0.25500000920E-02 0.  1.
        2   -1    0    0  501    0  0.00000000000E+00  0.00000000000E+00 -0.58523104029E+03  0.58523104030E+03  0.25500000920E-02 0. -1.
    10030    2    1    2    0    0  0.00000000000E+00  0.00000000000E+00 -0.77941850596E+02  0.10925202300E+04  0.10897364456E+04 0.  0.
        2    1    3    3  502    0 -0.66234676144E+01 -0.50757167810E+03 -0.23748812195E+03  0.56042259663E+03  0.25500000920E-02 0. -1.
       -2    1    3    3    0  502  0.66234676144E+01  0.50757167810E+03  0.15954627136E+03  0.53209763338E+03  0.25500000920E-02 0.  1.
</event>
<event>
 5   0  0.4504740E-03  0.1089455E+04  0.7818609E-02  0.9215531E-01
        1   -1    0    0  501    0  0.00000000000E+00  0.00000000000E+00  0.55723416350E+03  0.55723416352E+03  0.50400001928E-02 0.  1.
       -1   -1    0    0    0  501  0.00000000000E+00  0.00000000000E+00 -0.53250179870E+03  0.53250179872E+03  0.50400001928E-02 0. -1.
    10030    2    1    2    0    0  0.00000000000E+00  0.00000000000E+00  0.24732364801E+02  0.10897359622E+04  0.10894552664E+04 0.  0.
        5    1    3    3  502    0 -0.16233023594E+03 -0.38800555796E+03 -0.33385402167E+03  0.53701025716E+03  0.46999998093E+01 0. -1.
       -5    1    3    3    0  502  0.16233023594E+03  0.38800555796E+03  0.35858638647E+03  0.55272570509E+03  0.46999998093E+01 0.  1.
</event>
<event>
 5   0  0.7766551E-03  0.1106231E+04  0.7818609E-02  0.9199140E-01
        2   -1    0    0  501    0  0.00000000000E+00  0.00000000000E+00  0.26419638957E+03  0.26419638958E+03  0.25500000920E-02 0. -1.
       -2   -1    0    0    0  501  0.00000000000E+00  0.00000000000E+00 -0.11579900619E+04  0.11579900619E+04  0.25500000920E-02 0.  1.
    10030    2    1    2    0    0  0.00000000000E+00  0.00000000000E+00 -0.89379367234E+03  0.14221864515E+04  0.11062310672E+04 0.  0.
        5    1    3    3  502    0 -0.29539332103E+03 -0.45193360605E+03 -0.60124287559E+03  0.80809422955E+03  0.46999998093E+01 0.  1.
       -5    1    3    3    0  502  0.29539332103E+03  0.45193360605E+03 -0.29255079675E+03  0.61409222195E+03  0.46999998093E+01 0. -1.
</event>
<event>
 5   0  0.7766551E-03  0.1062072E+04  0.7818609E-02  0.9242969E-01
        2   -1    0    0  501    0  0.00000000000E+00  0.00000000000E+00  0.17782786330E+04  0.17782786330E+04  0.25500000920E-02 0. -1.
       -2   -1    0    0    0  501  0.00000000000E+00  0.00000000000E+00 -0.15857985659E+03  0.15857985661E+03  0.25500000920E-02 0.  1.
    10030    2    1    2    0    0  0.00000000000E+00  0.00000000000E+00  0.16196987764E+04  0.19368584896E+04  0.10620718820E+04 0.  0.
        5    1    3    3  502    0 -0.39215419296E+03 -0.18645949535E+03  0.13672604647E+04  0.14345645063E+04  0.46999998093E+01 0. -1.
       -5    1    3    3    0  502  0.39215419296E+03  0.18645949535E+03  0.25243831175E+03  0.50229398334E+03  0.46999998093E+01 0.  1.
</event>
<event>
 5   0  0.7738497E-03  0.1089688E+04  0.7818609E-02  0.9215302E-01
       -2   -1    0    0    0  501  0.00000000000E+00  0.00000000000E+00  0.42387043017E+03  0.42387043017E+03  0.25500000920E-02 0.  1.
        2   -1    0    0  501    0  0.00000000000E+00  0.00000000000E+00 -0.70034328485E+03  0.70034328485E+03  0.25500000920E-02 0. -1.
    10030    2    1    2    0    0  0.00000000000E+00  0.00000000000E+00 -0.27647285468E+03  0.11242137150E+04  0.10896876790E+04 0.  0.
        4    1    3    3  502    0 -0.15500282321E+02  0.37283105278E+03  0.27134348245E+03  0.46138070076E+03  0.12699999809E+01 0.  1.
       -4    1    3    3    0  502  0.15500282321E+02 -0.37283105278E+03 -0.54781633713E+03  0.66283301426E+03  0.12699999809E+01 0. -1.
</event>
<event>
 5   0  0.4428114E-03  0.1080756E+04  0.7818609E-02  0.9224154E-01
        1   -1    0    0  501    0  0.00000000000E+00  0.00000000000E+00  0.56979983944E+03  0.56979983947E+03  0.50400001928E-02 0.  1.
       -1   -1    0    0    0  501  0.00000000000E+00  0.00000000000E+00 -0.51247519091E+03  0.51247519093E+03  0.50400001928E-02 0. -1.
    10030    2    1    2    0    0  0.00000000000E+00  0.00000000000E+00  0.57324648536E+02  0.10822750304E+04  0.10807558124E+04 0.  0.
        4    1    3    3  502    0  0.32071633793E+03 -0.42958236039E+03  0.96630369770E+02  0.54473756529E+03  0.12699999809E+01 0. -1.
       -4    1    3    3    0  502 -0.32071633793E+03  0.42958236039E+03 -0.39305721234E+02  0.53753746511E+03  0.12699999809E+01 0.  1.
</event>
<event>
 5   0  0.4598561E-03  0.1097491E+04  0.7818609E-02  0.9207640E-01
       -1   -1    0    0    0  501  0.00000000000E+00  0.00000000000E+00  0.54522165136E+03  0.54522165138E+03  0.50400001928E-02 0. -1.
        1   -1    0    0  501    0  0.00000000000E+00  0.00000000000E+00 -0.55229252077E+03  0.55229252079E+03  0.50400001928E-02 0.  1.
    10030    2    1    2    0    0  0.00000000000E+00  0.00000000000E+00 -0.70708694077E+01  0.10975141722E+04  0.10974913945E+04 0.  0.
        2    1    3    3  502    0 -0.30567257009E+03  0.40399141342E+03 -0.21443565805E+03  0.55011583659E+03  0.25500000920E-02 0.  1.
       -2    1    3    3    0  502  0.30567257009E+03 -0.40399141342E+03  0.20736478865E+03  0.54739833558E+03  0.25500000920E-02 0. -1.
</event>
<event>
 5   0  0.2992375E-03  0.1259399E+04  0.7818609E-02  0.9062397E-01
        3   -1    0    0  501    0  0.00000000000E+00  0.00000000000E+00  0.28411877812E+03  0.28411879607E+03  0.10100000352E+00 0. -1.
       -3   -1    0    0    0  501  0.00000000000E+00  0.00000000000E+00 -0.13956181912E+04  0.13956181948E+04  0.10100000352E+00 0.  1.
    10030    2    1    2    0    0  0.00000000000E+00  0.00000000000E+00 -0.11114994131E+04  0.16797369909E+04  0.12593988301E+04 0.  0.
        5    1    3    3  502    0  0.45334729382E+03 -0.38778721672E+03 -0.82448373752E+03  0.10176925949E+04  0.46999998093E+01 0.  1.
       -5    1    3    3    0  502 -0.45334729382E+03  0.38778721672E+03 -0.28701567553E+03  0.66204439599E+03  0.46999998093E+01 0. -1.
</event>
<event>
 5   0  0.7712816E-03  0.1094098E+04  0.7818609E-02  0.9210963E-01
        2   -1    0    0  501    0  0.00000000000E+00  0.00000000000E+00  0.10253419378E+04  0.10253419378E+04  0.25500000920E-02 0.  1.
       -2   -1    0    0    0  501  0.00000000000E+00  0.00000000000E+00 -0.29186626777E+03  0.29186626778E+03  0.25500000920E-02 0. -1.
    10030    2    1    2    0    0  0.00000000000E+00  0.00000000000E+00  0.73347567002E+03  0.13172082056E+04  0.10940982124E+04 0.  0.
        2    1    3    3  502    0  0.60972946518E+02  0.13360456312E+03  0.10011653763E+04  0.10118794346E+04  0.25500000920E-02 0.  1.
       -2    1    3    3    0  502 -0.60972946518E+02 -0.13360456312E+03 -0.26768970630E+03  0.30532877093E+03  0.25500000920E-02 0. -1.
</event>
<event>
 5   0  0.4598561E-03  0.9437907E+03  0.7818609E-02  0.9372438E-01
       -1   -1    0    0    0  501  0.00000000000E+00  0.00000000000E+00  0.45669556425E+03  0.45669556428E+03  0.50400001928E-02 0. -1.
        1   -1    0    0  501    0  0.00000000000E+00  0.00000000000E+00 -0.48760104200E+03  0.48760104203E+03  0.50400001928E-02 0.  1.
    10030    2    1    2    0    0  0.00000000000E+00  0.00000000000E+00 -0.30905477751E+02  0.94429660630E+03  0.94379072475E+03 0.  0.
        2    1    3    3  502    0  0.42403085483E+03 -0.20582331852E+03  0.73592349057E+01  0.47140169987E+03  0.25500000920E-02 0. -1.
       -2    1    3    3    0  502 -0.42403085483E+03  0.20582331852E+03 -0.38264712657E+02  0.47289490644E+03  0.25500000920E-02 0.  1.
</event>
<event>
 5   0  0.7952121E-03  0.1099989E+04  0.7818609E-02  0.9205203E-01
        2   -1    0    0  501    0  0.00000000000E+00  0.00000000000E+00  0.11873004718E+04  0.11873004718E+04  0.25500000920E-02 0.  1.
       -2   -1    0    0    0  501  0.00000000000E+00  0.00000000000E+00 -0.25477458511E+03  0.25477458512E+03  0.25500000920E-02 0. -1.
    10030    2    1    2    0    0  0.00000000000E+00  0.00000000000E+00  0.93252588670E+03  0.14420750569E+04  0.10999890638E+04 0.  0.
        3    1    3    3  502    0  0.11011334075E+03 -0.41217209418E+03  0.92131672719E+03  0.10153005984E+04  0.10100000352E+00 0.  1.
       -3    1    3    3    0  502 -0.11011334075E+03  0.41217209418E+03  0.11209159510E+02  0.42677445858E+03  0.10100000352E+00 0. -1.
</event>
<event>
 5   0  0.7766551E-03  0.1191815E+04  0.7818609E-02  0.9120051E-01
       -2   -1    0    0    0  501  0.00000000000E+00  0.00000000000E+00  0.15586924573E+03  0.15586924576E+03  0.25500000920E-02 0.  1.
        2   -1    0    0  501    0  0.00000000000E+00  0.00000000000E+00 -0.22782274541E+04  0.22782274541E+04  0.25500000920E-02 0. -1.
    10030    2    1    2    0    0  0.00000000000E+00  0.00000000000E+00 -0.21223582083E+04  0.24340966998E+04  0.11918147422E+04 0.  0.
        5    1    3    3  502    0  0.22080840127E+03 -0.26264672144E+03 -0.66190584083E+02  0.34948953315E+03  0.46999998093E+01 0.  1.
       -5    1    3    3    0  502 -0.22080840127E+03  0.26264672144E+03 -0.20561676242E+04  0.20846071667E+04  0.46999998093E+01 0. -1.
</event>
<event>
 5   0  0.4504740E-03  0.1098596E+04  0.7818609E-02  0.9206561E-01
        1   -1    0    0  501    0  0.00000000000E+00  0.00000000000E+00  0.70595064507E+03  0.70595064509E+03  0.50400001928E-02 0. -1.
       -1   -1    0    0    0  501  0.00000000000E+00  0.00000000000E+00 -0.42740699234E+03  0.42740699237E+03  0.50400001928E-02 0.  1.
    10030    2    1    2    0    0  0.00000000000E+00  0.00000000000E+00  0.27854365273E+03  0.11333576375E+04  0.10985959075E+04 0.  0.
        5    1    3    3  502    0  0.42556082658E+03  0.19143668059E+03  0.43819198915E+03  0.64014399094E+03  0.46999998093E+01 0. -1.
       -5    1    3    3    0  502 -0.42556082658E+03 -0.19143668059E+03 -0.15964833642E+03  0.49321364652E+03  0.46999998093E+01 0.  1.
</event>
<event>
 5   0  0.4298101E-03  0.1101353E+04  0.7818609E-02  0.9203874E-01
        1   -1    0    0  501    0  0.00000000000E+00  0.00000000000E+00  0.15950887135E+04  0.15950887135E+04  0.50400001928E-02 0. -1.
       -1   -1    0    0    0  501  0.00000000000E+00  0.00000000000E+00 -0.19011140678E+03  0.19011140685E+03  0.50400001928E-02 0.  1.
    10030    2    1    2    0    0  0.00000000000E+00  0.00000000000E+00  0.14049773067E+04  0.17852001204E+04  0.11013529123E+04 0.  0.
        3    1    3    3  502    0 -0.36173712208E+03  0.37974606722E+03  0.43036917931E+03  0.67843825199E+03  0.10100000352E+00 0.  1.
       -3    1    3    3    0  502  0.36173712208E+03 -0.37974606722E+03  0.97460812744E+03  0.11067618684E+04  0.10100000352E+00 0. -1.
</event>
<event>
 5   0  0.7952121E-03  0.1094627E+04  0.7818609E-02  0.9210445E-01
       -2   -1    0    0    0  501  0.00000000000E+00  0.00000000000E+00  0.59838939188E+03  0.59838939188E+03  0.25500000920E-02 0. -1.
        2   -1    0    0  501    0  0.00000000000E+00  0.00000000000E+00 -0.50059709492E+03  0.50059709492E+03  0.25500000920E-02 0.  1.
    10030    2    1    2    0    0  0.00000000000E+00  0.00000000000E+00  0.97792296960E+02  0.10989864868E+04  0.10946268610E+04 0.  0.
        3    1    3    3  502    0  0.19612984243E+03  0.30467703620E+03 -0.36292892309E+03  0.51284736997E+03  0.10100000352E+00 0.  1.
       -3    1    3    3    0  502 -0.19612984243E+03 -0.30467703620E+03  0.46072122005E+03  0.58613911683E+03  0.10100000352E+00 0. -1.
</event>
<event>
 5   0  0.7537480E-03  0.1111073E+04  0.7818609E-02  0.9194466E-01
        2   -1    0    0  501    0  0.00000000000E+00  0.00000000000E+00  0.68556187782E+03  0.68556187782E+03  0.25500000920E-02 0. -1.
       -2   -1    0    0    0  501  0.00000000000E+00  0.00000000000E+00 -0.45017244507E+03  0.45017244508E+03  0.25500000920E-02 0.  1.
    10030    2    1    2    0    0  0.00000000000E+00  0.00000000000E+00  0.23538943275E+03  0.11357343229E+04  0.11110734751E+04 0.  0.
        1    1    3    3  502    0  0.20766698328E+03  0.22905176704E+02 -0.40848368278E+03  0.45881275286E+03  0.50400001928E-02 0.  1.
       -1    1    3    3    0  502 -0.20766698328E+03 -0.22905176704E+02  0.64387311553E+03  0.67692157004E+03  0.50400001928E-02 0. -1.
</event>
<event>
 5   0  0.7537480E-03  0.1155876E+04  0.7818609E-02  0.9152379E-01
       -2   -1    0    0    0  501  0.00000000000E+00  0.00000000000E+00  0.44068933954E+03  0.44068933955E+03  0.25500000920E-02 0.  1.
        2   -1    0    0  501    0  0.00000000000E+00  0.00000000000E+00 -0.75793192862E+03  0.75793192863E+03  0.25500000920E-02 0. -1.
    10030    2    1    2    0    0  0.00000000000E+00  0.00000000000E+00 -0.31724258908E+03  0.11986212682E+04  0.11558763274E+04 0.  0.
        1    1    3    3  502    0  0.37858088604E+03  0.14645749946E+03  0.26797898568E+03  0.48640109294E+03  0.50400001928E-02 0.  1.
       -1    1    3    3    0  502 -0.37858088604E+03 -0.14645749946E+03 -0.58522157476E+03  0.71222017523E+03  0.50400001928E-02 0. -1.
</event>
<event>
 5   0  0.7712816E-03  0.1070819E+04  0.7818609E-02  0.9234109E-01
       -2   -1    0    0    0  501  0.00000000000E+00  0.00000000000E+00  0.34391212245E+03  0.34391212246E+03  0.25500000920E-02 0. -1.
        2   -1    0    0  501    0  0.00000000000E+00  0.00000000000E+00 -0.83353708990E+03  0.83353708990E+03  0.25500000920E-02 0.  1.
    10030    2    1    2    0    0  0.00000000000E+00  0.00000000000E+00 -0.48962496745E+03  0.11774492124E+04  0.10708193307E+04 0.  0.
        2    1    3    3  502    0  0.48268292286E+03 -0.22896483991E+03 -0.20584632759E+03  0.57252110226E+03  0.25500000920E-02 0.  1.
       -2    1    3    3    0  502 -0.48268292286E+03  0.22896483991E+03 -0.28377863987E+03  0.60492811010E+03  0.25500000920E-02 0. -1.
</event>
<event>
 5   0  0.4641021E-03  0.9191758E+03  0.7818609E-02  0.9401923E-01
       -1   -1    0    0    0  501  0.00000000000E+00  0.00000000000E+00  0.10755017823E+03  0.10755017835E+03  0.50400001928E-02 0.  1.
        1   -1    0    0  501    0  0.00000000000E+00  0.00000000000E+00 -0.19639303625E+04  0.19639303625E+04  0.50400001928E-02 0. -1.
    10030    2    1    2    0    0  0.00000000000E+00  0.00000000000E+00 -0.18563801843E+04  0.20714805409E+04  0.91917584968E+03 0.  0.
        1    1    3    3  502    0  0.40408841600E+03 -0.21171005896E+03 -0.10539187835E+04  0.11484134270E+04  0.50400001928E-02 0. -1.
       -1    1    3    3    0  502 -0.40408841600E+03  0.21171005896E+03 -0.80246140077E+03  0.92306711389E+03  0.50400001928E-02 0.  1.
</event>
<event>
 5   0  0.7537480E-03  0.1016247E+04  0.7818609E-02  0.9290903E-01
       -2   -1    0    0    0  501  0.00000000000E+00  0.00000000000E+00  0.12586200170E+03  0.12586200173E+03  0.25500000920E-02 0.  1.
        2   -1    0    0  501    0  0.00000000000E+00  0.00000000000E+00 -0.20513680463E+04  0.20513680463E+04  0.25500000920E-02 0. -1.
    10030    2    1    2    0    0  0.00000000000E+00  0.00000000000E+00 -0.19255060446E+04  0.21772300480E+04  0.10162466011E+04 0.  0.
        1    1    3    3  502    0  0.89652186507E+02  0.27521160267E+03 -0.68024386174E+02  0.29733189860E+03  0.50400001928E-02 0.  1.
       -1    1    3    3    0  502 -0.89652186507E+02 -0.27521160267E+03 -0.18574816584E+04  0.18798981494E+04  0.50400001928E-02 0. -1.
</event>
<event>
 5   0  0.7738497E-03  0.8422516E+03  0.7818609E-02  0.9500796E-01
        2   -1    0    0  501    0  0.00000000000E+00  0.00000000000E+00  0.46203307630E+03  0.46203307631E+03  0.25500000920E-02 0.  1.
       -2   -1    0    0    0  501  0.00000000000E+00  0.00000000000E+00 -0.38384031010E+03  0.38384031010E+03  0.25500000920E-02 0. -1.
    10030    2    1    2    0    0  0.00000000000E+00  0.00000000000E+00  0.78192766207E+02  0.84587338641E+03  0.84225155218E+03 0.  0.
        4    1    3    3  502    0  0.16009546403E+02  0.41798878526E+03  0.88033491883E+02  0.42746045287E+03  0.12699999809E+01 0. -1.
       -4    1    3    3    0  502 -0.16009546403E+02 -0.41798878526E+03 -0.98407256764E+01  0.41841293354E+03  0.12699999809E+01 0.  1.
</event>
<event>
 5   0  0.7952121E-03  0.9871724E+03  0.7818609E-02  0.9322727E-01
       -2   -1    0    0    0  501  0.00000000000E+00  0.00000000000E+00  0.45511608827E+03  0.45511608827E+03  0.25500000920E-02 0. -1.
        2   -1    0    0  501    0  0.00000000000E+00  0.00000000000E+00 -0.53530812891E+03  0.53530812892E+03  0.25500000920E-02 0.  1.
    10030    2    1    2    0    0  0.00000000000E+00  0.00000000000E+00 -0.80192040647E+02  0.99042421719E+03  0.98717240978E+03 0.  0.
        3    1    3    3  502    0  0.28716030794E+03 -0.19576921796E+03  0.31154488327E+03  0.46674067066E+03  0.10100000352E+00 0. -1.
       -3    1    3    3    0  502 -0.28716030794E+03  0.19576921796E+03 -0.39173692391E+03  0.52368354654E+03  0.10100000352E+00 0.  1.
</event>
<event>
 5   0  0.4298101E-03  0.1145223E+04  0.7818609E-02  0.9162202E-01
        1   -1    0    0  501    0  0.00000000000E+00  0.00000000000E+00  0.47579106660E+03  0.47579106663E+03  0.50400001928E-02 0.  1.
       -1   -1    0    0    0  501  0.00000000000E+00  0.00000000000E+00 -0.68913420734E+03  0.68913420736E+03  0.50400001928E-02 0. -1.
    10030    2    1    2    0    0  0.00000000000E+00  0.00000000000E+00 -0.21334314074E+03  0.11649252740E+04  0.11452229470E+04 0.  0.
        3    1    3    3  502    0  0.45178208856E+03 -0.35143453598E+03 -0.89938620035E+02  0.57939818277E+03  0.10100000352E+00 0.  1.
       -3    1    3    3    0  502 -0.45178208856E+03  0.35143453598E+03 -0.12340452071E+03  0.58552709122E+03  0.10100000352E+00 0. -1.
</event>
<event>
 5   0  0.2992375E-03  0.1116540E+04  0.7818609E-02  0.9189219E-01
        4   -1    0    0  501    0  0.00000000000E+00  0.00000000000E+00  0.58887639409E+03  0.58887776356E+03  0.12699999809E+01 0.  1.
       -4   -1    0    0    0  501  0.00000000000E+00  0.00000000000E+00 -0.52925198595E+03  0.52925350970E+03  0.12699999809E+01 0. -1.
    10030    2    1    2    0    0  0.00000000000E+00  0.00000000000E+00  0.59624408146E+02  0.11181312733E+04  0.11165404042E+04 0.  0.
        3    1    3    3  502    0 -0.46513952697E+02  0.46544712143E+03  0.33497748183E+03  0.57533859090E+03  0.10100000352E+00 0.  1.
       -3    1    3    3    0  502  0.46513952697E+02 -0.46544712143E+03 -0.27535307368E+03  0.54279268236E+03  0.10100000352E+00 0. -1.
</event>
<event>
 5   0  0.7537480E-03  0.1113796E+04  0.7818609E-02  0.9191849E-01
       -2   -1    0    0    0  501  0.00000000000E+00  0.00000000000E+00  0.82860816542E+03  0.82860816543E+03  0.25500000920E-02 0.  1.
        2   -1    0    0  501    0  0.00000000000E+00  0.00000000000E+00 -0.37428470378E+03  0.37428470379E+03  0.25500000920E-02 0. -1.
    10030    2    1    2    0    0  0.00000000000E+00  0.00000000000E+00  0.45432346164E+03  0.12028928692E+04  0.11137959629E+04 0.  0.
        1    1    3    3  502    0  0.15513865480E+03  0.40809868717E+03 -0.14621455266E+03  0.46042506026E+03  0.50400001928E-02 0. -1.
       -1    1    3    3    0  502 -0.15513865480E+03 -0.40809868717E+03  0.60053801431E+03  0.74246780895E+03  0.50400001928E-02 0.  1.
</event>
<event>
 5   0  0.7738497E-03  0.1081944E+04  0.7818609E-02  0.9222971E-01
       -2   -1    0    0    0  501  0.00000000000E+00  0.00000000000E+00  0.27663736071E+03  0.27663736073E+03  0.25500000920E-02 0.  1.
        2   -1    0    0  501    0  0.00000000000E+00  0.00000000000E+00 -0.10578859238E+04  0.10578859238E+04  0.25500000920E-02 0. -1.
    10030    2    1    2    0    0  0.00000000000E+00  0.00000000000E+00 -0.78124856305E+03  0.13345232845E+04  0.10819441204E+04 0.  0.
        4    1    3    3  502    0  0.26093657387E+03  0.17695418111E+03  0.15160050563E+03  0.34983568143E+03  0.12699999809E+01 0.  1.
       -4    1    3    3    0  502 -0.26093657387E+03 -0.17695418111E+03 -0.93284906867E+03  0.98468760306E+03  0.12699999809E+01 0. -1.
</event>
<event>
 5   0  0.7952121E-03  0.1087402E+04  0.7818609E-02  0.9217559E-01
        2   -1    0    0  501    0  0.00000000000E+00  0.00000000000E+00  0.12238983476E+04  0.12238983476E+04  0.25500000920E-02 0. -1.
       -2   -1    0    0    0  501  0.00000000000E+00  0.00000000000E+00 -0.24153208525E+03  0.24153208526E+03  0.25500000920E-02 0.  1.
    10030    2    1    2    0    0  0.00000000000E+00  0.00000000000E+00  0.98236626237E+03  0.14654304329E+04  0.10874018945E+04 0.  0.
        3    1    3    3  502    0  0.13346340529E+03 -0.52224937333E+03  0.58698744477E+03  0.79693861684E+03  0.10100000352E+00 0. -1.
       -3    1    3    3    0  502 -0.13346340529E+03  0.52224937333E+03  0.39537881760E+03  0.66849181604E+03  0.10100000352E+00 0.  1.
</event>
<event>
 5   0  0.4641021E-03  0.1106168E+04  0.7818609E-02  0.9199201E-01
        1   -1    0    0  501    0  0.00000000000E+00  0.00000000000E+00  0.42150523196E+03  0.42150523199E+03  0.50400001928E-02 0. -1.
       -1   -1    0    0    0  501  0.00000000000E+00  0.00000000000E+00 -0.72573716986E+03  0.72573716988E+03  0.50400001928E-02 0.  1.
    10030    2    1    2    0    0  0.00000000000E+00  0.00000000000E+00 -0.30423193791E+03  0.11472424019E+04  0.11061681864E+04 0.  0.
        1    1    3    3  502    0  0.34832646436E+03  0.31945684568E+03 -0.45004196821E+03  0.65262682691E+03  0.50400001928E-02 0.  1.
       -1    1    3    3    0  502 -0.34832646436E+03 -0.31945684568E+03  0.14581003031E+03  0.49461557495E+03  0.50400001928E-02 0. -1.
</event>
<event>
 5   0  0.7712816E-03  0.1133295E+04  0.7818609E-02  0.9173335E-01
        2   -1    0    0  501    0  0.00000000000E+00  0.00000000000E+00  0.25129104763E+03  0.25129104764E+03  0.25500000920E-02 0.  1.
       -2   -1    0    0    0  501  0.00000000000E+00  0.00000000000E+00 -0.12777584118E+04  0.12777584118E+04  0.25500000920E-02 0. -1.
    10030    2    1    2    0    0  0.00000000000E+00  0.00000000000E+00 -0.10264673642E+04  0.15290494595E+04  0.11332947541E+04 0.  0.
        2    1    3    3  502    0  0.25814646480E+03 -0.46756791383E+03 -0.76862224516E+03  0.93596982168E+03  0.25500000920E-02 0. -1.
       -2    1    3    3    0  502 -0.25814646480E+03  0.46756791383E+03 -0.25784511903E+03  0.59307963778E+03  0.25500000920E-02 0.  1.
</event>
<event>
 5   0  0.4641021E-03  0.1153039E+04  0.7818609E-02  0.9154984E-01
        1   -1    0    0  501    0  0.00000000000E+00  0.00000000000E+00  0.87841652616E+03  0.87841652618E+03  0.50400001928E-02 0. -1.
       -1   -1    0    0    0  501  0.00000000000E+00  0.00000000000E+00 -0.37837970647E+03  0.37837970650E+03  0.50400001928E-02 0.  1.
    10030    2    1    2    0    0  0.00000000000E+00  0.00000000000E+00  0.50003681969E+03  0.12567962327E+04  0.11530394397E+04 0.  0.
        1    1    3    3  502    0 -0.12158597736E+03  0.33539997652E+03  0.74364910148E+03  0.82479711463E+03  0.50400001928E-02 0. -1.
       -1    1    3    3    0  502  0.12158597736E+03 -0.33539997652E+03 -0.24361228179E+03  0.43199911806E+03  0.50400001928E-02 0.  1.
</event>
<event>
 5   0  0.4598561E-03  0.1063934E+04  0.7818609E-02  0.9241076E-01
        1   -1    0    0  501    0  0.00000000000E+00  0.00000000000E+00  0.37856004968E+03  0.37856004971E+03  0.50400001928E-02 0. -1.
       -1   -1    0    0    0  501  0.00000000000E+00  0.00000000000E+00 -0.74753972689E+03  0.74753972691E+03  0.50400001928E-02 0.  1.
    10030    2    1    2    0    0  0.00000000000E+00  0.00000000000E+00 -0.36897967722E+03  0.11260997766E+04  0.10639335998E+04 0.  0.
        2    1    3    3  502    0  0.66108392909E+02  0.32770976366E+03  0.25348132132E+03  0.41954354848E+03  0.25500000920E-02 0. -1.
       -2    1    3    3    0  502 -0.66108392909E+02 -0.32770976366E+03 -0.62246099854E+03  0.70655622814E+03  0.25500000920E-02 0.  1.
</event>
<event>
 5   0  0.7766551E-03  0.1095107E+04  0.7818609E-02  0.9209974E-01
        2   -1    0    0  501    0  0.00000000000E+00  0.00000000000E+00  0.10923059201E+04  0.10923059201E+04  0.25500000920E-02 0. -1.
       -2   -1    0    0    0  501  0.00000000000E+00  0.00000000000E+00 -0.27447884151E+03  0.27447884152E+03  0.25500000920E-02 0.  1.
    10030    2    1    2    0    0  0.00000000000E+00  0.00000000000E+00  0.81782707863E+03  0.13667847617E+04  0.10951070515E+04 0.  0.
        5    1    3    3  502    0 -0.87965754840E+02 -0.19821800912E+03  0.10363959027E+04  0.10588516942E+04  0.46999998093E+01 0. -1.
       -5    1    3    3    0  502  0.87965754840E+02  0.19821800912E+03 -0.21856882409E+03  0.30793306744E+03  0.46999998093E+01 0.  1.
</event>
<event>
 5   0  0.4641021E-03  0.1097179E+04  0.7818609E-02  0.9207946E-01
       -1   -1    0    0    0  501  0.00000000000E+00  0.00000000000E+00  0.27534931937E+03  0.27534931941E+03  0.50400001928E-02 0. -1.
        1   -1    0    0  501    0  0.00000000000E+00  0.00000000000E+00 -0.10929766068E+04  0.10929766069E+04  0.50400001928E-02 0.  1.
    10030    2    1    2    0    0  0.00000000000E+00  0.00000000000E+00 -0.81762728747E+03  0.13683259263E+04  0.10971788638E+04 0.  0.
        1    1    3    3  502    0  0.19329880457E+03  0.40049471759E+03 -0.80943191910E+03  0.92354776723E+03  0.50400001928E-02 0.  1.
       -1    1    3    3    0  502 -0.19329880457E+03 -0.40049471759E+03 -0.81953683749E+01  0.44477815904E+03  0.50400001928E-02 0. -1.
</event>
<event>
 5   0  0.7738497E-03  0.1060744E+04  0.7818609E-02  0.9244322E-01
       -2   -1    0    0    0  501  0.00000000000E+00  0.00000000000E+00  0.25632568174E+03  0.25632568176E+03  0.25500000920E-02 0.  1.
        2   -1    0    0  501    0  0.00000000000E+00  0.00000000000E+00 -0.10974096805E+04  0.10974096805E+04  0.25500000920E-02 0. -1.
    10030    2    1    2    0    0  0.00000000000E+00  0.00000000000E+00 -0.84108399871E+03  0.13537353622E+04  0.10607436722E+04 0.  0.
        4    1    3    3  502    0 -0.42631477034E+03 -0.28786658620E+02 -0.19559633677E+02  0.42773490305E+03  0.12699999809E+01 0.  1.
       -4    1    3    3    0  502  0.42631477034E+03  0.28786658620E+02 -0.82152436503E+03  0.92600045916E+03  0.12699999809E+01 0. -1.
</event>
<event>
 5   0  0.4504740E-03  0.1000530E+04  0.7818609E-02  0.9307963E-01
       -1   -1    0    0    0  501  0.00000000000E+00  0.00000000000E+00  0.91400693574E+03  0.91400693575E+03  0.50400001928E-02 0.  1.
        1   -1    0    0  501    0  0.00000000000E+00  0.00000000000E+00 -0.27381112067E+03  0.27381112072E+03  0.50400001928E-02 0. -1.
    10030    2    1    2    0    0  0.00000000000E+00  0.00000000000E+00  0.64019581507E+03  0.11878180565E+04  0.10005303862E+04 0.  0.
        5    1    3    3  502    0  0.42942045789E+03  0.19809519574E+03  0.12647502548E+03  0.48955250822E+03  0.46999998093E+01 0. -1.
       -5    1    3    3    0  502 -0.42942045789E+03 -0.19809519574E+03  0.51372078959E+03  0.69826554826E+03  0.46999998093E+01 0.  1.
</event>
<event>
 5   0  0.7952121E-03  0.1067923E+04  0.7818609E-02  0.9237032E-01
       -2   -1    0    0    0  501  0.00000000000E+00  0.00000000000E+00  0.38895708459E+03  0.38895708460E+03  0.25500000920E-02 0. -1.
        2   -1    0    0  501    0  0.00000000000E+00  0.00000000000E+00 -0.73302468329E+03  0.73302468330E+03  0.25500000920E-02 0.  1.
    10030    2    1    2    0    0  0.00000000000E+00  0.00000000000E+00 -0.34406759870E+03  0.11219817679E+04  0.10679234874E+04 0.  0.
        3    1    3    3  502    0 -0.10868399614E+03  0.73654261821E+02  0.37173484730E+03  0.39423846616E+03  0.10100000352E+00 0. -1.
       -3    1    3    3    0  502  0.10868399614E+03 -0.73654261821E+02 -0.71580244601E+03  0.72774330173E+03  0.10100000352E+00 0.  1.
</event>
<event>
 5   0  0.7952121E-03  0.1095881E+04  0.7818609E-02  0.9209216E-01
       -2   -1    0    0    0  501  0.00000000000E+00  0.00000000000E+00  0.60273990940E+03  0.60273990941E+03  0.25500000920E-02 0.  1.
        2   -1    0    0  501    0  0.00000000000E+00  0.00000000000E+00 -0.49812330952E+03  0.49812330952E+03  0.25500000920E-02 0. -1.
    10030    2    1    2    0    0  0.00000000000E+00  0.00000000000E+00  0.10461659989E+03  0.11008632189E+04  0.10958810126E+04 0.  0.
        3    1    3    3  502    0 -0.45029445476E+03  0.31218711286E+03  0.48700477466E+02  0.55008875295E+03  0.10100000352E+00 0.  1.
       -3    1    3    3    0  502  0.45029445476E+03 -0.31218711286E+03  0.55916122419E+02  0.55077446597E+03  0.10100000352E+00 0. -1.
</event>
<event>
 5   0  0.4298101E-03  0.1083502E+04  0.7818609E-02  0.9221423E-01
       -1   -1    0    0    0  501  0.00000000000E+00  0.00000000000E+00  0.20466446666E+03  0.20466446672E+03  0.50400001928E-02 0. -1.
        1   -1    0    0  501    0  0.00000000000E+00  0.00000000000E+00 -0.14340261274E+04  0.14340261274E+04  0.50400001928E-02 0.  1.
    10030    2    1    2    0    0  0.00000000000E+00  0.00000000000E+00 -0.12293616607E+04  0.16386905941E+04  0.10835020860E+04 0.  0.
        3    1    3    3  502    0 -0.29667636646E+03 -0.42694312066E+03 -0.38433409099E+03  0.64653692733E+03  0.10100000352E+00 0. -1.
       -3    1    3    3    0  502  0.29667636646E+03  0.42694312066E+03 -0.84502756970E+03  0.99215366675E+03  0.10100000352E+00 0.  1.
</event>
<event>
 5   0  0.7712816E-03  0.1097015E+04  0.7818609E-02  0.9208106E-01
       -2   -1    0    0    0  501  0.00000000000E+00  0.00000000000E+00  0.98560618482E+03  0.98560618482E+03  0.25500000920E-02 0.  1.
        2   -1    0    0  501    0  0.00000000000E+00  0.00000000000E+00 -0.30525427432E+03  0.30525427433E+03  0.25500000920E-02 0. -1.
    10030    2    1    2    0    0  0.00000000000E+00  0.00000000000E+00  0.68035191050E+03  0.12908604591E+04  0.10970150422E+04 0.  0.
        2    1    3    3  502    0  0.51078618341E+03 -0.18893234914E+03  0.41700069571E+03  0.68592094147E+03  0.25500000920E-02 0.  1.
       -2    1    3    3    0  502 -0.51078618341E+03  0.18893234914E+03  0.26335121479E+03  0.60493951768E+03  0.25500000920E-02 0. -1.
</event>
<event>
 5   0  0.7738497E-03  0.1132534E+04  0.7818609E-02  0.9174049E-01
        2   -1    0    0  501    0  0.00000000000E+00  0.00000000000E+00  0.57654590669E+03  0.57654590669E+03  0.25500000920E-02 0.  1.
       -2   -1    0    0    0  501  0.00000000000E+00  0.00000000000E+00 -0.55617149517E+03  0.55617149518E+03  0.25500000920E-02 0. -1.
    10030    2    1    2    0    0  0.00000000000E+00  0.00000000000E+00  0.20374411514E+02  0.11327174019E+04  0.11325341478E+04 0.  0.
        4    1    3    3  502    0  0.67173035524E+02 -0.55728651272E+03  0.84873997416E+02  0.56770210700E+03  0.12699999809E+01 0. -1.
       -4    1    3    3    0  502 -0.67173035524E+02  0.55728651272E+03 -0.64499585903E+02  0.56501529487E+03  0.12699999809E+01 0.  1.
</event>
<event>
 5   0  0.7738497E-03  0.1380253E+04  0.7818609E-02  0.8968238E-01
       -2   -1    0    0    0  501  0.00000000000E+00  0.00000000000E+00  0.72562531221E+03  0.72562531222E+03  0.25500000920E-02 0. -1.
        2   -1    0    0  501    0  0.00000000000E+00  0.00000000000E+00 -0.65636394693E+03  0.65636394693E+03  0.25500000920E-02 0.  1.
    10030    2    1    2    0    0  0.00000000000E+00  0.00000000000E+00  0.69261365286E+02  0.13819892592E+04  0.13802525768E+04 0.  0.
        4    1    3    3  502    0  0.32123481636E+03 -0.54922964663E+03 -0.23296514645E+03  0.67758348883E+03  0.12699999809E+01 0.  1.
       -4    1    3    3    0  502 -0.32123481636E+03  0.54922964663E+03  0.30222651173E+03  0.70440577033E+03  0.12699999809E+01 0. -1.
</event>
<event>
 5   0  0.4428114E-03  0.1117068E+04  0.7818609E-02  0.9188714E-01
        1   -1    0    0  501    0  0.00000000000E+00  0.00000000000E+00  0.55646326372E+03  0.55646326374E+03  0.50400001928E-02 0.  1.
       -1   -1    0    0    0  501  0.00000000000E+00  0.00000000000E+00 -0.56061249051E+03  0.56061249054E+03  0.50400001928E-02 0. -1.
    10030    2    1    2    0    0  0.00000000000E+00  0.00000000000E+00 -0.41492267975E+01  0.11170757543E+04  0.11170680484E+04 0.  0.
        4    1    3    3  502    0  0.33124408248E+03 -0.30561023180E+03 -0.33198352344E+03  0.55976327916E+03  0.12699999809E+01 0. -1.
       -4    1    3    3    0  502 -0.33124408248E+03  0.30561023180E+03  0.32783429665E+03  0.55731247511E+03  0.12699999809E+01 0.  1.
</event>
<event>
 5   0  0.4298101E-03  0.1222825E+04  0.7818609E-02  0.9093109E-01
       -1   -1    0    0    0  501  0.00000000000E+00  0.00000000000E+00  0.24217994203E+03  0.24217994208E+03  0.50400001928E-02 0. -1.
        1   -1    0    0  501    0  0.00000000000E+00  0.00000000000E+00 -0.15435845148E+04  0.15435845148E+04  0.50400001928E-02 0.  1.
    10030    2    1    2    0    0  0.00000000000E+00  0.00000000000E+00 -0.13014045727E+04  0.17857644569E+04  0.12228249398E+04 0.  0.
        3    1    3    3  502    0  0.10666404176E+03 -0.42881798057E+03 -0.33601969089E+02  0.44316044588E+03  0.10100000352E+00 0. -1.
       -3    1    3    3    0  502 -0.10666404176E+03  0.42881798057E+03 -0.12678026036E+04  0.13426040110E+04  0.10100000352E+00 0.  1.
</event>
<event>
 5   0  0.4641021E-03  0.1107105E+04  0.7818609E-02  0.9198295E-01
       -1   -1    0    0    0  501  0.00000000000E+00  0.00000000000E+00  0.28125303422E+03  0.28125303426E+03  0.50400001928E-02 0. -1.
        1   -1    0    0  501    0  0.00000000000E+00  0.00000000000E+00 -0.10894821622E+04  0.10894821622E+04  0.50400001928E-02 0.  1.
    10030    2    1    2    0    0  0.00000000000E+00  0.00000000000E+00 -0.80822912794E+03  0.13707351964E+04  0.11071046272E+04 0.  0.
        1    1    3    3  502    0 -0.43669219853E+03 -0.33527797664E+03 -0.47533390053E+03  0.72736078729E+03  0.50400001928E-02 0. -1.
       -1    1    3    3    0  502  0.43669219853E+03  0.33527797664E+03 -0.33289522741E+03  0.64337440913E+03  0.50400001928E-02 0.  1.
</event>
<event>
 5   0  0.4428114E-03  0.1109081E+04  0.7818609E-02  0.9196386E-01
        1   -1    0    0  501    0  0.00000000000E+00  0.00000000000E+00  0.43976491576E+03  0.43976491579E+03  0.50400001928E-02 0.  1.
       -1   -1    0    0    0  501  0.00000000000E+00  0.00000000000E+00 -0.69927112364E+03  0.69927112366E+03  0.50400001928E-02 0. -1.
    10030    2    1    2    0    0  0.00000000000E+00  0.00000000000E+00 -0.25950620788E+03  0.11390360394E+04  0.11090805323E+04 0.  0.
        4    1    3    3  502    0 -0.47937006353E+03  0.25553336150E+03 -0.24420976637E+03  0.59559464364E+03  0.12699999809E+01 0. -1.
       -4    1    3    3    0  502  0.47937006353E+03 -0.25553336150E+03 -0.15296441513E+02  0.54344139580E+03  0.12699999809E+01 0.  1.
</event>
<event>
 5   0  0.4641021E-03  0.1108356E+04  0.7818609E-02  0.9197085E-01
        1   -1    0    0  501    0  0.00000000000E+00  0.00000000000E+00  0.95918278366E+03  0.95918278367E+03  0.50400001928E-02 0. -1.
       -1   -1    0    0    0  501  0.00000000000E+00  0.00000000000E+00 -0.32018241678E+03  0.32018241682E+03  0.50400001928E-02 0.  1.
    10030    2    1    2    0    0  0.00000000000E+00  0.00000000000E+00  0.63900036687E+03  0.12793652005E+04  0.11083563720E+04 0.  0.
        1    1    3    3  502    0 -0.51330178842E+03 -0.15304305367E+03  0.15539368946E+03  0.55771686457E+03  0.50400001928E-02 0. -1.
       -1    1    3    3    0  502  0.51330178842E+03  0.15304305367E+03  0.48360667742E+03  0.72164833592E+03  0.50400001928E-02 0.  1.
</event>
<event>
 5   0  0.7712816E-03  0.1090596E+04  0.7818609E-02  0.9214406E-01
       -2   -1    0    0    0  501  0.00000000000E+00  0.00000000000E+00  0.54862312947E+03  0.54862312947E+03  0.25500000920E-02 0.  1.
        2   -1    0    0  501    0  0.00000000000E+00  0.00000000000E+00 -0.54199347407E+03  0.54199347408E+03  0.25500000920E-02 0. -1.
    10030    2    1    2    0    0  0.00000000000E+00  0.00000000000E+00  0.66296553962E+01  0.10906166036E+04  0.10905964531E+04 0.  0.
        2    1    3    3  502    0  0.40126169691E+03  0.34810850521E+03  0.12644173497E+03  0.54605676733E+03  0.25500000920E-02 0.  1.
       -2    1    3    3    0  502 -0.40126169691E+03 -0.34810850521E+03 -0.11981207957E+03  0.54455983622E+03  0.25500000920E-02 0. -1.
</event>
<event>
 5   0  0.4428114E-03  0.1055857E+04  0.7818609E-02  0.9249317E-01
        1   -1    0    0  501    0  0.00000000000E+00  0.00000000000E+00  0.22743201058E+03  0.22743201063E+03  0.50400001928E-02 0. -1.
       -1   -1    0    0    0  501  0.00000000000E+00  0.00000000000E+00 -0.12254595820E+04  0.12254595820E+04  0.50400001928E-02 0.  1.
    10030    2    1    2    0    0  0.00000000000E+00  0.00000000000E+00 -0.99802757142E+03  0.14528915926E+04  0.10558574462E+04 0.  0.
        4    1    3    3  502    0 -0.17180188686E+03 -0.49789319404E+03 -0.54850503215E+03  0.76044257127E+03  0.12699999809E+01 0.  1.
       -4    1    3    3    0  502  0.17180188686E+03  0.49789319404E+03 -0.44952253927E+03  0.69244902138E+03  0.12699999809E+01 0. -1.
</event>
<event>
 5   0  0.7738497E-03  0.1106325E+04  0.7818609E-02  0.9199049E-01
        2   -1    0    0  501    0  0.00000000000E+00  0.00000000000E+00  0.49851884241E+03  0.49851884241E+03  0.25500000920E-02 0. -1.
       -2   -1    0    0    0  501  0.00000000000E+00  0.00000000000E+00 -0.61379594047E+03  0.61379594047E+03  0.25500000920E-02 0.  1.
    10030    2    1    2    0    0  0.00000000000E+00  0.00000000000E+00 -0.11527709806E+03  0.11123147829E+04  0.11063251633E+04 0.  0.
        4    1    3    3  502    0  0.30355375029E+03 -0.18171465038E+03  0.36989550741E+03  0.51184899412E+03  0.12699999809E+01 0. -1.
       -4    1    3    3    0  502 -0.30355375029E+03  0.18171465038E+03 -0.48517260547E+03  0.60046578876E+03  0.12699999809E+01 0.  1.
</event>
<event>
 5   0  0.4641021E-03  0.1096504E+04  0.7818609E-02  0.9208606E-01
        1   -1    0    0  501    0  0.00000000000E+00  0.00000000000E+00  0.61747893653E+03  0.61747893655E+03  0.50400001928E-02 0. -1.
       -1   -1    0    0    0  501  0.00000000000E+00  0.00000000000E+00 -0.48678607946E+03  0.48678607949E+03  0.50400001928E-02 0.  1.
    10030    2    1    2    0    0  0.00000000000E+00  0.00000000000E+00  0.13069285707E+03  0.11042650160E+04  0.10965038088E+04 0.  0.
        1    1    3    3  502    0 -0.84268326325E+02  0.23746239863E+03 -0.42501956567E+03  0.49409631937E+03  0.50400001928E-02 0.  1.
       -1    1    3    3    0  502  0.84268326325E+02 -0.23746239863E+03  0.55571242273E+03  0.61016869667E+03  0.50400001928E-02 0. -1.
</event>
<event>
 5   0  0.4298101E-03  0.1108406E+04  0.7818609E-02  0.9197037E-01
        1   -1    0    0  501    0  0.00000000000E+00  0.00000000000E+00  0.12097277942E+04  0.12097277942E+04  0.50400001928E-02 0.  1.
       -1   -1    0    0    0  501  0.00000000000E+00  0.00000000000E+00 -0.25389270746E+03  0.25389270751E+03  0.50400001928E-02 0. -1.
    10030    2    1    2    0    0  0.00000000000E+00  0.00000000000E+00  0.95583508671E+03  0.14636205017E+04  0.11084061801E+04 0.  0.
        3    1    3    3  502    0 -0.35816019477E+03 -0.41892356661E+03  0.55452063160E+03  0.78183682495E+03  0.10100000352E+00 0. -1.
       -3    1    3    3    0  502  0.35816019477E+03  0.41892356661E+03  0.40131445511E+03  0.68178367673E+03  0.10100000352E+00 0.  1.
</event>
<event>
 5   0  0.7712816E-03  0.1108916E+04  0.7818609E-02  0.9196545E-01
        2   -1    0    0  501    0  0.00000000000E+00  0.00000000000E+00  0.80385700348E+03  0.80385700348E+03  0.25500000920E-02 0.  1.
       -2   -1    0    0    0  501  0.00000000000E+00  0.00000000000E+00 -0.38243608804E+03  0.38243608805E+03  0.25500000920E-02 0. -1.
    10030    2    1    2    0    0  0.00000000000E+00  0.00000000000E+00  0.42142091543E+03  0.11862930915E+04  0.11089164581E+04 0.  0.
        2    1    3    3  502    0 -0.20438526987E+03  0.18570748414E+03  0.72505322046E+03  0.77586260428E+03  0.25500000920E-02 0.  1.
       -2    1    3    3    0  502  0.20438526987E+03 -0.18570748414E+03 -0.30363230503E+03  0.41043048726E+03  0.25500000920E-02 0. -1.
</event>
<event>
 5   0  0.7537480E-03  0.1100740E+04  0.7818609E-02  0.9204471E-01
       -2   -1    0    0    0  501  0.00000000000E+00  0.00000000000E+00  0.36813321598E+03  0.36813321599E+03  0.25500000920E-02 0.  1.
        2   -1    0    0  501    0  0.00000000000E+00  0.00000000000E+00 -0.82281938751E+03  0.82281938751E+03  0.25500000920E-02 0. -1.
    10030    2    1    2    0    0  0.00000000000E+00  0.00000000000E+00 -0.45468617153E+03  0.11909526035E+04  0.11007400189E+04 0.  0.
        1    1    3    3  502    0 -0.12502714581E+03  0.29406416846E+03  0.25749121054E+03  0.41037451905E+03  0.50400001928E-02 0.  1.
       -1    1    3    3    0  502  0.12502714581E+03 -0.29406416846E+03 -0.71217738207E+03  0.78057808444E+03  0.50400001928E-02 0. -1.
</event>
<event>
 5   0  0.7766551E-03  0.1115118E+04  0.7818609E-02  0.9190581E-01
       -2   -1    0    0    0  501  0.00000000000E+00  0.00000000000E+00  0.13224463180E+03  0.13224463183E+03  0.25500000920E-02 0. -1.
        2   -1    0    0  501    0  0.00000000000E+00  0.00000000000E+00 -0.23507354372E+04  0.23507354372E+04  0.25500000920E-02 0.  1.
    10030    2    1    2    0    0  0.00000000000E+00  0.00000000000E+00 -0.22184908054E+04  0.24829800691E+04  0.11151181864E+04 0.  0.
        5    1    3    3  502    0  0.16185431786E+03  0.19589028566E+03 -0.22142576929E+04  0.22287954246E+04  0.46999998093E+01 0.  1.
       -5    1    3    3    0  502 -0.16185431786E+03 -0.19589028566E+03 -0.42331125141E+01  0.25418464443E+03  0.46999998093E+01 0. -1.
</event>
<event>
 5   0  0.4428114E-03  0.1115893E+04  0.7818609E-02  0.9189839E-01
        1   -1    0    0  501    0  0.00000000000E+00  0.00000000000E+00  0.56004903083E+03  0.56004903085E+03  0.50400001928E-02 0.  1.
       -1   -1    0    0    0  501  0.00000000000E+00  0.00000000000E+00 -0.55585153017E+03  0.55585153019E+03  0.50400001928E-02 0. -1.
    10030    2    1    2    0    0  0.00000000000E+00  0.00000000000E+00  0.41975006583E+01  0.11159005610E+04  0.11158926665E+04 0.  0.
        4    1    3    3  502    0 -0.28240269168E+03 -0.46363789539E+03 -0.12670868083E+03  0.55746576667E+03  0.12699999809E+01 0. -1.
       -4    1    3    3    0  502  0.28240269168E+03  0.46363789539E+03  0.13090618149E+03  0.55843479437E+03  0.12699999809E+01 0.  1.
</event>
<event>
 5   0  0.4641021E-03  0.1082955E+04  0.7818609E-02  0.9221966E-01
       -1   -1    0    0    0  501  0.00000000000E+00  0.00000000000E+00  0.16798652689E+04  0.16798652689E+04  0.50400001928E-02 0.  1.
        1   -1    0    0  501    0  0.00000000000E+00  0.00000000000E+00 -0.17453645169E+03  0.17453645177E+03  0.50400001928E-02 0. -1.
    10030    2    1    2    0    0  0.00000000000E+00  0.00000000000E+00  0.15053288172E+04  0.18544017207E+04  0.10829547053E+04 0.  0.
        1    1    3    3  502    0 -0.18677094842E+03  0.90433314353E+02 -0.10374565336E+03  0.23200157787E+03  0.50400001928E-02 0. -1.
       -1    1    3    3    0  502  0.18677094842E+03 -0.90433314353E+02  0.16090744706E+04  0.16224001428E+04  0.50400001928E-02 0.  1.
</event>
<event>
 5   0  0.4298101E-03  0.1107376E+04  0.7818609E-02  0.9198032E-01
        1   -1    0    0  501    0  0.00000000000E+00  0.00000000000E+00  0.84168061612E+03  0.84168061613E+03  0.50400001928E-02 0.  1.
       -1   -1    0    0    0  501  0.00000000000E+00  0.00000000000E+00 -0.36423622927E+03  0.36423622931E+03  0.50400001928E-02 0. -1.
    10030    2    1    2    0    0  0.00000000000E+00  0.00000000000E+00  0.47744438684E+03  0.12059168454E+04  0.11073763116E+04 0.  0.
        3    1    3    3  502    0 -0.44391562960E+03 -0.23028100712E+03  0.49752560489E+03  0.70542339497E+03  0.10100000352E+00 0. -1.
       -3    1    3    3    0  502  0.44391562960E+03  0.23028100712E+03 -0.20081218050E+02  0.50049345047E+03  0.10100000352E+00 0.  1.
</event>
<event>
 5   0  0.7952121E-03  0.1089387E+04  0.7818609E-02  0.9215598E-01
        2   -1    0    0  501    0  0.00000000000E+00  0.00000000000E+00  0.11494449596E+04  0.11494449596E+04  0.25500000920E-02 0. -1.
       -2   -1    0    0    0  501  0.00000000000E+00  0.00000000000E+00 -0.25811697223E+03  0.25811697224E+03  0.25500000920E-02 0.  1.
    10030    2    1    2    0    0  0.00000000000E+00  0.00000000000E+00  0.89132798736E+03  0.14075619318E+04  0.10893874476E+04 0.  0.
        3    1    3    3  502    0 -0.11868480029E+03  0.31734624450E+03 -0.10539404625E+03  0.35482761435E+03  0.10100000352E+00 0.  1.
       -3    1    3    3    0  502  0.11868480029E+03 -0.31734624450E+03  0.99672203361E+03  0.10527343175E+04  0.10100000352E+00 0. -1.
</event>
<event>
 5   0  0.7712816E-03  0.1051627E+04  0.7818609E-02  0.9253665E-01
       -2   -1    0    0    0  501  0.00000000000E+00  0.00000000000E+00  0.45074329511E+03  0.45074329512E+03  0.25500000920E-02 0.  1.
        2   -1    0    0  501    0  0.00000000000E+00  0.00000000000E+00 -0.61338695316E+03  0.61338695317E+03  0.25500000920E-02 0. -1.
    10030    2    1    2    0    0  0.00000000000E+00  0.00000000000E+00 -0.16264365805E+03  0.10641302483E+04  0.10516274178E+04 0.  0.
        2    1    3    3  502    0  0.35527986512E+03  0.18120828689E+03 -0.42806156390E+03  0.58506147394E+03  0.25500000920E-02 0. -1.
       -2    1    3    3    0  502 -0.35527986512E+03 -0.18120828689E+03  0.26541790585E+03  0.47906877434E+03  0.25500000920E-02 0.  1.
</event>
<event>
 5   0  0.2992375E-03  0.1096490E+04  0.7818609E-02  0.9208620E-01
        4   -1    0    0  501    0  0.00000000000E+00  0.00000000000E+00  0.93053977172E+03  0.93054063837E+03  0.12699999809E+01 0.  1.
       -4   -1    0    0    0  501  0.00000000000E+00  0.00000000000E+00 -0.32300652076E+03  0.32300901745E+03  0.12699999809E+01 0. -1.
    10030    2    1    2    0    0  0.00000000000E+00  0.00000000000E+00  0.60753325096E+03  0.12535496558E+04  0.10964898944E+04 0.  0.
        3    1    3    3  502    0  0.22123291650E+02  0.38318099890E+02  0.92849692419E+03  0.92955057165E+03  0.10100000352E+00 0.  1.
       -3    1    3    3    0  502 -0.22123291650E+02 -0.38318099890E+02 -0.32096367323E+03  0.32399908418E+03  0.10100000352E+00 0. -1.
</event>
<event>
 5   0  0.4598561E-03  0.1090853E+04  0.7818609E-02  0.9214153E-01
       -1   -1    0    0    0  501  0.00000000000E+00  0.00000000000E+00  0.25935846342E+03  0.25935846347E+03  0.50400001928E-02 0. -1.
        1   -1    0    0  501    0  0.00000000000E+00  0.00000000000E+00 -0.11470224900E+04  0.11470224901E+04  0.50400001928E-02 0.  1.
    10030    2    1    2    0    0  0.00000000000E+00  0.00000000000E+00 -0.88766402662E+03  0.14063809535E+04  0.10908528600E+04 0.  0.
        2    1    3    3  502    0 -0.15200710839E+03  0.35328496543E+03 -0.94244572900E+03  0.10178999852E+04  0.25500000920E-02 0.  1.
       -2    1    3    3    0  502  0.15200710839E+03 -0.35328496543E+03  0.54781702385E+02  0.38848096829E+03  0.25500000920E-02 0. -1.
</event>
<event>
 5   0  0.7738497E-03  0.1089131E+04  0.7818609E-02  0.9215851E-01
        2   -1    0    0  501    0  0.00000000000E+00  0.00000000000E+00  0.15046127791E+04  0.15046127791E+04  0.25500000920E-02 0.  1.
       -2   -1    0    0    0  501  0.00000000000E+00  0.00000000000E+00 -0.19709486699E+03  0.19709486701E+03  0.25500000920E-02 0. -1.
    10030    2    1    2    0    0  0.00000000000E+00  0.00000000000E+00  0.13075179121E+04  0.17017076461E+04  0.10891307646E+04 0.  0.
        4    1    3    3  502    0  0.16967997312E+03  0.18177993474E+03 -0.10320461823E+03  0.26923603785E+03  0.12699999809E+01 0. -1.
       -4    1    3    3    0  502 -0.16967997312E+03 -0.18177993474E+03  0.14107225304E+04  0.14324716083E+04  0.12699999809E+01 0.  1.
</event>
<event>
 5   0  0.4298101E-03  0.9942466E+03  0.7818609E-02  0.9314878E-01
        1   -1    0    0  501    0  0.00000000000E+00  0.00000000000E+00  0.34324305319E+03  0.34324305322E+03  0.50400001928E-02 0. -1.
       -1   -1    0    0    0  501  0.00000000000E+00  0.00000000000E+00 -0.71999008612E+03  0.71999008614E+03  0.50400001928E-02 0.  1.
    10030    2    1    2    0    0  0.00000000000E+00  0.00000000000E+00 -0.37674703293E+03  0.10632331394E+04  0.99424664033E+03 0.  0.
        3    1    3    3  502    0  0.36129379562E+03 -0.80632632929E+02 -0.54320458220E+03  0.65734774402E+03  0.10100000352E+00 0.  1.
       -3    1    3    3    0  502 -0.36129379562E+03  0.80632632929E+02  0.16645754927E+03  0.40588539534E+03  0.10100000352E+00 0. -1.
</event>
<event>
 5   0  0.7537480E-03  0.1095218E+04  0.7818609E-02  0.9209865E-01
        2   -1    0    0  501    0  0.00000000000E+00  0.00000000000E+00  0.35104740772E+03  0.35104740773E+03  0.25500000920E-02 0. -1.
       -2   -1    0    0    0  501  0.00000000000E+00  0.00000000000E+00 -0.85423089230E+03  0.85423089231E+03  0.25500000920E-02 0.  1.
    10030    2    1    2    0    0  0.00000000000E+00  0.00000000000E+00 -0.50318348459E+03  0.12052783000E+04  0.10952178602E+04 0.  0.
        1    1    3    3  502    0 -0.38349139900E+02  0.37618090350E+03  0.18430973722E+03  0.42065758991E+03  0.50400001928E-02 0. -1.
       -1    1    3    3    0  502  0.38349139900E+02 -0.37618090350E+03 -0.68749322181E+03  0.78462071012E+03  0.50400001928E-02 0.  1.
</event>
<event>
 5   0  0.2992375E-03  0.1084749E+04  0.7818609E-02  0.9220186E-01
        4   -1    0    0  501    0  0.00000000000E+00  0.00000000000E+00  0.36681556397E+03  0.36681776248E+03  0.12699999809E+01 0.  1.
       -4   -1    0    0    0  501  0.00000000000E+00  0.00000000000E+00 -0.80195072304E+03  0.80195172865E+03  0.12699999809E+01 0. -1.
    10030    2    1    2    0    0  0.00000000000E+00  0.00000000000E+00 -0.43513515907E+03  0.11687694911E+04  0.10847485961E+04 0.  0.
        5    1    3    3  502    0  0.13471120380E+03  0.12094207027E+03 -0.76841422583E+03  0.78946602539E+03  0.46999998093E+01 0. -1.
       -5    1    3    3    0  502 -0.13471120380E+03 -0.12094207027E+03  0.33327906676E+03  0.37930346574E+03  0.46999998093E+01 0.  1.
</event>
<event>
 5   0  0.4428114E-03  0.1088118E+04  0.7818609E-02  0.9216851E-01
        1   -1    0    0  501    0  0.00000000000E+00  0.00000000000E+00  0.11376797906E+04  0.11376797906E+04  0.50400001928E-02 0. -1.
       -1   -1    0    0    0  501  0.00000000000E+00  0.00000000000E+00 -0.26017897234E+03  0.26017897239E+03  0.50400001928E-02 0.  1.
    10030    2    1    2    0    0  0.00000000000E+00  0.00000000000E+00  0.87750081829E+03  0.13978587630E+04  0.10881183002E+04 0.  0.
        4    1    3    3  502    0  0.37735800285E+03  0.39059104173E+03  0.39735490758E+03  0.67294350407E+03  0.12699999809E+01 0.  1.
       -4    1    3    3    0  502 -0.37735800285E+03 -0.39059104173E+03  0.48014591071E+03  0.72491525895E+03  0.12699999809E+01 0. -1.
</event>
<event>
 5   0  0.7738497E-03  0.1101366E+04  0.7818609E-02  0.9203861E-01
        2   -1    0    0  501    0  0.00000000000E+00  0.00000000000E+00  0.22721019256E+04  0.22721019256E+04  0.25500000920E-02 0. -1.
       -2   -1    0    0    0  501  0.00000000000E+00  0.00000000000E+00 -0.13346758814E+03  0.13346758816E+03  0.25500000920E-02 0.  1.
    10030    2    1    2    0    0  0.00000000000E+00  0.00000000000E+00  0.21386343375E+04  0.24055695138E+04  0.11013663587E+04 0.  0.
        4    1    3    3  502    0 -0.39707401069E+03  0.21928408539E+03  0.38732107210E+03  0.59646668462E+03  0.12699999809E+01 0.  1.
       -4    1    3    3    0  502  0.39707401069E+03 -0.21928408539E+03  0.17513132654E+04  0.18091028292E+04  0.12699999809E+01 0. -1.
</event>
<event>
 5   0  0.7712816E-03  0.1158306E+04  0.7818609E-02  0.9150154E-01
       -2   -1    0    0    0  501  0.00000000000E+00  0.00000000000E+00  0.33254495973E+03  0.33254495974E+03  0.25500000920E-02 0.  1.
        2   -1    0    0  501    0  0.00000000000E+00  0.00000000000E+00 -0.10086409947E+04  0.10086409947E+04  0.25500000920E-02 0. -1.
    10030    2    1    2    0    0  0.00000000000E+00  0.00000000000E+00 -0.67609603494E+03  0.13411859544E+04  0.11583064861E+04 0.  0.
        2    1    3    3  502    0  0.49312253336E+02 -0.40926883576E+03  0.13297906268E+03  0.43314675269E+03  0.25500000920E-02 0.  1.
       -2    1    3    3    0  502 -0.49312253336E+02  0.40926883576E+03 -0.80907509762E+03  0.90803920171E+03  0.25500000920E-02 0. -1.
</event>
<event>
 5   0  0.4504740E-03  0.1088493E+04  0.7818609E-02  0.9216480E-01
        1   -1    0    0  501    0  0.00000000000E+00  0.00000000000E+00  0.26276371947E+04  0.26276371947E+04  0.50400001928E-02 0.  1.
       -1   -1    0    0    0  501  0.00000000000E+00  0.00000000000E+00 -0.11272656154E+03  0.11272656165E+03  0.50400001928E-02 0. -1.
    10030    2    1    2    0    0  0.00000000000E+00  0.00000000000E+00  0.25149106332E+04  0.27403637564E+04  0.10884934655E+04 0.  0.
        5    1    3    3  502    0 -0.39268514669E+03 -0.32812374475E+02  0.31242821119E+03  0.50290332420E+03  0.46999998093E+01 0. -1.
       -5    1    3    3    0  502  0.39268514669E+03  0.32812374475E+02  0.22024824220E+04  0.22374604322E+04  0.46999998093E+01 0.  1.
</event>
<event>
 5   0  0.7766551E-03  0.1081395E+04  0.7818609E-02  0.9223518E-01
       -2   -1    0    0    0  501  0.00000000000E+00  0.00000000000E+00  0.35796384666E+03  0.35796384666E+03  0.25500000920E-02 0. -1.
        2   -1    0    0  501    0  0.00000000000E+00  0.00000000000E+00 -0.81671245790E+03  0.81671245791E+03  0.25500000920E-02 0.  1.
    10030    2    1    2    0    0  0.00000000000E+00  0.00000000000E+00 -0.45874861125E+03  0.11746763046E+04  0.10813945312E+04 0.  0.
        5    1    3    3  502    0  0.28854327650E+03  0.45265431084E+03 -0.29958990637E+03  0.61475958678E+03  0.46999998093E+01 0.  1.
       -5    1    3    3    0  502 -0.28854327650E+03 -0.45265431084E+03 -0.15915870487E+03  0.55991671780E+03  0.46999998093E+01 0. -1.
</event>
<event>
 5   0  0.7712816E-03  0.7613551E+03  0.7818609E-02  0.9617702E-01
        2   -1    0    0  501    0  0.00000000000E+00  0.00000000000E+00  0.21607887520E+03  0.21607887522E+03  0.25500000920E-02 0. -1.
       -2   -1    0    0    0  501  0.00000000000E+00  0.00000000000E+00 -0.67065976769E+03  0.67065976770E+03  0.25500000920E-02 0.  1.
    10030    2    1    2    0    0  0.00000000000E+00  0.00000000000E+00 -0.45458089249E+03  0.88673864292E+03  0.76135512938E+03 0.  0.
        2    1    3    3  502    0  0.31072909419E+03  0.28407131345E+02  0.26695938821E+02  0.31316482600E+03  0.25500000920E-02 0. -1.
       -2    1    3    3    0  502 -0.31072909419E+03 -0.28407131345E+02 -0.48127683131E+03  0.57357381692E+03  0.25500000920E-02 0.  1.
</event>
<event>
 5   0  0.2992375E-03  0.1137856E+04  0.7818609E-02  0.9169061E-01
        4   -1    0    0  501    0  0.00000000000E+00  0.00000000000E+00  0.80581024331E+03  0.80581124411E+03  0.12699999809E+01 0. -1.
       -4   -1    0    0    0  501  0.00000000000E+00  0.00000000000E+00 -0.40167901404E+03  0.40168102173E+03  0.12699999809E+01 0.  1.
    10030    2    1    2    0    0  0.00000000000E+00  0.00000000000E+00  0.40413122927E+03  0.12074922658E+04  0.11378556682E+04 0.  0.
        2    1    3    3  502    0  0.47357218063E+03  0.15048327955E+03 -0.91951965676E+02  0.50534244991E+03  0.25500000920E-02 0.  1.
       -2    1    3    3    0  502 -0.47357218063E+03 -0.15048327955E+03  0.49608319495E+03  0.70214981593E+03  0.25500000920E-02 0. -1.
</event>
<event>
 5   0  0.4298101E-03  0.1093661E+04  0.7818609E-02  0.9211393E-01
        1   -1    0    0  501    0  0.00000000000E+00  0.00000000000E+00  0.30413425512E+03  0.30413425516E+03  0.50400001928E-02 0. -1.
       -1   -1    0    0    0  501  0.00000000000E+00  0.00000000000E+00 -0.98319561802E+03  0.98319561803E+03  0.50400001928E-02 0.  1.
    10030    2    1    2    0    0  0.00000000000E+00  0.00000000000E+00 -0.67906136290E+03  0.12873298732E+04  0.10936607645E+04 0.  0.
        3    1    3    3  502    0  0.34960025505E+03 -0.41056988342E+03 -0.23271084278E+03  0.58731789864E+03  0.10100000352E+00 0.  1.
       -3    1    3    3    0  502 -0.34960025505E+03  0.41056988342E+03 -0.44635052012E+03  0.70001197455E+03  0.10100000352E+00 0. -1.
</event>
<event>
 5   0  0.7537480E-03  0.1056037E+04  0.7818609E-02  0.9249134E-01
        2   -1    0    0  501    0  0.00000000000E+00  0.00000000000E+00  0.64491253780E+03  0.64491253780E+03  0.25500000920E-02 0.  1.
       -2   -1    0    0    0  501  0.00000000000E+00  0.00000000000E+00 -0.43231189547E+03  0.43231189547E+03  0.25500000920E-02 0. -1.
    10030    2    1    2    0    0  0.00000000000E+00  0.00000000000E+00  0.21260064233E+03  0.10772244333E+04  0.10560366691E+04 0.  0.
        1    1    3    3  502    0 -0.13530331861E+03  0.58821123184E+02 -0.41085923395E+03  0.43654578535E+03  0.50400001928E-02 0. -1.
       -1    1    3    3    0  502  0.13530331861E+03 -0.58821123184E+02  0.62345987628E+03  0.64067864793E+03  0.50400001928E-02 0.  1.
</event>
<event>
 5   0  0.4298101E-03  0.1109675E+04  0.7818609E-02  0.9195813E-01
       -1   -1    0    0    0  501  0.00000000000E+00  0.00000000000E+00  0.53912443106E+03  0.53912443109E+03  0.50400001928E-02 0.  1.
        1   -1    0    0  501    0  0.00000000000E+00  0.00000000000E+00 -0.57100885251E+03  0.57100885253E+03  0.50400001928E-02 0. -1.
    10030    2    1    2    0    0  0.00000000000E+00  0.00000000000E+00 -0.31884421446E+02  0.11101332836E+04  0.11096753088E+04 0.  0.
        3    1    3    3  502    0  0.52347130080E+03 -0.15906210354E+03  0.76409792990E+02  0.55241417633E+03  0.10100000352E+00 0.  1.
       -3    1    3    3    0  502 -0.52347130080E+03  0.15906210354E+03 -0.10829421444E+03  0.55771910728E+03  0.10100000352E+00 0. -1.
</event>
<event>
 5   0  0.7712816E-03  0.1123431E+04  0.7818609E-02  0.9182650E-01
       -2   -1    0    0    0  501  0.00000000000E+00  0.00000000000E+00  0.97601978708E+03  0.97601978709E+03  0.25500000920E-02 0.  1.
        2   -1    0    0  501    0  0.00000000000E+00  0.00000000000E+00 -0.32327677060E+03  0.32327677061E+03  0.25500000920E-02 0. -1.
    10030    2    1    2    0    0  0.00000000000E+00  0.00000000000E+00  0.65274301649E+03  0.12992965577E+04  0.11234313950E+04 0.  0.
        2    1    3    3  502    0  0.11812331405E+02 -0.53812352087E+03  0.14057416706E+03  0.55630706569E+03  0.25500000920E-02 0. -1.
       -2    1    3    3    0  502 -0.11812331405E+02  0.53812352087E+03  0.51216884943E+03  0.74298949200E+03  0.25500000920E-02 0.  1.
</event>
<event>
 5   0  0.7952121E-03  0.1117234E+04  0.7818609E-02  0.9188556E-01
        2   -1    0    0  501    0  0.00000000000E+00  0.00000000000E+00  0.39080107752E+03  0.39080107753E+03  0.25500000920E-02 0. -1.
       -2   -1    0    0    0  501  0.00000000000E+00  0.00000000000E+00 -0.79849492348E+03  0.79849492348E+03  0.25500000920E-02 0.  1.
    10030    2    1    2    0    0  0.00000000000E+00  0.00000000000E+00 -0.40769384596E+03  0.11892960010E+04  0.11172335056E+04 0.  0.
        3    1    3    3  502    0 -0.29931104280E+03 -0.22582291951E+03 -0.64464484919E+03  0.74575470706E+03  0.10100000352E+00 0.  1.
       -3    1    3    3    0  502  0.29931104280E+03  0.22582291951E+03  0.23695100323E+03  0.44354129396E+03  0.10100000352E+00 0. -1.
</event>
<event>
 5   0  0.7537480E-03  0.9403435E+03  0.7818609E-02  0.9376509E-01
        2   -1    0    0  501    0  0.00000000000E+00  0.00000000000E+00  0.58658686365E+03  0.58658686365E+03  0.25500000920E-02 0.  1.
       -2   -1    0    0    0  501  0.00000000000E+00  0.00000000000E+00 -0.37686063513E+03  0.37686063514E+03  0.25500000920E-02 0. -1.
    10030    2    1    2    0    0  0.00000000000E+00  0.00000000000E+00  0.20972622852E+03  0.96344749879E+03  0.94034354999E+03 0.  0.
        1    1    3    3  502    0 -0.25447721657E+03 -0.19392937440E+02 -0.29971448081E+03  0.39365404839E+03  0.50400001928E-02 0. -1.
       -1    1    3    3    0  502  0.25447721657E+03  0.19392937440E+02  0.50944070933E+03  0.56979345041E+03  0.50400001928E-02 0.  1.
</event>
<event>
 5   0  0.7766551E-03  0.1079878E+04  0.7818609E-02  0.9225029E-01
       -2   -1    0    0    0  501  0.00000000000E+00  0.00000000000E+00  0.47425697325E+03  0.47425697326E+03  0.25500000920E-02 0.  1.
        2   -1    0    0  501    0  0.00000000000E+00  0.00000000000E+00 -0.61471810900E+03  0.61471810901E+03  0.25500000920E-02 0. -1.
    10030    2    1    2    0    0  0.00000000000E+00  0.00000000000E+00 -0.14046113575E+03  0.10889750823E+04  0.10798784187E+04 0.  0.
        5    1    3    3  502    0 -0.28056944632E+03 -0.31149709530E+03 -0.41333570966E+03  0.58874285852E+03  0.46999998093E+01 0. -1.
       -5    1    3    3    0  502  0.28056944632E+03  0.31149709530E+03  0.27287457391E+03  0.50023222374E+03  0.46999998093E+01 0.  1.
</event>
<event>
 5   0  0.4428114E-03  0.1114095E+04  0.7818609E-02  0.9191562E-01
        1   -1    0    0  501    0  0.00000000000E+00  0.00000000000E+00  0.51390401549E+03  0.51390401551E+03  0.50400001928E-02 0.  1.
       -1   -1    0    0    0  501  0.00000000000E+00  0.00000000000E+00 -0.60381267133E+03  0.60381267135E+03  0.50400001928E-02 0. -1.
    10030    2    1    2    0    0  0.00000000000E+00  0.00000000000E+00 -0.89908655840E+02  0.11177166869E+04  0.11140947113E+04 0.  0.
        4    1    3    3  502    0  0.73696817956E+02  0.36800023037E+03 -0.45792925455E+03  0.59207787123E+03  0.12699999809E+01 0. -1.
       -4    1    3    3    0  502 -0.73696817956E+02 -0.36800023037E+03  0.36802059871E+03  0.52563881563E+03  0.12699999809E+01 0.  1.
</event>
<event>
 5   0  0.4504740E-03  0.1105717E+04  0.7818609E-02  0.9199638E-01
        1   -1    0    0  501    0  0.00000000000E+00  0.00000000000E+00  0.44375054629E+03  0.44375054631E+03  0.50400001928E-02 0. -1.
       -1   -1    0    0    0  501  0.00000000000E+00  0.00000000000E+00 -0.68879299584E+03  0.68879299586E+03  0.50400001928E-02 0.  1.
    10030    2    1    2    0    0  0.00000000000E+00  0.00000000000E+00 -0.24504244956E+03  0.11325435422E+04  0.11057165427E+04 0.  0.
        5    1    3    3  502    0 -0.43858902329E+03  0.29663911400E+03  0.40317388486E+02  0.53103924254E+03  0.46999998093E+01 0.  1.
       -5    1    3    3    0  502  0.43858902329E+03 -0.29663911400E+03 -0.28535983804E+03  0.60150429963E+03  0.46999998093E+01 0. -1.
</event>
<event>
 5   0  0.2992375E-03  0.1129221E+04  0.7818609E-02  0.9177170E-01
       -3   -1    0    0    0  501  0.00000000000E+00  0.00000000000E+00  0.74403228646E+03  0.74403229332E+03  0.10100000352E+00 0. -1.
        3   -1    0    0  501    0  0.00000000000E+00  0.00000000000E+00 -0.42845579887E+03  0.42845581077E+03  0.10100000352E+00 0.  1.
    10030    2    1    2    0    0  0.00000000000E+00  0.00000000000E+00  0.31557648760E+03  0.11724881041E+04  0.11292208972E+04 0.  0.
        3    1    3    3  502    0  0.46302148491E+03  0.37945458226E+02  0.49095048953E+03  0.67591504396E+03  0.10100000352E+00 0. -1.
       -3    1    3    3    0  502 -0.46302148491E+03 -0.37945458226E+02 -0.17537400193E+03  0.49657306013E+03  0.10100000352E+00 0.  1.
</event>
<event>
 5   0  0.7738497E-03  0.1111659E+04  0.7818609E-02  0.9193902E-01
        2   -1    0    0  501    0  0.00000000000E+00  0.00000000000E+00  0.82710537047E+03  0.82710537047E+03  0.25500000920E-02 0. -1.
       -2   -1    0    0    0  501  0.00000000000E+00  0.00000000000E+00 -0.37352743715E+03  0.37352743716E+03  0.25500000920E-02 0.  1.
    10030    2    1    2    0    0  0.00000000000E+00  0.00000000000E+00  0.45357793331E+03  0.12006328076E+04  0.11116592091E+04 0.  0.
        4    1    3    3  502    0  0.25510282337E+03 -0.35772297114E+03 -0.14090250360E+03  0.46140904087E+03  0.12699999809E+01 0.  1.
       -4    1    3    3    0  502 -0.25510282337E+03  0.35772297114E+03  0.59448043692E+03  0.73922376676E+03  0.12699999809E+01 0. -1.
</event>
<event>
 5   0  0.4428114E-03  0.1044117E+04  0.7818609E-02  0.9261438E-01
       -1   -1    0    0    0  501  0.00000000000E+00  0.00000000000E+00  0.19826259715E+03  0.19826259721E+03  0.50400001928E-02 0.  1.
        1   -1    0    0  501    0  0.00000000000E+00  0.00000000000E+00 -0.13746684294E+04  0.13746684294E+04  0.50400001928E-02 0. -1.
    10030    2    1    2    0    0  0.00000000000E+00  0.00000000000E+00 -0.11764058322E+04  0.15729310266E+04  0.10441174897E+04 0.  0.
        4    1    3    3  502    0  0.40811972657E+03 -0.49739036235E+02 -0.10353156957E+03  0.42397651083E+03  0.12699999809E+01 0.  1.
       -4    1    3    3    0  502 -0.40811972657E+03  0.49739036235E+02 -0.10728742627E+04  0.11489545158E+04  0.12699999809E+01 0. -1.
</event>
<event>
 5   0  0.2992375E-03  0.1138137E+04  0.7818609E-02  0.9168798E-01
       -3   -1    0    0    0  501  0.00000000000E+00  0.00000000000E+00  0.41580527128E+03  0.41580528355E+03  0.10100000352E+00 0. -1.
        3   -1    0    0  501    0  0.00000000000E+00  0.00000000000E+00 -0.77882389550E+03  0.77882390205E+03  0.10100000352E+00 0.  1.
    10030    2    1    2    0    0  0.00000000000E+00  0.00000000000E+00 -0.36301862422E+03  0.11946291856E+04  0.11381372367E+04 0.  0.
        5    1    3    3  502    0 -0.35916191253E+02 -0.49162761405E+03  0.11690726681E+03  0.50663308490E+03  0.46999998093E+01 0. -1.
       -5    1    3    3    0  502  0.35916191253E+02  0.49162761405E+03 -0.47992589102E+03  0.68799610069E+03  0.46999998093E+01 0.  1.
</event>
<event>
 5   0  0.4641021E-03  0.1107659E+04  0.7818609E-02  0.9197759E-01
       -1   -1    0    0    0  501  0.00000000000E+00  0.00000000000E+00  0.85547603767E+03  0.85547603768E+03  0.50400001928E-02 0. -1.
        1   -1    0    0  501    0  0.00000000000E+00  0.00000000000E+00 -0.35854526194E+03  0.35854526197E+03  0.50400001928E-02 0.  1.
    10030    2    1    2    0    0  0.00000000000E+00  0.00000000000E+00  0.49693077573E+03  0.12140212997E+04  0.11076585756E+04 0.  0.
        1    1    3    3  502    0 -0.62961537819E+02 -0.16801608260E+03  0.82273776089E+03  0.84207540189E+03  0.50400001928E-02 0. -1.
       -1    1    3    3    0  502  0.62961537819E+02  0.16801608260E+03 -0.32580698516E+03  0.37194589776E+03  0.50400001928E-02 0.  1.
</event>
<event>
 5   0  0.7537480E-03  0.1107930E+04  0.7818609E-02  0.9197497E-01
        2   -1    0    0  501    0  0.00000000000E+00  0.00000000000E+00  0.74390396897E+03  0.74390396897E+03  0.25500000920E-02 0.  1.
       -2   -1    0    0    0  501  0.00000000000E+00  0.00000000000E+00 -0.41252273243E+03  0.41252273244E+03  0.25500000920E-02 0. -1.
    10030    2    1    2    0    0  0.00000000000E+00  0.00000000000E+00  0.33138123653E+03  0.11564267014E+04  0.11079301385E+04 0.  0.
        1    1    3    3  502    0  0.62768708725E+02  0.40338294398E+03  0.55654058304E+03  0.69021382983E+03  0.50400001928E-02 0.  1.
       -1    1    3    3    0  502 -0.62768708725E+02 -0.40338294398E+03 -0.22515934650E+03  0.46621287159E+03  0.50400001928E-02 0. -1.
</event>
<event>
 5   0  0.4504740E-03  0.1086088E+04  0.7818609E-02  0.9218859E-01
       -1   -1    0    0    0  501  0.00000000000E+00  0.00000000000E+00  0.59838403605E+03  0.59838403607E+03  0.50400001928E-02 0. -1.
        1   -1    0    0  501    0  0.00000000000E+00  0.00000000000E+00 -0.49282173970E+03  0.49282173973E+03  0.50400001928E-02 0.  1.
    10030    2    1    2    0    0  0.00000000000E+00  0.00000000000E+00  0.10556229634E+03  0.10912057758E+04  0.10860877712E+04 0.  0.
        5    1    3    3  502    0 -0.52356989617E+03  0.35612758162E+02 -0.87450446462E+02  0.53203700557E+03  0.46999998093E+01 0.  1.
       -5    1    3    3    0  502  0.52356989617E+03 -0.35612758162E+02  0.19301274281E+03  0.55916877023E+03  0.46999998093E+01 0. -1.
</event>
<event>
 5   0  0.7738497E-03  0.1099020E+04  0.7818609E-02  0.9206148E-01
       -2   -1    0    0    0  501  0.00000000000E+00  0.00000000000E+00  0.49275403784E+03  0.49275403785E+03  0.25500000920E-02 0. -1.
        2   -1    0    0  501    0  0.00000000000E+00  0.00000000000E+00 -0.61280317285E+03  0.61280317286E+03  0.25500000920E-02 0.  1.
    10030    2    1    2    0    0  0.00000000000E+00  0.00000000000E+00 -0.12004913501E+03  0.11055572107E+04  0.10990199959E+04 0.  0.
        4    1    3    3  502    0  0.48113046424E+03  0.24802907731E+03  0.35167468794E+02  0.54244198821E+03  0.12699999809E+01 0.  1.
       -4    1    3    3    0  502 -0.48113046424E+03 -0.24802907731E+03 -0.15521660380E+03  0.56311522250E+03  0.12699999809E+01 0. -1.
</event>
<event>
 5   0  0.7537480E-03  0.1087060E+04  0.7818609E-02  0.9217897E-01
        2   -1    0    0  501    0  0.00000000000E+00  0.00000000000E+00  0.62705954452E+03  0.62705954452E+03  0.25500000920E-02 0. -1.
       -2   -1    0    0    0  501  0.00000000000E+00  0.00000000000E+00 -0.47112715146E+03  0.47112715147E+03  0.25500000920E-02 0.  1.
    10030    2    1    2    0    0  0.00000000000E+00  0.00000000000E+00  0.15593239306E+03  0.10981866960E+04  0.10870598457E+04 0.  0.
        1    1    3    3  502    0  0.11579536503E+03 -0.40949913685E+03 -0.26361699832E+03  0.50059168139E+03  0.50400001928E-02 0.  1.
       -1    1    3    3    0  502 -0.11579536503E+03  0.40949913685E+03  0.41954939138E+03  0.59759501460E+03  0.50400001928E-02 0. -1.
</event>
<event>
 5   0  0.7952121E-03  0.1107873E+04  0.7818609E-02  0.9197552E-01
        2   -1    0    0  501    0  0.00000000000E+00  0.00000000000E+00  0.41857605305E+03  0.41857605306E+03  0.25500000920E-02 0.  1.
       -2   -1    0    0    0  501  0.00000000000E+00  0.00000000000E+00 -0.73307063903E+03  0.73307063904E+03  0.25500000920E-02 0. -1.
    10030    2    1    2    0    0  0.00000000000E+00  0.00000000000E+00 -0.31449458598E+03  0.11516466921E+04  0.11078733045E+04 0.  0.
        3    1    3    3  502    0  0.69992491751E+02  0.39154257326E+03 -0.55802067448E+03  0.68526755281E+03  0.10100000352E+00 0. -1.
       -3    1    3    3    0  502 -0.69992491751E+02 -0.39154257326E+03  0.24352608850E+03  0.46637913928E+03  0.10100000352E+00 0.  1.
</event>
<event>
 5   0  0.7712816E-03  0.1102905E+04  0.7818609E-02  0.9202365E-01
       -2   -1    0    0    0  501  0.00000000000E+00  0.00000000000E+00  0.39908482655E+03  0.39908482656E+03  0.25500000920E-02 0.  1.
        2   -1    0    0  501    0  0.00000000000E+00  0.00000000000E+00 -0.76199252752E+03  0.76199252752E+03  0.25500000920E-02 0. -1.
    10030    2    1    2    0    0  0.00000000000E+00  0.00000000000E+00 -0.36290770097E+03  0.11610773541E+04  0.11029046299E+04 0.  0.
        2    1    3    3  502    0 -0.14178602968E+03 -0.49982645063E+03  0.13147131634E+02  0.51971396560E+03  0.25500000920E-02 0.  1.
       -2    1    3    3    0  502  0.14178602968E+03  0.49982645063E+03 -0.37605483260E+03  0.64136338848E+03  0.25500000920E-02 0. -1.
</event>
<event>
 5   0  0.7537480E-03  0.1119342E+04  0.7818609E-02  0.9186542E-01
       -2   -1    0    0    0  501  0.00000000000E+00  0.00000000000E+00  0.22756212760E+03  0.22756212761E+03  0.25500000920E-02 0.  1.
        2   -1    0    0  501    0  0.00000000000E+00  0.00000000000E+00 -0.13764672031E+04  0.13764672031E+04  0.25500000920E-02 0. -1.
    10030    2    1    2    0    0  0.00000000000E+00  0.00000000000E+00 -0.11489050755E+04  0.16040293307E+04  0.11193423164E+04 0.  0.
        1    1    3    3  502    0  0.32161431532E+03  0.74947988027E+02  0.73069785632E+02  0.33821910402E+03  0.50400001928E-02 0.  1.
       -1    1    3    3    0  502 -0.32161431532E+03 -0.74947988027E+02 -0.12219748611E+04  0.12658102267E+04  0.50400001928E-02 0. -1.
</event>
<event>
 5   0  0.7766551E-03  0.1062797E+04  0.7818609E-02  0.9242231E-01
        2   -1    0    0  501    0  0.00000000000E+00  0.00000000000E+00  0.23832310556E+04  0.23832310556E+04  0.25500000920E-02 0.  1.
       -2   -1    0    0    0  501  0.00000000000E+00  0.00000000000E+00 -0.11848808704E+03  0.11848808707E+03  0.25500000920E-02 0. -1.
    10030    2    1    2    0    0  0.00000000000E+00  0.00000000000E+00  0.22647429685E+04  0.25017191427E+04  0.10627972315E+04 0.  0.
        5    1    3    3  502    0 -0.35149261769E+03 -0.19865485820E+03  0.31916237613E+03  0.51468196521E+03  0.46999998093E+01 0. -1.
       -5    1    3    3    0  502  0.35149261769E+03  0.19865485820E+03  0.19455805924E+04  0.19870371774E+04  0.46999998093E+01 0.  1.
</event>
<event>
 5   0  0.7712816E-03  0.1114962E+04  0.7818609E-02  0.9190730E-01
       -2   -1    0    0    0  501  0.00000000000E+00  0.00000000000E+00  0.30460832225E+03  0.30460832226E+03  0.25500000920E-02 0. -1.
        2   -1    0    0  501    0  0.00000000000E+00  0.00000000000E+00 -0.10202780984E+04  0.10202780984E+04  0.25500000920E-02 0.  1.
    10030    2    1    2    0    0  0.00000000000E+00  0.00000000000E+00 -0.71566977617E+03  0.13248864207E+04  0.11149622412E+04 0.  0.
        2    1    3    3  502    0 -0.33902696016E+03  0.42566812968E+03 -0.50167343735E+03  0.74014111769E+03  0.25500000920E-02 0. -1.
       -2    1    3    3    0  502  0.33902696016E+03 -0.42566812968E+03 -0.21399633881E+03  0.58474530300E+03  0.25500000920E-02 0.  1.
</event>
<event>
 5   0  0.4298101E-03  0.1025811E+04  0.7818609E-02  0.9280680E-01
        1   -1    0    0  501    0  0.00000000000E+00  0.00000000000E+00  0.13078946902E+04  0.13078946902E+04  0.50400001928E-02 0.  1.
       -1   -1    0    0    0  501  0.00000000000E+00  0.00000000000E+00 -0.20114176852E+03  0.20114176858E+03  0.50400001928E-02 0. -1.
    10030    2    1    2    0    0  0.00000000000E+00  0.00000000000E+00  0.11067529217E+04  0.15090364588E+04  0.10258113883E+04 0.  0.
        3    1    3    3  502    0  0.39228211143E+03 -0.26696013070E+03  0.26691762251E+03  0.54442446101E+03  0.10100000352E+00 0. -1.
       -3    1    3    3    0  502 -0.39228211143E+03  0.26696013070E+03  0.83983529916E+03  0.96461199778E+03  0.10100000352E+00 0.  1.
</event>
<event>
 5   0  0.4641021E-03  0.1102437E+04  0.7818609E-02  0.9202820E-01
        1   -1    0    0  501    0  0.00000000000E+00  0.00000000000E+00  0.45670930098E+03  0.45670930101E+03  0.50400001928E-02 0. -1.
       -1   -1    0    0    0  501  0.00000000000E+00  0.00000000000E+00 -0.66528508767E+03  0.66528508769E+03  0.50400001928E-02 0.  1.
    10030    2    1    2    0    0  0.00000000000E+00  0.00000000000E+00 -0.20857578669E+03  0.11219943887E+04  0.11024370955E+04 0.  0.
        1    1    3    3  502    0 -0.13065248592E+03  0.27693610688E+03  0.36218602762E+03  0.47428092730E+03  0.50400001928E-02 0. -1.
       -1    1    3    3    0  502  0.13065248592E+03 -0.27693610688E+03 -0.57076181431E+03  0.64771346140E+03  0.50400001928E-02 0.  1.
</event>
<event>
 5   0  0.7712816E-03  0.1101375E+04  0.7818609E-02  0.9203853E-01
        2   -1    0    0  501    0  0.00000000000E+00  0.00000000000E+00  0.22720740890E+04  0.22720740890E+04  0.25500000920E-02 0. -1.
       -2   -1    0    0    0  501  0.00000000000E+00  0.00000000000E+00 -0.13347123691E+03  0.13347123694E+03  0.25500000920E-02 0.  1.
    10030    2    1    2    0    0  0.00000000000E+00  0.00000000000E+00  0.21386028521E+04  0.24055453259E+04  0.11013746666E+04 0.  0.
        2    1    3    3  502    0 -0.21758749935E+03  0.27144914512E+03  0.20016654690E+04  0.20316726134E+04  0.25500000920E-02 0. -1.
       -2    1    3    3    0  502  0.21758749935E+03 -0.27144914512E+03  0.13693738303E+03  0.37387271248E+03  0.25500000920E-02 0.  1.
</event>
<event>
 5   0  0.7766551E-03  0.1109942E+04  0.7818609E-02  0.9195555E-01
       -2   -1    0    0    0  501  0.00000000000E+00  0.00000000000E+00  0.35150470178E+03  0.35150470179E+03  0.25500000920E-02 0. -1.
        2   -1    0    0  501    0  0.00000000000E+00  0.00000000000E+00 -0.87621271841E+03  0.87621271841E+03  0.25500000920E-02 0.  1.
    10030    2    1    2    0    0  0.00000000000E+00  0.00000000000E+00 -0.52470801663E+03  0.12277174202E+04  0.11099421432E+04 0.  0.
        5    1    3    3  502    0  0.18085104216E+03 -0.41840841846E+03 -0.61248278929E+03  0.76349850115E+03  0.46999998093E+01 0.  1.
       -5    1    3    3    0  502 -0.18085104216E+03  0.41840841846E+03  0.87774772653E+02  0.46421891905E+03  0.46999998093E+01 0. -1.
</event>
<event>
 5   0  0.7766551E-03  0.1091368E+04  0.7818609E-02  0.9213646E-01
       -2   -1    0    0    0  501  0.00000000000E+00  0.00000000000E+00  0.35649036019E+03  0.35649036020E+03  0.25500000920E-02 0.  1.
        2   -1    0    0  501    0  0.00000000000E+00  0.00000000000E+00 -0.83528512047E+03  0.83528512047E+03  0.25500000920E-02 0. -1.
    10030    2    1    2    0    0  0.00000000000E+00  0.00000000000E+00 -0.47879476027E+03  0.11917754807E+04  0.10913681202E+04 0.  0.
        5    1    3    3  502    0  0.19584596383E+03  0.48235388358E+03 -0.41792572094E+03  0.66761134560E+03  0.46999998093E+01 0. -1.
       -5    1    3    3    0  502 -0.19584596383E+03 -0.48235388358E+03 -0.60869039336E+02  0.52416413508E+03  0.46999998093E+01 0.  1.
</event>
<event>
 5   0  0.4428114E-03  0.1114762E+04  0.7818609E-02  0.9190922E-01
        1   -1    0    0  501    0  0.00000000000E+00  0.00000000000E+00  0.57417081240E+03  0.57417081242E+03  0.50400001928E-02 0. -1.
       -1   -1    0    0    0  501  0.00000000000E+00  0.00000000000E+00 -0.54108190066E+03  0.54108190068E+03  0.50400001928E-02 0.  1.
    10030    2    1    2    0    0  0.00000000000E+00  0.00000000000E+00  0.33088911743E+02  0.11152527131E+04  0.11147617405E+04 0.  0.
        4    1    3    3  502    0  0.15898644288E+03 -0.45959463942E+03 -0.25591333108E+03  0.54954268945E+03  0.12699999809E+01 0.  1.
       -4    1    3    3    0  502 -0.15898644288E+03  0.45959463942E+03  0.28900224282E+03  0.56571002365E+03  0.12699999809E+01 0. -1.
</event>
<event>
 5   0  0.4504740E-03  0.1137992E+04  0.7818609E-02  0.9168933E-01
       -1   -1    0    0    0  501  0.00000000000E+00  0.00000000000E+00  0.20807509630E+03  0.20807509636E+03  0.50400001928E-02 0.  1.
        1   -1    0    0  501    0  0.00000000000E+00  0.00000000000E+00 -0.15559601093E+04  0.15559601094E+04  0.50400001928E-02 0. -1.
    10030    2    1    2    0    0  0.00000000000E+00  0.00000000000E+00 -0.13478850130E+04  0.17640352057E+04  0.11379921786E+04 0.  0.
        5    1    3    3  502    0 -0.14050810967E+03  0.52879392678E+03 -0.43195883784E+03  0.69711984154E+03  0.46999998093E+01 0.  1.
       -5    1    3    3    0  502  0.14050810967E+03 -0.52879392678E+03 -0.91592617521E+03  0.10669153642E+04  0.46999998093E+01 0. -1.
</event>
<event>
 5   0  0.7537480E-03  0.1096333E+04  0.7818609E-02  0.9208773E-01
        2   -1    0    0  501    0  0.00000000000E+00  0.00000000000E+00  0.19578918235E+04  0.19578918236E+04  0.25500000920E-02 0. -1.
       -2   -1    0    0    0  501  0.00000000000E+00  0.00000000000E+00 -0.15347459584E+03  0.15347459586E+03  0.25500000920E-02 0.  1.
    10030    2    1    2    0    0  0.00000000000E+00  0.00000000000E+00  0.18044172277E+04  0.21113664194E+04  0.10963332638E+04 0.  0.
        1    1    3    3  502    0  0.45985603475E+03  0.42595750875E+02  0.33349852961E+03  0.56965185856E+03  0.50400001928E-02 0.  1.
       -1    1    3    3    0  502 -0.45985603475E+03 -0.42595750875E+02  0.14709186981E+04  0.15417145608E+04  0.50400001928E-02 0. -1.
</event>
<event>
 5   0  0.7738497E-03  0.1096877E+04  0.7818609E-02  0.9208241E-01
       -2   -1    0    0    0  501  0.00000000000E+00  0.00000000000E+00  0.23416813302E+03  0.23416813303E+03  0.25500000920E-02 0. -1.
        2   -1    0    0  501    0  0.00000000000E+00  0.00000000000E+00 -0.12844821334E+04  0.12844821334E+04  0.25500000920E-02 0.  1.
    10030    2    1    2    0    0  0.00000000000E+00  0.00000000000E+00 -0.10503140003E+04  0.15186502664E+04  0.10968769905E+04 0.  0.
        4    1    3    3  502    0  0.27988502160E+03  0.41418982680E+03 -0.21281200268E+03  0.54330414992E+03  0.12699999809E+01 0. -1.
       -4    1    3    3    0  502 -0.27988502160E+03 -0.41418982680E+03 -0.83750199766E+03  0.97534611648E+03  0.12699999809E+01 0.  1.
</event>
<event>
 5   0  0.7712816E-03  0.1094397E+04  0.7818609E-02  0.9210670E-01
        2   -1    0    0  501    0  0.00000000000E+00  0.00000000000E+00  0.70648646000E+03  0.70648646001E+03  0.25500000920E-02 0. -1.
       -2   -1    0    0    0  501  0.00000000000E+00  0.00000000000E+00 -0.42382475633E+03  0.42382475634E+03  0.25500000920E-02 0.  1.
    10030    2    1    2    0    0  0.00000000000E+00  0.00000000000E+00  0.28266170367E+03  0.11303112163E+04  0.10943974630E+04 0.  0.
        2    1    3    3  502    0 -0.29916553166E+03  0.12194286540E+03 -0.31481426811E+03  0.45108546991E+03  0.25500000920E-02 0.  1.
       -2    1    3    3    0  502  0.29916553166E+03 -0.12194286540E+03  0.59747597179E+03  0.67922574643E+03  0.25500000920E-02 0. -1.
</event>
<event>
 5   0  0.7712816E-03  0.1109044E+04  0.7818609E-02  0.9196422E-01
       -2   -1    0    0    0  501  0.00000000000E+00  0.00000000000E+00  0.85933553558E+03  0.85933553558E+03  0.25500000920E-02 0. -1.
        2   -1    0    0  501    0  0.00000000000E+00  0.00000000000E+00 -0.35782825023E+03  0.35782825024E+03  0.25500000920E-02 0.  1.
    10030    2    1    2    0    0  0.00000000000E+00  0.00000000000E+00  0.50150728535E+03  0.12171637858E+04  0.11090437882E+04 0.  0.
        2    1    3    3  502    0  0.27414529778E+02 -0.36147430395E+03  0.71127999114E+03  0.79833229589E+03  0.25500000920E-02 0. -1.
       -2    1    3    3    0  502 -0.27414529778E+02  0.36147430395E+03 -0.20977270579E+03  0.41883148993E+03  0.25500000920E-02 0.  1.
</event>
<event>
 5   0  0.2992375E-03  0.7450107E+03  0.7818609E-02  0.9643210E-01
        4   -1    0    0  501    0  0.00000000000E+00  0.00000000000E+00  0.38013496637E+03  0.38013708784E+03  0.12699999809E+01 0.  1.
       -4   -1    0    0    0  501  0.00000000000E+00  0.00000000000E+00 -0.36502461264E+03  0.36502682194E+03  0.12699999809E+01 0. -1.
    10030    2    1    2    0    0  0.00000000000E+00  0.00000000000E+00  0.15110353727E+02  0.74516390978E+03  0.74501069096E+03 0.  0.
        1    1    3    3  502    0 -0.35787921877E+03 -0.98722470541E+02  0.38164917828E+02  0.37320265593E+03  0.50400001928E-02 0.  1.
       -1    1    3    3    0  502  0.35787921877E+03  0.98722470541E+02 -0.23054564101E+02  0.37196125385E+03  0.50400001928E-02 0. -1.
</event>
<event>
 5   0  0.4298101E-03  0.1109769E+04  0.7818609E-02  0.9195722E-01
       -1   -1    0    0    0  501  0.00000000000E+00  0.00000000000E+00  0.22602612253E+03  0.22602612259E+03  0.50400001928E-02 0. -1.
        1   -1    0    0  501    0  0.00000000000E+00  0.00000000000E+00 -0.13622183745E+04  0.13622183745E+04  0.50400001928E-02 0.  1.
    10030    2    1    2    0    0  0.00000000000E+00  0.00000000000E+00 -0.11361922520E+04  0.15882444971E+04  0.11097692324E+04 0.  0.
        3    1    3    3  502    0 -0.50141142695E+03  0.23252955135E+03 -0.49778731583E+03  0.74382500182E+03  0.10100000352E+00 0.  1.
       -3    1    3    3    0  502  0.50141142695E+03 -0.23252955135E+03 -0.63840493614E+03  0.84441949528E+03  0.10100000352E+00 0. -1.
</event>
<event>
 5   0  0.7766551E-03  0.1064086E+04  0.7818609E-02  0.9240921E-01
        2   -1    0    0  501    0  0.00000000000E+00  0.00000000000E+00  0.28915002154E+04  0.28915002154E+04  0.25500000920E-02 0.  1.
       -2   -1    0    0    0  501  0.00000000000E+00  0.00000000000E+00 -0.97897140110E+02  0.97897140143E+02  0.25500000920E-02 0. -1.
    10030    2    1    2    0    0  0.00000000000E+00  0.00000000000E+00  0.27936030753E+04  0.29893973556E+04  0.10640857142E+04 0.  0.
        5    1    3    3  502    0  0.50097765093E+03  0.20522275541E+02  0.18965809856E+04  0.19617444521E+04  0.46999998093E+01 0.  1.
       -5    1    3    3    0  502 -0.50097765093E+03 -0.20522275541E+02  0.89702208976E+03  0.10276529035E+04  0.46999998093E+01 0. -1.
</event>
<event>
 5   0  0.7537480E-03  0.1148023E+04  0.7818609E-02  0.9159609E-01
        2   -1    0    0  501    0  0.00000000000E+00  0.00000000000E+00  0.24451476903E+03  0.24451476905E+03  0.25500000920E-02 0. -1.
       -2   -1    0    0    0  501  0.00000000000E+00  0.00000000000E+00 -0.13475235475E+04  0.13475235475E+04  0.25500000920E-02 0.  1.
    10030    2    1    2    0    0  0.00000000000E+00  0.00000000000E+00 -0.11030087785E+04  0.15920383166E+04  0.11480233604E+04 0.  0.
        1    1    3    3  502    0  0.33645619366E+03  0.36250420425E+03 -0.95552048968E+03  0.10759328392E+04  0.50400001928E-02 0.  1.
       -1    1    3    3    0  502 -0.33645619366E+03 -0.36250420425E+03 -0.14748828881E+03  0.51610547732E+03  0.50400001928E-02 0. -1.
</event>
<event>
 5   0  0.4428114E-03  0.1082543E+04  0.7818609E-02  0.9222376E-01
        1   -1    0    0  501    0  0.00000000000E+00  0.00000000000E+00  0.46672354182E+03  0.46672354185E+03  0.50400001928E-02 0. -1.
       -1   -1    0    0    0  501  0.00000000000E+00  0.00000000000E+00 -0.62772647130E+03  0.62772647132E+03  0.50400001928E-02 0.  1.
    10030    2    1    2    0    0  0.00000000000E+00  0.00000000000E+00 -0.16100292947E+03  0.10944500132E+04  0.10825427881E+04 0.  0.
        4    1    3    3  502    0 -0.51632669137E+03  0.21443501694E+02 -0.24326931807E+03  0.57116954576E+03  0.12699999809E+01 0. -1.
       -4    1    3    3    0  502  0.51632669137E+03 -0.21443501694E+02  0.82266388602E+02  0.52328046741E+03  0.12699999809E+01 0.  1.
</event>
<event>
 5   0  0.4298101E-03  0.1095786E+04  0.7818609E-02  0.9209308E-01
       -1   -1    0    0    0  501  0.00000000000E+00  0.00000000000E+00  0.43354927234E+03  0.43354927237E+03  0.50400001928E-02 0. -1.
        1   -1    0    0  501    0  0.00000000000E+00  0.00000000000E+00 -0.69239414744E+03  0.69239414746E+03  0.50400001928E-02 0.  1.
    10030    2    1    2    0    0  0.00000000000E+00  0.00000000000E+00 -0.25884487510E+03  0.11259434198E+04  0.10957864369E+04 0.  0.
        3    1    3    3  502    0 -0.52439273652E+03 -0.71156795572E+02  0.16383955952E+02  0.52945205249E+03  0.10100000352E+00 0.  1.
       -3    1    3    3    0  502  0.52439273652E+03  0.71156795572E+02 -0.27522883105E+03  0.59649136734E+03  0.10100000352E+00 0. -1.
</event>
<event>
 5   0  0.7766551E-03  0.1096906E+04  0.7818609E-02  0.9208213E-01
       -2   -1    0    0    0  501  0.00000000000E+00  0.00000000000E+00  0.26147527697E+03  0.26147527698E+03  0.25500000920E-02 0. -1.
        2   -1    0    0  501    0  0.00000000000E+00  0.00000000000E+00 -0.11503977720E+04  0.11503977720E+04  0.25500000920E-02 0.  1.
    10030    2    1    2    0    0  0.00000000000E+00  0.00000000000E+00 -0.88892249507E+03  0.14118730490E+04  0.10969057864E+04 0.  0.
        5    1    3    3  502    0 -0.41637471170E+03  0.17082850738E+03 -0.84786917479E+03  0.95992421942E+03  0.46999998093E+01 0.  1.
       -5    1    3    3    0  502  0.41637471170E+03 -0.17082850738E+03 -0.41053320280E+02  0.45194882960E+03  0.46999998093E+01 0. -1.
</event>
<event>
 5   0  0.7766551E-03  0.1112911E+04  0.7818609E-02  0.9192698E-01
       -2   -1    0    0    0  501  0.00000000000E+00  0.00000000000E+00  0.29076299468E+03  0.29076299470E+03  0.25500000920E-02 0. -1.
        2   -1    0    0  501    0  0.00000000000E+00  0.00000000000E+00 -0.10649317981E+04  0.10649317981E+04  0.25500000920E-02 0.  1.
    10030    2    1    2    0    0  0.00000000000E+00  0.00000000000E+00 -0.77416880343E+03  0.13556947928E+04  0.11129110634E+04 0.  0.
        5    1    3    3  502    0 -0.10130869065E+03  0.10758955132E+02 -0.10534496695E+04  0.10583749346E+04  0.46999998093E+01 0.  1.
       -5    1    3    3    0  502  0.10130869065E+03 -0.10758955132E+02  0.27928086611E+03  0.29731985822E+03  0.46999998093E+01 0. -1.
</event>
<event>
 5   0  0.7712816E-03  0.1223020E+04  0.7818609E-02  0.9092943E-01
       -2   -1    0    0    0  501  0.00000000000E+00  0.00000000000E+00  0.19479057559E+03  0.19479057561E+03  0.25500000920E-02 0.  1.
        2   -1    0    0  501    0  0.00000000000E+00  0.00000000000E+00 -0.19197248617E+04  0.19197248617E+04  0.25500000920E-02 0. -1.
    10030    2    1    2    0    0  0.00000000000E+00  0.00000000000E+00 -0.17249342861E+04  0.21145154373E+04  0.12230197232E+04 0.  0.
        2    1    3    3  502    0 -0.46049578234E+03  0.68104914554E+02 -0.17686484443E+03  0.49797170415E+03  0.25500000920E-02 0.  1.
       -2    1    3    3    0  502  0.46049578234E+03 -0.68104914554E+02 -0.15480694417E+04  0.16165437332E+04  0.25500000920E-02 0. -1.
</event>
<event>
 5   0  0.7738497E-03  0.1102515E+04  0.7818609E-02  0.9202744E-01
        2   -1    0    0  501    0  0.00000000000E+00  0.00000000000E+00  0.33335951625E+03  0.33335951626E+03  0.25500000920E-02 0. -1.
       -2   -1    0    0    0  501  0.00000000000E+00  0.00000000000E+00 -0.91158246359E+03  0.91158246359E+03  0.25500000920E-02 0.  1.
    10030    2    1    2    0    0  0.00000000000E+00  0.00000000000E+00 -0.57822294733E+03  0.12449419799E+04  0.11025147420E+04 0.  0.
        4    1    3    3  502    0 -0.38633224010E+03  0.21800820728E+03 -0.65865476081E+03  0.79410823256E+03  0.12699999809E+01 0.  1.
       -4    1    3    3    0  502  0.38633224010E+03 -0.21800820728E+03  0.80431813475E+02  0.45083374729E+03  0.12699999809E+01 0. -1.
</event>
<event>
 5   0  0.4641021E-03  0.8071563E+03  0.7818609E-02  0.9549716E-01
        1   -1    0    0  501    0  0.00000000000E+00  0.00000000000E+00  0.13188971536E+04  0.13188971536E+04  0.50400001928E-02 0.  1.
       -1   -1    0    0    0  501  0.00000000000E+00  0.00000000000E+00 -0.12349356569E+03  0.12349356579E+03  0.50400001928E-02 0. -1.
    10030    2    1    2    0    0  0.00000000000E+00  0.00000000000E+00  0.11954035879E+04  0.14423907194E+04  0.80715627322E+03 0.  0.
        1    1    3    3  502    0 -0.24462239888E+03  0.25564226406E+03  0.94459322688E+03  0.10086869928E+04  0.50400001928E-02 0.  1.
       -1    1    3    3    0  502  0.24462239888E+03 -0.25564226406E+03  0.25081036100E+03  0.43370372654E+03  0.50400001928E-02 0. -1.
</event>
<event>
 5   0  0.4641021E-03  0.9706381E+03  0.7818609E-02  0.9341348E-01
        1   -1    0    0  501    0  0.00000000000E+00  0.00000000000E+00  0.18586560107E+04  0.18586560107E+04  0.50400001928E-02 0.  1.
       -1   -1    0    0    0  501  0.00000000000E+00  0.00000000000E+00 -0.12672305411E+03  0.12672305421E+03  0.50400001928E-02 0. -1.
    10030    2    1    2    0    0  0.00000000000E+00  0.00000000000E+00  0.17319329566E+04  0.19853790649E+04  0.97063807120E+03 0.  0.
        1    1    3    3  502    0  0.44113532908E+03  0.19741111139E+03  0.95659205485E+03  0.10717461849E+04  0.50400001928E-02 0. -1.
       -1    1    3    3    0  502 -0.44113532908E+03 -0.19741111139E+03  0.77534090173E+03  0.91363287998E+03  0.50400001928E-02 0.  1.
</event>
<event>
 5   0  0.4298101E-03  0.1091182E+04  0.7818609E-02  0.9213829E-01
       -1   -1    0    0    0  501  0.00000000000E+00  0.00000000000E+00  0.41036060007E+03  0.41036060010E+03  0.50400001928E-02 0.  1.
        1   -1    0    0  501    0  0.00000000000E+00  0.00000000000E+00 -0.72538511673E+03  0.72538511674E+03  0.50400001928E-02 0. -1.
    10030    2    1    2    0    0  0.00000000000E+00  0.00000000000E+00 -0.31502451666E+03  0.11357457168E+04  0.10911818763E+04 0.  0.
        3    1    3    3  502    0  0.25070946119E+03 -0.25008068915E+03 -0.58952213601E+03  0.68770047554E+03  0.10100000352E+00 0. -1.
       -3    1    3    3    0  502 -0.25070946119E+03  0.25008068915E+03  0.27449761935E+03  0.44804524130E+03  0.10100000352E+00 0.  1.
</event>
<event>
 5   0  0.7537480E-03  0.1121528E+04  0.7818609E-02  0.9184459E-01
       -2   -1    0    0    0  501  0.00000000000E+00  0.00000000000E+00  0.19759779662E+03  0.19759779664E+03  0.25500000920E-02 0.  1.
        2   -1    0    0  501    0  0.00000000000E+00  0.00000000000E+00 -0.15913966674E+04  0.15913966674E+04  0.25500000920E-02 0. -1.
    10030    2    1    2    0    0  0.00000000000E+00  0.00000000000E+00 -0.13937988708E+04  0.17889944640E+04  0.11215283769E+04 0.  0.
        1    1    3    3  502    0 -0.24866318083E+03  0.35286735198E+03 -0.12678340800E+04  0.13393102703E+04  0.50400001928E-02 0. -1.
       -1    1    3    3    0  502  0.24866318083E+03 -0.35286735198E+03 -0.12596479077E+03  0.44968419377E+03  0.50400001928E-02 0.  1.
</event>
<event>
 5   0  0.2992375E-03  0.1100849E+04  0.7818609E-02  0.9204365E-01
       -3   -1    0    0    0  501  0.00000000000E+00  0.00000000000E+00  0.53725155117E+03  0.53725156067E+03  0.10100000352E+00 0.  1.
        3   -1    0    0  501    0  0.00000000000E+00  0.00000000000E+00 -0.56392068950E+03  0.56392069855E+03  0.10100000352E+00 0. -1.
    10030    2    1    2    0    0  0.00000000000E+00  0.00000000000E+00 -0.26669138328E+02  0.11011722592E+04  0.11008492638E+04 0.  0.
        4    1    3    3  502    0  0.33405564717E+03 -0.30602327358E+03 -0.32603186055E+03  0.55815930197E+03  0.12699999809E+01 0. -1.
       -4    1    3    3    0  502 -0.33405564717E+03  0.30602327358E+03  0.29936272223E+03  0.54301295725E+03  0.12699999809E+01 0.  1.
</event>
<event>
 5   0  0.7738497E-03  0.1119197E+04  0.7818609E-02  0.9186680E-01
       -2   -1    0    0    0  501  0.00000000000E+00  0.00000000000E+00  0.27680900837E+03  0.27680900838E+03  0.25500000920E-02 0.  1.
        2   -1    0    0  501    0  0.00000000000E+00  0.00000000000E+00 -0.11312874348E+04  0.11312874348E+04  0.25500000920E-02 0. -1.
    10030    2    1    2    0    0  0.00000000000E+00  0.00000000000E+00 -0.85447842642E+03  0.14080964432E+04  0.11191971283E+04 0.  0.
        4    1    3    3  502    0 -0.29191413303E+03 -0.39248988547E+03 -0.85252564216E+02  0.49651967117E+03  0.12699999809E+01 0.  1.
       -4    1    3    3    0  502  0.29191413303E+03  0.39248988547E+03 -0.76922586220E+03  0.91157677199E+03  0.12699999809E+01 0. -1.
</event>
<event>
 5   0  0.4428114E-03  0.1089674E+04  0.7818609E-02  0.9215315E-01
        1   -1    0    0  501    0  0.00000000000E+00  0.00000000000E+00  0.52987529097E+03  0.52987529100E+03  0.50400001928E-02 0.  1.
       -1   -1    0    0    0  501  0.00000000000E+00  0.00000000000E+00 -0.56022145304E+03  0.56022145306E+03  0.50400001928E-02 0. -1.
    10030    2    1    2    0    0  0.00000000000E+00  0.00000000000E+00 -0.30346162062E+02  0.10900967441E+04  0.10896742733E+04 0.  0.
        4    1    3    3  502    0  0.23599570999E+03  0.36980107757E+03 -0.33840681685E+03  0.55404656727E+03  0.12699999809E+01 0. -1.
       -4    1    3    3    0  502 -0.23599570999E+03 -0.36980107757E+03  0.30806065479E+03  0.53605017679E+03  0.12699999809E+01 0.  1.
</event>
<event>
 5   0  0.4504740E-03  0.1113635E+04  0.7818609E-02  0.9192004E-01
        1   -1    0    0  501    0  0.00000000000E+00  0.00000000000E+00  0.53965846176E+03  0.53965846179E+03  0.50400001928E-02 0.  1.
       -1   -1    0    0    0  501  0.00000000000E+00  0.00000000000E+00 -0.57452170902E+03  0.57452170905E+03  0.50400001928E-02 0. -1.
    10030    2    1    2    0    0  0.00000000000E+00  0.00000000000E+00 -0.34863247262E+02  0.11141801708E+04  0.11136345932E+04 0.  0.
        5    1    3    3  502    0 -0.22838828599E+02 -0.55108108632E+03 -0.93701745570E+02  0.55947661516E+03  0.46999998093E+01 0. -1.
       -5    1    3    3    0  502  0.22838828599E+02  0.55108108632E+03  0.58838498309E+02  0.55470355567E+03  0.46999998093E+01 0.  1.
</event>
<event>
 5   0  0.7537480E-03  0.1111888E+04  0.7818609E-02  0.9193681E-01
        2   -1    0    0  501    0  0.00000000000E+00  0.00000000000E+00  0.52773786023E+03  0.52773786023E+03  0.25500000920E-02 0.  1.
       -2   -1    0    0    0  501  0.00000000000E+00  0.00000000000E+00 -0.58565819982E+03  0.58565819983E+03  0.25500000920E-02 0. -1.
    10030    2    1    2    0    0  0.00000000000E+00  0.00000000000E+00 -0.57920339592E+02  0.11133960601E+04  0.11118884930E+04 0.  0.
        1    1    3    3  502    0  0.33030131636E+02  0.60550625294E+02  0.52343680647E+03  0.52796160675E+03  0.50400001928E-02 0.  1.
       -1    1    3    3    0  502 -0.33030131636E+02 -0.60550625294E+02 -0.58135714606E+03  0.58543445330E+03  0.50400001928E-02 0. -1.
</event>
<event>
 5   0  0.4298101E-03  0.1109279E+04  0.7818609E-02  0.9196194E-01
       -1   -1    0    0    0  501  0.00000000000E+00  0.00000000000E+00  0.22759060567E+04  0.22759060567E+04  0.50400001928E-02 0.  1.
        1   -1    0    0  501    0  0.00000000000E+00  0.00000000000E+00 -0.13516604679E+03  0.13516604689E+03  0.50400001928E-02 0. -1.
    10030    2    1    2    0    0  0.00000000000E+00  0.00000000000E+00  0.21407400099E+04  0.24110721036E+04  0.11092794502E+04 0.  0.
        3    1    3    3  502    0 -0.98335891500E+02 -0.53892057768E+03  0.88188594660E+03  0.10381850363E+04  0.10100000352E+00 0.  1.
       -3    1    3    3    0  502  0.98335891500E+02  0.53892057768E+03  0.12588540633E+04  0.13728870673E+04  0.10100000352E+00 0. -1.
</event>
<event>
 5   0  0.7712816E-03  0.1093254E+04  0.7818609E-02  0.9211792E-01
        2   -1    0    0  501    0  0.00000000000E+00  0.00000000000E+00  0.22991423669E+04  0.22991423669E+04  0.25500000920E-02 0.  1.
       -2   -1    0    0    0  501  0.00000000000E+00  0.00000000000E+00 -0.12996193039E+03  0.12996193041E+03  0.25500000920E-02 0. -1.
    10030    2    1    2    0    0  0.00000000000E+00  0.00000000000E+00  0.21691804365E+04  0.24291042973E+04  0.10932538228E+04 0.  0.
        2    1    3    3  502    0  0.21517403960E+03 -0.44202492134E+03  0.55358283526E+03  0.74036467629E+03  0.25500000920E-02 0. -1.
       -2    1    3    3    0  502 -0.21517403960E+03  0.44202492134E+03  0.16155976012E+04  0.16887396210E+04  0.25500000920E-02 0.  1.
</event>
<event>
 5   0  0.7712816E-03  0.1110068E+04  0.7818609E-02  0.9195434E-01
       -2   -1    0    0    0  501  0.00000000000E+00  0.00000000000E+00  0.37367611399E+03  0.37367611400E+03  0.25500000920E-02 0.  1.
        2   -1    0    0  501    0  0.00000000000E+00  0.00000000000E+00 -0.82441082048E+03  0.82441082048E+03  0.25500000920E-02 0. -1.
    10030    2    1    2    0    0  0.00000000000E+00  0.00000000000E+00 -0.45073470649E+03  0.11980869345E+04  0.11100678029E+04 0.  0.
        2    1    3    3  502    0  0.31641152340E+03 -0.60575773755E+00 -0.71753620464E+03  0.78420330531E+03  0.25500000920E-02 0. -1.
       -2    1    3    3    0  502 -0.31641152340E+03  0.60575773755E+00  0.26680149815E+03  0.41388362918E+03  0.25500000920E-02 0.  1.
</event>
<event>
 5   0  0.7738497E-03  0.1102399E+04  0.7818609E-02  0.9202857E-01
        2   -1    0    0  501    0  0.00000000000E+00  0.00000000000E+00  0.44262295643E+03  0.44262295643E+03  0.25500000920E-02 0. -1.
       -2   -1    0    0    0  501  0.00000000000E+00  0.00000000000E+00 -0.68640978875E+03  0.68640978875E+03  0.25500000920E-02 0.  1.
    10030    2    1    2    0    0  0.00000000000E+00  0.00000000000E+00 -0.24378683232E+03  0.11290327452E+04  0.11023987119E+04 0.  0.
        4    1    3    3  502    0 -0.18585935782E+03 -0.75035025289E+02 -0.64776262607E+03  0.67806488520E+03  0.12699999809E+01 0.  1.
       -4    1    3    3    0  502  0.18585935782E+03  0.75035025289E+02  0.40397579375E+03  0.45096785999E+03  0.12699999809E+01 0. -1.
</event>
<event>
 5   0  0.7952121E-03  0.1086452E+04  0.7818609E-02  0.9218499E-01
       -2   -1    0    0    0  501  0.00000000000E+00  0.00000000000E+00  0.31934729510E+03  0.31934729511E+03  0.25500000920E-02 0. -1.
        2   -1    0    0  501    0  0.00000000000E+00  0.00000000000E+00 -0.92405439213E+03  0.92405439214E+03  0.25500000920E-02 0.  1.
    10030    2    1    2    0    0  0.00000000000E+00  0.00000000000E+00 -0.60470709704E+03  0.12434016872E+04  0.10864516016E+04 0.  0.
        3    1    3    3  502    0  0.11762889727E+03 -0.35199677204E+03 -0.75633978615E+03  0.84248926837E+03  0.10100000352E+00 0. -1.
       -3    1    3    3    0  502 -0.11762889727E+03  0.35199677204E+03  0.15163268911E+03  0.40091241888E+03  0.10100000352E+00 0.  1.
</event>
<event>
 5   0  0.7537480E-03  0.1098083E+04  0.7818609E-02  0.9207062E-01
       -2   -1    0    0    0  501  0.00000000000E+00  0.00000000000E+00  0.55996344927E+03  0.55996344927E+03  0.25500000920E-02 0. -1.
        2   -1    0    0  501    0  0.00000000000E+00  0.00000000000E+00 -0.53833266714E+03  0.53833266714E+03  0.25500000920E-02 0.  1.
    10030    2    1    2    0    0  0.00000000000E+00  0.00000000000E+00  0.21630782133E+02  0.10982961164E+04  0.10980830882E+04 0.  0.
        1    1    3    3  502    0  0.17727733504E+03 -0.51912895653E+03 -0.12090800773E+02  0.54869692409E+03  0.50400001928E-02 0. -1.
       -1    1    3    3    0  502 -0.17727733504E+03  0.51912895653E+03  0.33721582906E+02  0.54959919232E+03  0.50400001928E-02 0.  1.
</event>
<event>
 5   0  0.7766551E-03  0.1072914E+04  0.7818609E-02  0.9232001E-01
        2   -1    0    0  501    0  0.00000000000E+00  0.00000000000E+00  0.16009491749E+04  0.16009491749E+04  0.25500000920E-02 0.  1.
       -2   -1    0    0    0  501  0.00000000000E+00  0.00000000000E+00 -0.17975972348E+03  0.17975972350E+03  0.25500000920E-02 0. -1.
    10030    2    1    2    0    0  0.00000000000E+00  0.00000000000E+00  0.14211894514E+04  0.17807088984E+04  0.10729141270E+04 0.  0.
        5    1    3    3  502    0 -0.42617318419E+03  0.27251917212E+03  0.41428565421E+03  0.65386923415E+03  0.46999998093E+01 0.  1.
       -5    1    3    3    0  502  0.42617318419E+03 -0.27251917212E+03  0.10069037972E+04  0.11268396642E+04  0.46999998093E+01 0. -1.
</event>
<event>
 5   0  0.4428114E-03  0.1105511E+04  0.7818609E-02  0.9199837E-01
       -1   -1    0    0    0  501  0.00000000000E+00  0.00000000000E+00  0.32736437456E+03  0.32736437460E+03  0.50400001928E-02 0. -1.
        1   -1    0    0  501    0  0.00000000000E+00  0.00000000000E+00 -0.93332899539E+03  0.93332899541E+03  0.50400001928E-02 0.  1.
    10030    2    1    2    0    0  0.00000000000E+00  0.00000000000E+00 -0.60596462084E+03  0.12606933700E+04  0.11055110363E+04 0.  0.
        4    1    3    3  502    0 -0.18820178698E+03  0.35367048333E+03 -0.73727426877E+03  0.83909337007E+03  0.12699999809E+01 0.  1.
       -4    1    3    3    0  502  0.18820178698E+03 -0.35367048333E+03  0.13130964794E+03  0.42159999993E+03  0.12699999809E+01 0. -1.
</event>
<event>
 5   0  0.4504740E-03  0.1120430E+04  0.7818609E-02  0.9185505E-01
       -1   -1    0    0    0  501  0.00000000000E+00  0.00000000000E+00  0.29106353872E+03  0.29106353877E+03  0.50400001928E-02 0. -1.
        1   -1    0    0  501    0  0.00000000000E+00  0.00000000000E+00 -0.10782551704E+04  0.10782551704E+04  0.50400001928E-02 0.  1.
    10030    2    1    2    0    0  0.00000000000E+00  0.00000000000E+00 -0.78719163169E+03  0.13693187092E+04  0.11204298561E+04 0.  0.
        5    1    3    3  502    0 -0.23964214487E+03 -0.17633983943E+03 -0.97368563046E+03  0.10181404095E+04  0.46999998093E+01 0.  1.
       -5    1    3    3    0  502  0.23964214487E+03  0.17633983943E+03  0.18649399877E+03  0.35117829965E+03  0.46999998093E+01 0. -1.
</event>
<event>
 5   0  0.7738497E-03  0.1089990E+04  0.7818609E-02  0.9215004E-01
        2   -1    0    0  501    0  0.00000000000E+00  0.00000000000E+00  0.83147321833E+03  0.83147321833E+03  0.25500000920E-02 0. -1.
       -2   -1    0    0    0  501  0.00000000000E+00  0.00000000000E+00 -0.35722059630E+03  0.35722059631E+03  0.25500000920E-02 0.  1.
    10030    2    1    2    0    0  0.00000000000E+00  0.00000000000E+00  0.47425262203E+03  0.11886938146E+04  0.10899896492E+04 0.  0.
        4    1    3    3  502    0 -0.26855860086E+03 -0.35606742516E+03 -0.10446301769E+03  0.45806317067E+03  0.12699999809E+01 0. -1.
       -4    1    3    3    0  502  0.26855860086E+03  0.35606742516E+03  0.57871563972E+03  0.73063064398E+03  0.12699999809E+01 0.  1.
</event>
<event>
 5   0  0.7712816E-03  0.1106786E+04  0.7818609E-02  0.9198603E-01
        2   -1    0    0  501    0  0.00000000000E+00  0.00000000000E+00  0.87727480887E+03  0.87727480888E+03  0.25500000920E-02 0.  1.
       -2   -1    0    0    0  501  0.00000000000E+00  0.00000000000E+00 -0.34908560511E+03  0.34908560512E+03  0.25500000920E-02 0. -1.
    10030    2    1    2    0    0  0.00000000000E+00  0.00000000000E+00  0.52818920376E+03  0.12263604140E+04  0.11067863525E+04 0.  0.
        2    1    3    3  502    0 -0.16350646436E+02  0.27111724673E+03  0.79833872032E+03  0.84327730758E+03  0.25500000920E-02 0.  1.
       -2    1    3    3    0  502  0.16350646436E+02 -0.27111724673E+03 -0.27014951657E+03  0.38308310641E+03  0.25500000920E-02 0. -1.
</event>
<event>
 5   0  0.4504740E-03  0.1167046E+04  0.7818609E-02  0.9142201E-01
       -1   -1    0    0    0  501  0.00000000000E+00  0.00000000000E+00  0.19079211793E+03  0.19079211799E+03  0.50400001928E-02 0. -1.
        1   -1    0    0  501    0  0.00000000000E+00  0.00000000000E+00 -0.17846591803E+04  0.17846591803E+04  0.50400001928E-02 0.  1.
    10030    2    1    2    0    0  0.00000000000E+00  0.00000000000E+00 -0.15938670624E+04  0.19754512983E+04  0.11670456801E+04 0.  0.
        5    1    3    3  502    0  0.20744374548E+03 -0.52565236554E+03 -0.10430066449E+04  0.11862665249E+04  0.46999998093E+01 0. -1.
       -5    1    3    3    0  502 -0.20744374548E+03  0.52565236554E+03 -0.55086041750E+03  0.78918477336E+03  0.46999998093E+01 0.  1.
</event>
<event>
 5   0  0.4598561E-03  0.1088351E+04  0.7818609E-02  0.9216621E-01
       -1   -1    0    0    0  501  0.00000000000E+00  0.00000000000E+00  0.19300088262E+04  0.19300088262E+04  0.50400001928E-02 0.  1.
        1   -1    0    0  501    0  0.00000000000E+00  0.00000000000E+00 -0.15343301212E+03  0.15343301220E+03  0.50400001928E-02 0. -1.
    10030    2    1    2    0    0  0.00000000000E+00  0.00000000000E+00  0.17765758141E+04  0.20834418384E+04  0.10883511707E+04 0.  0.
        2    1    3    3  502    0  0.56470835999E+02  0.23114483928E+03 -0.48571273724E+02  0.24284987272E+03  0.25500000920E-02 0. -1.
       -2    1    3    3    0  502 -0.56470835999E+02 -0.23114483928E+03  0.18251470878E+04  0.18405919657E+04  0.25500000920E-02 0.  1.
</event>
<event>
 5   0  0.7766551E-03  0.1084798E+04  0.7818609E-02  0.9220137E-01
        2   -1    0    0  501    0  0.00000000000E+00  0.00000000000E+00  0.39937709811E+03  0.39937709812E+03  0.25500000920E-02 0.  1.
       -2   -1    0    0    0  501  0.00000000000E+00  0.00000000000E+00 -0.73663849212E+03  0.73663849212E+03  0.25500000920E-02 0. -1.
    10030    2    1    2    0    0  0.00000000000E+00  0.00000000000E+00 -0.33726139400E+03  0.11360155902E+04  0.10847977569E+04 0.  0.
        5    1    3    3  502    0  0.33586284492E+03 -0.21066480098E+03 -0.55622862146E+03  0.68307823732E+03  0.46999998093E+01 0. -1.
       -5    1    3    3    0  502 -0.33586284492E+03  0.21066480098E+03  0.21896722746E+03  0.45293735292E+03  0.46999998093E+01 0.  1.
</event>
<event>
 5   0  0.4598561E-03  0.1095751E+04  0.7818609E-02  0.9209343E-01
       -1   -1    0    0    0  501  0.00000000000E+00  0.00000000000E+00  0.60143214979E+03  0.60143214981E+03  0.50400001928E-02 0. -1.
        1   -1    0    0  501    0  0.00000000000E+00  0.00000000000E+00 -0.49908792101E+03  0.49908792103E+03  0.50400001928E-02 0.  1.
    10030    2    1    2    0    0  0.00000000000E+00  0.00000000000E+00  0.10234422879E+03  0.11005200708E+04  0.10957509230E+04 0.  0.
        2    1    3    3  502    0  0.49555030904E+03 -0.50544857405E+02 -0.17794933067E+03  0.52895260250E+03  0.25500000920E-02 0.  1.
       -2    1    3    3    0  502 -0.49555030904E+03  0.50544857405E+02  0.28029355946E+03  0.57156746835E+03  0.25500000920E-02 0. -1.
</event>
<event>
 5   0  0.4298101E-03  0.1071788E+04  0.7818609E-02  0.9233133E-01
       -1   -1    0    0    0  501  0.00000000000E+00  0.00000000000E+00  0.64668994492E+03  0.64668994494E+03  0.50400001928E-02 0.  1.
        1   -1    0    0  501    0  0.00000000000E+00  0.00000000000E+00 -0.44408087780E+03  0.44408087783E+03  0.50400001928E-02 0. -1.
    10030    2    1    2    0    0  0.00000000000E+00  0.00000000000E+00  0.20260906711E+03  0.10907708228E+04  0.10717884837E+04 0.  0.
        3    1    3    3  502    0  0.52807392459E+03  0.84001972124E+02  0.13749023282E+03  0.55210685150E+03  0.10100000352E+00 0.  1.
       -3    1    3    3    0  502 -0.52807392459E+03 -0.84001972124E+02  0.65118834294E+02  0.53866397126E+03  0.10100000352E+00 0. -1.
</event>
<event>
 5   0  0.4641021E-03  0.1005664E+04  0.7818609E-02  0.9302354E-01
       -1   -1    0    0    0  501  0.00000000000E+00  0.00000000000E+00  0.18139174419E+04  0.18139174419E+04  0.50400001928E-02 0. -1.
        1   -1    0    0  501    0  0.00000000000E+00  0.00000000000E+00 -0.13938896029E+03  0.13938896038E+03  0.50400001928E-02 0.  1.
    10030    2    1    2    0    0  0.00000000000E+00  0.00000000000E+00  0.16745284816E+04  0.19533064023E+04  0.10056640918E+04 0.  0.
        1    1    3    3  502    0 -0.32092650736E+03  0.76588721682E+02  0.10026144657E+03  0.34483621200E+03  0.50400001928E-02 0.  1.
       -1    1    3    3    0  502  0.32092650736E+03 -0.76588721682E+02  0.15742670351E+04  0.16084701903E+04  0.50400001928E-02 0. -1.
</event>
<event>
 5   0  0.7537480E-03  0.1094228E+04  0.7818609E-02  0.9210836E-01
       -2   -1    0    0    0  501  0.00000000000E+00  0.00000000000E+00  0.18135068592E+03  0.18135068594E+03  0.25500000920E-02 0. -1.
        2   -1    0    0  501    0  0.00000000000E+00  0.00000000000E+00 -0.16505794830E+04  0.16505794830E+04  0.25500000920E-02 0.  1.
    10030    2    1    2    0    0  0.00000000000E+00  0.00000000000E+00 -0.14692287971E+04  0.18319301690E+04  0.10942279862E+04 0.  0.
        1    1    3    3  502    0  0.35393825914E+03  0.39883717051E+03 -0.52963658298E+03  0.75157054887E+03  0.50400001928E-02 0. -1.
       -1    1    3    3    0  502 -0.35393825914E+03 -0.39883717051E+03 -0.93959221412E+03  0.10803596201E+04  0.50400001928E-02 0.  1.
</event>
<event>
 5   0  0.2992375E-03  0.1133624E+04  0.7818609E-02  0.9173026E-01
       -3   -1    0    0    0  501  0.00000000000E+00  0.00000000000E+00  0.14096613188E+04  0.14096613225E+04  0.10100000352E+00 0.  1.
        3   -1    0    0  501    0  0.00000000000E+00  0.00000000000E+00 -0.22790977762E+03  0.22790980000E+03  0.10100000352E+00 0. -1.
    10030    2    1    2    0    0  0.00000000000E+00  0.00000000000E+00  0.11817515412E+04  0.16375711225E+04  0.11336236042E+04 0.  0.
        1    1    3    3  502    0  0.26302637325E+03  0.33009861823E+03  0.11373794102E+04  0.12131693590E+04  0.50400001928E-02 0.  1.
       -1    1    3    3    0  502 -0.26302637325E+03 -0.33009861823E+03  0.44372130981E+02  0.42440176344E+03  0.50400001928E-02 0. -1.
</event>
<event>
 5   0  0.7952121E-03  0.1106343E+04  0.7818609E-02  0.9199031E-01
        2   -1    0    0  501    0  0.00000000000E+00  0.00000000000E+00  0.17186998293E+04  0.17186998293E+04  0.25500000920E-02 0. -1.
       -2   -1    0    0    0  501  0.00000000000E+00  0.00000000000E+00 -0.17804094981E+03  0.17804094983E+03  0.25500000920E-02 0.  1.
    10030    2    1    2    0    0  0.00000000000E+00  0.00000000000E+00  0.15406588795E+04  0.18967407791E+04  0.11063434369E+04 0.  0.
        3    1    3    3  502    0 -0.37826749561E+03  0.16660933863E+03  0.14005104383E+03  0.43641640097E+03  0.10100000352E+00 0.  1.
       -3    1    3    3    0  502  0.37826749561E+03 -0.16660933863E+03  0.14006078356E+04  0.14603243781E+04  0.10100000352E+00 0. -1.
</event>
<event>
 5   0  0.7766551E-03  0.1100001E+04  0.7818609E-02  0.9205191E-01
        2   -1    0    0  501    0  0.00000000000E+00  0.00000000000E+00  0.18594783214E+04  0.18594783214E+04  0.25500000920E-02 0.  1.
       -2   -1    0    0    0  501  0.00000000000E+00  0.00000000000E+00 -0.16268022409E+03  0.16268022411E+03  0.25500000920E-02 0. -1.
    10030    2    1    2    0    0  0.00000000000E+00  0.00000000000E+00  0.16967980973E+04  0.20221585455E+04  0.11000006364E+04 0.  0.
        5    1    3    3  502    0 -0.34734750950E+03  0.87697735111E+02  0.16155271449E+04  0.16547783027E+04  0.46999998093E+01 0.  1.
       -5    1    3    3    0  502  0.34734750950E+03 -0.87697735111E+02  0.81270952383E+02  0.36738024280E+03  0.46999998093E+01 0. -1.
</event>
<event>
 5   0  0.7738497E-03  0.1107495E+04  0.7818609E-02  0.9197917E-01
       -2   -1    0    0    0  501  0.00000000000E+00  0.00000000000E+00  0.30355735932E+03  0.30355735933E+03  0.25500000920E-02 0. -1.
        2   -1    0    0  501    0  0.00000000000E+00  0.00000000000E+00 -0.10101434981E+04  0.10101434981E+04  0.25500000920E-02 0.  1.
    10030    2    1    2    0    0  0.00000000000E+00  0.00000000000E+00 -0.70658613881E+03  0.13137008575E+04  0.11074953595E+04 0.  0.
        4    1    3    3  502    0 -0.41519761807E+03 -0.21546958483E+03 -0.70481142709E+03  0.84591782384E+03  0.12699999809E+01 0.  1.
       -4    1    3    3    0  502  0.41519761807E+03  0.21546958483E+03 -0.17747117147E+01  0.46778303361E+03  0.12699999809E+01 0. -1.
</event>
<event>
 5   0  0.7537480E-03  0.1108688E+04  0.7818609E-02  0.9196765E-01
        2   -1    0    0  501    0  0.00000000000E+00  0.00000000000E+00  0.14230030428E+04  0.14230030428E+04  0.25500000920E-02 0.  1.
       -2   -1    0    0    0  501  0.00000000000E+00  0.00000000000E+00 -0.21594978540E+03  0.21594978542E+03  0.25500000920E-02 0. -1.
    10030    2    1    2    0    0  0.00000000000E+00  0.00000000000E+00  0.12070532574E+04  0.16389528282E+04  0.11086878762E+04 0.  0.
        1    1    3    3  502    0  0.39987868580E+03  0.18157127009E+02  0.11704327746E+04  0.12369905111E+04  0.50400001928E-02 0.  1.
       -1    1    3    3    0  502 -0.39987868580E+03 -0.18157127009E+02  0.36620482797E+02  0.40196231714E+03  0.50400001928E-02 0. -1.
</event>
<event>
 5   0  0.4598561E-03  0.1096331E+04  0.7818609E-02  0.9208776E-01
        1   -1    0    0  501    0  0.00000000000E+00  0.00000000000E+00  0.18640532439E+04  0.18640532439E+04  0.50400001928E-02 0. -1.
       -1   -1    0    0    0  501  0.00000000000E+00  0.00000000000E+00 -0.16119991871E+03  0.16119991879E+03  0.50400001928E-02 0.  1.
    10030    2    1    2    0    0  0.00000000000E+00  0.00000000000E+00  0.17028533252E+04  0.20252531627E+04  0.10963306645E+04 0.  0.
        2    1    3    3  502    0  0.14868958319E+03  0.34677556957E+03  0.11685232499E+03  0.39498905512E+03  0.25500000920E-02 0.  1.
       -2    1    3    3    0  502 -0.14868958319E+03 -0.34677556957E+03  0.15860010002E+04  0.16302641075E+04  0.25500000920E-02 0. -1.
</event>
<event>
 5   0  0.4298101E-03  0.1416440E+04  0.7818609E-02  0.8942004E-01
        1   -1    0    0  501    0  0.00000000000E+00  0.00000000000E+00  0.63971878202E+03  0.63971878204E+03  0.50400001928E-02 0. -1.
       -1   -1    0    0    0  501  0.00000000000E+00  0.00000000000E+00 -0.78405600559E+03  0.78405600561E+03  0.50400001928E-02 0.  1.
    10030    2    1    2    0    0  0.00000000000E+00  0.00000000000E+00 -0.14433722357E+03  0.14237747876E+04  0.14164396958E+04 0.  0.
        3    1    3    3  502    0 -0.83288318903E+02  0.22182220496E+03 -0.74303271367E+03  0.77989721019E+03  0.10100000352E+00 0.  1.
       -3    1    3    3    0  502  0.83288318903E+02 -0.22182220496E+03  0.59869549010E+03  0.64387757745E+03  0.10100000352E+00 0. -1.
</event>
<event>
 5   0  0.7952121E-03  0.1136027E+04  0.7818609E-02  0.9170772E-01
        2   -1    0    0  501    0  0.00000000000E+00  0.00000000000E+00  0.70648994786E+03  0.70648994786E+03  0.25500000920E-02 0.  1.
       -2   -1    0    0    0  501  0.00000000000E+00  0.00000000000E+00 -0.45667935266E+03  0.45667935267E+03  0.25500000920E-02 0. -1.
    10030    2    1    2    0    0  0.00000000000E+00  0.00000000000E+00  0.24981059520E+03  0.11631693005E+04  0.11360270632E+04 0.  0.
        3    1    3    3  502    0 -0.44525811339E+03  0.34113854858E+03  0.33273720260E+02  0.56190519443E+03  0.10100000352E+00 0. -1.
       -3    1    3    3    0  502  0.44525811339E+03 -0.34113854858E+03  0.21653687494E+03  0.60126410610E+03  0.10100000352E+00 0.  1.
</event>
<event>
 5   0  0.7952121E-03  0.1102704E+04  0.7818609E-02  0.9202560E-01
       -2   -1    0    0    0  501  0.00000000000E+00  0.00000000000E+00  0.13343040167E+04  0.13343040167E+04  0.25500000920E-02 0. -1.
        2   -1    0    0  501    0  0.00000000000E+00  0.00000000000E+00 -0.22782603367E+03  0.22782603368E+03  0.25500000920E-02 0.  1.
    10030    2    1    2    0    0  0.00000000000E+00  0.00000000000E+00  0.11064779830E+04  0.15621300504E+04  0.11027042974E+04 0.  0.
        3    1    3    3  502    0 -0.22522751086E+03 -0.30910631201E+03  0.11158324423E+04  0.11795576260E+04  0.10100000352E+00 0. -1.
       -3    1    3    3    0  502  0.22522751086E+03  0.30910631201E+03 -0.93544592034E+01  0.38257242436E+03  0.10100000352E+00 0.  1.
</event>
<event>
 5   0  0.4598561E-03  0.1084706E+04  0.7818609E-02  0.9220228E-01
        1   -1    0    0  501    0  0.00000000000E+00  0.00000000000E+00  0.15126242142E+04  0.15126242142E+04  0.50400001928E-02 0.  1.
       -1   -1    0    0    0  501  0.00000000000E+00  0.00000000000E+00 -0.19446136744E+03  0.19446136751E+03  0.50400001928E-02 0. -1.
    10030    2    1    2    0    0  0.00000000000E+00  0.00000000000E+00  0.13181628467E+04  0.17070855817E+04  0.10847063624E+04 0.  0.
        2    1    3    3  502    0 -0.15893406614E+03  0.91962084439E+02 -0.14405354937E+03  0.23338484837E+03  0.25500000920E-02 0. -1.
       -2    1    3    3    0  502  0.15893406614E+03 -0.91962084439E+02  0.14622163961E+04  0.14737007333E+04  0.25500000920E-02 0.  1.
</event>
<event>
 5   0  0.4641021E-03  0.1106859E+04  0.7818609E-02  0.9198532E-01
        1   -1    0    0  501    0  0.00000000000E+00  0.00000000000E+00  0.85975092530E+03  0.85975092531E+03  0.50400001928E-02 0. -1.
       -1   -1    0    0    0  501  0.00000000000E+00  0.00000000000E+00 -0.35624760501E+03  0.35624760504E+03  0.50400001928E-02 0.  1.
    10030    2    1    2    0    0  0.00000000000E+00  0.00000000000E+00  0.50350332029E+03  0.12159985304E+04  0.11068589939E+04 0.  0.
        1    1    3    3  502    0  0.33459388072E+03 -0.33200917219E+03  0.57034850276E+03  0.73991929969E+03  0.50400001928E-02 0. -1.
       -1    1    3    3    0  502 -0.33459388072E+03  0.33200917219E+03 -0.66845182463E+02  0.47607923067E+03  0.50400001928E-02 0.  1.
</event>
<event>
 5   0  0.7766551E-03  0.1157673E+04  0.7818609E-02  0.9150734E-01
       -2   -1    0    0    0  501  0.00000000000E+00  0.00000000000E+00  0.26706390730E+03  0.26706390732E+03  0.25500000920E-02 0.  1.
        2   -1    0    0  501    0  0.00000000000E+00  0.00000000000E+00 -0.12545747110E+04  0.12545747110E+04  0.25500000920E-02 0. -1.
    10030    2    1    2    0    0  0.00000000000E+00  0.00000000000E+00 -0.98751080369E+03  0.15216386183E+04  0.11576728801E+04 0.  0.
        5    1    3    3  502    0  0.12260552237E+03  0.46944165318E+03 -0.90861695726E+03  0.10300555543E+04  0.46999998093E+01 0. -1.
       -5    1    3    3    0  502 -0.12260552237E+03 -0.46944165318E+03 -0.78893846429E+02  0.49158306405E+03  0.46999998093E+01 0.  1.
</event>
<event>
 5   0  0.4428114E-03  0.1145940E+04  0.7818609E-02  0.9161537E-01
       -1   -1    0    0    0  501  0.00000000000E+00  0.00000000000E+00  0.69361590804E+03  0.69361590806E+03  0.50400001928E-02 0.  1.
        1   -1    0    0  501    0  0.00000000000E+00  0.00000000000E+00 -0.47330894999E+03  0.47330895001E+03  0.50400001928E-02 0. -1.
    10030    2    1    2    0    0  0.00000000000E+00  0.00000000000E+00  0.22030695805E+03  0.11669248581E+04  0.11459399935E+04 0.  0.
        4    1    3    3  502    0 -0.43013030806E+03 -0.31669928233E+03  0.32127221868E+03  0.62332011738E+03  0.12699999809E+01 0.  1.
       -4    1    3    3    0  502  0.43013030806E+03  0.31669928233E+03 -0.10096526062E+03  0.54360474068E+03  0.12699999809E+01 0. -1.
</event>
<event>
 5   0  0.4641021E-03  0.1090958E+04  0.7818609E-02  0.9214049E-01
       -1   -1    0    0    0  501  0.00000000000E+00  0.00000000000E+00  0.23891200273E+03  0.23891200279E+03  0.50400001928E-02 0. -1.
        1   -1    0    0  501    0  0.00000000000E+00  0.00000000000E+00 -0.12454273749E+04  0.12454273749E+04  0.50400001928E-02 0.  1.
    10030    2    1    2    0    0  0.00000000000E+00  0.00000000000E+00 -0.10065153722E+04  0.14843393777E+04  0.10909583832E+04 0.  0.
        1    1    3    3  502    0 -0.16507333279E+03  0.48115169372E+03 -0.77123171190E+03  0.92388013889E+03  0.50400001928E-02 0. -1.
       -1    1    3    3    0  502  0.16507333279E+03 -0.48115169372E+03 -0.23528366030E+03  0.56045923883E+03  0.50400001928E-02 0.  1.
</event>
<event>
 5   0  0.7738497E-03  0.1105623E+04  0.7818609E-02  0.9199729E-01
       -2   -1    0    0    0  501  0.00000000000E+00  0.00000000000E+00  0.13178131806E+03  0.13178131809E+03  0.25500000920E-02 0.  1.
        2   -1    0    0  501    0  0.00000000000E+00  0.00000000000E+00 -0.23189973264E+04  0.23189973264E+04  0.25500000920E-02 0. -1.
    10030    2    1    2    0    0  0.00000000000E+00  0.00000000000E+00 -0.21872160083E+04  0.24507786445E+04  0.11056229453E+04 0.  0.
        4    1    3    3  502    0 -0.41499930099E+03 -0.12625908291E+03 -0.18532209763E+04  0.19033116864E+04  0.12699999809E+01 0. -1.
       -4    1    3    3    0  502  0.41499930099E+03  0.12625908291E+03 -0.33399503207E+03  0.54746695808E+03  0.12699999809E+01 0.  1.
</event>
<event>
 5   0  0.4641021E-03  0.1104321E+04  0.7818609E-02  0.9200990E-01
       -1   -1    0    0    0  501  0.00000000000E+00  0.00000000000E+00  0.69750873688E+03  0.69750873690E+03  0.50400001928E-02 0. -1.
        1   -1    0    0  501    0  0.00000000000E+00  0.00000000000E+00 -0.43710045526E+03  0.43710045529E+03  0.50400001928E-02 0.  1.
    10030    2    1    2    0    0  0.00000000000E+00  0.00000000000E+00  0.26040828162E+03  0.11346091922E+04  0.11043213055E+04 0.  0.
        1    1    3    3  502    0 -0.11870246457E+03 -0.53397894227E+03  0.20748411842E+03  0.58504140478E+03  0.50400001928E-02 0.  1.
       -1    1    3    3    0  502  0.11870246457E+03  0.53397894227E+03  0.52924163196E+02  0.54956778741E+03  0.50400001928E-02 0. -1.
</event>
<event>
 5   0  0.4641021E-03  0.1098724E+04  0.7818609E-02  0.9206437E-01
       -1   -1    0    0    0  501  0.00000000000E+00  0.00000000000E+00  0.72466060787E+03  0.72466060788E+03  0.50400001928E-02 0.  1.
        1   -1    0    0  501    0  0.00000000000E+00  0.00000000000E+00 -0.41646864937E+03  0.41646864940E+03  0.50400001928E-02 0. -1.
    10030    2    1    2    0    0  0.00000000000E+00  0.00000000000E+00  0.30819195850E+03  0.11411292573E+04  0.10987236680E+04 0.  0.
        1    1    3    3  502    0 -0.45266291298E+03 -0.31103191260E+03  0.16697879757E+03  0.57404397244E+03  0.50400001928E-02 0. -1.
       -1    1    3    3    0  502  0.45266291298E+03  0.31103191260E+03  0.14121316093E+03  0.56708528484E+03  0.50400001928E-02 0.  1.
</event>
<event>
 5   0  0.4641021E-03  0.1039217E+04  0.7818609E-02  0.9266548E-01
        1   -1    0    0  501    0  0.00000000000E+00  0.00000000000E+00  0.62613685627E+03  0.62613685629E+03  0.50400001928E-02 0. -1.
       -1   -1    0    0    0  501  0.00000000000E+00  0.00000000000E+00 -0.43120421278E+03  0.43120421281E+03  0.50400001928E-02 0.  1.
    10030    2    1    2    0    0  0.00000000000E+00  0.00000000000E+00  0.19493264349E+03  0.10573410691E+04  0.10392167247E+04 0.  0.
        1    1    3    3  502    0  0.35834949635E+02  0.51620307908E+03  0.49279076024E+02  0.51978667723E+03  0.50400001928E-02 0.  1.
       -1    1    3    3    0  502 -0.35834949635E+02 -0.51620307908E+03  0.14565356747E+03  0.53755439186E+03  0.50400001928E-02 0. -1.
</event>
<event>
 5   0  0.4504740E-03  0.1084555E+04  0.7818609E-02  0.9220378E-01
        1   -1    0    0  501    0  0.00000000000E+00  0.00000000000E+00  0.14749247602E+04  0.14749247602E+04  0.50400001928E-02 0. -1.
       -1   -1    0    0    0  501  0.00000000000E+00  0.00000000000E+00 -0.19937616459E+03  0.19937616465E+03  0.50400001928E-02 0.  1.
    10030    2    1    2    0    0  0.00000000000E+00  0.00000000000E+00  0.12755485956E+04  0.16743009249E+04  0.10845549166E+04 0.  0.
        5    1    3    3  502    0 -0.16035493706E+03 -0.29492904005E+03 -0.19635010464E+02  0.33631007737E+03  0.46999998093E+01 0.  1.
       -5    1    3    3    0  502  0.16035493706E+03  0.29492904005E+03  0.12951836061E+04  0.13379908475E+04  0.46999998093E+01 0. -1.
</event>
<event>
 5   0  0.4504740E-03  0.1099851E+04  0.7818609E-02  0.9205337E-01
       -1   -1    0    0    0  501  0.00000000000E+00  0.00000000000E+00  0.51624232000E+03  0.51624232003E+03  0.50400001928E-02 0.  1.
        1   -1    0    0  501    0  0.00000000000E+00  0.00000000000E+00 -0.58580650588E+03  0.58580650591E+03  0.50400001928E-02 0. -1.
    10030    2    1    2    0    0  0.00000000000E+00  0.00000000000E+00 -0.69564185881E+02  0.11020488259E+04  0.10998510985E+04 0.  0.
        5    1    3    3  502    0  0.72807588895E+02  0.31757719882E+03 -0.47865689010E+03  0.57904294370E+03  0.46999998093E+01 0. -1.
       -5    1    3    3    0  502 -0.72807588895E+02 -0.31757719882E+03  0.40909270421E+03  0.52300588223E+03  0.46999998093E+01 0.  1.
</event>
<event>
 5   0  0.4598561E-03  0.1126831E+04  0.7818609E-02  0.9179428E-01
        1   -1    0    0  501    0  0.00000000000E+00  0.00000000000E+00  0.69681262195E+03  0.69681262197E+03  0.50400001928E-02 0. -1.
       -1   -1    0    0    0  501  0.00000000000E+00  0.00000000000E+00 -0.45555560208E+03  0.45555560211E+03  0.50400001928E-02 0.  1.
    10030    2    1    2    0    0  0.00000000000E+00  0.00000000000E+00  0.24125701987E+03  0.11523682241E+04  0.11268307656E+04 0.  0.
        2    1    3    3  502    0  0.32446950393E+03  0.51678924649E+01 -0.35038497981E+03  0.47757386882E+03  0.25500000920E-02 0.  1.
       -2    1    3    3    0  502 -0.32446950393E+03 -0.51678924649E+01  0.59164199968E+03  0.67479435526E+03  0.25500000920E-02 0. -1.
</event>
<event>
 5   0  0.4598561E-03  0.1052919E+04  0.7818609E-02  0.9252335E-01
        1   -1    0    0  501    0  0.00000000000E+00  0.00000000000E+00  0.12928008704E+04  0.12928008704E+04  0.50400001928E-02 0. -1.
       -1   -1    0    0    0  501  0.00000000000E+00  0.00000000000E+00 -0.21438695136E+03  0.21438695142E+03  0.50400001928E-02 0.  1.
    10030    2    1    2    0    0  0.00000000000E+00  0.00000000000E+00  0.10784139191E+04  0.15071878219E+04  0.10529190612E+04 0.  0.
        2    1    3    3  502    0 -0.18274211504E+02 -0.28197162654E+03  0.11750580235E+04  0.12085542204E+04  0.25500000920E-02 0. -1.
       -2    1    3    3    0  502  0.18274211504E+02  0.28197162654E+03 -0.96644104467E+02  0.29863360145E+03  0.25500000920E-02 0.  1.
</event>
<event>
 5   0  0.4598561E-03  0.1118107E+04  0.7818609E-02  0.9187721E-01
       -1   -1    0    0    0  501  0.00000000000E+00  0.00000000000E+00  0.27901180027E+03  0.27901180032E+03  0.50400001928E-02 0.  1.
        1   -1    0    0  501    0  0.00000000000E+00  0.00000000000E+00 -0.11201704166E+04  0.11201704166E+04  0.50400001928E-02 0. -1.
    10030    2    1    2    0    0  0.00000000000E+00  0.00000000000E+00 -0.84115861632E+03  0.13991822169E+04  0.11181069083E+04 0.  0.
        2    1    3    3  502    0 -0.17381395771E+03 -0.51976461143E+03 -0.28250542351E+03  0.61658402307E+03  0.25500000920E-02 0.  1.
       -2    1    3    3    0  502  0.17381395771E+03  0.51976461143E+03 -0.55865319281E+03  0.78259819386E+03  0.25500000920E-02 0. -1.
</event>
<event>
 5   0  0.7766551E-03  0.1104376E+04  0.7818609E-02  0.9200938E-01
        2   -1    0    0  501    0  0.00000000000E+00  0.00000000000E+00  0.81403935757E+03  0.81403935758E+03  0.25500000920E-02 0.  1.
       -2   -1    0    0    0  501  0.00000000000E+00  0.00000000000E+00 -0.37456583443E+03  0.37456583444E+03  0.25500000920E-02 0. -1.
    10030    2    1    2    0    0  0.00000000000E+00  0.00000000000E+00  0.43947352314E+03  0.11886051920E+04  0.11043755362E+04 0.  0.
        5    1    3    3  502    0 -0.49457417386E+03 -0.16254205262E+03  0.21674866137E+02  0.52107141750E+03  0.46999998093E+01 0.  1.
       -5    1    3    3    0  502  0.49457417386E+03  0.16254205262E+03  0.41779865701E+03  0.66753377451E+03  0.46999998093E+01 0. -1.
</event>
<event>
 5   0  0.4641021E-03  0.1129378E+04  0.7818609E-02  0.9177022E-01
        1   -1    0    0  501    0  0.00000000000E+00  0.00000000000E+00  0.14540194865E+04  0.14540194865E+04  0.50400001928E-02 0.  1.
       -1   -1    0    0    0  501  0.00000000000E+00  0.00000000000E+00 -0.21930494554E+03  0.21930494560E+03  0.50400001928E-02 0. -1.
    10030    2    1    2    0    0  0.00000000000E+00  0.00000000000E+00  0.12347145409E+04  0.16733244321E+04  0.11293779958E+04 0.  0.
        1    1    3    3  502    0 -0.36627763587E+03  0.42972301444E+03  0.62809156420E+03  0.84458284894E+03  0.50400001928E-02 0. -1.
       -1    1    3    3    0  502  0.36627763587E+03 -0.42972301444E+03  0.60662297672E+03  0.82874158312E+03  0.50400001928E-02 0.  1.
</event>
<event>
 5   0  0.2992375E-03  0.1101798E+04  0.7818609E-02  0.9203442E-01
        3   -1    0    0  501    0  0.00000000000E+00  0.00000000000E+00  0.39725026638E+03  0.39725027922E+03  0.10100000352E+00 0. -1.
       -3   -1    0    0    0  501  0.00000000000E+00  0.00000000000E+00 -0.76397553856E+03  0.76397554523E+03  0.10100000352E+00 0.  1.
    10030    2    1    2    0    0  0.00000000000E+00  0.00000000000E+00 -0.36672527217E+03  0.11612258245E+04  0.11017976176E+04 0.  0.
        2    1    3    3  502    0  0.26089428498E+03  0.46397387578E+03 -0.33748376544E+02  0.53336342044E+03  0.25500000920E-02 0. -1.
       -2    1    3    3    0  502 -0.26089428498E+03 -0.46397387578E+03 -0.33297689563E+03  0.62786240401E+03  0.25500000920E-02 0.  1.
</event>
<event>
 5   0  0.7952121E-03  0.1126363E+04  0.7818609E-02  0.9179871E-01
       -2   -1    0    0    0  501  0.00000000000E+00  0.00000000000E+00  0.20021786282E+03  0.20021786284E+03  0.25500000920E-02 0.  1.
        2   -1    0    0  501    0  0.00000000000E+00  0.00000000000E+00 -0.15841424989E+04  0.15841424989E+04  0.25500000920E-02 0. -1.
    10030    2    1    2    0    0  0.00000000000E+00  0.00000000000E+00 -0.13839246361E+04  0.17843603617E+04  0.11263633970E+04 0.  0.
        3    1    3    3  502    0 -0.15906419076E+03  0.45505376629E+03 -0.23064736710E+03  0.53439083557E+03  0.10100000352E+00 0.  1.
       -3    1    3    3    0  502  0.15906419076E+03 -0.45505376629E+03 -0.11532772690E+04  0.12499695262E+04  0.10100000352E+00 0. -1.
</event>
<event>
 5   0  0.4428114E-03  0.1107146E+04  0.7818609E-02  0.9198255E-01
       -1   -1    0    0    0  501  0.00000000000E+00  0.00000000000E+00  0.54836334114E+03  0.54836334116E+03  0.50400001928E-02 0. -1.
        1   -1    0    0  501    0  0.00000000000E+00  0.00000000000E+00 -0.55883202023E+03  0.55883202025E+03  0.50400001928E-02 0.  1.
    10030    2    1    2    0    0  0.00000000000E+00  0.00000000000E+00 -0.10468679088E+02  0.11071953614E+04  0.11071458689E+04 0.  0.
        4    1    3    3  502    0  0.49157433029E+03 -0.17731235354E+03 -0.18787981654E+03  0.55532461793E+03  0.12699999809E+01 0.  1.
       -4    1    3    3    0  502 -0.49157433029E+03  0.17731235354E+03  0.17741113745E+03  0.55187074348E+03  0.12699999809E+01 0. -1.
</event>
<event>
 5   0  0.7738497E-03  0.1094227E+04  0.7818609E-02  0.9210837E-01
       -2   -1    0    0    0  501  0.00000000000E+00  0.00000000000E+00  0.11051618687E+04  0.11051618687E+04  0.25500000920E-02 0. -1.
        2   -1    0    0  501    0  0.00000000000E+00  0.00000000000E+00 -0.27085010732E+03  0.27085010734E+03  0.25500000920E-02 0.  1.
    10030    2    1    2    0    0  0.00000000000E+00  0.00000000000E+00  0.83431176137E+03  0.13760119760E+04  0.10942270528E+04 0.  0.
        4    1    3    3  502    0  0.24742210178E+03 -0.10307251826E+03  0.10169412680E+04  0.10516714296E+04  0.12699999809E+01 0. -1.
       -4    1    3    3    0  502 -0.24742210178E+03  0.10307251826E+03 -0.18262950660E+03  0.32434054642E+03  0.12699999809E+01 0.  1.
</event>
<event>
 5   0  0.7537480E-03  0.1127658E+04  0.7818609E-02  0.9178646E-01
        2   -1    0    0  501    0  0.00000000000E+00  0.00000000000E+00  0.33306862901E+03  0.33306862902E+03  0.25500000920E-02 0.  1.
       -2   -1    0    0    0  501  0.00000000000E+00  0.00000000000E+00 -0.95446804364E+03  0.95446804364E+03  0.25500000920E-02 0. -1.
    10030    2    1    2    0    0  0.00000000000E+00  0.00000000000E+00 -0.62139941463E+03  0.12875366727E+04  0.11276583929E+04 0.  0.
        1    1    3    3  502    0 -0.13506270742E+03 -0.54675378414E+03 -0.28002583401E+03  0.62896430992E+03  0.50400001928E-02 0.  1.
       -1    1    3    3    0  502  0.13506270742E+03  0.54675378414E+03 -0.34137358062E+03  0.65857236275E+03  0.50400001928E-02 0. -1.
</event>
<event>
 5   0  0.4298101E-03  0.1077355E+04  0.7818609E-02  0.9227549E-01
        1   -1    0    0  501    0  0.00000000000E+00  0.00000000000E+00  0.19020727761E+04  0.19020727761E+04  0.50400001928E-02 0. -1.
       -1   -1    0    0    0  501  0.00000000000E+00  0.00000000000E+00 -0.15255646111E+03  0.15255646119E+03  0.50400001928E-02 0.  1.
    10030    2    1    2    0    0  0.00000000000E+00  0.00000000000E+00  0.17495163150E+04  0.20546292373E+04  0.10773550791E+04 0.  0.
        3    1    3    3  502    0 -0.48854091326E+03  0.19290508316E+03  0.11027261062E+04  0.12214292736E+04  0.10100000352E+00 0. -1.
       -3    1    3    3    0  502  0.48854091326E+03 -0.19290508316E+03  0.64679020882E+03  0.83319996368E+03  0.10100000352E+00 0.  1.
</event>
<event>
 5   0  0.7952121E-03  0.1140762E+04  0.7818609E-02  0.9166348E-01
       -2   -1    0    0    0  501  0.00000000000E+00  0.00000000000E+00  0.27917470143E+03  0.27917470145E+03  0.25500000920E-02 0. -1.
        2   -1    0    0  501    0  0.00000000000E+00  0.00000000000E+00 -0.11653444067E+04  0.11653444067E+04  0.25500000920E-02 0.  1.
    10030    2    1    2    0    0  0.00000000000E+00  0.00000000000E+00 -0.88616970528E+03  0.14445191082E+04  0.11407623360E+04 0.  0.
        3    1    3    3  502    0  0.47239392873E+03 -0.31666127096E+03 -0.38782702962E+03  0.68836051567E+03  0.10100000352E+00 0.  1.
       -3    1    3    3    0  502 -0.47239392873E+03  0.31666127096E+03 -0.49834267566E+03  0.75615859250E+03  0.10100000352E+00 0. -1.
</event>
<event>
 5   0  0.4428114E-03  0.1176798E+04  0.7818609E-02  0.9133412E-01
       -1   -1    0    0    0  501  0.00000000000E+00  0.00000000000E+00  0.33765953981E+03  0.33765953985E+03  0.50400001928E-02 0. -1.
        1   -1    0    0  501    0  0.00000000000E+00  0.00000000000E+00 -0.10253319696E+04  0.10253319696E+04  0.50400001928E-02 0.  1.
    10030    2    1    2    0    0  0.00000000000E+00  0.00000000000E+00 -0.68767242975E+03  0.13629915094E+04  0.11767975544E+04 0.  0.
        4    1    3    3  502    0 -0.34037146359E+03  0.86324136012E+02 -0.89066726578E+03  0.95738935701E+03  0.12699999809E+01 0.  1.
       -4    1    3    3    0  502  0.34037146359E+03 -0.86324136012E+02  0.20299483604E+03  0.40560215241E+03  0.12699999809E+01 0. -1.
</event>
<event>
 5   0  0.7712816E-03  0.1095494E+04  0.7818609E-02  0.9209595E-01
       -2   -1    0    0    0  501  0.00000000000E+00  0.00000000000E+00  0.11274383626E+04  0.11274383626E+04  0.25500000920E-02 0. -1.
        2   -1    0    0  501    0  0.00000000000E+00  0.00000000000E+00 -0.26611382106E+03  0.26611382107E+03  0.25500000920E-02 0.  1.
    10030    2    1    2    0    0  0.00000000000E+00  0.00000000000E+00  0.86132454157E+03  0.13935521837E+04  0.10954942824E+04 0.  0.
        2    1    3    3  502    0  0.26081745600E+03  0.27898558782E+03  0.93013359570E+03  0.10054885427E+04  0.25500000920E-02 0. -1.
       -2    1    3    3    0  502 -0.26081745600E+03 -0.27898558782E+03 -0.68809054129E+02  0.38806364104E+03  0.25500000920E-02 0.  1.
</event>
<event>
 5   0  0.4428114E-03  0.1086793E+04  0.7818609E-02  0.9218161E-01
       -1   -1    0    0    0  501  0.00000000000E+00  0.00000000000E+00  0.13021741232E+04  0.13021741232E+04  0.50400001928E-02 0.  1.
        1   -1    0    0  501    0  0.00000000000E+00  0.00000000000E+00 -0.22675913359E+03  0.22675913364E+03  0.50400001928E-02 0. -1.
    10030    2    1    2    0    0  0.00000000000E+00  0.00000000000E+00  0.10754149896E+04  0.15289332569E+04  0.10867932205E+04 0.  0.
        4    1    3    3  502    0  0.33843600449E+03  0.23822897545E+03  0.10330760532E+04  0.11128969936E+04  0.12699999809E+01 0.  1.
       -4    1    3    3    0  502 -0.33843600449E+03 -0.23822897545E+03  0.42338936439E+02  0.41603626323E+03  0.12699999809E+01 0. -1.
</event>
<event>
 5   0  0.4428114E-03  0.1115899E+04  0.7818609E-02  0.9189832E-01
        1   -1    0    0  501    0  0.00000000000E+00  0.00000000000E+00  0.45053027898E+03  0.45053027901E+03  0.50400001928E-02 0. -1.
       -1   -1    0    0    0  501  0.00000000000E+00  0.00000000000E+00 -0.69098090240E+03  0.69098090242E+03  0.50400001928E-02 0.  1.
    10030    2    1    2    0    0  0.00000000000E+00  0.00000000000E+00 -0.24045062342E+03  0.11415111814E+04  0.11158993122E+04 0.  0.
        4    1    3    3  502    0 -0.79551382418E+02  0.46850861905E+03 -0.41930089423E+03  0.63375358096E+03  0.12699999809E+01 0.  1.
       -4    1    3    3    0  502  0.79551382418E+02 -0.46850861905E+03  0.17885027081E+03  0.50775760048E+03  0.12699999809E+01 0. -1.
</event>
<event>
 5   0  0.4598561E-03  0.1075333E+04  0.7818609E-02  0.9229573E-01
       -1   -1    0    0    0  501  0.00000000000E+00  0.00000000000E+00  0.10922185429E+04  0.10922185429E+04  0.50400001928E-02 0.  1.
        1   -1    0    0  501    0  0.00000000000E+00  0.00000000000E+00 -0.26467725853E+03  0.26467725858E+03  0.50400001928E-02 0. -1.
    10030    2    1    2    0    0  0.00000000000E+00  0.00000000000E+00  0.82754128437E+03  0.13568958015E+04  0.10753332687E+04 0.  0.
        2    1    3    3  502    0  0.20512511357E+03  0.33859895125E+03 -0.45302141075E+02  0.39846937899E+03  0.25500000920E-02 0. -1.
       -2    1    3    3    0  502 -0.20512511357E+03 -0.33859895125E+03  0.87284342545E+03  0.95842642251E+03  0.25500000920E-02 0.  1.
</event>
<event>
 5   0  0.7712816E-03  0.1110546E+04  0.7818609E-02  0.9194974E-01
        2   -1    0    0  501    0  0.00000000000E+00  0.00000000000E+00  0.72978097719E+03  0.72978097719E+03  0.25500000920E-02 0.  1.
       -2   -1    0    0    0  501  0.00000000000E+00  0.00000000000E+00 -0.42249392820E+03  0.42249392820E+03  0.25500000920E-02 0. -1.
    10030    2    1    2    0    0  0.00000000000E+00  0.00000000000E+00  0.30728704899E+03  0.11522749054E+04  0.11105458690E+04 0.  0.
        2    1    3    3  502    0 -0.20768964392E+02  0.40045171007E+03  0.55217928346E+03  0.68241840763E+03  0.25500000920E-02 0.  1.
       -2    1    3    3    0  502  0.20768964392E+02 -0.40045171007E+03 -0.24489223447E+03  0.46985649777E+03  0.25500000920E-02 0. -1.
</event>
<event>
 5   0  0.7537480E-03  0.9168259E+03  0.7818609E-02  0.9404789E-01
       -2   -1    0    0    0  501  0.00000000000E+00  0.00000000000E+00  0.16255310413E+03  0.16255310415E+03  0.25500000920E-02 0.  1.
        2   -1    0    0  501    0  0.00000000000E+00  0.00000000000E+00 -0.12927617869E+04  0.12927617869E+04  0.25500000920E-02 0. -1.
    10030    2    1    2    0    0  0.00000000000E+00  0.00000000000E+00 -0.11302086828E+04  0.14553148910E+04  0.91682591887E+03 0.  0.
        1    1    3    3  502    0 -0.83182627425E+02  0.43284531077E+03 -0.76505902471E+03  0.88294378296E+03  0.50400001928E-02 0.  1.
       -1    1    3    3    0  502  0.83182627425E+02 -0.43284531077E+03 -0.36514965806E+03  0.57237110809E+03  0.50400001928E-02 0. -1.
</event>
<event>
 5   0  0.2992375E-03  0.1128642E+04  0.7818609E-02  0.9177716E-01
        4   -1    0    0  501    0  0.00000000000E+00  0.00000000000E+00  0.10782970616E+04  0.10782978095E+04  0.12699999809E+01 0.  1.
       -4   -1    0    0    0  501  0.00000000000E+00  0.00000000000E+00 -0.29533238792E+03  0.29533511856E+03  0.12699999809E+01 0. -1.
    10030    2    1    2    0    0  0.00000000000E+00  0.00000000000E+00  0.78296467372E+03  0.13736329281E+04  0.11286424327E+04 0.  0.
        2    1    3    3  502    0 -0.26907799762E+02  0.45366716217E+03 -0.15681466060E+02  0.45473490310E+03  0.25500000920E-02 0. -1.
       -2    1    3    3    0  502  0.26907799762E+02 -0.45366716217E+03  0.79864613978E+03  0.91889802498E+03  0.25500000920E-02 0.  1.
</event>
<event>
 5   0  0.7537480E-03  0.1144816E+04  0.7818609E-02  0.9162579E-01
        2   -1    0    0  501    0  0.00000000000E+00  0.00000000000E+00  0.49756815556E+03  0.49756815557E+03  0.25500000920E-02 0.  1.
       -2   -1    0    0    0  501  0.00000000000E+00  0.00000000000E+00 -0.65850517351E+03  0.65850517351E+03  0.25500000920E-02 0. -1.
    10030    2    1    2    0    0  0.00000000000E+00  0.00000000000E+00 -0.16093701795E+03  0.11560733291E+04  0.11448164999E+04 0.  0.
        1    1    3    3  502    0 -0.13386303909E+03 -0.27955016867E+03  0.40549470668E+03  0.51038570435E+03  0.50400001928E-02 0.  1.
       -1    1    3    3    0  502  0.13386303909E+03  0.27955016867E+03 -0.56643172462E+03  0.64568762472E+03  0.50400001928E-02 0. -1.
</event>
<event>
 5   0  0.4641021E-03  0.1100185E+04  0.7818609E-02  0.9205012E-01
       -1   -1    0    0    0  501  0.00000000000E+00  0.00000000000E+00  0.37472461222E+03  0.37472461225E+03  0.50400001928E-02 0.  1.
        1   -1    0    0  501    0  0.00000000000E+00  0.00000000000E+00 -0.80753092271E+03  0.80753092272E+03  0.50400001928E-02 0. -1.
    10030    2    1    2    0    0  0.00000000000E+00  0.00000000000E+00 -0.43280631049E+03  0.11822555350E+04  0.11001849152E+04 0.  0.
        1    1    3    3  502    0 -0.23211729202E+03  0.14336701213E+03  0.29690026196E+03  0.40321495880E+03  0.50400001928E-02 0.  1.
       -1    1    3    3    0  502  0.23211729202E+03 -0.14336701213E+03 -0.72970657245E+03  0.77904057617E+03  0.50400001928E-02 0. -1.
</event>
<event>
 5   0  0.7766551E-03  0.1035195E+04  0.7818609E-02  0.9270764E-01
       -2   -1    0    0    0  501  0.00000000000E+00  0.00000000000E+00  0.11543189411E+03  0.11543189414E+03  0.25500000920E-02 0. -1.
        2   -1    0    0  501    0  0.00000000000E+00  0.00000000000E+00 -0.23209123741E+04  0.23209123741E+04  0.25500000920E-02 0.  1.
    10030    2    1    2    0    0  0.00000000000E+00  0.00000000000E+00 -0.22054804800E+04  0.24363442682E+04  0.10351952694E+04 0.  0.
        5    1    3    3  502    0  0.29067803612E+03 -0.10351172287E+03 -0.12475251522E+03  0.33285684236E+03  0.46999998093E+01 0. -1.
       -5    1    3    3    0  502 -0.29067803612E+03  0.10351172287E+03 -0.20807279647E+04  0.21034874259E+04  0.46999998093E+01 0.  1.
</event>
<event>
 5   0  0.2992375E-03  0.8734365E+03  0.7818609E-02  0.9459410E-01
       -3   -1    0    0    0  501  0.00000000000E+00  0.00000000000E+00  0.38817427999E+03  0.38817429313E+03  0.10100000352E+00 0. -1.
        3   -1    0    0  501    0  0.00000000000E+00  0.00000000000E+00 -0.49133293831E+03  0.49133294869E+03  0.10100000352E+00 0.  1.
    10030    2    1    2    0    0  0.00000000000E+00  0.00000000000E+00 -0.10315865832E+03  0.87950724183E+03  0.87343647716E+03 0.  0.
        4    1    3    3  502    0  0.18809521946E+03  0.90372215108E+02 -0.43787871898E+03  0.48506322710E+03  0.12699999809E+01 0.  1.
       -4    1    3    3    0  502 -0.18809521946E+03 -0.90372215108E+02  0.33472006066E+03  0.39444401473E+03  0.12699999809E+01 0. -1.
</event>
<event>
 5   0  0.7738497E-03  0.1094495E+04  0.7818609E-02  0.9210574E-01
        2   -1    0    0  501    0  0.00000000000E+00  0.00000000000E+00  0.81992621664E+03  0.81992621665E+03  0.25500000920E-02 0.  1.
       -2   -1    0    0    0  501  0.00000000000E+00  0.00000000000E+00 -0.36525247263E+03  0.36525247264E+03  0.25500000920E-02 0. -1.
    10030    2    1    2    0    0  0.00000000000E+00  0.00000000000E+00  0.45467374402E+03  0.11851786893E+04  0.10944954600E+04 0.  0.
        4    1    3    3  502    0  0.22037062428E+03 -0.24097008076E+03  0.70286717460E+03  0.77501849649E+03  0.12699999809E+01 0.  1.
       -4    1    3    3    0  502 -0.22037062428E+03  0.24097008076E+03 -0.24819343059E+03  0.41016019280E+03  0.12699999809E+01 0. -1.
</event>
<event>
 5   0  0.7738497E-03  0.1094358E+04  0.7818609E-02  0.9210709E-01
        2   -1    0    0  501    0  0.00000000000E+00  0.00000000000E+00  0.11918965267E+04  0.11918965267E+04  0.25500000920E-02 0. -1.
       -2   -1    0    0    0  501  0.00000000000E+00  0.00000000000E+00 -0.25120029345E+03  0.25120029347E+03  0.25500000920E-02 0.  1.
    10030    2    1    2    0    0  0.00000000000E+00  0.00000000000E+00  0.94069623325E+03  0.14430968202E+04  0.10943578159E+04 0.  0.
        4    1    3    3  502    0 -0.20273973301E+02  0.53616681327E+03  0.61186579247E+03  0.81379803793E+03  0.12699999809E+01 0. -1.
       -4    1    3    3    0  502  0.20273973301E+02 -0.53616681327E+03  0.32883044079E+03  0.62929878224E+03  0.12699999809E+01 0.  1.
</event>
<event>
 5   0  0.4598561E-03  0.1051898E+04  0.7818609E-02  0.9253387E-01
        1   -1    0    0  501    0  0.00000000000E+00  0.00000000000E+00  0.31160940332E+03  0.31160940337E+03  0.50400001928E-02 0. -1.
       -1   -1    0    0    0  501  0.00000000000E+00  0.00000000000E+00 -0.88772104504E+03  0.88772104505E+03  0.50400001928E-02 0.  1.
    10030    2    1    2    0    0  0.00000000000E+00  0.00000000000E+00 -0.57611164171E+03  0.11993304484E+04  0.10518977616E+04 0.  0.
        2    1    3    3  502    0 -0.32147603522E+03  0.35188124428E+03 -0.54160973381E+03  0.72146264980E+03  0.25500000920E-02 0.  1.
       -2    1    3    3    0  502  0.32147603522E+03 -0.35188124428E+03 -0.34501907908E+02  0.47786779862E+03  0.25500000920E-02 0. -1.
</event>
<event>
 5   0  0.4641021E-03  0.1093144E+04  0.7818609E-02  0.9211900E-01
        1   -1    0    0  501    0  0.00000000000E+00  0.00000000000E+00  0.12726945844E+04  0.12726945844E+04  0.50400001928E-02 0.  1.
       -1   -1    0    0    0  501  0.00000000000E+00  0.00000000000E+00 -0.23473104517E+03  0.23473104523E+03  0.50400001928E-02 0. -1.
    10030    2    1    2    0    0  0.00000000000E+00  0.00000000000E+00  0.10379635392E+04  0.15074256296E+04  0.10931439613E+04 0.  0.
        1    1    3    3  502    0  0.48086619018E+02 -0.22612423059E+03  0.12019557479E+04  0.12239861562E+04  0.50400001928E-02 0.  1.
       -1    1    3    3    0  502 -0.48086619018E+02  0.22612423059E+03 -0.16399220866E+03  0.28343947346E+03  0.50400001928E-02 0. -1.
</event>
<event>
 5   0  0.4504740E-03  0.1093856E+04  0.7818609E-02  0.9211201E-01
        1   -1    0    0  501    0  0.00000000000E+00  0.00000000000E+00  0.96647434696E+03  0.96647434697E+03  0.50400001928E-02 0. -1.
       -1   -1    0    0    0  501  0.00000000000E+00  0.00000000000E+00 -0.30950669367E+03  0.30950669371E+03  0.50400001928E-02 0.  1.
    10030    2    1    2    0    0  0.00000000000E+00  0.00000000000E+00  0.65696765329E+03  0.12759810407E+04  0.10938560777E+04 0.  0.
        5    1    3    3  502    0 -0.15356783460E+03 -0.46980601825E+03  0.55395147424E+02  0.49738464689E+03  0.46999998093E+01 0.  1.
       -5    1    3    3    0  502  0.15356783460E+03  0.46980601825E+03  0.60157250587E+03  0.77859639379E+03  0.46999998093E+01 0. -1.
</event>
<event>
 5   0  0.7738497E-03  0.1115278E+04  0.7818609E-02  0.9190428E-01
       -2   -1    0    0    0  501  0.00000000000E+00  0.00000000000E+00  0.71595954935E+03  0.71595954935E+03  0.25500000920E-02 0. -1.
        2   -1    0    0  501    0  0.00000000000E+00  0.00000000000E+00 -0.43432761178E+03  0.43432761179E+03  0.25500000920E-02 0.  1.
    10030    2    1    2    0    0  0.00000000000E+00  0.00000000000E+00  0.28163193756E+03  0.11502871611E+04  0.11152775461E+04 0.  0.
        4    1    3    3  502    0 -0.13819184655E+03 -0.26129287378E+03 -0.34687867159E+03  0.45573827801E+03  0.12699999809E+01 0.  1.
       -4    1    3    3    0  502  0.13819184655E+03  0.26129287378E+03  0.62851060915E+03  0.69454888313E+03  0.12699999809E+01 0. -1.
</event>
<event>
 5   0  0.7766551E-03  0.1088375E+04  0.7818609E-02  0.9216597E-01
       -2   -1    0    0    0  501  0.00000000000E+00  0.00000000000E+00  0.86879363221E+03  0.86879363221E+03  0.25500000920E-02 0. -1.
        2   -1    0    0  501    0  0.00000000000E+00  0.00000000000E+00 -0.34086360080E+03  0.34086360081E+03  0.25500000920E-02 0.  1.
    10030    2    1    2    0    0  0.00000000000E+00  0.00000000000E+00  0.52793003141E+03  0.12096572330E+04  0.10883751666E+04 0.  0.
        5    1    3    3  502    0 -0.29956066168E+03  0.44667526412E+02 -0.23850430338E+03  0.38553621188E+03  0.46999998093E+01 0.  1.
       -5    1    3    3    0  502  0.29956066168E+03 -0.44667526412E+02  0.76643433479E+03  0.82412102114E+03  0.46999998093E+01 0. -1.
</event>
<event>
 5   0  0.7537480E-03  0.1099301E+04  0.7818609E-02  0.9205874E-01
        2   -1    0    0  501    0  0.00000000000E+00  0.00000000000E+00  0.92153866934E+03  0.92153866935E+03  0.25500000920E-02 0. -1.
       -2   -1    0    0    0  501  0.00000000000E+00  0.00000000000E+00 -0.32783806592E+03  0.32783806593E+03  0.25500000920E-02 0.  1.
    10030    2    1    2    0    0  0.00000000000E+00  0.00000000000E+00  0.59370060343E+03  0.12493767353E+04  0.10993006050E+04 0.  0.
        1    1    3    3  502    0 -0.39035092653E+03 -0.18004769797E+03  0.68613845229E+03  0.80967709312E+03  0.50400001928E-02 0. -1.
       -1    1    3    3    0  502  0.39035092653E+03  0.18004769797E+03 -0.92437848861E+02  0.43969964216E+03  0.50400001928E-02 0.  1.
</event>
<event>
 5   0  0.7537480E-03  0.1088958E+04  0.7818609E-02  0.9216022E-01
       -2   -1    0    0    0  501  0.00000000000E+00  0.00000000000E+00  0.37058033500E+03  0.37058033501E+03  0.25500000920E-02 0. -1.
        2   -1    0    0  501    0  0.00000000000E+00  0.00000000000E+00 -0.79998076145E+03  0.79998076145E+03  0.25500000920E-02 0.  1.
    10030    2    1    2    0    0  0.00000000000E+00  0.00000000000E+00 -0.42940042644E+03  0.11705610965E+04  0.10889575540E+04 0.  0.
        1    1    3    3  502    0 -0.38248304135E+03 -0.37894674569E+03 -0.12761552533E+03  0.55333501183E+03  0.50400001928E-02 0.  1.
       -1    1    3    3    0  502  0.38248304135E+03  0.37894674569E+03 -0.30178490111E+03  0.61722608463E+03  0.50400001928E-02 0. -1.
</event>
<event>
 5   0  0.4504740E-03  0.1114467E+04  0.7818609E-02  0.9191205E-01
       -1   -1    0    0    0  501  0.00000000000E+00  0.00000000000E+00  0.66724661843E+03  0.66724661845E+03  0.50400001928E-02 0. -1.
        1   -1    0    0  501    0  0.00000000000E+00  0.00000000000E+00 -0.46535861419E+03  0.46535861422E+03  0.50400001928E-02 0.  1.
    10030    2    1    2    0    0  0.00000000000E+00  0.00000000000E+00  0.20188800424E+03  0.11326052327E+04  0.11144666199E+04 0.  0.
        5    1    3    3  502    0 -0.19430148514E+03  0.38751712961E+03 -0.25484576704E+03  0.50288273768E+03  0.46999998093E+01 0.  1.
       -5    1    3    3    0  502  0.19430148514E+03 -0.38751712961E+03  0.45673377128E+03  0.62972249499E+03  0.46999998093E+01 0. -1.
</event>
<event>
 5   0  0.4504740E-03  0.1089367E+04  0.7818609E-02  0.9215618E-01
        1   -1    0    0  501    0  0.00000000000E+00  0.00000000000E+00  0.66811331526E+03  0.66811331528E+03  0.50400001928E-02 0. -1.
       -1   -1    0    0    0  501  0.00000000000E+00  0.00000000000E+00 -0.44405631181E+03  0.44405631184E+03  0.50400001928E-02 0.  1.
    10030    2    1    2    0    0  0.00000000000E+00  0.00000000000E+00  0.22405700345E+03  0.11121696271E+04  0.10893666686E+04 0.  0.
        5    1    3    3  502    0 -0.19992267611E+03  0.11944063153E+03  0.61469922639E+03  0.65735254606E+03  0.46999998093E+01 0. -1.
       -5    1    3    3    0  502  0.19992267611E+03 -0.11944063153E+03 -0.39064222294E+03  0.45481708106E+03  0.46999998093E+01 0.  1.
</event>
<event>
 5   0  0.7738497E-03  0.1057956E+04  0.7818609E-02  0.9247169E-01
       -2   -1    0    0    0  501  0.00000000000E+00  0.00000000000E+00  0.23207894793E+03  0.23207894794E+03  0.25500000920E-02 0. -1.
        2   -1    0    0  501    0  0.00000000000E+00  0.00000000000E+00 -0.12056997649E+04  0.12056997650E+04  0.25500000920E-02 0.  1.
    10030    2    1    2    0    0  0.00000000000E+00  0.00000000000E+00 -0.97362081702E+03  0.14377787129E+04  0.10579556380E+04 0.  0.
        4    1    3    3  502    0  0.13359110436E+03 -0.48268172457E+03 -0.25542743722E+03  0.56220371662E+03  0.12699999809E+01 0.  1.
       -4    1    3    3    0  502 -0.13359110436E+03  0.48268172457E+03 -0.71819337980E+03  0.87557499627E+03  0.12699999809E+01 0. -1.
</event>
<event>
 5   0  0.4428114E-03  0.1103943E+04  0.7818609E-02  0.9201358E-01
        1   -1    0    0  501    0  0.00000000000E+00  0.00000000000E+00  0.37674063365E+03  0.37674063368E+03  0.50400001928E-02 0. -1.
       -1   -1    0    0    0  501  0.00000000000E+00  0.00000000000E+00 -0.80870581782E+03  0.80870581784E+03  0.50400001928E-02 0.  1.
    10030    2    1    2    0    0  0.00000000000E+00  0.00000000000E+00 -0.43196518418E+03  0.11854464515E+04  0.11039426476E+04 0.  0.
        4    1    3    3  502    0  0.38107306615E+03  0.37978458430E+03 -0.83514834859E+02  0.54445326040E+03  0.12699999809E+01 0. -1.
       -4    1    3    3    0  502 -0.38107306615E+03 -0.37978458430E+03 -0.34845034932E+03  0.64099319112E+03  0.12699999809E+01 0.  1.
</event>
<event>
 5   0  0.7738497E-03  0.9364572E+03  0.7818609E-02  0.9381122E-01
       -2   -1    0    0    0  501  0.00000000000E+00  0.00000000000E+00  0.55098671396E+03  0.55098671397E+03  0.25500000920E-02 0.  1.
        2   -1    0    0  501    0  0.00000000000E+00  0.00000000000E+00 -0.39790073532E+03  0.39790073533E+03  0.25500000920E-02 0. -1.
    10030    2    1    2    0    0  0.00000000000E+00  0.00000000000E+00  0.15308597864E+03  0.94888744929E+03  0.93645719313E+03 0.  0.
        4    1    3    3  502    0  0.31418856548E+03  0.34500877507E+03  0.11566764011E+03  0.48075578564E+03  0.12699999809E+01 0. -1.
       -4    1    3    3    0  502 -0.31418856548E+03 -0.34500877507E+03  0.37418338529E+02  0.46813166365E+03  0.12699999809E+01 0.  1.
</event>
<event>
 5   0  0.4298101E-03  0.1108330E+04  0.7818609E-02  0.9197110E-01
        1   -1    0    0  501    0  0.00000000000E+00  0.00000000000E+00  0.98266590214E+03  0.98266590216E+03  0.50400001928E-02 0.  1.
       -1   -1    0    0    0  501  0.00000000000E+00  0.00000000000E+00 -0.31251621879E+03  0.31251621883E+03  0.50400001928E-02 0. -1.
    10030    2    1    2    0    0  0.00000000000E+00  0.00000000000E+00  0.67014968335E+03  0.12951821210E+04  0.11083303336E+04 0.  0.
        3    1    3    3  502    0  0.43989607257E+03 -0.18420108329E+03  0.52503214637E+01  0.47693413573E+03  0.10100000352E+00 0. -1.
       -3    1    3    3    0  502 -0.43989607257E+03  0.18420108329E+03  0.66489936189E+03  0.81824798526E+03  0.10100000352E+00 0.  1.
</event>
<event>
 5   0  0.4428114E-03  0.1107182E+04  0.7818609E-02  0.9198220E-01
        1   -1    0    0  501    0  0.00000000000E+00  0.00000000000E+00  0.47813053856E+03  0.47813053859E+03  0.50400001928E-02 0. -1.
       -1   -1    0    0    0  501  0.00000000000E+00  0.00000000000E+00 -0.64096063350E+03  0.64096063352E+03  0.50400001928E-02 0.  1.
    10030    2    1    2    0    0  0.00000000000E+00  0.00000000000E+00 -0.16283009493E+03  0.11190911721E+04  0.11071817428E+04 0.  0.
        4    1    3    3  502    0 -0.29086245762E+03  0.97143864118E+02 -0.54726673289E+03  0.62732797595E+03  0.12699999809E+01 0.  1.
       -4    1    3    3    0  502  0.29086245762E+03 -0.97143864118E+02  0.38443663796E+03  0.49176319615E+03  0.12699999809E+01 0. -1.
</event>
<event>
 5   0  0.4598561E-03  0.1063498E+04  0.7818609E-02  0.9241518E-01
       -1   -1    0    0    0  501  0.00000000000E+00  0.00000000000E+00  0.25371119360E+03  0.25371119365E+03  0.50400001928E-02 0.  1.
        1   -1    0    0  501    0  0.00000000000E+00  0.00000000000E+00 -0.11144833948E+04  0.11144833948E+04  0.50400001928E-02 0. -1.
    10030    2    1    2    0    0  0.00000000000E+00  0.00000000000E+00 -0.86077220115E+03  0.13681945884E+04  0.10634978371E+04 0.  0.
        2    1    3    3  502    0 -0.20273510683E+03  0.48088748010E+03 -0.56160084254E+03  0.76664841904E+03  0.25500000920E-02 0. -1.
       -2    1    3    3    0  502  0.20273510683E+03 -0.48088748010E+03 -0.29917135861E+03  0.60154616937E+03  0.25500000920E-02 0.  1.
</event>
<event>
 5   0  0.7537480E-03  0.1143527E+04  0.7818609E-02  0.9163776E-01
        2   -1    0    0  501    0  0.00000000000E+00  0.00000000000E+00  0.12053916693E+04  0.12053916693E+04  0.25500000920E-02 0.  1.
       -2   -1    0    0    0  501  0.00000000000E+00  0.00000000000E+00 -0.27120958017E+03  0.27120958018E+03  0.25500000920E-02 0. -1.
    10030    2    1    2    0    0  0.00000000000E+00  0.00000000000E+00  0.93418208909E+03  0.14766012494E+04  0.11435274698E+04 0.  0.
        1    1    3    3  502    0  0.32667090642E+03  0.26630371361E+03 -0.31817189545E+02  0.42266284738E+03  0.50400001928E-02 0. -1.
       -1    1    3    3    0  502 -0.32667090642E+03 -0.26630371361E+03  0.96599927863E+03  0.10539384021E+04  0.50400001928E-02 0.  1.
</event>
<event>
 5   0  0.4641021E-03  0.1098760E+04  0.7818609E-02  0.9206401E-01
       -1   -1    0    0    0  501  0.00000000000E+00  0.00000000000E+00  0.10265322732E+04  0.10265322733E+04  0.50400001928E-02 0.  1.
        1   -1    0    0  501    0  0.00000000000E+00  0.00000000000E+00 -0.29401736548E+03  0.29401736552E+03  0.50400001928E-02 0. -1.
    10030    2    1    2    0    0  0.00000000000E+00  0.00000000000E+00  0.73251490777E+03  0.13205496388E+04  0.10987598729E+04 0.  0.
        1    1    3    3  502    0  0.99138769817E+02 -0.35064593532E+03 -0.12787473498E+03  0.38617744045E+03  0.50400001928E-02 0. -1.
       -1    1    3    3    0  502 -0.99138769817E+02  0.35064593532E+03  0.86038964275E+03  0.93437219833E+03  0.50400001928E-02 0.  1.
</event>
<event>
 5   0  0.7537480E-03  0.1089552E+04  0.7818609E-02  0.9215435E-01
        2   -1    0    0  501    0  0.00000000000E+00  0.00000000000E+00  0.10623785909E+04  0.10623785909E+04  0.25500000920E-02 0. -1.
       -2   -1    0    0    0  501  0.00000000000E+00  0.00000000000E+00 -0.27935531058E+03  0.27935531059E+03  0.25500000920E-02 0.  1.
    10030    2    1    2    0    0  0.00000000000E+00  0.00000000000E+00  0.78302328029E+03  0.13417339015E+04  0.10895523874E+04 0.  0.
        1    1    3    3  502    0  0.43045969324E+03 -0.30727145929E+03  0.23062034650E+03  0.57697230561E+03  0.50400001928E-02 0.  1.
       -1    1    3    3    0  502 -0.43045969324E+03  0.30727145929E+03  0.55240293379E+03  0.76476159585E+03  0.50400001928E-02 0. -1.
</event>
<event>
 5   0  0.7712816E-03  0.1105355E+04  0.7818609E-02  0.9199988E-01
        2   -1    0    0  501    0  0.00000000000E+00  0.00000000000E+00  0.14570398152E+04  0.14570398152E+04  0.25500000920E-02 0. -1.
       -2   -1    0    0    0  501  0.00000000000E+00  0.00000000000E+00 -0.20963893382E+03  0.20963893383E+03  0.25500000920E-02 0.  1.
    10030    2    1    2    0    0  0.00000000000E+00  0.00000000000E+00  0.12474008814E+04  0.16666787490E+04  0.11053547365E+04 0.  0.
        2    1    3    3  502    0 -0.13550572228E+03 -0.41810237148E+03  0.11289467206E+04  0.12114834261E+04  0.25500000920E-02 0. -1.
       -2    1    3    3    0  502  0.13550572228E+03  0.41810237148E+03  0.11845416081E+03  0.45519532294E+03  0.25500000920E-02 0.  1.
</event>
<event>
 5   0  0.7738497E-03  0.1086287E+04  0.7818609E-02  0.9218662E-01
       -2   -1    0    0    0  501  0.00000000000E+00  0.00000000000E+00  0.14028280713E+03  0.14028280715E+03  0.25500000920E-02 0. -1.
        2   -1    0    0  501    0  0.00000000000E+00  0.00000000000E+00 -0.21029293610E+04  0.21029293610E+04  0.25500000920E-02 0.  1.
    10030    2    1    2    0    0  0.00000000000E+00  0.00000000000E+00 -0.19626465539E+04  0.22432121682E+04  0.10862869492E+04 0.  0.
        4    1    3    3  502    0 -0.31518216311E+03  0.24827706645E+03 -0.22533734573E+03  0.46017369541E+03  0.12699999809E+01 0. -1.
       -4    1    3    3    0  502  0.31518216311E+03 -0.24827706645E+03 -0.17373092082E+04  0.17830384728E+04  0.12699999809E+01 0.  1.
</event>
<event>
 5   0  0.4598561E-03  0.1112536E+04  0.7818609E-02  0.9193059E-01
        1   -1    0    0  501    0  0.00000000000E+00  0.00000000000E+00  0.57436324103E+03  0.57436324105E+03  0.50400001928E-02 0.  1.
       -1   -1    0    0    0  501  0.00000000000E+00  0.00000000000E+00 -0.53874313258E+03  0.53874313261E+03  0.50400001928E-02 0. -1.
    10030    2    1    2    0    0  0.00000000000E+00  0.00000000000E+00  0.35620108449E+02  0.11131063737E+04  0.11125362947E+04 0.  0.
        2    1    3    3  502    0  0.20560467305E+03 -0.49959574840E+03 -0.11479109246E+03  0.55230986621E+03  0.25500000920E-02 0. -1.
       -2    1    3    3    0  502 -0.20560467305E+03  0.49959574840E+03  0.15041120091E+03  0.56079650745E+03  0.25500000920E-02 0.  1.
</event>
<event>
 5   0  0.4641021E-03  0.1116457E+04  0.7818609E-02  0.9189299E-01
       -1   -1    0    0    0  501  0.00000000000E+00  0.00000000000E+00  0.35794235238E+03  0.35794235242E+03  0.50400001928E-02 0.  1.
        1   -1    0    0  501    0  0.00000000000E+00  0.00000000000E+00 -0.87058449779E+03  0.87058449780E+03  0.50400001928E-02 0. -1.
    10030    2    1    2    0    0  0.00000000000E+00  0.00000000000E+00 -0.51264214541E+03  0.12285268502E+04  0.11164570088E+04 0.  0.
        1    1    3    3  502    0  0.48450983643E+03  0.24396752708E+03 -0.40125880573E+03  0.67474333273E+03  0.50400001928E-02 0.  1.
       -1    1    3    3    0  502 -0.48450983643E+03 -0.24396752708E+03 -0.11138333968E+03  0.55378351749E+03  0.50400001928E-02 0. -1.
</event>
<event>
 5   0  0.7738497E-03  0.1103131E+04  0.7818609E-02  0.9202146E-01
       -2   -1    0    0    0  501  0.00000000000E+00  0.00000000000E+00  0.37429736031E+03  0.37429736032E+03  0.25500000920E-02 0.  1.
        2   -1    0    0  501    0  0.00000000000E+00  0.00000000000E+00 -0.81278761826E+03  0.81278761827E+03  0.25500000920E-02 0. -1.
    10030    2    1    2    0    0  0.00000000000E+00  0.00000000000E+00 -0.43849025795E+03  0.11870849786E+04  0.11031305635E+04 0.  0.
        4    1    3    3  502    0 -0.48970963142E+03  0.22879780777E+03 -0.10107576268E+03  0.54989261010E+03  0.12699999809E+01 0.  1.
       -4    1    3    3    0  502  0.48970963142E+03 -0.22879780777E+03 -0.33741449527E+03  0.63719236849E+03  0.12699999809E+01 0. -1.
</event>
<event>
 5   0  0.7766551E-03  0.1096195E+04  0.7818609E-02  0.9208908E-01
       -2   -1    0    0    0  501  0.00000000000E+00  0.00000000000E+00  0.48132959048E+03  0.48132959049E+03  0.25500000920E-02 0.  1.
        2   -1    0    0  501    0  0.00000000000E+00  0.00000000000E+00 -0.62412718657E+03  0.62412718658E+03  0.25500000920E-02 0. -1.
    10030    2    1    2    0    0  0.00000000000E+00  0.00000000000E+00 -0.14279759609E+03  0.11054567771E+04  0.10961950249E+04 0.  0.
        5    1    3    3  502    0  0.11117735644E+03 -0.52041983881E+03 -0.20362326807E+03  0.56980851039E+03  0.46999998093E+01 0. -1.
       -5    1    3    3    0  502 -0.11117735644E+03  0.52041983881E+03  0.60825671986E+02  0.53564826667E+03  0.46999998093E+01 0.  1.
</event>
<event>
 5   0  0.4598561E-03  0.9075762E+03  0.7818609E-02  0.9416160E-01
        1   -1    0    0  501    0  0.00000000000E+00  0.00000000000E+00  0.28946527513E+03  0.28946527517E+03  0.50400001928E-02 0.  1.
       -1   -1    0    0    0  501  0.00000000000E+00  0.00000000000E+00 -0.71139317795E+03  0.71139317797E+03  0.50400001928E-02 0. -1.
    10030    2    1    2    0    0  0.00000000000E+00  0.00000000000E+00 -0.42192790282E+03  0.10008584531E+04  0.90757616101E+03 0.  0.
        2    1    3    3  502    0  0.42221256956E+03 -0.16013569061E+03 -0.26048767848E+03  0.52130674650E+03  0.25500000920E-02 0. -1.
       -2    1    3    3    0  502 -0.42221256956E+03  0.16013569061E+03 -0.16144022434E+03  0.47955170664E+03  0.25500000920E-02 0.  1.
</event>
<event>
 5   0  0.2992375E-03  0.1046451E+04  0.7818609E-02  0.9259015E-01
        3   -1    0    0  501    0  0.00000000000E+00  0.00000000000E+00  0.10912991965E+04  0.10912992012E+04  0.10100000352E+00 0. -1.
       -3   -1    0    0    0  501  0.00000000000E+00  0.00000000000E+00 -0.25086168432E+03  0.25086170465E+03  0.10100000352E+00 0.  1.
    10030    2    1    2    0    0  0.00000000000E+00  0.00000000000E+00  0.84043751216E+03  0.13421609058E+04  0.10464514729E+04 0.  0.
        1    1    3    3  502    0  0.39569952471E+02 -0.26418107961E+02  0.10885189492E+04  0.10895582593E+04  0.50400001928E-02 0. -1.
       -1    1    3    3    0  502 -0.39569952471E+02  0.26418107961E+02 -0.24808143708E+03  0.25260264649E+03  0.50400001928E-02 0.  1.
</event>
<event>
 5   0  0.4298101E-03  0.1096286E+04  0.7818609E-02  0.9208819E-01
        1   -1    0    0  501    0  0.00000000000E+00  0.00000000000E+00  0.41083666705E+03  0.41083666708E+03  0.50400001928E-02 0.  1.
       -1   -1    0    0    0  501  0.00000000000E+00  0.00000000000E+00 -0.73133885445E+03  0.73133885447E+03  0.50400001928E-02 0. -1.
    10030    2    1    2    0    0  0.00000000000E+00  0.00000000000E+00 -0.32050218740E+03  0.11421755215E+04  0.10962861259E+04 0.  0.
        3    1    3    3  502    0 -0.39289481384E+02 -0.39847046202E+03 -0.55027170780E+03  0.68053018673E+03  0.10100000352E+00 0. -1.
       -3    1    3    3    0  502  0.39289481384E+02  0.39847046202E+03  0.22976952040E+03  0.46164533481E+03  0.10100000352E+00 0.  1.
</event>
<event>
 5   0  0.7712816E-03  0.1091775E+04  0.7818609E-02  0.9213245E-01
       -2   -1    0    0    0  501  0.00000000000E+00  0.00000000000E+00  0.27918360457E+03  0.27918360458E+03  0.25500000920E-02 0. -1.
        2   -1    0    0  501    0  0.00000000000E+00  0.00000000000E+00 -0.10673743254E+04  0.10673743254E+04  0.25500000920E-02 0.  1.
    10030    2    1    2    0    0  0.00000000000E+00  0.00000000000E+00 -0.78819072082E+03  0.13465579300E+04  0.10917754560E+04 0.  0.
        2    1    3    3  502    0  0.46027722897E+02  0.81695400494E+02  0.26917623853E+03  0.28504129022E+03  0.25500000920E-02 0. -1.
       -2    1    3    3    0  502 -0.46027722897E+02 -0.81695400494E+02 -0.10573669594E+04  0.10615166398E+04  0.25500000920E-02 0.  1.
</event>
<event>
 5   0  0.7738497E-03  0.1090652E+04  0.7818609E-02  0.9214351E-01
        2   -1    0    0  501    0  0.00000000000E+00  0.00000000000E+00  0.15649582459E+04  0.15649582459E+04  0.25500000920E-02 0. -1.
       -2   -1    0    0    0  501  0.00000000000E+00  0.00000000000E+00 -0.19002467518E+03  0.19002467520E+03  0.25500000920E-02 0.  1.
    10030    2    1    2    0    0  0.00000000000E+00  0.00000000000E+00  0.13749335707E+04  0.17549829211E+04  0.10906524329E+04 0.  0.
        4    1    3    3  502    0 -0.40167935448E+03  0.23348880415E+03  0.22804956457E+03  0.51756308049E+03  0.12699999809E+01 0.  1.
       -4    1    3    3    0  502  0.40167935448E+03 -0.23348880415E+03  0.11468840061E+04  0.12374198406E+04  0.12699999809E+01 0. -1.
</event>
<event>
 5   0  0.4641021E-03  0.8071780E+03  0.7818609E-02  0.9549685E-01
       -1   -1    0    0    0  501  0.00000000000E+00  0.00000000000E+00  0.41089767788E+03  0.41089767791E+03  0.50400001928E-02 0. -1.
        1   -1    0    0  501    0  0.00000000000E+00  0.00000000000E+00 -0.39641028463E+03  0.39641028466E+03  0.50400001928E-02 0.  1.
    10030    2    1    2    0    0  0.00000000000E+00  0.00000000000E+00  0.14487393252E+02  0.80730796257E+03  0.80717796171E+03 0.  0.
        1    1    3    3  502    0 -0.29263161045E+03  0.25479223926E+03 -0.10382246985E+03  0.40166086428E+03  0.50400001928E-02 0.  1.
       -1    1    3    3    0  502  0.29263161045E+03 -0.25479223926E+03  0.11830986311E+03  0.40564709829E+03  0.50400001928E-02 0. -1.
</event>
<event>
 5   0  0.4641021E-03  0.1101757E+04  0.7818609E-02  0.9203481E-01
       -1   -1    0    0    0  501  0.00000000000E+00  0.00000000000E+00  0.39192836756E+03  0.39192836759E+03  0.50400001928E-02 0. -1.
        1   -1    0    0  501    0  0.00000000000E+00  0.00000000000E+00 -0.77429172456E+03  0.77429172457E+03  0.50400001928E-02 0.  1.
    10030    2    1    2    0    0  0.00000000000E+00  0.00000000000E+00 -0.38236335699E+03  0.11662200922E+04  0.11017565823E+04 0.  0.
        1    1    3    3  502    0 -0.45826198439E+03  0.57789470762E+02  0.12658856102E+03  0.47892414125E+03  0.50400001928E-02 0. -1.
       -1    1    3    3    0  502  0.45826198439E+03 -0.57789470762E+02 -0.50895191802E+03  0.68729595092E+03  0.50400001928E-02 0.  1.
</event>
<event>
 5   0  0.7952121E-03  0.1100419E+04  0.7818609E-02  0.9204783E-01
       -2   -1    0    0    0  501  0.00000000000E+00  0.00000000000E+00  0.32270240274E+03  0.32270240275E+03  0.25500000920E-02 0. -1.
        2   -1    0    0  501    0  0.00000000000E+00  0.00000000000E+00 -0.93811080240E+03  0.93811080240E+03  0.25500000920E-02 0.  1.
    10030    2    1    2    0    0  0.00000000000E+00  0.00000000000E+00 -0.61540839965E+03  0.12608132052E+04  0.11004192110E+04 0.  0.
        3    1    3    3  502    0  0.50536100691E+02 -0.15251536096E+02 -0.93520277183E+03  0.93669138006E+03  0.10100000352E+00 0.  1.
       -3    1    3    3    0  502 -0.50536100691E+02  0.15251536096E+02  0.31979437218E+03  0.32412182510E+03  0.10100000352E+00 0. -1.
</event>
<event>
 5   0  0.4428114E-03  0.1092718E+04  0.7818609E-02  0.9212318E-01
        1   -1    0    0  501    0  0.00000000000E+00  0.00000000000E+00  0.54104185998E+03  0.54104186001E+03  0.50400001928E-02 0. -1.
       -1   -1    0    0    0  501  0.00000000000E+00  0.00000000000E+00 -0.55172885184E+03  0.55172885187E+03  0.50400001928E-02 0.  1.
    10030    2    1    2    0    0  0.00000000000E+00  0.00000000000E+00 -0.10686991857E+02  0.10927707119E+04  0.10927184527E+04 0.  0.
        4    1    3    3  502    0  0.53794770548E+03 -0.36833770436E+02 -0.93451800523E+02  0.54724703051E+03  0.12699999809E+01 0. -1.
       -4    1    3    3    0  502 -0.53794770548E+03  0.36833770436E+02  0.82764808665E+02  0.54552368137E+03  0.12699999809E+01 0.  1.
</event>
<event>
 5   0  0.4641021E-03  0.9988746E+03  0.7818609E-02  0.9309780E-01
       -1   -1    0    0    0  501  0.00000000000E+00  0.00000000000E+00  0.57951932880E+03  0.57951932882E+03  0.50400001928E-02 0.  1.
        1   -1    0    0  501    0  0.00000000000E+00  0.00000000000E+00 -0.43042156913E+03  0.43042156916E+03  0.50400001928E-02 0. -1.
    10030    2    1    2    0    0  0.00000000000E+00  0.00000000000E+00  0.14909775967E+03  0.10099408980E+04  0.99887460448E+03 0.  0.
        1    1    3    3  502    0  0.16670750232E+03 -0.12921293579E+03 -0.38318094208E+03  0.43739571158E+03  0.50400001928E-02 0. -1.
       -1    1    3    3    0  502 -0.16670750232E+03  0.12921293579E+03  0.53227870176E+03  0.57254518640E+03  0.50400001928E-02 0.  1.
</event>
<event>
 5   0  0.2992375E-03  0.1092269E+04  0.7818609E-02  0.9212760E-01
       -3   -1    0    0    0  501  0.00000000000E+00  0.00000000000E+00  0.59185567171E+03  0.59185568032E+03  0.10100000352E+00 0.  1.
        3   -1    0    0  501    0  0.00000000000E+00  0.00000000000E+00 -0.50394533827E+03  0.50394534839E+03  0.10100000352E+00 0. -1.
    10030    2    1    2    0    0  0.00000000000E+00  0.00000000000E+00  0.87910333435E+02  0.10958010287E+04  0.10922690455E+04 0.  0.
        3    1    3    3  502    0  0.97438377460E+02  0.43095341098E+03  0.36600382682E+03  0.57373677874E+03  0.10100000352E+00 0.  1.
       -3    1    3    3    0  502 -0.97438377460E+02 -0.43095341098E+03 -0.27809349338E+03  0.52206424997E+03  0.10100000352E+00 0. -1.
</event>
<event>
 5   0  0.4641021E-03  0.1102282E+04  0.7818609E-02  0.9202970E-01
       -1   -1    0    0    0  501  0.00000000000E+00  0.00000000000E+00  0.11128677626E+04  0.11128677626E+04  0.50400001928E-02 0. -1.
        1   -1    0    0  501    0  0.00000000000E+00  0.00000000000E+00 -0.27294946576E+03  0.27294946581E+03  0.50400001928E-02 0.  1.
    10030    2    1    2    0    0  0.00000000000E+00  0.00000000000E+00  0.83991829688E+03  0.13858172285E+04  0.11022824707E+04 0.  0.
        1    1    3    3  502    0 -0.57625355578E+02 -0.13113887629E+03  0.10890564146E+04  0.10984361432E+04  0.50400001928E-02 0. -1.
       -1    1    3    3    0  502  0.57625355578E+02  0.13113887629E+03 -0.24913811768E+03  0.28738108530E+03  0.50400001928E-02 0.  1.
</event>
<event>
 5   0  0.4298101E-03  0.1018725E+04  0.7818609E-02  0.9288243E-01
        1   -1    0    0  501    0  0.00000000000E+00  0.00000000000E+00  0.56036332963E+03  0.56036332966E+03  0.50400001928E-02 0. -1.
       -1   -1    0    0    0  501  0.00000000000E+00  0.00000000000E+00 -0.46300349319E+03  0.46300349322E+03  0.50400001928E-02 0.  1.
    10030    2    1    2    0    0  0.00000000000E+00  0.00000000000E+00  0.97359836446E+02  0.10233668229E+04  0.10187250446E+04 0.  0.
        3    1    3    3  502    0 -0.12080821798E+03 -0.39846097735E+03 -0.24605837253E+03  0.48364295601E+03  0.10100000352E+00 0.  1.
       -3    1    3    3    0  502  0.12080821798E+03  0.39846097735E+03  0.34341820898E+03  0.53972386686E+03  0.10100000352E+00 0. -1.
</event>
<event>
 5   0  0.7766551E-03  0.1119331E+04  0.7818609E-02  0.9186553E-01
        2   -1    0    0  501    0  0.00000000000E+00  0.00000000000E+00  0.17315661851E+04  0.17315661851E+04  0.25500000920E-02 0.  1.
       -2   -1    0    0    0  501  0.00000000000E+00  0.00000000000E+00 -0.18089136944E+03  0.18089136945E+03  0.25500000920E-02 0. -1.
    10030    2    1    2    0    0  0.00000000000E+00  0.00000000000E+00  0.15506748157E+04  0.19124575545E+04  0.11193308331E+04 0.  0.
        5    1    3    3  502    0  0.26496392539E+03  0.49192067025E+03  0.82967593902E+03  0.10002879992E+04  0.46999998093E+01 0. -1.
       -5    1    3    3    0  502 -0.26496392539E+03 -0.49192067025E+03  0.72099887664E+03  0.91216955534E+03  0.46999998093E+01 0.  1.
</event>
<event>
 5   0  0.4428114E-03  0.1227046E+04  0.7818609E-02  0.9089507E-01
        1   -1    0    0  501    0  0.00000000000E+00  0.00000000000E+00  0.17704597917E+04  0.17704597917E+04  0.50400001928E-02 0. -1.
       -1   -1    0    0    0  501  0.00000000000E+00  0.00000000000E+00 -0.21260599214E+03  0.21260599220E+03  0.50400001928E-02 0.  1.
    10030    2    1    2    0    0  0.00000000000E+00  0.00000000000E+00  0.15578537996E+04  0.19830657839E+04  0.12270458192E+04 0.  0.
        4    1    3    3  502    0 -0.33233946043E+03 -0.32491234539E+03  0.14261687751E+04  0.14999921791E+04  0.12699999809E+01 0. -1.
       -4    1    3    3    0  502  0.33233946043E+03  0.32491234539E+03  0.13168502441E+03  0.48307360484E+03  0.12699999809E+01 0.  1.
</event>
<event>
 5   0  0.4641021E-03  0.1108002E+04  0.7818609E-02  0.9197427E-01
       -1   -1    0    0    0  501  0.00000000000E+00  0.00000000000E+00  0.23222809987E+03  0.23222809993E+03  0.50400001928E-02 0.  1.
        1   -1    0    0  501    0  0.00000000000E+00  0.00000000000E+00 -0.13216197655E+04  0.13216197655E+04  0.50400001928E-02 0. -1.
    10030    2    1    2    0    0  0.00000000000E+00  0.00000000000E+00 -0.10893916656E+04  0.15538478654E+04  0.11080022508E+04 0.  0.
        1    1    3    3  502    0  0.21146163416E+02  0.48843319128E+03 -0.91013295956E+03  0.10331292981E+04  0.50400001928E-02 0. -1.
       -1    1    3    3    0  502 -0.21146163416E+02 -0.48843319128E+03 -0.17925870603E+03  0.52071856726E+03  0.50400001928E-02 0.  1.
</event>
<event>
 5   0  0.4641021E-03  0.1095697E+04  0.7818609E-02  0.9209396E-01
        1   -1    0    0  501    0  0.00000000000E+00  0.00000000000E+00  0.34382393952E+03  0.34382393955E+03  0.50400001928E-02 0. -1.
       -1   -1    0    0    0  501  0.00000000000E+00  0.00000000000E+00 -0.87294079024E+03  0.87294079026E+03  0.50400001928E-02 0.  1.
    10030    2    1    2    0    0  0.00000000000E+00  0.00000000000E+00 -0.52911685073E+03  0.12167647298E+04  0.10956969316E+04 0.  0.
        1    1    3    3  502    0  0.38796599115E+03 -0.38025243512E+03 -0.18581182749E+03  0.57413897269E+03  0.50400001928E-02 0.  1.
       -1    1    3    3    0  502 -0.38796599115E+03  0.38025243512E+03 -0.34330502324E+03  0.64262575712E+03  0.50400001928E-02 0. -1.
</event>
<event>
 5   0  0.7766551E-03  0.1093215E+04  0.7818609E-02  0.9211831E-01
        2   -1    0    0  501    0  0.00000000000E+00  0.00000000000E+00  0.22707800702E+04  0.22707800702E+04  0.25500000920E-02 0.  1.
       -2   -1    0    0    0  501  0.00000000000E+00  0.00000000000E+00 -0.13157573295E+03  0.13157573298E+03  0.25500000920E-02 0. -1.
    10030    2    1    2    0    0  0.00000000000E+00  0.00000000000E+00  0.21392043372E+04  0.24023558032E+04  0.10932146215E+04 0.  0.
        5    1    3    3  502    0  0.36893335657E+03  0.60750072240E+02  0.19347108401E+03  0.42101727187E+03  0.46999998093E+01 0. -1.
       -5    1    3    3    0  502 -0.36893335657E+03 -0.60750072240E+02  0.19457332532E+04  0.19813385313E+04  0.46999998093E+01 0.  1.
</event>
<event>
 5   0  0.7738497E-03  0.1113900E+04  0.7818609E-02  0.9191749E-01
       -2   -1    0    0    0  501  0.00000000000E+00  0.00000000000E+00  0.53337243874E+03  0.53337243875E+03  0.25500000920E-02 0. -1.
        2   -1    0    0  501    0  0.00000000000E+00  0.00000000000E+00 -0.58157016309E+03  0.58157016310E+03  0.25500000920E-02 0.  1.
    10030    2    1    2    0    0  0.00000000000E+00  0.00000000000E+00 -0.48197724350E+02  0.11149426018E+04  0.11139003478E+04 0.  0.
        4    1    3    3  502    0 -0.43525424952E+03  0.14322908857E+03  0.29279024437E+03  0.54377253851E+03  0.12699999809E+01 0. -1.
       -4    1    3    3    0  502  0.43525424952E+03 -0.14322908857E+03 -0.34098796871E+03  0.57117006333E+03  0.12699999809E+01 0.  1.
</event>
<event>
 5   0  0.4504740E-03  0.1079760E+04  0.7818609E-02  0.9225146E-01
        1   -1    0    0  501    0  0.00000000000E+00  0.00000000000E+00  0.52702238085E+03  0.52702238088E+03  0.50400001928E-02 0. -1.
       -1   -1    0    0    0  501  0.00000000000E+00  0.00000000000E+00 -0.55305167732E+03  0.55305167734E+03  0.50400001928E-02 0.  1.
    10030    2    1    2    0    0  0.00000000000E+00  0.00000000000E+00 -0.26029296467E+02  0.10800740582E+04  0.10797603655E+04 0.  0.
        5    1    3    3  502    0 -0.19408967644E+02  0.24160231673E+03 -0.49554481548E+03  0.55166578797E+03  0.46999998093E+01 0.  1.
       -5    1    3    3    0  502  0.19408967644E+02 -0.24160231673E+03  0.46951551901E+03  0.52840827025E+03  0.46999998093E+01 0. -1.
</event>
<event>
 5   0  0.7738497E-03  0.1101895E+04  0.7818609E-02  0.9203347E-01
       -2   -1    0    0    0  501  0.00000000000E+00  0.00000000000E+00  0.45315784385E+03  0.45315784386E+03  0.25500000920E-02 0.  1.
        2   -1    0    0  501    0  0.00000000000E+00  0.00000000000E+00 -0.66983948283E+03  0.66983948283E+03  0.25500000920E-02 0. -1.
    10030    2    1    2    0    0  0.00000000000E+00  0.00000000000E+00 -0.21668163898E+03  0.11229973267E+04  0.11018947604E+04 0.  0.
        4    1    3    3  502    0  0.11244836326E+03  0.44202986678E+03  0.20661871743E+03  0.50072741568E+03  0.12699999809E+01 0.  1.
       -4    1    3    3    0  502 -0.11244836326E+03 -0.44202986678E+03 -0.42330035640E+03  0.62226991101E+03  0.12699999809E+01 0. -1.
</event>
<event>
 5   0  0.4298101E-03  0.1098981E+04  0.7818609E-02  0.9206185E-01
       -1   -1    0    0    0  501  0.00000000000E+00  0.00000000000E+00  0.24711482705E+03  0.24711482710E+03  0.50400001928E-02 0. -1.
        1   -1    0    0  501    0  0.00000000000E+00  0.00000000000E+00 -0.12218611741E+04  0.12218611742E+04  0.50400001928E-02 0.  1.
    10030    2    1    2    0    0  0.00000000000E+00  0.00000000000E+00 -0.97474634710E+03  0.14689760013E+04  0.10989813698E+04 0.  0.
        3    1    3    3  502    0 -0.49721565401E+03 -0.24156946069E+01 -0.17472150844E+03  0.52702642997E+03  0.10100000352E+00 0. -1.
       -3    1    3    3    0  502  0.49721565401E+03  0.24156946069E+01 -0.80002483866E+03  0.94194957129E+03  0.10100000352E+00 0.  1.
</event>
<event>
 5   0  0.7712816E-03  0.1104505E+04  0.7818609E-02  0.9200813E-01
        2   -1    0    0  501    0  0.00000000000E+00  0.00000000000E+00  0.62733630856E+03  0.62733630857E+03  0.25500000920E-02 0. -1.
       -2   -1    0    0    0  501  0.00000000000E+00  0.00000000000E+00 -0.48615480429E+03  0.48615480429E+03  0.25500000920E-02 0.  1.
    10030    2    1    2    0    0  0.00000000000E+00  0.00000000000E+00  0.14118150427E+03  0.11134911129E+04  0.11045045230E+04 0.  0.
        2    1    3    3  502    0  0.16715878215E+03 -0.37380666503E+03  0.44415807803E+03  0.60411081728E+03  0.25500000920E-02 0. -1.
       -2    1    3    3    0  502 -0.16715878215E+03  0.37380666503E+03 -0.30297657376E+03  0.50938029558E+03  0.25500000920E-02 0.  1.
</event>
<event>
 5   0  0.7537480E-03  0.1108967E+04  0.7818609E-02  0.9196496E-01
       -2   -1    0    0    0  501  0.00000000000E+00  0.00000000000E+00  0.55208796856E+03  0.55208796857E+03  0.25500000920E-02 0.  1.
        2   -1    0    0  501    0  0.00000000000E+00  0.00000000000E+00 -0.55688932372E+03  0.55688932373E+03  0.25500000920E-02 0. -1.
    10030    2    1    2    0    0  0.00000000000E+00  0.00000000000E+00 -0.48013551586E+01  0.11089772923E+04  0.11089668984E+04 0.  0.
        1    1    3    3  502    0 -0.44205688077E+03  0.22224496840E+03  0.24789106800E+03  0.55340499947E+03  0.50400001928E-02 0.  1.
       -1    1    3    3    0  502  0.44205688077E+03 -0.22224496840E+03 -0.25269242316E+03  0.55557229283E+03  0.50400001928E-02 0. -1.
</event>
<event>
 5   0  0.4428114E-03  0.1154386E+04  0.7818609E-02  0.9153747E-01
        1   -1    0    0  501    0  0.00000000000E+00  0.00000000000E+00  0.72341279045E+03  0.72341279046E+03  0.50400001928E-02 0.  1.
       -1   -1    0    0    0  501  0.00000000000E+00  0.00000000000E+00 -0.46052798302E+03  0.46052798305E+03  0.50400001928E-02 0. -1.
    10030    2    1    2    0    0  0.00000000000E+00  0.00000000000E+00  0.26288480742E+03  0.11839407735E+04  0.11543861283E+04 0.  0.
        4    1    3    3  502    0  0.43670538879E+03 -0.28813571735E+02  0.51738559960E+03  0.67766606090E+03  0.12699999809E+01 0.  1.
       -4    1    3    3    0  502 -0.43670538879E+03  0.28813571735E+02 -0.25450079218E+03  0.50627471262E+03  0.12699999809E+01 0. -1.
</event>
<event>
 5   0  0.7537480E-03  0.1130696E+04  0.7818609E-02  0.9175779E-01
        2   -1    0    0  501    0  0.00000000000E+00  0.00000000000E+00  0.10544250558E+04  0.10544250558E+04  0.25500000920E-02 0. -1.
       -2   -1    0    0    0  501  0.00000000000E+00  0.00000000000E+00 -0.30312118897E+03  0.30312118898E+03  0.25500000920E-02 0.  1.
    10030    2    1    2    0    0  0.00000000000E+00  0.00000000000E+00  0.75130386686E+03  0.13575462448E+04  0.11306963812E+04 0.  0.
        1    1    3    3  502    0  0.14329792396E+03 -0.17765398160E+03 -0.24534502502E+03  0.33509612579E+03  0.50400001928E-02 0.  1.
       -1    1    3    3    0  502 -0.14329792396E+03  0.17765398160E+03  0.99664889188E+03  0.10224501190E+04  0.50400001928E-02 0. -1.
</event>
<event>
 5   0  0.2992375E-03  0.1101737E+04  0.7818609E-02  0.9203501E-01
       -4   -1    0    0    0  501  0.00000000000E+00  0.00000000000E+00  0.45851262444E+03  0.45851438328E+03  0.12699999809E+01 0.  1.
        4   -1    0    0  501    0  0.00000000000E+00  0.00000000000E+00 -0.66182343307E+03  0.66182465159E+03  0.12699999809E+01 0. -1.
    10030    2    1    2    0    0  0.00000000000E+00  0.00000000000E+00 -0.20331080863E+03  0.11203390349E+04  0.11017369324E+04 0.  0.
        3    1    3    3  502    0 -0.51184640936E+02  0.37977275030E+03 -0.50407554322E+03  0.63319773595E+03  0.10100000352E+00 0. -1.
       -3    1    3    3    0  502  0.51184640936E+02 -0.37977275030E+03  0.30076473459E+03  0.48714129892E+03  0.10100000352E+00 0.  1.
</event>
<event>
 5   0  0.7738497E-03  0.1119849E+04  0.7818609E-02  0.9186058E-01
       -2   -1    0    0    0  501  0.00000000000E+00  0.00000000000E+00  0.12860669296E+04  0.12860669296E+04  0.25500000920E-02 0. -1.
        2   -1    0    0  501    0  0.00000000000E+00  0.00000000000E+00 -0.24377869357E+03  0.24377869358E+03  0.25500000920E-02 0.  1.
    10030    2    1    2    0    0  0.00000000000E+00  0.00000000000E+00  0.10422882361E+04  0.15298456232E+04  0.11198494827E+04 0.  0.
        4    1    3    3  502    0 -0.11445409303E+02 -0.30095740784E+03 -0.12369755432E+03  0.32559032014E+03  0.12699999809E+01 0.  1.
       -4    1    3    3    0  502  0.11445409303E+02  0.30095740784E+03  0.11659857904E+04  0.12042553031E+04  0.12699999809E+01 0. -1.
</event>
<event>
 5   0  0.7952121E-03  0.1048692E+04  0.7818609E-02  0.9256695E-01
        2   -1    0    0  501    0  0.00000000000E+00  0.00000000000E+00  0.10983086266E+04  0.10983086266E+04  0.25500000920E-02 0.  1.
       -2   -1    0    0    0  501  0.00000000000E+00  0.00000000000E+00 -0.25032944397E+03  0.25032944398E+03  0.25500000920E-02 0. -1.
    10030    2    1    2    0    0  0.00000000000E+00  0.00000000000E+00  0.84797918262E+03  0.13486380706E+04  0.10486924960E+04 0.  0.
        3    1    3    3  502    0  0.15201484427E+03 -0.19381143598E+02 -0.22088794799E+03  0.26884128659E+03  0.10100000352E+00 0. -1.
       -3    1    3    3    0  502 -0.15201484427E+03  0.19381143598E+02  0.10688671306E+04  0.10797967840E+04  0.10100000352E+00 0.  1.
</event>
<event>
 5   0  0.4598561E-03  0.1102146E+04  0.7818609E-02  0.9203103E-01
       -1   -1    0    0    0  501  0.00000000000E+00  0.00000000000E+00  0.14327763743E+03  0.14327763752E+03  0.50400001928E-02 0.  1.
        1   -1    0    0  501    0  0.00000000000E+00  0.00000000000E+00 -0.21195295049E+04  0.21195295049E+04  0.50400001928E-02 0. -1.
    10030    2    1    2    0    0  0.00000000000E+00  0.00000000000E+00 -0.19762518675E+04  0.22628071424E+04  0.11021455077E+04 0.  0.
        2    1    3    3  502    0  0.14747358452E+03  0.43558491415E+03 -0.36472055607E+03  0.58694442632E+03  0.25500000920E-02 0.  1.
       -2    1    3    3    0  502 -0.14747358452E+03 -0.43558491415E+03 -0.16115313114E+04  0.16758627161E+04  0.25500000920E-02 0. -1.
</event>
<event>
 5   0  0.4428114E-03  0.1099479E+04  0.7818609E-02  0.9205700E-01
        1   -1    0    0  501    0  0.00000000000E+00  0.00000000000E+00  0.93498707068E+03  0.93498707069E+03  0.50400001928E-02 0.  1.
       -1   -1    0    0    0  501  0.00000000000E+00  0.00000000000E+00 -0.32322730004E+03  0.32322730008E+03  0.50400001928E-02 0. -1.
    10030    2    1    2    0    0  0.00000000000E+00  0.00000000000E+00  0.61175977063E+03  0.12582143708E+04  0.10994786882E+04 0.  0.
        4    1    3    3  502    0  0.23482227334E+03 -0.33150566949E+03 -0.11796220475E+03  0.42302979045E+03  0.12699999809E+01 0. -1.
       -4    1    3    3    0  502 -0.23482227334E+03  0.33150566949E+03  0.72972197538E+03  0.83518458032E+03  0.12699999809E+01 0.  1.
</event>
<event>
 5   0  0.4298101E-03  0.1073279E+04  0.7818609E-02  0.9231634E-01
        1   -1    0    0  501    0  0.00000000000E+00  0.00000000000E+00  0.73825236407E+03  0.73825236409E+03  0.50400001928E-02 0. -1.
       -1   -1    0    0    0  501  0.00000000000E+00  0.00000000000E+00 -0.39008638904E+03  0.39008638907E+03  0.50400001928E-02 0.  1.
    10030    2    1    2    0    0  0.00000000000E+00  0.00000000000E+00  0.34816597503E+03  0.11283387532E+04  0.10732794583E+04 0.  0.
        3    1    3    3  502    0  0.88337657446E+01  0.16148968472E+03  0.71202125262E+03  0.73015835821E+03  0.10100000352E+00 0. -1.
       -3    1    3    3    0  502 -0.88337657446E+01 -0.16148968472E+03 -0.36385527759E+03  0.39818039495E+03  0.10100000352E+00 0.  1.
</event>
<event>
 5   0  0.4298101E-03  0.1104006E+04  0.7818609E-02  0.9201297E-01
        1   -1    0    0  501    0  0.00000000000E+00  0.00000000000E+00  0.56491516848E+03  0.56491516850E+03  0.50400001928E-02 0. -1.
       -1   -1    0    0    0  501  0.00000000000E+00  0.00000000000E+00 -0.53938555283E+03  0.53938555285E+03  0.50400001928E-02 0.  1.
    10030    2    1    2    0    0  0.00000000000E+00  0.00000000000E+00  0.25529615651E+02  0.11043007213E+04  0.11040055806E+04 0.  0.
        3    1    3    3  502    0  0.19308775670E+03  0.35679404397E+03 -0.36166426182E+03  0.54349417667E+03  0.10100000352E+00 0.  1.
       -3    1    3    3    0  502 -0.19308775670E+03 -0.35679404397E+03  0.38719387748E+03  0.56080654468E+03  0.10100000352E+00 0. -1.
</event>
<event>
 5   0  0.7537480E-03  0.1076697E+04  0.7818609E-02  0.9228207E-01
       -2   -1    0    0    0  501  0.00000000000E+00  0.00000000000E+00  0.22973189584E+03  0.22973189586E+03  0.25500000920E-02 0.  1.
        2   -1    0    0  501    0  0.00000000000E+00  0.00000000000E+00 -0.12615526950E+04  0.12615526950E+04  0.25500000920E-02 0. -1.
    10030    2    1    2    0    0  0.00000000000E+00  0.00000000000E+00 -0.10318207992E+04  0.14912845909E+04  0.10766966004E+04 0.  0.
        1    1    3    3  502    0  0.11741528899E+03 -0.52179912079E+03 -0.60082028904E+03  0.80439150436E+03  0.50400001928E-02 0. -1.
       -1    1    3    3    0  502 -0.11741528899E+03  0.52179912079E+03 -0.43100051015E+03  0.68689308653E+03  0.50400001928E-02 0.  1.
</event>
<event>
 5   0  0.7766551E-03  0.1111660E+04  0.7818609E-02  0.9193901E-01
        2   -1    0    0  501    0  0.00000000000E+00  0.00000000000E+00  0.10274041925E+04  0.10274041925E+04  0.25500000920E-02 0.  1.
       -2   -1    0    0    0  501  0.00000000000E+00  0.00000000000E+00 -0.30070662069E+03  0.30070662070E+03  0.25500000920E-02 0. -1.
    10030    2    1    2    0    0  0.00000000000E+00  0.00000000000E+00  0.72669757177E+03  0.13281108132E+04  0.11116604568E+04 0.  0.
        5    1    3    3  502    0 -0.14199115806E+03  0.53184845613E+03  0.45512300073E+03  0.71427117053E+03  0.46999998093E+01 0.  1.
       -5    1    3    3    0  502  0.14199115806E+03 -0.53184845613E+03  0.27157457104E+03  0.61383964265E+03  0.46999998093E+01 0. -1.
</event>
<event>
 5   0  0.7712816E-03  0.1165861E+04  0.7818609E-02  0.9143275E-01
       -2   -1    0    0    0  501  0.00000000000E+00  0.00000000000E+00  0.39676117072E+03  0.39676117072E+03  0.25500000920E-02 0.  1.
        2   -1    0    0  501    0  0.00000000000E+00  0.00000000000E+00 -0.85645434959E+03  0.85645434959E+03  0.25500000920E-02 0. -1.
    10030    2    1    2    0    0  0.00000000000E+00  0.00000000000E+00 -0.45969317887E+03  0.12532155203E+04  0.11658607643E+04 0.  0.
        2    1    3    3  502    0  0.51769172420E+03 -0.12076170890E+03 -0.48697610840E+03  0.72092568396E+03  0.25500000920E-02 0. -1.
       -2    1    3    3    0  502 -0.51769172420E+03  0.12076170890E+03  0.27282929526E+02  0.53228983636E+03  0.25500000920E-02 0.  1.
</event>
<event>
 5   0  0.4641021E-03  0.1122671E+04  0.7818609E-02  0.9183372E-01
        1   -1    0    0  501    0  0.00000000000E+00  0.00000000000E+00  0.64243184263E+03  0.64243184265E+03  0.50400001928E-02 0.  1.
       -1   -1    0    0    0  501  0.00000000000E+00  0.00000000000E+00 -0.49047648994E+03  0.49047648997E+03  0.50400001928E-02 0. -1.
    10030    2    1    2    0    0  0.00000000000E+00  0.00000000000E+00  0.15195535268E+03  0.11329083326E+04  0.11226713058E+04 0.  0.
        1    1    3    3  502    0  0.48785628039E+03  0.17464845935E+03 -0.14184208015E+03  0.53723831806E+03  0.50400001928E-02 0. -1.
       -1    1    3    3    0  502 -0.48785628039E+03 -0.17464845935E+03  0.29379743284E+03  0.59567001455E+03  0.50400001928E-02 0.  1.
</event>
<event>
 5   0  0.7712816E-03  0.1092423E+04  0.7818609E-02  0.9212609E-01
       -2   -1    0    0    0  501  0.00000000000E+00  0.00000000000E+00  0.19527264489E+03  0.19527264490E+03  0.25500000920E-02 0.  1.
        2   -1    0    0  501    0  0.00000000000E+00  0.00000000000E+00 -0.15278481405E+04  0.15278481405E+04  0.25500000920E-02 0. -1.
    10030    2    1    2    0    0  0.00000000000E+00  0.00000000000E+00 -0.13325754956E+04  0.17231207854E+04  0.10924228987E+04 0.  0.
        2    1    3    3  502    0  0.30360280822E+03  0.35397035937E+03 -0.21770955227E+03  0.51465243576E+03  0.25500000920E-02 0.  1.
       -2    1    3    3    0  502 -0.30360280822E+03 -0.35397035937E+03 -0.11148659434E+04  0.12084683497E+04  0.25500000920E-02 0. -1.
</event>
<event>
 5   0  0.4641021E-03  0.1086785E+04  0.7818609E-02  0.9218169E-01
        1   -1    0    0  501    0  0.00000000000E+00  0.00000000000E+00  0.80705814463E+03  0.80705814465E+03  0.50400001928E-02 0. -1.
       -1   -1    0    0    0  501  0.00000000000E+00  0.00000000000E+00 -0.36586643940E+03  0.36586643943E+03  0.50400001928E-02 0.  1.
    10030    2    1    2    0    0  0.00000000000E+00  0.00000000000E+00  0.44119170523E+03  0.11729245841E+04  0.10867851486E+04 0.  0.
        1    1    3    3  502    0  0.22987598946E+03 -0.40169468315E+03 -0.86707238374E+02  0.47087125015E+03  0.50400001928E-02 0.  1.
       -1    1    3    3    0  502 -0.22987598946E+03  0.40169468315E+03  0.52789894361E+03  0.70205333393E+03  0.50400001928E-02 0. -1.
</event>
<event>
 5   0  0.4504740E-03  0.1101673E+04  0.7818609E-02  0.9203563E-01
        1   -1    0    0  501    0  0.00000000000E+00  0.00000000000E+00  0.46608111978E+03  0.46608111981E+03  0.50400001928E-02 0. -1.
       -1   -1    0    0    0  501  0.00000000000E+00  0.00000000000E+00 -0.65100457482E+03  0.65100457484E+03  0.50400001928E-02 0.  1.
    10030    2    1    2    0    0  0.00000000000E+00  0.00000000000E+00 -0.18492345504E+03  0.11170856946E+04  0.11016731661E+04 0.  0.
        5    1    3    3  502    0 -0.17475457675E+03  0.54235123639E+02  0.43434320924E+03  0.47133504447E+03  0.46999998093E+01 0. -1.
       -5    1    3    3    0  502  0.17475457675E+03 -0.54235123639E+02 -0.61926666428E+03  0.64575065018E+03  0.46999998093E+01 0.  1.
</event>
<event>
 5   0  0.7738497E-03  0.1106448E+04  0.7818609E-02  0.9198930E-01
       -2   -1    0    0    0  501  0.00000000000E+00  0.00000000000E+00  0.19473233669E+03  0.19473233671E+03  0.25500000920E-02 0.  1.
        2   -1    0    0  501    0  0.00000000000E+00  0.00000000000E+00 -0.15716796918E+04  0.15716796918E+04  0.25500000920E-02 0. -1.
    10030    2    1    2    0    0  0.00000000000E+00  0.00000000000E+00 -0.13769473551E+04  0.17664120285E+04  0.11064481170E+04 0.  0.
        4    1    3    3  502    0  0.32447215007E+03  0.39989977951E+03 -0.36579208484E+03  0.63167038245E+03  0.12699999809E+01 0.  1.
       -4    1    3    3    0  502 -0.32447215007E+03 -0.39989977951E+03 -0.10111552703E+04  0.11347416461E+04  0.12699999809E+01 0. -1.
</event>
<event>
 5   0  0.4298101E-03  0.1068094E+04  0.7818609E-02  0.9236860E-01
       -1   -1    0    0    0  501  0.00000000000E+00  0.00000000000E+00  0.26715109548E+03  0.26715109553E+03  0.50400001928E-02 0.  1.
        1   -1    0    0  501    0  0.00000000000E+00  0.00000000000E+00 -0.10675838451E+04  0.10675838451E+04  0.50400001928E-02 0. -1.
    10030    2    1    2    0    0  0.00000000000E+00  0.00000000000E+00 -0.80043274957E+03  0.13347349406E+04  0.10680939917E+04 0.  0.
        3    1    3    3  502    0 -0.25195556466E+03 -0.30730453933E+03 -0.84605751108E+03  0.93473579621E+03  0.10100000352E+00 0. -1.
       -3    1    3    3    0  502  0.25195556466E+03  0.30730453933E+03  0.45624761508E+02  0.39999914440E+03  0.10100000352E+00 0.  1.
</event>
<event>
 5   0  0.2992375E-03  0.1091309E+04  0.7818609E-02  0.9213704E-01
        3   -1    0    0  501    0  0.00000000000E+00  0.00000000000E+00  0.47046496867E+03  0.47046497951E+03  0.10100000352E+00 0.  1.
       -3   -1    0    0    0  501  0.00000000000E+00  0.00000000000E+00 -0.63286065862E+03  0.63286066668E+03  0.10100000352E+00 0. -1.
    10030    2    1    2    0    0  0.00000000000E+00  0.00000000000E+00 -0.16239568995E+03  0.11033256462E+04  0.10913089028E+04 0.  0.
        2    1    3    3  502    0  0.21981317064E+03  0.24704792642E+03 -0.52001434258E+03  0.61625110502E+03  0.25500000920E-02 0. -1.
       -2    1    3    3    0  502 -0.21981317064E+03 -0.24704792642E+03  0.35761865263E+03  0.48707454117E+03  0.25500000920E-02 0.  1.
</event>
<event>
 5   0  0.4641021E-03  0.1100510E+04  0.7818609E-02  0.9204695E-01
       -1   -1    0    0    0  501  0.00000000000E+00  0.00000000000E+00  0.13975207151E+03  0.13975207160E+03  0.50400001928E-02 0. -1.
        1   -1    0    0  501    0  0.00000000000E+00  0.00000000000E+00 -0.21665536607E+04  0.21665536607E+04  0.50400001928E-02 0.  1.
    10030    2    1    2    0    0  0.00000000000E+00  0.00000000000E+00 -0.20268015892E+04  0.23063057323E+04  0.11005096314E+04 0.  0.
        1    1    3    3  502    0 -0.21939403868E+02 -0.17707516055E+03 -0.21042439945E+04  0.21117953827E+04  0.50400001928E-02 0.  1.
       -1    1    3    3    0  502  0.21939403868E+02  0.17707516055E+03  0.77442405337E+02  0.19451034959E+03  0.50400001928E-02 0. -1.
</event>
<event>
 5   0  0.4598561E-03  0.9251486E+03  0.7818609E-02  0.9394679E-01
        1   -1    0    0  501    0  0.00000000000E+00  0.00000000000E+00  0.81622197451E+03  0.81622197453E+03  0.50400001928E-02 0.  1.
       -1   -1    0    0    0  501  0.00000000000E+00  0.00000000000E+00 -0.26215293052E+03  0.26215293057E+03  0.50400001928E-02 0. -1.
    10030    2    1    2    0    0  0.00000000000E+00  0.00000000000E+00  0.55406904399E+03  0.10783749051E+04  0.92514859910E+03 0.  0.
        2    1    3    3  502    0  0.16002308657E+02 -0.47978285325E+02 -0.25892034970E+03  0.26381383064E+03  0.25500000920E-02 0. -1.
       -2    1    3    3    0  502 -0.16002308657E+02  0.47978285325E+02  0.81298939369E+03  0.81456107445E+03  0.25500000920E-02 0.  1.
</event>
<event>
 5   0  0.4428114E-03  0.1088254E+04  0.7818609E-02  0.9216717E-01
       -1   -1    0    0    0  501  0.00000000000E+00  0.00000000000E+00  0.69046369538E+03  0.69046369540E+03  0.50400001928E-02 0.  1.
        1   -1    0    0  501    0  0.00000000000E+00  0.00000000000E+00 -0.42880448176E+03  0.42880448179E+03  0.50400001928E-02 0. -1.
    10030    2    1    2    0    0  0.00000000000E+00  0.00000000000E+00  0.26165921362E+03  0.11192681772E+04  0.10882535129E+04 0.  0.
        4    1    3    3  502    0 -0.38285792251E+03 -0.12705099628E+03  0.50640822933E+03  0.64743575134E+03  0.12699999809E+01 0.  1.
       -4    1    3    3    0  502  0.38285792251E+03  0.12705099628E+03 -0.24474901571E+03  0.47183242584E+03  0.12699999809E+01 0. -1.
</event>
<event>
 5   0  0.4504740E-03  0.1079705E+04  0.7818609E-02  0.9225202E-01
        1   -1    0    0  501    0  0.00000000000E+00  0.00000000000E+00  0.69143038132E+03  0.69143038133E+03  0.50400001928E-02 0. -1.
       -1   -1    0    0    0  501  0.00000000000E+00  0.00000000000E+00 -0.42150404704E+03  0.42150404707E+03  0.50400001928E-02 0.  1.
    10030    2    1    2    0    0  0.00000000000E+00  0.00000000000E+00  0.26992633428E+03  0.11129344284E+04  0.10797049671E+04 0.  0.
        5    1    3    3  502    0  0.31322819109E+02  0.42717921215E+03 -0.20371460569E+03  0.47432576239E+03  0.46999998093E+01 0.  1.
       -5    1    3    3    0  502 -0.31322819109E+02 -0.42717921215E+03  0.47364093997E+03  0.63860866601E+03  0.46999998093E+01 0. -1.
</event>
<event>
 5   0  0.7537480E-03  0.1156253E+04  0.7818609E-02  0.9152034E-01
       -2   -1    0    0    0  501  0.00000000000E+00  0.00000000000E+00  0.12643552025E+03  0.12643552027E+03  0.25500000920E-02 0.  1.
        2   -1    0    0  501    0  0.00000000000E+00  0.00000000000E+00 -0.26434852899E+04  0.26434852899E+04  0.25500000920E-02 0. -1.
    10030    2    1    2    0    0  0.00000000000E+00  0.00000000000E+00 -0.25170497697E+04  0.27699208102E+04  0.11562533251E+04 0.  0.
        1    1    3    3  502    0 -0.50012442290E+03 -0.21766994453E+03 -0.17176171333E+04  0.18021412985E+04  0.50400001928E-02 0.  1.
       -1    1    3    3    0  502  0.50012442290E+03  0.21766994453E+03 -0.79943263641E+03  0.96777951172E+03  0.50400001928E-02 0. -1.
</event>
<event>
 5   0  0.4598561E-03  0.1095886E+04  0.7818609E-02  0.9209211E-01
       -1   -1    0    0    0  501  0.00000000000E+00  0.00000000000E+00  0.81476889697E+03  0.81476889699E+03  0.50400001928E-02 0.  1.
        1   -1    0    0  501    0  0.00000000000E+00  0.00000000000E+00 -0.36849927960E+03  0.36849927963E+03  0.50400001928E-02 0. -1.
    10030    2    1    2    0    0  0.00000000000E+00  0.00000000000E+00  0.44626961738E+03  0.11832681766E+04  0.10958864022E+04 0.  0.
        2    1    3    3  502    0 -0.11407345250E+03  0.51289423139E+03  0.55276612142E+02  0.52832636600E+03  0.25500000920E-02 0.  1.
       -2    1    3    3    0  502  0.11407345250E+03 -0.51289423139E+03  0.39099300523E+03  0.65494181062E+03  0.25500000920E-02 0. -1.
</event>
<event>
 5   0  0.7952121E-03  0.1139422E+04  0.7818609E-02  0.9167598E-01
        2   -1    0    0  501    0  0.00000000000E+00  0.00000000000E+00  0.11197524192E+04  0.11197524192E+04  0.25500000920E-02 0. -1.
       -2   -1    0    0    0  501  0.00000000000E+00  0.00000000000E+00 -0.28985914741E+03  0.28985914743E+03  0.25500000920E-02 0.  1.
    10030    2    1    2    0    0  0.00000000000E+00  0.00000000000E+00  0.82989327178E+03  0.14096115666E+04  0.11394217508E+04 0.  0.
        3    1    3    3  502    0 -0.39030704889E+03  0.41453563873E+03  0.43941187750E+03  0.71920942463E+03  0.10100000352E+00 0. -1.
       -3    1    3    3    0  502  0.39030704889E+03 -0.41453563873E+03  0.39048139428E+03  0.69040214199E+03  0.10100000352E+00 0.  1.
</event>
<event>
 5   0  0.4428114E-03  0.1084154E+04  0.7818609E-02  0.9220776E-01
       -1   -1    0    0    0  501  0.00000000000E+00  0.00000000000E+00  0.22381435552E+03  0.22381435557E+03  0.50400001928E-02 0. -1.
        1   -1    0    0  501    0  0.00000000000E+00  0.00000000000E+00 -0.13129070740E+04  0.13129070740E+04  0.50400001928E-02 0.  1.
    10030    2    1    2    0    0  0.00000000000E+00  0.00000000000E+00 -0.10890927185E+04  0.15367214295E+04  0.10841539571E+04 0.  0.
        4    1    3    3  502    0  0.15081048865E+03 -0.44871870893E+03 -0.17018815097E+03  0.50304860885E+03  0.12699999809E+01 0. -1.
       -4    1    3    3    0  502 -0.15081048865E+03  0.44871870893E+03 -0.91890456748E+03  0.10336728207E+04  0.12699999809E+01 0.  1.
</event>
<event>
 5   0  0.7537480E-03  0.1136728E+04  0.7818609E-02  0.9170116E-01
        2   -1    0    0  501    0  0.00000000000E+00  0.00000000000E+00  0.46970377467E+03  0.46970377467E+03  0.25500000920E-02 0. -1.
       -2   -1    0    0    0  501  0.00000000000E+00  0.00000000000E+00 -0.68774762068E+03  0.68774762068E+03  0.25500000920E-02 0.  1.
    10030    2    1    2    0    0  0.00000000000E+00  0.00000000000E+00 -0.21804384601E+03  0.11574513954E+04  0.11367280298E+04 0.  0.
        1    1    3    3  502    0  0.19838389820E+03 -0.25843816567E+03 -0.58322804498E+03  0.66805793837E+03  0.50400001928E-02 0.  1.
       -1    1    3    3    0  502 -0.19838389820E+03  0.25843816567E+03  0.36518419897E+03  0.48939345699E+03  0.50400001928E-02 0. -1.
</event>
<event>
 5   0  0.4298101E-03  0.1117387E+04  0.7818609E-02  0.9188409E-01
       -1   -1    0    0    0  501  0.00000000000E+00  0.00000000000E+00  0.43693003541E+03  0.43693003544E+03  0.50400001928E-02 0.  1.
        1   -1    0    0  501    0  0.00000000000E+00  0.00000000000E+00 -0.71438961564E+03  0.71438961566E+03  0.50400001928E-02 0. -1.
    10030    2    1    2    0    0  0.00000000000E+00  0.00000000000E+00 -0.27745958023E+03  0.11513196511E+04  0.11173867371E+04 0.  0.
        3    1    3    3  502    0  0.25569807733E+03 -0.42724732750E+03  0.12237549811E+03  0.51273536873E+03  0.10100000352E+00 0. -1.
       -3    1    3    3    0  502 -0.25569807733E+03  0.42724732750E+03 -0.39983507834E+03  0.63858428236E+03  0.10100000352E+00 0.  1.
</event>
<event>
 5   0  0.7738497E-03  0.1048618E+04  0.7818609E-02  0.9256772E-01
        2   -1    0    0  501    0  0.00000000000E+00  0.00000000000E+00  0.97276589890E+03  0.97276589890E+03  0.25500000920E-02 0. -1.
       -2   -1    0    0    0  501  0.00000000000E+00  0.00000000000E+00 -0.28259623905E+03  0.28259623906E+03  0.25500000920E-02 0.  1.
    10030    2    1    2    0    0  0.00000000000E+00  0.00000000000E+00  0.69016965985E+03  0.12553621380E+04  0.10486181088E+04 0.  0.
        4    1    3    3  502    0 -0.23756247772E+03  0.38339866623E+03  0.66512699076E+03  0.80363299759E+03  0.12699999809E+01 0. -1.
       -4    1    3    3    0  502  0.23756247772E+03 -0.38339866623E+03  0.25042669090E+02  0.45172914037E+03  0.12699999809E+01 0.  1.
</event>
<event>
 5   0  0.2992375E-03  0.1108692E+04  0.7818609E-02  0.9196761E-01
       -3   -1    0    0    0  501  0.00000000000E+00  0.00000000000E+00  0.23104136013E+03  0.23104138220E+03  0.10100000352E+00 0.  1.
        3   -1    0    0  501    0  0.00000000000E+00  0.00000000000E+00 -0.13300631280E+04  0.13300631318E+04  0.10100000352E+00 0. -1.
    10030    2    1    2    0    0  0.00000000000E+00  0.00000000000E+00 -0.10990217678E+04  0.15611045140E+04  0.11086922285E+04 0.  0.
        1    1    3    3  502    0 -0.41601984383E+03 -0.12725028698E+03 -0.10332658098E+04  0.11211170232E+04  0.50400001928E-02 0. -1.
       -1    1    3    3    0  502  0.41601984383E+03  0.12725028698E+03 -0.65755958014E+02  0.43998749077E+03  0.50400001928E-02 0.  1.
</event>
<event>
 5   0  0.7738497E-03  0.8761912E+03  0.7818609E-02  0.9455843E-01
        2   -1    0    0  501    0  0.00000000000E+00  0.00000000000E+00  0.12203688801E+04  0.12203688801E+04  0.25500000920E-02 0.  1.
       -2   -1    0    0    0  501  0.00000000000E+00  0.00000000000E+00 -0.15727028160E+03  0.15727028162E+03  0.25500000920E-02 0. -1.
    10030    2    1    2    0    0  0.00000000000E+00  0.00000000000E+00  0.10630985985E+04  0.13776391617E+04  0.87619120616E+03 0.  0.
        4    1    3    3  502    0  0.28053838747E+02 -0.27650716872E+03  0.10640080223E+04  0.10997081052E+04  0.12699999809E+01 0.  1.
       -4    1    3    3    0  502 -0.28053838747E+02  0.27650716872E+03 -0.90942379845E+00  0.27793105652E+03  0.12699999809E+01 0. -1.
</event>
<event>
 5   0  0.7766551E-03  0.1084260E+04  0.7818609E-02  0.9220671E-01
       -2   -1    0    0    0  501  0.00000000000E+00  0.00000000000E+00  0.32926369010E+03  0.32926369011E+03  0.25500000920E-02 0. -1.
        2   -1    0    0  501    0  0.00000000000E+00  0.00000000000E+00 -0.89261197422E+03  0.89261197423E+03  0.25500000920E-02 0.  1.
    10030    2    1    2    0    0  0.00000000000E+00  0.00000000000E+00 -0.56334828412E+03  0.12218756643E+04  0.10842595860E+04 0.  0.
        5    1    3    3  502    0 -0.59103370690E+01  0.47641578473E+03 -0.57309986613E+03  0.74530026068E+03  0.46999998093E+01 0.  1.
       -5    1    3    3    0  502  0.59103370690E+01 -0.47641578473E+03  0.97515820035E+01  0.47657540366E+03  0.46999998093E+01 0. -1.
</event>
<event>
 5   0  0.7712816E-03  0.1083291E+04  0.7818609E-02  0.9221632E-01
       -2   -1    0    0    0  501  0.00000000000E+00  0.00000000000E+00  0.83206127336E+03  0.83206127336E+03  0.25500000920E-02 0.  1.
        2   -1    0    0  501    0  0.00000000000E+00  0.00000000000E+00 -0.35259403506E+03  0.35259403506E+03  0.25500000920E-02 0. -1.
    10030    2    1    2    0    0  0.00000000000E+00  0.00000000000E+00  0.47946723830E+03  0.11846553084E+04  0.10832909892E+04 0.  0.
        2    1    3    3  502    0  0.30366313463E+03 -0.44230932443E+03  0.32106326094E+03  0.62524431652E+03  0.25500000920E-02 0.  1.
       -2    1    3    3    0  502 -0.30366313463E+03  0.44230932443E+03  0.15840397736E+03  0.55941099190E+03  0.25500000920E-02 0. -1.
</event>
<event>
 5   0  0.7952121E-03  0.1098637E+04  0.7818609E-02  0.9206521E-01
       -2   -1    0    0    0  501  0.00000000000E+00  0.00000000000E+00  0.77672273897E+03  0.77672273898E+03  0.25500000920E-02 0. -1.
        2   -1    0    0  501    0  0.00000000000E+00  0.00000000000E+00 -0.38849242944E+03  0.38849242945E+03  0.25500000920E-02 0.  1.
    10030    2    1    2    0    0  0.00000000000E+00  0.00000000000E+00  0.38823030953E+03  0.11652151684E+04  0.10986371628E+04 0.  0.
        3    1    3    3  502    0  0.40308690059E+03  0.23605824470E+03  0.50067889147E+03  0.68474952127E+03  0.10100000352E+00 0. -1.
       -3    1    3    3    0  502 -0.40308690059E+03 -0.23605824470E+03 -0.11244858193E+03  0.48046564715E+03  0.10100000352E+00 0.  1.
</event>
<event>
 5   0  0.7952121E-03  0.1083667E+04  0.7818609E-02  0.9221259E-01
       -2   -1    0    0    0  501  0.00000000000E+00  0.00000000000E+00  0.36717463597E+03  0.36717463598E+03  0.25500000920E-02 0. -1.
        2   -1    0    0  501    0  0.00000000000E+00  0.00000000000E+00 -0.79957512363E+03  0.79957512363E+03  0.25500000920E-02 0.  1.
    10030    2    1    2    0    0  0.00000000000E+00  0.00000000000E+00 -0.43240048766E+03  0.11667497596E+04  0.10836673013E+04 0.  0.
        3    1    3    3  502    0  0.22935132799E+03  0.41099007911E+03  0.72838093651E+02  0.47625652212E+03  0.10100000352E+00 0. -1.
       -3    1    3    3    0  502 -0.22935132799E+03 -0.41099007911E+03 -0.50523858131E+03  0.69049323749E+03  0.10100000352E+00 0.  1.
</event>
<event>
 5   0  0.7712816E-03  0.1090269E+04  0.7818609E-02  0.9214729E-01
        2   -1    0    0  501    0  0.00000000000E+00  0.00000000000E+00  0.36336322368E+03  0.36336322369E+03  0.25500000920E-02 0.  1.
       -2   -1    0    0    0  501  0.00000000000E+00  0.00000000000E+00 -0.81783565611E+03  0.81783565612E+03  0.25500000920E-02 0. -1.
    10030    2    1    2    0    0  0.00000000000E+00  0.00000000000E+00 -0.45447243243E+03  0.11811988798E+04  0.10902685916E+04 0.  0.
        2    1    3    3  502    0 -0.89952390110E+02  0.53360602451E+03 -0.15582550588E+03  0.56312379648E+03  0.25500000920E-02 0.  1.
       -2    1    3    3    0  502  0.89952390110E+02 -0.53360602451E+03 -0.29864692656E+03  0.61807508332E+03  0.25500000920E-02 0. -1.
</event>
<event>
 5   0  0.2992375E-03  0.1090590E+04  0.7818609E-02  0.9214412E-01
       -3   -1    0    0    0  501  0.00000000000E+00  0.00000000000E+00  0.62389007014E+03  0.62389007832E+03  0.10100000352E+00 0. -1.
        3   -1    0    0  501    0  0.00000000000E+00  0.00000000000E+00 -0.47660117572E+03  0.47660118642E+03  0.10100000352E+00 0.  1.
    10030    2    1    2    0    0  0.00000000000E+00  0.00000000000E+00  0.14728889442E+03  0.11004912647E+04  0.10905902096E+04 0.  0.
        4    1    3    3  502    0  0.42139607863E+03 -0.28570753043E+03  0.27071646957E+03  0.57662159847E+03  0.12699999809E+01 0. -1.
       -4    1    3    3    0  502 -0.42139607863E+03  0.28570753043E+03 -0.12342757515E+03  0.52386966627E+03  0.12699999809E+01 0.  1.
</event>
<event>
 5   0  0.2992375E-03  0.1180314E+04  0.7818609E-02  0.9130264E-01
       -4   -1    0    0    0  501  0.00000000000E+00  0.00000000000E+00  0.10047544361E+04  0.10047552387E+04  0.12699999809E+01 0. -1.
        4   -1    0    0  501    0  0.00000000000E+00  0.00000000000E+00 -0.34663524234E+03  0.34663756884E+03  0.12699999809E+01 0.  1.
    10030    2    1    2    0    0  0.00000000000E+00  0.00000000000E+00  0.65811919371E+03  0.13513928075E+04  0.11803142154E+04 0.  0.
        2    1    3    3  502    0  0.23808425741E+03 -0.62310229013E+02 -0.28508132343E+03  0.37661391270E+03  0.25500000920E-02 0.  1.
       -2    1    3    3    0  502 -0.23808425741E+03  0.62310229013E+02  0.94320051714E+03  0.97477889483E+03  0.25500000920E-02 0. -1.
</event>
<event>
 5   0  0.7952121E-03  0.1120421E+04  0.7818609E-02  0.9185514E-01
        2   -1    0    0  501    0  0.00000000000E+00  0.00000000000E+00  0.45346348789E+03  0.45346348790E+03  0.25500000920E-02 0.  1.
       -2   -1    0    0    0  501  0.00000000000E+00  0.00000000000E+00 -0.69208563953E+03  0.69208563954E+03  0.25500000920E-02 0. -1.
    10030    2    1    2    0    0  0.00000000000E+00  0.00000000000E+00 -0.23862215164E+03  0.11455491274E+04  0.11204205782E+04 0.  0.
        3    1    3    3  502    0 -0.37238769782E+03  0.39110766341E+03  0.33019533209E+02  0.54104353026E+03  0.10100000352E+00 0. -1.
       -3    1    3    3    0  502  0.37238769782E+03 -0.39110766341E+03 -0.27164168485E+03  0.60450559717E+03  0.10100000352E+00 0.  1.
</event>
<event>
 5   0  0.4428114E-03  0.1084340E+04  0.7818609E-02  0.9220591E-01
        1   -1    0    0  501    0  0.00000000000E+00  0.00000000000E+00  0.93633926861E+03  0.93633926862E+03  0.50400001928E-02 0. -1.
       -1   -1    0    0    0  501  0.00000000000E+00  0.00000000000E+00 -0.31393335886E+03  0.31393335890E+03  0.50400001928E-02 0.  1.
    10030    2    1    2    0    0  0.00000000000E+00  0.00000000000E+00  0.62240590975E+03  0.12502726275E+04  0.10843396731E+04 0.  0.
        4    1    3    3  502    0 -0.57026376395E+02 -0.51852671915E+02  0.92998827362E+03  0.93317764073E+03  0.12699999809E+01 0. -1.
       -4    1    3    3    0  502  0.57026376395E+02  0.51852671915E+02 -0.30758236386E+03  0.31709498679E+03  0.12699999809E+01 0.  1.
</event>
<event>
 5   0  0.7537480E-03  0.1104103E+04  0.7818609E-02  0.9201202E-01
        2   -1    0    0  501    0  0.00000000000E+00  0.00000000000E+00  0.33923221270E+03  0.33923221271E+03  0.25500000920E-02 0. -1.
       -2   -1    0    0    0  501  0.00000000000E+00  0.00000000000E+00 -0.89838384235E+03  0.89838384236E+03  0.25500000920E-02 0.  1.
    10030    2    1    2    0    0  0.00000000000E+00  0.00000000000E+00 -0.55915162965E+03  0.12376160551E+04  0.11041027827E+04 0.  0.
        1    1    3    3  502    0  0.36608194300E+03  0.41287349318E+03 -0.26081151166E+03  0.61033036546E+03  0.50400001928E-02 0.  1.
       -1    1    3    3    0  502 -0.36608194300E+03 -0.41287349318E+03 -0.29834011799E+03  0.62728568961E+03  0.50400001928E-02 0. -1.
</event>
<event>
 5   0  0.7712816E-03  0.1101322E+04  0.7818609E-02  0.9203904E-01
       -2   -1    0    0    0  501  0.00000000000E+00  0.00000000000E+00  0.79763030371E+03  0.79763030371E+03  0.25500000920E-02 0. -1.
        2   -1    0    0  501    0  0.00000000000E+00  0.00000000000E+00 -0.38016064281E+03  0.38016064282E+03  0.25500000920E-02 0.  1.
    10030    2    1    2    0    0  0.00000000000E+00  0.00000000000E+00  0.41746966089E+03  0.11777909465E+04  0.11013222035E+04 0.  0.
        2    1    3    3  502    0  0.28405494492E+03 -0.24148091451E+03 -0.22465292015E+03  0.43528057428E+03  0.25500000920E-02 0.  1.
       -2    1    3    3    0  502 -0.28405494492E+03  0.24148091451E+03  0.64212258105E+03  0.74251037225E+03  0.25500000920E-02 0. -1.
</event>
<event>
 5   0  0.4598561E-03  0.1037477E+04  0.7818609E-02  0.9268369E-01
        1   -1    0    0  501    0  0.00000000000E+00  0.00000000000E+00  0.77577598013E+03  0.77577598014E+03  0.50400001928E-02 0. -1.
       -1   -1    0    0    0  501  0.00000000000E+00  0.00000000000E+00 -0.34686529732E+03  0.34686529736E+03  0.50400001928E-02 0.  1.
    10030    2    1    2    0    0  0.00000000000E+00  0.00000000000E+00  0.42891068280E+03  0.11226412775E+04  0.10374772596E+04 0.  0.
        2    1    3    3  502    0 -0.10489586808E+03  0.98341367438E+02 -0.32487127199E+03  0.35526822411E+03  0.25500000920E-02 0.  1.
       -2    1    3    3    0  502  0.10489586808E+03 -0.98341367438E+02  0.75378195479E+03  0.76737305339E+03  0.25500000920E-02 0. -1.
</event>
<event>
 5   0  0.7766551E-03  0.1110891E+04  0.7818609E-02  0.9194641E-01
        2   -1    0    0  501    0  0.00000000000E+00  0.00000000000E+00  0.14034264168E+04  0.14034264168E+04  0.25500000920E-02 0. -1.
       -2   -1    0    0    0  501  0.00000000000E+00  0.00000000000E+00 -0.21983321134E+03  0.21983321135E+03  0.25500000920E-02 0.  1.
    10030    2    1    2    0    0  0.00000000000E+00  0.00000000000E+00  0.11835932054E+04  0.16232596281E+04  0.11108910587E+04 0.  0.
        5    1    3    3  502    0 -0.33822210520E+03 -0.41515516031E+03  0.80729429199E+03  0.96875908432E+03  0.46999998093E+01 0.  1.
       -5    1    3    3    0  502  0.33822210520E+03  0.41515516031E+03  0.37629891344E+03  0.65450054380E+03  0.46999998093E+01 0. -1.
</event>
<event>
 5   0  0.4298101E-03  0.1089885E+04  0.7818609E-02  0.9215107E-01
       -1   -1    0    0    0  501  0.00000000000E+00  0.00000000000E+00  0.39927851253E+03  0.39927851256E+03  0.50400001928E-02 0.  1.
        1   -1    0    0  501    0  0.00000000000E+00  0.00000000000E+00 -0.74374762819E+03  0.74374762821E+03  0.50400001928E-02 0. -1.
    10030    2    1    2    0    0  0.00000000000E+00  0.00000000000E+00 -0.34446911566E+03  0.11430261408E+04  0.10898852173E+04 0.  0.
        3    1    3    3  502    0 -0.74322602257E+02  0.51219427127E+03 -0.35112584019E+03  0.62542480489E+03  0.10100000352E+00 0.  1.
       -3    1    3    3    0  502  0.74322602257E+02 -0.51219427127E+03  0.66567245255E+01  0.51760133588E+03  0.10100000352E+00 0. -1.
</event>
<event>
 5   0  0.4298101E-03  0.1103677E+04  0.7818609E-02  0.9201616E-01
       -1   -1    0    0    0  501  0.00000000000E+00  0.00000000000E+00  0.70313578421E+03  0.70313578423E+03  0.50400001928E-02 0. -1.
        1   -1    0    0  501    0  0.00000000000E+00  0.00000000000E+00 -0.43309643923E+03  0.43309643926E+03  0.50400001928E-02 0.  1.
    10030    2    1    2    0    0  0.00000000000E+00  0.00000000000E+00  0.27003934498E+03  0.11362322235E+04  0.11036767724E+04 0.  0.
        3    1    3    3  502    0 -0.40396807650E+03 -0.36592361472E+03  0.46248016940E+02  0.54701845299E+03  0.10100000352E+00 0. -1.
       -3    1    3    3    0  502  0.40396807650E+03  0.36592361472E+03  0.22379132804E+03  0.58921377050E+03  0.10100000352E+00 0.  1.
</event>
<event>
 5   0  0.4428114E-03  0.1119068E+04  0.7818609E-02  0.9186804E-01
        1   -1    0    0  501    0  0.00000000000E+00  0.00000000000E+00  0.16813756332E+04  0.16813756332E+04  0.50400001928E-02 0.  1.
       -1   -1    0    0    0  501  0.00000000000E+00  0.00000000000E+00 -0.18620368955E+03  0.18620368962E+03  0.50400001928E-02 0. -1.
    10030    2    1    2    0    0  0.00000000000E+00  0.00000000000E+00  0.14951719437E+04  0.18675793229E+04  0.11190680882E+04 0.  0.
        4    1    3    3  502    0 -0.37322462133E+03  0.84090412855E+02  0.66186234117E+02  0.38826543239E+03  0.12699999809E+01 0. -1.
       -4    1    3    3    0  502  0.37322462133E+03 -0.84090412855E+02  0.14289857096E+04  0.14793138905E+04  0.12699999809E+01 0.  1.
</event>
<event>
 5   0  0.7738497E-03  0.1128198E+04  0.7818609E-02  0.9178136E-01
       -2   -1    0    0    0  501  0.00000000000E+00  0.00000000000E+00  0.48633604813E+03  0.48633604814E+03  0.25500000920E-02 0. -1.
        2   -1    0    0  501    0  0.00000000000E+00  0.00000000000E+00 -0.65429618366E+03  0.65429618367E+03  0.25500000920E-02 0.  1.
    10030    2    1    2    0    0  0.00000000000E+00  0.00000000000E+00 -0.16796013553E+03  0.11406322318E+04  0.11281982455E+04 0.  0.
        4    1    3    3  502    0 -0.39522400300E+03 -0.38666722162E+03  0.29022310844E+02  0.55367631361E+03  0.12699999809E+01 0. -1.
       -4    1    3    3    0  502  0.39522400300E+03  0.38666722162E+03 -0.19698244637E+03  0.58695591820E+03  0.12699999809E+01 0.  1.
</event>
<event>
 5   0  0.7712816E-03  0.1106466E+04  0.7818609E-02  0.9198912E-01
        2   -1    0    0  501    0  0.00000000000E+00  0.00000000000E+00  0.26555159624E+03  0.26555159626E+03  0.25500000920E-02 0. -1.
       -2   -1    0    0    0  501  0.00000000000E+00  0.00000000000E+00 -0.11525702720E+04  0.11525702720E+04  0.25500000920E-02 0.  1.
    10030    2    1    2    0    0  0.00000000000E+00  0.00000000000E+00 -0.88701867572E+03  0.14181218682E+04  0.11064662227E+04 0.  0.
        2    1    3    3  502    0 -0.32472916249E+03 -0.90407781993E+02  0.11873863259E+03  0.35738139136E+03  0.25500000920E-02 0. -1.
       -2    1    3    3    0  502  0.32472916249E+03  0.90407781993E+02 -0.10057573083E+04  0.10607404769E+04  0.25500000920E-02 0.  1.
</event>
<event>
 5   0  0.7738497E-03  0.9538522E+03  0.7818609E-02  0.9360659E-01
       -2   -1    0    0    0  501  0.00000000000E+00  0.00000000000E+00  0.34458336097E+03  0.34458336098E+03  0.25500000920E-02 0.  1.
        2   -1    0    0  501    0  0.00000000000E+00  0.00000000000E+00 -0.66009714371E+03  0.66009714372E+03  0.25500000920E-02 0. -1.
    10030    2    1    2    0    0  0.00000000000E+00  0.00000000000E+00 -0.31551378274E+03  0.10046805047E+04  0.95385217378E+03 0.  0.
        4    1    3    3  502    0 -0.21965120088E+03  0.22224011839E+03 -0.53726142320E+03  0.62152133514E+03  0.12699999809E+01 0. -1.
       -4    1    3    3    0  502  0.21965120088E+03 -0.22224011839E+03  0.22174764046E+03  0.38315916956E+03  0.12699999809E+01 0.  1.
</event>
<event>
 5   0  0.7537480E-03  0.8618494E+03  0.7818609E-02  0.9474570E-01
        2   -1    0    0  501    0  0.00000000000E+00  0.00000000000E+00  0.10370823431E+04  0.10370823431E+04  0.25500000920E-02 0.  1.
       -2   -1    0    0    0  501  0.00000000000E+00  0.00000000000E+00 -0.17905627867E+03  0.17905627869E+03  0.25500000920E-02 0. -1.
    10030    2    1    2    0    0  0.00000000000E+00  0.00000000000E+00  0.85802606443E+03  0.12161386218E+04  0.86184941850E+03 0.  0.
        1    1    3    3  502    0 -0.29959336204E+03 -0.27818739956E+03  0.62120864251E+03  0.74366967762E+03  0.50400001928E-02 0. -1.
       -1    1    3    3    0  502  0.29959336204E+03  0.27818739956E+03  0.23681742192E+03  0.47246894417E+03  0.50400001928E-02 0.  1.
</event>
<event>
 5   0  0.7952121E-03  0.1093751E+04  0.7818609E-02  0.9211304E-01
       -2   -1    0    0    0  501  0.00000000000E+00  0.00000000000E+00  0.25679674960E+03  0.25679674961E+03  0.25500000920E-02 0.  1.
        2   -1    0    0  501    0  0.00000000000E+00  0.00000000000E+00 -0.11646289258E+04  0.11646289258E+04  0.25500000920E-02 0. -1.
    10030    2    1    2    0    0  0.00000000000E+00  0.00000000000E+00 -0.90783217620E+03  0.14214256754E+04  0.10937512014E+04 0.  0.
        3    1    3    3  502    0  0.35227110515E+03  0.38778143539E+02 -0.99519748994E+03  0.10564169301E+04  0.10100000352E+00 0. -1.
       -3    1    3    3    0  502 -0.35227110515E+03 -0.38778143539E+02  0.87365313740E+02  0.36500874536E+03  0.10100000352E+00 0.  1.
</event>
<event>
 5   0  0.4641021E-03  0.1119570E+04  0.7818609E-02  0.9186325E-01
       -1   -1    0    0    0  501  0.00000000000E+00  0.00000000000E+00  0.30528442560E+03  0.30528442564E+03  0.50400001928E-02 0. -1.
        1   -1    0    0  501    0  0.00000000000E+00  0.00000000000E+00 -0.10264501745E+04  0.10264501745E+04  0.50400001928E-02 0.  1.
    10030    2    1    2    0    0  0.00000000000E+00  0.00000000000E+00 -0.72116574893E+03  0.13317346002E+04  0.11195700103E+04 0.  0.
        1    1    3    3  502    0  0.19936383023E+03  0.52306244343E+03 -0.35539856515E+03  0.66305987412E+03  0.50400001928E-02 0. -1.
       -1    1    3    3    0  502 -0.19936383023E+03 -0.52306244343E+03 -0.36576718379E+03  0.66867472608E+03  0.50400001928E-02 0.  1.
</event>
<event>
 5   0  0.7712816E-03  0.1100470E+04  0.7818609E-02  0.9204734E-01
        2   -1    0    0  501    0  0.00000000000E+00  0.00000000000E+00  0.40882440415E+03  0.40882440416E+03  0.25500000920E-02 0.  1.
       -2   -1    0    0    0  501  0.00000000000E+00  0.00000000000E+00 -0.74055912900E+03  0.74055912900E+03  0.25500000920E-02 0. -1.
    10030    2    1    2    0    0  0.00000000000E+00  0.00000000000E+00 -0.33173472485E+03  0.11493835332E+04  0.11004701625E+04 0.  0.
        2    1    3    3  502    0 -0.40426636901E+03 -0.22223879381E+02 -0.55503234206E+03  0.68701244433E+03  0.25500000920E-02 0.  1.
       -2    1    3    3    0  502  0.40426636901E+03  0.22223879381E+02  0.22329761720E+03  0.46237108883E+03  0.25500000920E-02 0. -1.
</event>
<event>
 5   0  0.4598561E-03  0.1102747E+04  0.7818609E-02  0.9202518E-01
       -1   -1    0    0    0  501  0.00000000000E+00  0.00000000000E+00  0.46126547329E+03  0.46126547332E+03  0.50400001928E-02 0. -1.
        1   -1    0    0  501    0  0.00000000000E+00  0.00000000000E+00 -0.65908454835E+03  0.65908454837E+03  0.50400001928E-02 0.  1.
    10030    2    1    2    0    0  0.00000000000E+00  0.00000000000E+00 -0.19781907506E+03  0.11203500217E+04  0.11027473802E+04 0.  0.
        2    1    3    3  502    0 -0.38139668472E+03 -0.38993017020E+03 -0.16974962732E+02  0.54570790549E+03  0.25500000920E-02 0. -1.
       -2    1    3    3    0  502  0.38139668472E+03  0.38993017020E+03 -0.18084411233E+03  0.57464211620E+03  0.25500000920E-02 0.  1.
</event>
<event>
 5   0  0.7738497E-03  0.1083725E+04  0.7818609E-02  0.9221201E-01
       -2   -1    0    0    0  501  0.00000000000E+00  0.00000000000E+00  0.41526374335E+03  0.41526374335E+03  0.25500000920E-02 0.  1.
        2   -1    0    0  501    0  0.00000000000E+00  0.00000000000E+00 -0.70705673006E+03  0.70705673006E+03  0.25500000920E-02 0. -1.
    10030    2    1    2    0    0  0.00000000000E+00  0.00000000000E+00 -0.29179298671E+03  0.11223204734E+04  0.10837251026E+04 0.  0.
        4    1    3    3  502    0 -0.11154225161E+03 -0.46462457156E+03  0.11873418714E+03  0.49235869698E+03  0.12699999809E+01 0.  1.
       -4    1    3    3    0  502  0.11154225161E+03  0.46462457156E+03 -0.41052717386E+03  0.62996177644E+03  0.12699999809E+01 0. -1.
</event>
<event>
 5   0  0.7738497E-03  0.1081927E+04  0.7818609E-02  0.9222989E-01
       -2   -1    0    0    0  501  0.00000000000E+00  0.00000000000E+00  0.23932894648E+03  0.23932894650E+03  0.25500000920E-02 0. -1.
        2   -1    0    0  501    0  0.00000000000E+00  0.00000000000E+00 -0.12227578072E+04  0.12227578072E+04  0.25500000920E-02 0.  1.
    10030    2    1    2    0    0  0.00000000000E+00  0.00000000000E+00 -0.98342886074E+03  0.14620867537E+04  0.10819266848E+04 0.  0.
        4    1    3    3  502    0  0.40455432169E+03  0.39651709337E+02 -0.93607533082E+01  0.40660262401E+03  0.12699999809E+01 0. -1.
       -4    1    3    3    0  502 -0.40455432169E+03 -0.39651709337E+02 -0.97406810743E+03  0.10554841297E+04  0.12699999809E+01 0.  1.
</event>
<event>
 5   0  0.4641021E-03  0.1072102E+04  0.7818609E-02  0.9232818E-01
        1   -1    0    0  501    0  0.00000000000E+00  0.00000000000E+00  0.11000669236E+04  0.11000669236E+04  0.50400001928E-02 0.  1.
       -1   -1    0    0    0  501  0.00000000000E+00  0.00000000000E+00 -0.26121215334E+03  0.26121215339E+03  0.50400001928E-02 0. -1.
    10030    2    1    2    0    0  0.00000000000E+00  0.00000000000E+00  0.83885477022E+03  0.13612790770E+04  0.10721023271E+04 0.  0.
        1    1    3    3  502    0  0.28192445035E+03 -0.42867449429E+03  0.61657349367E+03  0.80212598192E+03  0.50400001928E-02 0. -1.
       -1    1    3    3    0  502 -0.28192445035E+03  0.42867449429E+03  0.22228127655E+03  0.55915309503E+03  0.50400001928E-02 0.  1.
</event>
<event>
 5   0  0.4298101E-03  0.1106147E+04  0.7818609E-02  0.9199222E-01
        1   -1    0    0  501    0  0.00000000000E+00  0.00000000000E+00  0.66312820156E+03  0.66312820157E+03  0.50400001928E-02 0. -1.
       -1   -1    0    0    0  501  0.00000000000E+00  0.00000000000E+00 -0.46128355196E+03  0.46128355199E+03  0.50400001928E-02 0.  1.
    10030    2    1    2    0    0  0.00000000000E+00  0.00000000000E+00  0.20184464960E+03  0.11244117536E+04  0.11061467032E+04 0.  0.
        3    1    3    3  502    0 -0.20526768891E+03  0.22010697903E+03  0.57259742279E+03  0.64687690105E+03  0.10100000352E+00 0. -1.
       -3    1    3    3    0  502  0.20526768891E+03 -0.22010697903E+03 -0.37075277319E+03  0.47753485251E+03  0.10100000352E+00 0.  1.
</event>
<event>
 5   0  0.7952121E-03  0.1090085E+04  0.7818609E-02  0.9214910E-01
        2   -1    0    0  501    0  0.00000000000E+00  0.00000000000E+00  0.20071432747E+04  0.20071432747E+04  0.25500000920E-02 0. -1.
       -2   -1    0    0    0  501  0.00000000000E+00  0.00000000000E+00 -0.14800707123E+03  0.14800707126E+03  0.25500000920E-02 0.  1.
    10030    2    1    2    0    0  0.00000000000E+00  0.00000000000E+00  0.18591362034E+04  0.21551503459E+04  0.10900851300E+04 0.  0.
        3    1    3    3  502    0 -0.14549692422E+03  0.46143739339E+03  0.43342142392E+03  0.64957521804E+03  0.10100000352E+00 0.  1.
       -3    1    3    3    0  502  0.14549692422E+03 -0.46143739339E+03  0.14257147795E+04  0.15055751279E+04  0.10100000352E+00 0. -1.
</event>
<event>
 5   0  0.4504740E-03  0.1086939E+04  0.7818609E-02  0.9218017E-01
       -1   -1    0    0    0  501  0.00000000000E+00  0.00000000000E+00  0.19404028616E+03  0.19404028622E+03  0.50400001928E-02 0.  1.
        1   -1    0    0  501    0  0.00000000000E+00  0.00000000000E+00 -0.15221528122E+04  0.15221528122E+04  0.50400001928E-02 0. -1.
    10030    2    1    2    0    0  0.00000000000E+00  0.00000000000E+00 -0.13281125260E+04  0.17161930984E+04  0.10869387606E+04 0.  0.
        5    1    3    3  502    0 -0.21508339360E+03  0.39501684337E+03 -0.11456607988E+04  0.12307964611E+04  0.46999998093E+01 0. -1.
       -5    1    3    3    0  502  0.21508339360E+03 -0.39501684337E+03 -0.18245172723E+03  0.48539663732E+03  0.46999998093E+01 0.  1.
</event>
<event>
 5   0  0.4428114E-03  0.1102963E+04  0.7818609E-02  0.9202309E-01
       -1   -1    0    0    0  501  0.00000000000E+00  0.00000000000E+00  0.25693771252E+03  0.25693771257E+03  0.50400001928E-02 0.  1.
        1   -1    0    0  501    0  0.00000000000E+00  0.00000000000E+00 -0.11836796088E+04  0.11836796088E+04  0.50400001928E-02 0. -1.
    10030    2    1    2    0    0  0.00000000000E+00  0.00000000000E+00 -0.92674189629E+03  0.14406173214E+04  0.11029631564E+04 0.  0.
        4    1    3    3  502    0  0.75180321330E+02  0.53991413519E+02  0.24671804507E+03  0.26351197338E+03  0.12699999809E+01 0.  1.
       -4    1    3    3    0  502 -0.75180321330E+02 -0.53991413519E+02 -0.11734599414E+04  0.11771053480E+04  0.12699999809E+01 0. -1.
</event>
<event>
 5   0  0.7738497E-03  0.9185806E+03  0.7818609E-02  0.9402648E-01
       -2   -1    0    0    0  501  0.00000000000E+00  0.00000000000E+00  0.37584320864E+03  0.37584320865E+03  0.25500000920E-02 0. -1.
        2   -1    0    0  501    0  0.00000000000E+00  0.00000000000E+00 -0.56126480870E+03  0.56126480871E+03  0.25500000920E-02 0.  1.
    10030    2    1    2    0    0  0.00000000000E+00  0.00000000000E+00 -0.18542160006E+03  0.93710801736E+03  0.91858057155E+03 0.  0.
        4    1    3    3  502    0  0.41443412933E+02  0.18388636629E+03  0.33456153422E+03  0.38401143897E+03  0.12699999809E+01 0. -1.
       -4    1    3    3    0  502 -0.41443412933E+02 -0.18388636629E+03 -0.51998313428E+03  0.55309657838E+03  0.12699999809E+01 0.  1.
</event>
<event>
 5   0  0.7537480E-03  0.1118176E+04  0.7818609E-02  0.9187655E-01
       -2   -1    0    0    0  501  0.00000000000E+00  0.00000000000E+00  0.32247997533E+03  0.32247997534E+03  0.25500000920E-02 0. -1.
        2   -1    0    0  501    0  0.00000000000E+00  0.00000000000E+00 -0.96929846920E+03  0.96929846920E+03  0.25500000920E-02 0.  1.
    10030    2    1    2    0    0  0.00000000000E+00  0.00000000000E+00 -0.64681849387E+03  0.12917784445E+04  0.11181759190E+04 0.  0.
        1    1    3    3  502    0  0.26924021752E+03  0.48198570187E+03 -0.42530009450E+03  0.69690794366E+03  0.50400001928E-02 0.  1.
       -1    1    3    3    0  502 -0.26924021752E+03 -0.48198570187E+03 -0.22151839937E+03  0.59487050088E+03  0.50400001928E-02 0. -1.
</event>
<event>
 5   0  0.4598561E-03  0.1099774E+04  0.7818609E-02  0.9205413E-01
       -1   -1    0    0    0  501  0.00000000000E+00  0.00000000000E+00  0.27755413440E+03  0.27755413445E+03  0.50400001928E-02 0. -1.
        1   -1    0    0  501    0  0.00000000000E+00  0.00000000000E+00 -0.10894287668E+04  0.10894287668E+04  0.50400001928E-02 0.  1.
    10030    2    1    2    0    0  0.00000000000E+00  0.00000000000E+00 -0.81187463235E+03  0.13669829012E+04  0.10997735374E+04 0.  0.
        2    1    3    3  502    0 -0.47514898331E+03 -0.23407107243E+02 -0.74873735225E+03  0.88708628198E+03  0.25500000920E-02 0. -1.
       -2    1    3    3    0  502  0.47514898331E+03  0.23407107243E+02 -0.63137280098E+02  0.47989661924E+03  0.25500000920E-02 0.  1.
</event>
<event>
 5   0  0.7712816E-03  0.1093961E+04  0.7818609E-02  0.9211098E-01
        2   -1    0    0  501    0  0.00000000000E+00  0.00000000000E+00  0.49133528412E+03  0.49133528413E+03  0.25500000920E-02 0. -1.
       -2   -1    0    0    0  501  0.00000000000E+00  0.00000000000E+00 -0.60892728600E+03  0.60892728600E+03  0.25500000920E-02 0.  1.
    10030    2    1    2    0    0  0.00000000000E+00  0.00000000000E+00 -0.11759200188E+03  0.11002625701E+04  0.10939606228E+04 0.  0.
        2    1    3    3  502    0 -0.49047813462E+03  0.11792425376E+03  0.15387549004E+03  0.52740174119E+03  0.25500000920E-02 0.  1.
       -2    1    3    3    0  502  0.49047813462E+03 -0.11792425376E+03 -0.27146749192E+03  0.57286082894E+03  0.25500000920E-02 0. -1.
</event>
<event>
 5   0  0.7537480E-03  0.1086129E+04  0.7818609E-02  0.9218818E-01
        2   -1    0    0  501    0  0.00000000000E+00  0.00000000000E+00  0.18443384606E+04  0.18443384606E+04  0.25500000920E-02 0.  1.
       -2   -1    0    0    0  501  0.00000000000E+00  0.00000000000E+00 -0.15990503161E+03  0.15990503163E+03  0.25500000920E-02 0. -1.
    10030    2    1    2    0    0  0.00000000000E+00  0.00000000000E+00  0.16844334289E+04  0.20042434922E+04  0.10861289055E+04 0.  0.
        1    1    3    3  502    0 -0.18195550991E+03 -0.45699850947E+02  0.17826415244E+04  0.17924862869E+04  0.50400001928E-02 0.  1.
       -1    1    3    3    0  502  0.18195550991E+03  0.45699850947E+02 -0.98208095489E+02  0.21175720532E+03  0.50400001928E-02 0. -1.
</event>
<event>
 5   0  0.7952121E-03  0.1090967E+04  0.7818609E-02  0.9214041E-01
        2   -1    0    0  501    0  0.00000000000E+00  0.00000000000E+00  0.42666677414E+03  0.42666677415E+03  0.25500000920E-02 0. -1.
       -2   -1    0    0    0  501  0.00000000000E+00  0.00000000000E+00 -0.69738800702E+03  0.69738800702E+03  0.25500000920E-02 0.  1.
    10030    2    1    2    0    0  0.00000000000E+00  0.00000000000E+00 -0.27072123288E+03  0.11240547812E+04  0.10909670779E+04 0.  0.
        3    1    3    3  502    0 -0.20182891778E+03  0.14171826609E+03 -0.63666962627E+03  0.68276438265E+03  0.10100000352E+00 0.  1.
       -3    1    3    3    0  502  0.20182891778E+03 -0.14171826609E+03  0.36594839339E+03  0.44129039852E+03  0.10100000352E+00 0. -1.
</event>
<event>
 5   0  0.7712816E-03  0.1085321E+04  0.7818609E-02  0.9219619E-01
       -2   -1    0    0    0  501  0.00000000000E+00  0.00000000000E+00  0.26116018500E+03  0.26116018502E+03  0.25500000920E-02 0.  1.
        2   -1    0    0  501    0  0.00000000000E+00  0.00000000000E+00 -0.11275844179E+04  0.11275844179E+04  0.25500000920E-02 0. -1.
    10030    2    1    2    0    0  0.00000000000E+00  0.00000000000E+00 -0.86642423288E+03  0.13887446029E+04  0.10853205152E+04 0.  0.
        2    1    3    3  502    0  0.20139954312E+03 -0.34572083598E+03 -0.90230269202E+03  0.98703334312E+03  0.25500000920E-02 0. -1.
       -2    1    3    3    0  502 -0.20139954312E+03  0.34572083598E+03  0.35878459138E+02  0.40171125978E+03  0.25500000920E-02 0.  1.
</event>
<event>
 5   0  0.4504740E-03  0.1108330E+04  0.7818609E-02  0.9197110E-01
       -1   -1    0    0    0  501  0.00000000000E+00  0.00000000000E+00  0.54133563098E+03  0.54133563100E+03  0.50400001928E-02 0.  1.
        1   -1    0    0  501    0  0.00000000000E+00  0.00000000000E+00 -0.56729878174E+03  0.56729878176E+03  0.50400001928E-02 0. -1.
    10030    2    1    2    0    0  0.00000000000E+00  0.00000000000E+00 -0.25963150762E+02  0.11086344128E+04  0.11083303551E+04 0.  0.
        5    1    3    3  502    0  0.45505952351E+03 -0.30962161145E+03 -0.77281725884E+02  0.55582305401E+03  0.46999998093E+01 0. -1.
       -5    1    3    3    0  502 -0.45505952351E+03  0.30962161145E+03  0.51318575122E+02  0.55281135875E+03  0.46999998093E+01 0.  1.
</event>
<event>
 5   0  0.7738497E-03  0.1091728E+04  0.7818609E-02  0.9213292E-01
        2   -1    0    0  501    0  0.00000000000E+00  0.00000000000E+00  0.30711689691E+03  0.30711689692E+03  0.25500000920E-02 0. -1.
       -2   -1    0    0    0  501  0.00000000000E+00  0.00000000000E+00 -0.97020871651E+03  0.97020871651E+03  0.25500000920E-02 0.  1.
    10030    2    1    2    0    0  0.00000000000E+00  0.00000000000E+00 -0.66309181960E+03  0.12773256134E+04  0.10917279705E+04 0.  0.
        4    1    3    3  502    0  0.12986486165E+03 -0.93907711265E+02  0.27896990499E+03  0.32172870764E+03  0.12699999809E+01 0. -1.
       -4    1    3    3    0  502 -0.12986486165E+03  0.93907711265E+02 -0.94206172459E+03  0.95559690580E+03  0.12699999809E+01 0.  1.
</event>
<event>
 5   0  0.4298101E-03  0.1067233E+04  0.7818609E-02  0.9237731E-01
        1   -1    0    0  501    0  0.00000000000E+00  0.00000000000E+00  0.78420661551E+03  0.78420661552E+03  0.50400001928E-02 0. -1.
       -1   -1    0    0    0  501  0.00000000000E+00  0.00000000000E+00 -0.36310158076E+03  0.36310158079E+03  0.50400001928E-02 0.  1.
    10030    2    1    2    0    0  0.00000000000E+00  0.00000000000E+00  0.42110503475E+03  0.11473081963E+04  0.10672331737E+04 0.  0.
        3    1    3    3  502    0  0.31097427321E+03 -0.39732638591E+03  0.23814442937E+02  0.50511423801E+03  0.10100000352E+00 0.  1.
       -3    1    3    3    0  502 -0.31097427321E+03  0.39732638591E+03  0.39729059181E+03  0.64219395831E+03  0.10100000352E+00 0. -1.
</event>
<event>
 5   0  0.4641021E-03  0.9688420E+03  0.7818609E-02  0.9343394E-01
        1   -1    0    0  501    0  0.00000000000E+00  0.00000000000E+00  0.20505133509E+04  0.20505133509E+04  0.50400001928E-02 0. -1.
       -1   -1    0    0    0  501  0.00000000000E+00  0.00000000000E+00 -0.11444143768E+03  0.11444143779E+03  0.50400001928E-02 0.  1.
    10030    2    1    2    0    0  0.00000000000E+00  0.00000000000E+00  0.19360719132E+04  0.21649547887E+04  0.96884198089E+03 0.  0.
        1    1    3    3  502    0 -0.26789471559E+03  0.24122280029E+03  0.16911139541E+04  0.17291102983E+04  0.50400001928E-02 0. -1.
       -1    1    3    3    0  502  0.26789471559E+03 -0.24122280029E+03  0.24495795911E+03  0.43584449036E+03  0.50400001928E-02 0.  1.
</event>
<event>
 5   0  0.7952121E-03  0.1062184E+04  0.7818609E-02  0.9242854E-01
        2   -1    0    0  501    0  0.00000000000E+00  0.00000000000E+00  0.41104596653E+03  0.41104596654E+03  0.25500000920E-02 0.  1.
       -2   -1    0    0    0  501  0.00000000000E+00  0.00000000000E+00 -0.68619743829E+03  0.68619743830E+03  0.25500000920E-02 0. -1.
    10030    2    1    2    0    0  0.00000000000E+00  0.00000000000E+00 -0.27515147176E+03  0.10972434048E+04  0.10621839563E+04 0.  0.
        3    1    3    3  502    0 -0.11761655121E+02  0.41138957898E+03  0.20918079597E+03  0.46166691220E+03  0.10100000352E+00 0.  1.
       -3    1    3    3    0  502  0.11761655121E+02 -0.41138957898E+03 -0.48433226773E+03  0.63557649263E+03  0.10100000352E+00 0. -1.
</event>
<event>
 5   0  0.2992375E-03  0.1108226E+04  0.7818609E-02  0.9197211E-01
       -3   -1    0    0    0  501  0.00000000000E+00  0.00000000000E+00  0.70745361781E+03  0.70745362502E+03  0.10100000352E+00 0.  1.
        3   -1    0    0  501    0  0.00000000000E+00  0.00000000000E+00 -0.43400916074E+03  0.43400917249E+03  0.10100000352E+00 0. -1.
    10030    2    1    2    0    0  0.00000000000E+00  0.00000000000E+00  0.27344445707E+03  0.11414627975E+04  0.11082262616E+04 0.  0.
        2    1    3    3  502    0  0.43938440470E+03 -0.20191850911E+03 -0.14196902530E+03  0.50396918911E+03  0.25500000920E-02 0. -1.
       -2    1    3    3    0  502 -0.43938440470E+03  0.20191850911E+03  0.41541348236E+03  0.63749360840E+03  0.25500000920E-02 0.  1.
</event>
<event>
 5   0  0.4298101E-03  0.1108316E+04  0.7818609E-02  0.9197124E-01
        1   -1    0    0  501    0  0.00000000000E+00  0.00000000000E+00  0.25001817587E+03  0.25001817592E+03  0.50400001928E-02 0. -1.
       -1   -1    0    0    0  501  0.00000000000E+00  0.00000000000E+00 -0.12282755904E+04  0.12282755904E+04  0.50400001928E-02 0.  1.
    10030    2    1    2    0    0  0.00000000000E+00  0.00000000000E+00 -0.97825741453E+03  0.14782937663E+04  0.11083162412E+04 0.  0.
        3    1    3    3  502    0 -0.38447837487E+02 -0.47828292359E+03 -0.85890816202E+03  0.98384756553E+03  0.10100000352E+00 0.  1.
       -3    1    3    3    0  502  0.38447837487E+02  0.47828292359E+03 -0.11934925251E+03  0.49444620080E+03  0.10100000352E+00 0. -1.
</event>
<event>
 5   0  0.4428114E-03  0.1099653E+04  0.7818609E-02  0.9205530E-01
        1   -1    0    0  501    0  0.00000000000E+00  0.00000000000E+00  0.15550646765E+04  0.15550646765E+04  0.50400001928E-02 0. -1.
       -1   -1    0    0    0  501  0.00000000000E+00  0.00000000000E+00 -0.19440289247E+03  0.19440289254E+03  0.50400001928E-02 0.  1.
    10030    2    1    2    0    0  0.00000000000E+00  0.00000000000E+00  0.13606617840E+04  0.17494675691E+04  0.10996528019E+04 0.  0.
        4    1    3    3  502    0 -0.21442680830E+03 -0.19091458439E+02 -0.12456526819E+03  0.24871963903E+03  0.12699999809E+01 0.  1.
       -4    1    3    3    0  502  0.21442680830E+03  0.19091458439E+02  0.14852270522E+04  0.15007479300E+04  0.12699999809E+01 0. -1.
</event>
<event>
 5   0  0.4504740E-03  0.1118001E+04  0.7818609E-02  0.9187822E-01
        1   -1    0    0  501    0  0.00000000000E+00  0.00000000000E+00  0.74915076075E+03  0.74915076077E+03  0.50400001928E-02 0.  1.
       -1   -1    0    0    0  501  0.00000000000E+00  0.00000000000E+00 -0.41711435128E+03  0.41711435131E+03  0.50400001928E-02 0. -1.
    10030    2    1    2    0    0  0.00000000000E+00  0.00000000000E+00  0.33203640947E+03  0.11662651121E+04  0.11180009546E+04 0.  0.
        5    1    3    3  502    0  0.31510153798E+03  0.39621792262E+03  0.41327772383E+03  0.65352749633E+03  0.46999998093E+01 0.  1.
       -5    1    3    3    0  502 -0.31510153798E+03 -0.39621792262E+03 -0.81241314357E+02  0.51273761575E+03  0.46999998093E+01 0. -1.
</event>
<event>
 5   0  0.4428114E-03  0.1167888E+04  0.7818609E-02  0.9141438E-01
       -1   -1    0    0    0  501  0.00000000000E+00  0.00000000000E+00  0.43028401254E+03  0.43028401257E+03  0.50400001928E-02 0. -1.
        1   -1    0    0  501    0  0.00000000000E+00  0.00000000000E+00 -0.79247747872E+03  0.79247747873E+03  0.50400001928E-02 0.  1.
    10030    2    1    2    0    0  0.00000000000E+00  0.00000000000E+00 -0.36219346618E+03  0.12227614913E+04  0.11678876477E+04 0.  0.
        4    1    3    3  502    0  0.21332923618E+03 -0.22176285201E+03 -0.70070190798E+03  0.76529269060E+03  0.12699999809E+01 0.  1.
       -4    1    3    3    0  502 -0.21332923618E+03  0.22176285201E+03  0.33850844180E+03  0.45746880070E+03  0.12699999809E+01 0. -1.
</event>
<event>
 5   0  0.7952121E-03  0.1070742E+04  0.7818609E-02  0.9234188E-01
        2   -1    0    0  501    0  0.00000000000E+00  0.00000000000E+00  0.58054956037E+03  0.58054956037E+03  0.25500000920E-02 0.  1.
       -2   -1    0    0    0  501  0.00000000000E+00  0.00000000000E+00 -0.49370798940E+03  0.49370798941E+03  0.25500000920E-02 0. -1.
    10030    2    1    2    0    0  0.00000000000E+00  0.00000000000E+00  0.86841570961E+02  0.10742575498E+04  0.10707417171E+04 0.  0.
        3    1    3    3  502    0 -0.43502404334E+03  0.96867621384E+02  0.34103042401E+03  0.56118714762E+03  0.10100000352E+00 0.  1.
       -3    1    3    3    0  502  0.43502404334E+03 -0.96867621384E+02 -0.25418885305E+03  0.51307040216E+03  0.10100000352E+00 0. -1.
</event>
<event>
 5   0  0.4428114E-03  0.1073729E+04  0.7818609E-02  0.9231182E-01
       -1   -1    0    0    0  501  0.00000000000E+00  0.00000000000E+00  0.49716616669E+03  0.49716616671E+03  0.50400001928E-02 0. -1.
        1   -1    0    0  501    0  0.00000000000E+00  0.00000000000E+00 -0.57973319819E+03  0.57973319821E+03  0.50400001928E-02 0.  1.
    10030    2    1    2    0    0  0.00000000000E+00  0.00000000000E+00 -0.82567031501E+02  0.10768993649E+04  0.10737294480E+04 0.  0.
        4    1    3    3  502    0  0.21420454866E+03  0.23836333953E+03 -0.47327712305E+03  0.57157109654E+03  0.12699999809E+01 0.  1.
       -4    1    3    3    0  502 -0.21420454866E+03 -0.23836333953E+03  0.39071009155E+03  0.50532826839E+03  0.12699999809E+01 0. -1.
</event>
<event>
 5   0  0.7952121E-03  0.1118250E+04  0.7818609E-02  0.9187584E-01
        2   -1    0    0  501    0  0.00000000000E+00  0.00000000000E+00  0.48523450159E+03  0.48523450160E+03  0.25500000920E-02 0.  1.
       -2   -1    0    0    0  501  0.00000000000E+00  0.00000000000E+00 -0.64426745148E+03  0.64426745148E+03  0.25500000920E-02 0. -1.
    10030    2    1    2    0    0  0.00000000000E+00  0.00000000000E+00 -0.15903294988E+03  0.11295019531E+04  0.11182500538E+04 0.  0.
        3    1    3    3  502    0  0.39302685189E+03 -0.17304618403E+03  0.28214456037E+03  0.51382939899E+03  0.10100000352E+00 0.  1.
       -3    1    3    3    0  502 -0.39302685189E+03  0.17304618403E+03 -0.44117751026E+03  0.61567255410E+03  0.10100000352E+00 0. -1.
</event>
<event>
 5   0  0.7738497E-03  0.1101700E+04  0.7818609E-02  0.9203536E-01
       -2   -1    0    0    0  501  0.00000000000E+00  0.00000000000E+00  0.38767824383E+03  0.38767824384E+03  0.25500000920E-02 0.  1.
        2   -1    0    0  501    0  0.00000000000E+00  0.00000000000E+00 -0.78270037169E+03  0.78270037169E+03  0.25500000920E-02 0. -1.
    10030    2    1    2    0    0  0.00000000000E+00  0.00000000000E+00 -0.39502212786E+03  0.11703786155E+04  0.11017003323E+04 0.  0.
        4    1    3    3  502    0 -0.10740526234E+03 -0.53839430222E+03 -0.14964711555E+03  0.56903443405E+03  0.12699999809E+01 0.  1.
       -4    1    3    3    0  502  0.10740526234E+03  0.53839430222E+03 -0.24537501231E+03  0.60134418148E+03  0.12699999809E+01 0. -1.
</event>
<event>
 5   0  0.4428114E-03  0.1055865E+04  0.7818609E-02  0.9249309E-01
       -1   -1    0    0    0  501  0.00000000000E+00  0.00000000000E+00  0.36888018996E+03  0.36888019000E+03  0.50400001928E-02 0. -1.
        1   -1    0    0  501    0  0.00000000000E+00  0.00000000000E+00 -0.75556463833E+03  0.75556463835E+03  0.50400001928E-02 0.  1.
    10030    2    1    2    0    0  0.00000000000E+00  0.00000000000E+00 -0.38668444837E+03  0.11244448283E+04  0.10558651947E+04 0.  0.
        4    1    3    3  502    0  0.18181570474E+02  0.49456545904E+03  0.24050969123E+01  0.49490702175E+03  0.12699999809E+01 0. -1.
       -4    1    3    3    0  502 -0.18181570474E+02 -0.49456545904E+03 -0.38908954528E+03  0.62953780660E+03  0.12699999809E+01 0.  1.
</event>
<event>
 5   0  0.4641021E-03  0.1102703E+04  0.7818609E-02  0.9202561E-01
       -1   -1    0    0    0  501  0.00000000000E+00  0.00000000000E+00  0.52358550162E+03  0.52358550164E+03  0.50400001928E-02 0. -1.
        1   -1    0    0  501    0  0.00000000000E+00  0.00000000000E+00 -0.58058996436E+03  0.58058996438E+03  0.50400001928E-02 0.  1.
    10030    2    1    2    0    0  0.00000000000E+00  0.00000000000E+00 -0.57004462743E+02  0.11041754660E+04  0.11027030203E+04 0.  0.
        1    1    3    3  502    0 -0.26479193415E+03 -0.42600023239E+03  0.20070847561E+03  0.54025443875E+03  0.50400001928E-02 0. -1.
       -1    1    3    3    0  502  0.26479193415E+03  0.42600023239E+03 -0.25771293835E+03  0.56392102728E+03  0.50400001928E-02 0.  1.
</event>
<event>
 5   0  0.7712816E-03  0.1034324E+04  0.7818609E-02  0.9271680E-01
       -2   -1    0    0    0  501  0.00000000000E+00  0.00000000000E+00  0.18235975267E+03  0.18235975269E+03  0.25500000920E-02 0.  1.
        2   -1    0    0  501    0  0.00000000000E+00  0.00000000000E+00 -0.14666419658E+04  0.14666419658E+04  0.25500000920E-02 0. -1.
    10030    2    1    2    0    0  0.00000000000E+00  0.00000000000E+00 -0.12842822131E+04  0.16490017185E+04  0.10343238683E+04 0.  0.
        2    1    3    3  502    0  0.15039681112E+03 -0.23098934279E+02  0.14586500876E+03  0.21078273731E+03  0.25500000920E-02 0.  1.
       -2    1    3    3    0  502 -0.15039681112E+03  0.23098934279E+02 -0.14301472219E+04  0.14382189812E+04  0.25500000920E-02 0. -1.
</event>
<event>
 5   0  0.7952121E-03  0.1097886E+04  0.7818609E-02  0.9207255E-01
       -2   -1    0    0    0  501  0.00000000000E+00  0.00000000000E+00  0.25046162405E+03  0.25046162406E+03  0.25500000920E-02 0.  1.
        2   -1    0    0  501    0  0.00000000000E+00  0.00000000000E+00 -0.12031323829E+04  0.12031323829E+04  0.25500000920E-02 0. -1.
    10030    2    1    2    0    0  0.00000000000E+00  0.00000000000E+00 -0.95267075884E+03  0.14535940069E+04  0.10978861336E+04 0.  0.
        3    1    3    3  502    0  0.39776745073E+03  0.16577361767E+03 -0.26102385750E+02  0.43171886908E+03  0.10100000352E+00 0.  1.
       -3    1    3    3    0  502 -0.39776745073E+03 -0.16577361767E+03 -0.92656837309E+03  0.10218751379E+04  0.10100000352E+00 0. -1.
</event>
<event>
 5   0  0.4428114E-03  0.1067627E+04  0.7818609E-02  0.9237332E-01
       -1   -1    0    0    0  501  0.00000000000E+00  0.00000000000E+00  0.46726439681E+03  0.46726439683E+03  0.50400001928E-02 0.  1.
        1   -1    0    0  501    0  0.00000000000E+00  0.00000000000E+00 -0.60984087173E+03  0.60984087175E+03  0.50400001928E-02 0. -1.
    10030    2    1    2    0    0  0.00000000000E+00  0.00000000000E+00 -0.14257647492E+03  0.10771052686E+04  0.10676271392E+04 0.  0.
        4    1    3    3  502    0  0.24368201695E+03  0.45352533654E+03  0.70992708278E+02  0.51971889883E+03  0.12699999809E+01 0.  1.
       -4    1    3    3    0  502 -0.24368201695E+03 -0.45352533654E+03 -0.21356918320E+03  0.55738636975E+03  0.12699999809E+01 0. -1.
</event>
<event>
 5   0  0.4598561E-03  0.1116648E+04  0.7818609E-02  0.9189116E-01
        1   -1    0    0  501    0  0.00000000000E+00  0.00000000000E+00  0.10589591380E+04  0.10589591380E+04  0.50400001928E-02 0. -1.
       -1   -1    0    0    0  501  0.00000000000E+00  0.00000000000E+00 -0.29436965581E+03  0.29436965585E+03  0.50400001928E-02 0.  1.
    10030    2    1    2    0    0  0.00000000000E+00  0.00000000000E+00  0.76458948216E+03  0.13533287938E+04  0.11166475487E+04 0.  0.
        2    1    3    3  502    0  0.22528044595E+03  0.22146494284E+03  0.94022613339E+03  0.99187861261E+03  0.25500000920E-02 0. -1.
       -2    1    3    3    0  502 -0.22528044595E+03 -0.22146494284E+03 -0.17563665124E+03  0.36145018121E+03  0.25500000920E-02 0.  1.
</event>
<event>
 5   0  0.4641021E-03  0.1078049E+04  0.7818609E-02  0.9226855E-01
        1   -1    0    0  501    0  0.00000000000E+00  0.00000000000E+00  0.10311090158E+04  0.10311090158E+04  0.50400001928E-02 0.  1.
       -1   -1    0    0    0  501  0.00000000000E+00  0.00000000000E+00 -0.28178143185E+03  0.28178143189E+03  0.50400001928E-02 0. -1.
    10030    2    1    2    0    0  0.00000000000E+00  0.00000000000E+00  0.74932758398E+03  0.13128904477E+04  0.10780489319E+04 0.  0.
        1    1    3    3  502    0  0.14083759034E+03  0.16584699765E+03  0.97525363053E+03  0.99922975205E+03  0.50400001928E-02 0.  1.
       -1    1    3    3    0  502 -0.14083759034E+03 -0.16584699765E+03 -0.22592604655E+03  0.31366069568E+03  0.50400001928E-02 0. -1.
</event>
<event>
 5   0  0.7712816E-03  0.1095977E+04  0.7818609E-02  0.9209122E-01
        2   -1    0    0  501    0  0.00000000000E+00  0.00000000000E+00  0.69129275473E+03  0.69129275474E+03  0.25500000920E-02 0. -1.
       -2   -1    0    0    0  501  0.00000000000E+00  0.00000000000E+00 -0.43439086873E+03  0.43439086874E+03  0.25500000920E-02 0.  1.
    10030    2    1    2    0    0  0.00000000000E+00  0.00000000000E+00  0.25690188601E+03  0.11256836235E+04  0.10959767521E+04 0.  0.
        2    1    3    3  502    0 -0.34458110701E+03 -0.34938151209E+03 -0.12206104988E+03  0.50567032759E+03  0.25500000920E-02 0.  1.
       -2    1    3    3    0  502  0.34458110701E+03  0.34938151209E+03  0.37896293588E+03  0.62001329589E+03  0.25500000920E-02 0. -1.
</event>
<event>
 5   0  0.4504740E-03  0.1105104E+04  0.7818609E-02  0.9200231E-01
       -1   -1    0    0    0  501  0.00000000000E+00  0.00000000000E+00  0.65054758761E+03  0.65054758763E+03  0.50400001928E-02 0.  1.
        1   -1    0    0  501    0  0.00000000000E+00  0.00000000000E+00 -0.46931808116E+03  0.46931808119E+03  0.50400001928E-02 0. -1.
    10030    2    1    2    0    0  0.00000000000E+00  0.00000000000E+00  0.18122950644E+03  0.11198656688E+04  0.11051040594E+04 0.  0.
        5    1    3    3  502    0  0.52970191510E+03 -0.13626366940E+03  0.17001796479E+03  0.57278277279E+03  0.46999998093E+01 0.  1.
       -5    1    3    3    0  502 -0.52970191510E+03  0.13626366940E+03  0.11211541648E+02  0.54708289602E+03  0.46999998093E+01 0. -1.
</event>
<event>
 5   0  0.4298101E-03  0.1111739E+04  0.7818609E-02  0.9193825E-01
       -1   -1    0    0    0  501  0.00000000000E+00  0.00000000000E+00  0.85394320809E+03  0.85394320810E+03  0.50400001928E-02 0.  1.
        1   -1    0    0  501    0  0.00000000000E+00  0.00000000000E+00 -0.36183997825E+03  0.36183997828E+03  0.50400001928E-02 0. -1.
    10030    2    1    2    0    0  0.00000000000E+00  0.00000000000E+00  0.49210322984E+03  0.12157831864E+04  0.11117388036E+04 0.  0.
        3    1    3    3  502    0 -0.27854580094E+03 -0.47085907145E+03  0.35372831795E+03  0.65147506591E+03  0.10100000352E+00 0. -1.
       -3    1    3    3    0  502  0.27854580094E+03  0.47085907145E+03  0.13837491189E+03  0.56430812047E+03  0.10100000352E+00 0.  1.
</event>
<event>
 5   0  0.7952121E-03  0.1101727E+04  0.7818609E-02  0.9203510E-01
        2   -1    0    0  501    0  0.00000000000E+00  0.00000000000E+00  0.79971349300E+03  0.79971349300E+03  0.25500000920E-02 0.  1.
       -2   -1    0    0    0  501  0.00000000000E+00  0.00000000000E+00 -0.37944944441E+03  0.37944944442E+03  0.25500000920E-02 0. -1.
    10030    2    1    2    0    0  0.00000000000E+00  0.00000000000E+00  0.42026404859E+03  0.11791629374E+04  0.11017274447E+04 0.  0.
        3    1    3    3  502    0  0.54072745336E+03  0.18779551097E+02  0.32090518045E+03  0.62906199647E+03  0.10100000352E+00 0.  1.
       -3    1    3    3    0  502 -0.54072745336E+03 -0.18779551097E+02  0.99358868140E+02  0.55010094095E+03  0.10100000352E+00 0. -1.
</event>
<event>
 5   0  0.7952121E-03  0.1087421E+04  0.7818609E-02  0.9217539E-01
        2   -1    0    0  501    0  0.00000000000E+00  0.00000000000E+00  0.35172386766E+03  0.35172386767E+03  0.25500000920E-02 0.  1.
       -2   -1    0    0    0  501  0.00000000000E+00  0.00000000000E+00 -0.84049239027E+03  0.84049239028E+03  0.25500000920E-02 0. -1.
    10030    2    1    2    0    0  0.00000000000E+00  0.00000000000E+00 -0.48876852261E+03  0.11922162579E+04  0.10874212326E+04 0.  0.
        3    1    3    3  502    0  0.16603072884E+03  0.27183226794E+03  0.23871860842E+03  0.39805221896E+03  0.10100000352E+00 0.  1.
       -3    1    3    3    0  502 -0.16603072884E+03 -0.27183226794E+03 -0.72748713102E+03  0.79416403899E+03  0.10100000352E+00 0. -1.
</event>
<event>
 5   0  0.4641021E-03  0.1095722E+04  0.7818609E-02  0.9209372E-01
        1   -1    0    0  501    0  0.00000000000E+00  0.00000000000E+00  0.56837945940E+03  0.56837945942E+03  0.50400001928E-02 0.  1.
       -1   -1    0    0    0  501  0.00000000000E+00  0.00000000000E+00 -0.52808295254E+03  0.52808295257E+03  0.50400001928E-02 0. -1.
    10030    2    1    2    0    0  0.00000000000E+00  0.00000000000E+00  0.40296506858E+02  0.10964624120E+04  0.10957216857E+04 0.  0.
        1    1    3    3  502    0  0.45396618379E+03 -0.29955701056E+03  0.86009191879E+02  0.55065168638E+03  0.50400001928E-02 0.  1.
       -1    1    3    3    0  502 -0.45396618379E+03  0.29955701056E+03 -0.45712685022E+02  0.54581072561E+03  0.50400001928E-02 0. -1.
</event>
<event>
 5   0  0.7537480E-03  0.1088703E+04  0.7818609E-02  0.9216274E-01
       -2   -1    0    0    0  501  0.00000000000E+00  0.00000000000E+00  0.38191552254E+03  0.38191552255E+03  0.25500000920E-02 0. -1.
        2   -1    0    0  501    0  0.00000000000E+00  0.00000000000E+00 -0.77587392803E+03  0.77587392804E+03  0.25500000920E-02 0.  1.
    10030    2    1    2    0    0  0.00000000000E+00  0.00000000000E+00 -0.39395840549E+03  0.11577894506E+04  0.10887025244E+04 0.  0.
        1    1    3    3  502    0  0.26992402214E+03 -0.21506295895E+03 -0.64465239863E+03  0.73122347414E+03  0.50400001928E-02 0.  1.
       -1    1    3    3    0  502 -0.26992402214E+03  0.21506295895E+03  0.25069399314E+03  0.42656597645E+03  0.50400001928E-02 0. -1.
</event>
<event>
 5   0  0.4598561E-03  0.1055314E+04  0.7818609E-02  0.9249874E-01
        1   -1    0    0  501    0  0.00000000000E+00  0.00000000000E+00  0.50221943939E+03  0.50221943941E+03  0.50400001928E-02 0.  1.
       -1   -1    0    0    0  501  0.00000000000E+00  0.00000000000E+00 -0.55438344273E+03  0.55438344275E+03  0.50400001928E-02 0. -1.
    10030    2    1    2    0    0  0.00000000000E+00  0.00000000000E+00 -0.52164003339E+02  0.10566028822E+04  0.10553144400E+04 0.  0.
        2    1    3    3  502    0  0.39290809284E+03 -0.34831686599E+03  0.26142330432E+02  0.52572314958E+03  0.25500000920E-02 0.  1.
       -2    1    3    3    0  502 -0.39290809284E+03  0.34831686599E+03 -0.78306333771E+02  0.53087973259E+03  0.25500000920E-02 0. -1.
</event>
<event>
 5   0  0.4641021E-03  0.1133725E+04  0.7818609E-02  0.9172931E-01
        1   -1    0    0  501    0  0.00000000000E+00  0.00000000000E+00  0.11866889003E+04  0.11866889003E+04  0.50400001928E-02 0. -1.
       -1   -1    0    0    0  501  0.00000000000E+00  0.00000000000E+00 -0.27078118698E+03  0.27078118703E+03  0.50400001928E-02 0.  1.
    10030    2    1    2    0    0  0.00000000000E+00  0.00000000000E+00  0.91590771330E+03  0.14574700873E+04  0.11337248856E+04 0.  0.
        1    1    3    3  502    0  0.32846590880E+02 -0.15728010134E+03 -0.24089503197E+03  0.28956233398E+03  0.50400001928E-02 0.  1.
       -1    1    3    3    0  502 -0.32846590880E+02  0.15728010134E+03  0.11568027453E+04  0.11679077533E+04  0.50400001928E-02 0. -1.
</event>
<event>
 5   0  0.2992375E-03  0.9478680E+03  0.7818609E-02  0.9367646E-01
        4   -1    0    0  501    0  0.00000000000E+00  0.00000000000E+00  0.60741938409E+03  0.60742071176E+03  0.12699999809E+01 0.  1.
       -4   -1    0    0    0  501  0.00000000000E+00  0.00000000000E+00 -0.36978030339E+03  0.36978248428E+03  0.12699999809E+01 0. -1.
    10030    2    1    2    0    0  0.00000000000E+00  0.00000000000E+00  0.23763908070E+03  0.97720319603E+03  0.94786800435E+03 0.  0.
        4    1    3    3  502    0 -0.17420494464E+03  0.23817493120E+03 -0.26351809420E+03  0.39562363360E+03  0.12699999809E+01 0. -1.
       -4    1    3    3    0  502  0.17420494464E+03 -0.23817493120E+03  0.50115717490E+03  0.58157956244E+03  0.12699999809E+01 0.  1.
</event>
<event>
 5   0  0.7537480E-03  0.1102695E+04  0.7818609E-02  0.9202569E-01
        2   -1    0    0  501    0  0.00000000000E+00  0.00000000000E+00  0.15417818189E+04  0.15417818189E+04  0.25500000920E-02 0. -1.
       -2   -1    0    0    0  501  0.00000000000E+00  0.00000000000E+00 -0.19716410193E+03  0.19716410194E+03  0.25500000920E-02 0.  1.
    10030    2    1    2    0    0  0.00000000000E+00  0.00000000000E+00  0.13446177169E+04  0.17389459208E+04  0.11026949310E+04 0.  0.
        1    1    3    3  502    0 -0.16134671807E+03  0.24594337338E+03  0.14077086572E+04  0.14381114595E+04  0.50400001928E-02 0. -1.
       -1    1    3    3    0  502  0.16134671807E+03 -0.24594337338E+03 -0.63090940270E+02  0.30083446131E+03  0.50400001928E-02 0.  1.
</event>
<event>
 5   0  0.4598561E-03  0.1108312E+04  0.7818609E-02  0.9197129E-01
       -1   -1    0    0    0  501  0.00000000000E+00  0.00000000000E+00  0.54640316080E+03  0.54640316082E+03  0.50400001928E-02 0.  1.
        1   -1    0    0  501    0  0.00000000000E+00  0.00000000000E+00 -0.56201838760E+03  0.56201838762E+03  0.50400001928E-02 0. -1.
    10030    2    1    2    0    0  0.00000000000E+00  0.00000000000E+00 -0.15615226801E+02  0.11084215484E+04  0.11083115508E+04 0.  0.
        2    1    3    3  502    0  0.47402012068E+03 -0.15164908192E+03  0.23592973506E+03  0.55077704995E+03  0.25500000920E-02 0.  1.
       -2    1    3    3    0  502 -0.47402012068E+03  0.15164908192E+03 -0.25154496186E+03  0.55764449850E+03  0.25500000920E-02 0. -1.
</event>
<event>
 5   0  0.4598561E-03  0.1101957E+04  0.7818609E-02  0.9203286E-01
        1   -1    0    0  501    0  0.00000000000E+00  0.00000000000E+00  0.81773417206E+03  0.81773417208E+03  0.50400001928E-02 0. -1.
       -1   -1    0    0    0  501  0.00000000000E+00  0.00000000000E+00 -0.37124231632E+03  0.37124231636E+03  0.50400001928E-02 0.  1.
    10030    2    1    2    0    0  0.00000000000E+00  0.00000000000E+00  0.44649185574E+03  0.11889764884E+04  0.11019574006E+04 0.  0.
        2    1    3    3  502    0  0.38679376792E+03  0.35422747781E+03  0.41123960988E+02  0.52609666898E+03  0.25500000920E-02 0. -1.
       -2    1    3    3    0  502 -0.38679376792E+03 -0.35422747781E+03  0.40536789475E+03  0.66287981945E+03  0.25500000920E-02 0.  1.
</event>
<event>
 5   0  0.7712816E-03  0.1124766E+04  0.7818609E-02  0.9181384E-01
       -2   -1    0    0    0  501  0.00000000000E+00  0.00000000000E+00  0.34648889263E+03  0.34648889264E+03  0.25500000920E-02 0.  1.
        2   -1    0    0  501    0  0.00000000000E+00  0.00000000000E+00 -0.91279819455E+03  0.91279819455E+03  0.25500000920E-02 0. -1.
    10030    2    1    2    0    0  0.00000000000E+00  0.00000000000E+00 -0.56630930192E+03  0.12592870872E+04  0.11247656389E+04 0.  0.
        2    1    3    3  502    0 -0.25823280692E+03 -0.40835865924E+03  0.39075078712E+02  0.48473481299E+03  0.25500000920E-02 0. -1.
       -2    1    3    3    0  502  0.25823280692E+03  0.40835865924E+03 -0.60538438063E+03  0.77455227420E+03  0.25500000920E-02 0.  1.
</event>
<event>
 5   0  0.2992375E-03  0.1097469E+04  0.7818609E-02  0.9207662E-01
       -3   -1    0    0    0  501  0.00000000000E+00  0.00000000000E+00  0.56278420293E+03  0.56278421200E+03  0.10100000352E+00 0.  1.
        3   -1    0    0  501    0  0.00000000000E+00  0.00000000000E+00 -0.53503561077E+03  0.53503562030E+03  0.10100000352E+00 0. -1.
    10030    2    1    2    0    0  0.00000000000E+00  0.00000000000E+00  0.27748592168E+02  0.10978198323E+04  0.10974690883E+04 0.  0.
        1    1    3    3  502    0 -0.50435359514E+03 -0.21447611961E+03  0.41031547470E+02  0.54959634526E+03  0.50400001928E-02 0. -1.
       -1    1    3    3    0  502  0.50435359514E+03  0.21447611961E+03 -0.13282955302E+02  0.54822348703E+03  0.50400001928E-02 0.  1.
</event>
<event>
 5   0  0.4298101E-03  0.9956510E+03  0.7818609E-02  0.9313328E-01
       -1   -1    0    0    0  501  0.00000000000E+00  0.00000000000E+00  0.10797750816E+04  0.10797750817E+04  0.50400001928E-02 0.  1.
        1   -1    0    0  501    0  0.00000000000E+00  0.00000000000E+00 -0.22952022133E+03  0.22952022138E+03  0.50400001928E-02 0. -1.
    10030    2    1    2    0    0  0.00000000000E+00  0.00000000000E+00  0.85025486032E+03  0.13092953030E+04  0.99565097452E+03 0.  0.
        3    1    3    3  502    0  0.21688209881E+03 -0.11692026446E+03  0.99397109613E+03  0.10240540724E+04  0.10100000352E+00 0.  1.
       -3    1    3    3    0  502 -0.21688209881E+03  0.11692026446E+03 -0.14371623581E+03  0.28524123065E+03  0.10100000352E+00 0. -1.
</event>
<event>
 5   0  0.7766551E-03  0.1192908E+04  0.7818609E-02  0.9119087E-01
        2   -1    0    0  501    0  0.00000000000E+00  0.00000000000E+00  0.62382472061E+03  0.62382472061E+03  0.25500000920E-02 0.  1.
       -2   -1    0    0    0  501  0.00000000000E+00  0.00000000000E+00 -0.57028380668E+03  0.57028380668E+03  0.25500000920E-02 0. -1.
    10030    2    1    2    0    0  0.00000000000E+00  0.00000000000E+00  0.53540913927E+02  0.11941085273E+04  0.11929076014E+04 0.  0.
        5    1    3    3  502    0 -0.31255533640E+03 -0.47389387099E+03 -0.15635853737E+03  0.58884320620E+03  0.46999998093E+01 0. -1.
       -5    1    3    3    0  502  0.31255533640E+03  0.47389387099E+03  0.20989945129E+03  0.60526532110E+03  0.46999998093E+01 0.  1.
</event>
<event>
 5   0  0.4298101E-03  0.1112906E+04  0.7818609E-02  0.9192704E-01
       -1   -1    0    0    0  501  0.00000000000E+00  0.00000000000E+00  0.20675382222E+03  0.20675382228E+03  0.50400001928E-02 0. -1.
        1   -1    0    0  501    0  0.00000000000E+00  0.00000000000E+00 -0.14976249344E+04  0.14976249345E+04  0.50400001928E-02 0.  1.
    10030    2    1    2    0    0  0.00000000000E+00  0.00000000000E+00 -0.12908711122E+04  0.17043787567E+04  0.11129055297E+04 0.  0.
        3    1    3    3  502    0  0.37807310589E+03 -0.35658994471E+03 -0.94997822594E+03  0.10828454654E+04  0.10100000352E+00 0.  1.
       -3    1    3    3    0  502 -0.37807310589E+03  0.35658994471E+03 -0.34089288628E+03  0.62153329129E+03  0.10100000352E+00 0. -1.
</event>
<event>
 5   0  0.7712816E-03  0.1111466E+04  0.7818609E-02  0.9194087E-01
        2   -1    0    0  501    0  0.00000000000E+00  0.00000000000E+00  0.36384453148E+03  0.36384453149E+03  0.25500000920E-02 0.  1.
       -2   -1    0    0    0  501  0.00000000000E+00  0.00000000000E+00 -0.84882241866E+03  0.84882241866E+03  0.25500000920E-02 0. -1.
    10030    2    1    2    0    0  0.00000000000E+00  0.00000000000E+00 -0.48497788718E+03  0.12126669501E+04  0.11114664102E+04 0.  0.
        2    1    3    3  502    0  0.18441091944E+02  0.27026250675E+03  0.28693242008E+03  0.39460373811E+03  0.25500000920E-02 0.  1.
       -2    1    3    3    0  502 -0.18441091944E+02 -0.27026250675E+03 -0.77191030726E+03  0.81806321204E+03  0.25500000920E-02 0. -1.
</event>
<event>
 5   0  0.7712816E-03  0.1094012E+04  0.7818609E-02  0.9211048E-01
       -2   -1    0    0    0  501  0.00000000000E+00  0.00000000000E+00  0.31928105429E+03  0.31928105430E+03  0.25500000920E-02 0.  1.
        2   -1    0    0  501    0  0.00000000000E+00  0.00000000000E+00 -0.93715482392E+03  0.93715482392E+03  0.25500000920E-02 0. -1.
    10030    2    1    2    0    0  0.00000000000E+00  0.00000000000E+00 -0.61787376963E+03  0.12564358782E+04  0.10940123952E+04 0.  0.
        2    1    3    3  502    0 -0.22823455531E+03  0.10809700036E+03  0.24832332340E+03  0.35417572853E+03  0.25500000920E-02 0.  1.
       -2    1    3    3    0  502  0.22823455531E+03 -0.10809700036E+03 -0.86619709304E+03  0.90226014969E+03  0.25500000920E-02 0. -1.
</event>
<event>
 5   0  0.4641021E-03  0.1090198E+04  0.7818609E-02  0.9214799E-01
       -1   -1    0    0    0  501  0.00000000000E+00  0.00000000000E+00  0.11302524005E+04  0.11302524005E+04  0.50400001928E-02 0. -1.
        1   -1    0    0  501    0  0.00000000000E+00  0.00000000000E+00 -0.26289077923E+03  0.26289077927E+03  0.50400001928E-02 0.  1.
    10030    2    1    2    0    0  0.00000000000E+00  0.00000000000E+00  0.86736162130E+03  0.13931431798E+04  0.10901980267E+04 0.  0.
        1    1    3    3  502    0  0.18028933125E+02  0.88976955216E+02  0.11205236307E+04  0.11241953335E+04  0.50400001928E-02 0. -1.
       -1    1    3    3    0  502 -0.18028933125E+02 -0.88976955216E+02 -0.25316200939E+03  0.26894784627E+03  0.50400001928E-02 0.  1.
</event>
<event>
 5   0  0.7952121E-03  0.1093255E+04  0.7818609E-02  0.9211791E-01
       -2   -1    0    0    0  501  0.00000000000E+00  0.00000000000E+00  0.11347093621E+04  0.11347093621E+04  0.25500000920E-02 0. -1.
        2   -1    0    0  501    0  0.00000000000E+00  0.00000000000E+00 -0.26332880193E+03  0.26332880194E+03  0.25500000920E-02 0.  1.
    10030    2    1    2    0    0  0.00000000000E+00  0.00000000000E+00  0.87138056020E+03  0.13980381641E+04  0.10932550606E+04 0.  0.
        3    1    3    3  502    0  0.24674164661E+03 -0.42028355085E+03  0.75225593512E+03  0.89633068976E+03  0.10100000352E+00 0.  1.
       -3    1    3    3    0  502 -0.24674164661E+03  0.42028355085E+03  0.11912462508E+03  0.50170747432E+03  0.10100000352E+00 0. -1.
</event>
<event>
 5   0  0.7712816E-03  0.1016480E+04  0.7818609E-02  0.9290653E-01
       -2   -1    0    0    0  501  0.00000000000E+00  0.00000000000E+00  0.51668695596E+03  0.51668695597E+03  0.25500000920E-02 0.  1.
        2   -1    0    0  501    0  0.00000000000E+00  0.00000000000E+00 -0.49993074035E+03  0.49993074035E+03  0.25500000920E-02 0. -1.
    10030    2    1    2    0    0  0.00000000000E+00  0.00000000000E+00  0.16756215615E+02  0.10166176963E+04  0.10164795963E+04 0.  0.
        2    1    3    3  502    0 -0.22987463873E+03 -0.21788214074E+03  0.40591508555E+03  0.51486117883E+03  0.25500000920E-02 0.  1.
       -2    1    3    3    0  502  0.22987463873E+03  0.21788214074E+03 -0.38915886994E+03  0.50175651749E+03  0.25500000920E-02 0. -1.
</event>
<event>
 5   0  0.4298101E-03  0.1084933E+04  0.7818609E-02  0.9220003E-01
        1   -1    0    0  501    0  0.00000000000E+00  0.00000000000E+00  0.61460574110E+03  0.61460574112E+03  0.50400001928E-02 0. -1.
       -1   -1    0    0    0  501  0.00000000000E+00  0.00000000000E+00 -0.47879427589E+03  0.47879427592E+03  0.50400001928E-02 0.  1.
    10030    2    1    2    0    0  0.00000000000E+00  0.00000000000E+00  0.13581146520E+03  0.10934000170E+04  0.10849326445E+04 0.  0.
        3    1    3    3  502    0  0.43320564623E+03  0.14193039152E+03 -0.22842706927E+03  0.50989244369E+03  0.10100000352E+00 0.  1.
       -3    1    3    3    0  502 -0.43320564623E+03 -0.14193039152E+03  0.36423853447E+03  0.58350757334E+03  0.10100000352E+00 0. -1.
</event>
<event>
 5   0  0.4298101E-03  0.1113788E+04  0.7818609E-02  0.9191856E-01
       -1   -1    0    0    0  501  0.00000000000E+00  0.00000000000E+00  0.58191862265E+03  0.58191862267E+03  0.50400001928E-02 0.  1.
        1   -1    0    0  501    0  0.00000000000E+00  0.00000000000E+00 -0.53294567556E+03  0.53294567558E+03  0.50400001928E-02 0. -1.
    10030    2    1    2    0    0  0.00000000000E+00  0.00000000000E+00  0.48972947089E+02  0.11148642982E+04  0.11137881549E+04 0.  0.
        3    1    3    3  502    0  0.21944214942E+03  0.17391038777E+03  0.50633638569E+03  0.57859850120E+03  0.10100000352E+00 0.  1.
       -3    1    3    3    0  502 -0.21944214942E+03 -0.17391038777E+03 -0.45736343860E+03  0.53626579705E+03  0.10100000352E+00 0. -1.
</event>
<event>
 5   0  0.4428114E-03  0.1144210E+04  0.7818609E-02  0.9163142E-01
        1   -1    0    0  501    0  0.00000000000E+00  0.00000000000E+00  0.71240076371E+03  0.71240076373E+03  0.50400001928E-02 0.  1.
       -1   -1    0    0    0  501  0.00000000000E+00  0.00000000000E+00 -0.45943788439E+03  0.45943788442E+03  0.50400001928E-02 0. -1.
    10030    2    1    2    0    0  0.00000000000E+00  0.00000000000E+00  0.25296287931E+03  0.11718386481E+04  0.11442095957E+04 0.  0.
        4    1    3    3  502    0  0.91465957649E+02  0.40852960304E+03  0.52581969640E+03  0.67212381597E+03  0.12699999809E+01 0.  1.
       -4    1    3    3    0  502 -0.91465957649E+02 -0.40852960304E+03 -0.27285681709E+03  0.49971483218E+03  0.12699999809E+01 0. -1.
</event>
<event>
 5   0  0.7952121E-03  0.1128250E+04  0.7818609E-02  0.9178086E-01
        2   -1    0    0  501    0  0.00000000000E+00  0.00000000000E+00  0.66974855449E+03  0.66974855450E+03  0.25500000920E-02 0. -1.
       -2   -1    0    0    0  501  0.00000000000E+00  0.00000000000E+00 -0.47515929995E+03  0.47515929996E+03  0.25500000920E-02 0.  1.
    10030    2    1    2    0    0  0.00000000000E+00  0.00000000000E+00  0.19458925454E+03  0.11449078545E+04  0.11282504231E+04 0.  0.
        3    1    3    3  502    0 -0.50939531719E+03 -0.11869506149E+03 -0.11716688615E+03  0.53600391436E+03  0.10100000352E+00 0. -1.
       -3    1    3    3    0  502  0.50939531719E+03  0.11869506149E+03  0.31175614069E+03  0.60890394009E+03  0.10100000352E+00 0.  1.
</event>
<event>
 5   0  0.7712816E-03  0.1091747E+04  0.7818609E-02  0.9213273E-01
       -2   -1    0    0    0  501  0.00000000000E+00  0.00000000000E+00  0.22457800476E+03  0.22457800478E+03  0.25500000920E-02 0.  1.
        2   -1    0    0  501    0  0.00000000000E+00  0.00000000000E+00 -0.13268348010E+04  0.13268348010E+04  0.25500000920E-02 0. -1.
    10030    2    1    2    0    0  0.00000000000E+00  0.00000000000E+00 -0.11022567963E+04  0.15514128058E+04  0.10917470628E+04 0.  0.
        2    1    3    3  502    0  0.12152166120E+03 -0.27043342400E+03  0.10019057013E+03  0.31295351301E+03  0.25500000920E-02 0.  1.
       -2    1    3    3    0  502 -0.12152166120E+03  0.27043342400E+03 -0.12024473664E+04  0.12384592928E+04  0.25500000920E-02 0. -1.
</event>
<event>
 5   0  0.7738497E-03  0.1141480E+04  0.7818609E-02  0.9165680E-01
        2   -1    0    0  501    0  0.00000000000E+00  0.00000000000E+00  0.14807648655E+04  0.14807648655E+04  0.25500000920E-02 0. -1.
       -2   -1    0    0    0  501  0.00000000000E+00  0.00000000000E+00 -0.21998354177E+03  0.21998354178E+03  0.25500000920E-02 0.  1.
    10030    2    1    2    0    0  0.00000000000E+00  0.00000000000E+00  0.12607813237E+04  0.17007484073E+04  0.11414795656E+04 0.  0.
        4    1    3    3  502    0  0.44330010085E+03 -0.11282468356E+03  0.12184380255E+03  0.47338347431E+03  0.12699999809E+01 0. -1.
       -4    1    3    3    0  502 -0.44330010085E+03  0.11282468356E+03  0.11389375212E+04  0.12273649330E+04  0.12699999809E+01 0.  1.
</event>
<event>
 5   0  0.4598561E-03  0.1143525E+04  0.7818609E-02  0.9163778E-01
       -1   -1    0    0    0  501  0.00000000000E+00  0.00000000000E+00  0.42754377642E+03  0.42754377645E+03  0.50400001928E-02 0.  1.
        1   -1    0    0  501    0  0.00000000000E+00  0.00000000000E+00 -0.76462883561E+03  0.76462883563E+03  0.50400001928E-02 0. -1.
    10030    2    1    2    0    0  0.00000000000E+00  0.00000000000E+00 -0.33708505919E+03  0.11921726121E+04  0.11435249013E+04 0.  0.
        2    1    3    3  502    0  0.52554850599E+03 -0.17944890236E+03 -0.26706403733E+02  0.55598234928E+03  0.25500000920E-02 0.  1.
       -2    1    3    3    0  502 -0.52554850599E+03  0.17944890236E+03 -0.31037865546E+03  0.63619026280E+03  0.25500000920E-02 0. -1.
</event>
<event>
 5   0  0.2992375E-03  0.1130663E+04  0.7818609E-02  0.9175810E-01
       -3   -1    0    0    0  501  0.00000000000E+00  0.00000000000E+00  0.84717691699E+03  0.84717692301E+03  0.10100000352E+00 0. -1.
        3   -1    0    0  501    0  0.00000000000E+00  0.00000000000E+00 -0.37725288256E+03  0.37725289608E+03  0.10100000352E+00 0.  1.
    10030    2    1    2    0    0  0.00000000000E+00  0.00000000000E+00  0.46992403443E+03  0.12244298191E+04  0.11306634264E+04 0.  0.
        2    1    3    3  502    0 -0.26323505282E+03 -0.14157268558E+03  0.75461566347E+03  0.81165283090E+03  0.25500000920E-02 0. -1.
       -2    1    3    3    0  502  0.26323505282E+03  0.14157268558E+03 -0.28469162904E+03  0.41277698820E+03  0.25500000920E-02 0.  1.
</event>
<event>
 5   0  0.7537480E-03  0.1103291E+04  0.7818609E-02  0.9201990E-01
        2   -1    0    0  501    0  0.00000000000E+00  0.00000000000E+00  0.17854755198E+04  0.17854755198E+04  0.25500000920E-02 0.  1.
       -2   -1    0    0    0  501  0.00000000000E+00  0.00000000000E+00 -0.17043785407E+03  0.17043785408E+03  0.25500000920E-02 0. -1.
    10030    2    1    2    0    0  0.00000000000E+00  0.00000000000E+00  0.16150376658E+04  0.19559133739E+04  0.11032907434E+04 0.  0.
        1    1    3    3  502    0 -0.20363195970E+03 -0.34490855741E+03  0.13505800330E+03  0.42269203004E+03  0.50400001928E-02 0. -1.
       -1    1    3    3    0  502  0.20363195970E+03  0.34490855741E+03  0.14799796625E+04  0.15332213439E+04  0.50400001928E-02 0.  1.
</event>
<event>
 5   0  0.7712816E-03  0.1082967E+04  0.7818609E-02  0.9221954E-01
        2   -1    0    0  501    0  0.00000000000E+00  0.00000000000E+00  0.11283156552E+04  0.11283156552E+04  0.25500000920E-02 0. -1.
       -2   -1    0    0    0  501  0.00000000000E+00  0.00000000000E+00 -0.25986011808E+03  0.25986011809E+03  0.25500000920E-02 0.  1.
    10030    2    1    2    0    0  0.00000000000E+00  0.00000000000E+00  0.86845553709E+03  0.13881757733E+04  0.10829667389E+04 0.  0.
        2    1    3    3  502    0 -0.41496979378E+03 -0.54252637298E+02 -0.62079166451E+01  0.41854726930E+03  0.25500000920E-02 0. -1.
       -2    1    3    3    0  502  0.41496979378E+03  0.54252637298E+02  0.87466345373E+03  0.96962850397E+03  0.25500000920E-02 0.  1.
</event>
<event>
 5   0  0.4641021E-03  0.1054744E+04  0.7818609E-02  0.9250460E-01
        1   -1    0    0  501    0  0.00000000000E+00  0.00000000000E+00  0.10280914852E+04  0.10280914853E+04  0.50400001928E-02 0. -1.
       -1   -1    0    0    0  501  0.00000000000E+00  0.00000000000E+00 -0.27052163571E+03  0.27052163575E+03  0.50400001928E-02 0.  1.
    10030    2    1    2    0    0  0.00000000000E+00  0.00000000000E+00  0.75756984953E+03  0.12986131210E+04  0.10547435523E+04 0.  0.
        1    1    3    3  502    0 -0.42792734291E+03  0.31677439672E+02  0.13110100387E+01  0.42910020947E+03  0.50400001928E-02 0.  1.
       -1    1    3    3    0  502  0.42792734291E+03 -0.31677439672E+02  0.75625883949E+03  0.86951291154E+03  0.50400001928E-02 0. -1.
</event>
<event>
 5   0  0.4298101E-03  0.1151983E+04  0.7818609E-02  0.9155956E-01
        1   -1    0    0  501    0  0.00000000000E+00  0.00000000000E+00  0.18253252336E+04  0.18253252337E+04  0.50400001928E-02 0. -1.
       -1   -1    0    0    0  501  0.00000000000E+00  0.00000000000E+00 -0.18175722360E+03  0.18175722367E+03  0.50400001928E-02 0.  1.
    10030    2    1    2    0    0  0.00000000000E+00  0.00000000000E+00  0.16435680100E+04  0.20070824573E+04  0.11519827198E+04 0.  0.
        3    1    3    3  502    0  0.12869575093E+03 -0.50204965110E+03  0.12596129922E+04  0.13620724462E+04  0.10100000352E+00 0. -1.
       -3    1    3    3    0  502 -0.12869575093E+03  0.50204965110E+03  0.38395501786E+03  0.64501001109E+03  0.10100000352E+00 0.  1.
</event>
<event>
 5   0  0.4428114E-03  0.1110404E+04  0.7818609E-02  0.9195110E-01
       -1   -1    0    0    0  501  0.00000000000E+00  0.00000000000E+00  0.63777478512E+03  0.63777478514E+03  0.50400001928E-02 0.  1.
        1   -1    0    0  501    0  0.00000000000E+00  0.00000000000E+00 -0.48332010651E+03  0.48332010654E+03  0.50400001928E-02 0. -1.
    10030    2    1    2    0    0  0.00000000000E+00  0.00000000000E+00  0.15445467861E+03  0.11210948917E+04  0.11104042095E+04 0.  0.
        4    1    3    3  502    0  0.27745808525E+03 -0.39737092738E+03  0.35068761940E+03  0.59822241875E+03  0.12699999809E+01 0.  1.
       -4    1    3    3    0  502 -0.27745808525E+03  0.39737092738E+03 -0.19623294079E+03  0.52287247293E+03  0.12699999809E+01 0. -1.
</event>
<event>
 5   0  0.2992375E-03  0.1113858E+04  0.7818609E-02  0.9191789E-01
        3   -1    0    0  501    0  0.00000000000E+00  0.00000000000E+00  0.31615468896E+03  0.31615470509E+03  0.10100000352E+00 0. -1.
       -3   -1    0    0    0  501  0.00000000000E+00  0.00000000000E+00 -0.98106966073E+03  0.98106966593E+03  0.10100000352E+00 0.  1.
    10030    2    1    2    0    0  0.00000000000E+00  0.00000000000E+00 -0.66491497177E+03  0.12972243710E+04  0.11138577778E+04 0.  0.
        1    1    3    3  502    0 -0.43310404212E+03  0.76222243843E+02 -0.73044657409E+03  0.85260843262E+03  0.50400001928E-02 0.  1.
       -1    1    3    3    0  502  0.43310404212E+03 -0.76222243843E+02  0.65531602314E+02  0.44461593840E+03  0.50400001928E-02 0. -1.
</event>
<event>
 5   0  0.4641021E-03  0.1096581E+04  0.7818609E-02  0.9208531E-01
       -1   -1    0    0    0  501  0.00000000000E+00  0.00000000000E+00  0.20525586232E+03  0.20525586238E+03  0.50400001928E-02 0.  1.
        1   -1    0    0  501    0  0.00000000000E+00  0.00000000000E+00 -0.14646231361E+04  0.14646231361E+04  0.50400001928E-02 0. -1.
    10030    2    1    2    0    0  0.00000000000E+00  0.00000000000E+00 -0.12593672738E+04  0.16698789985E+04  0.10965810227E+04 0.  0.
        1    1    3    3  502    0 -0.44264481758E+03  0.31789416895E+03 -0.72144887364E+03  0.90414579272E+03  0.50400001928E-02 0. -1.
       -1    1    3    3    0  502  0.44264481758E+03 -0.31789416895E+03 -0.53791840013E+03  0.76573320576E+03  0.50400001928E-02 0.  1.
</event>
<event>
 5   0  0.7952121E-03  0.1074950E+04  0.7818609E-02  0.9229958E-01
        2   -1    0    0  501    0  0.00000000000E+00  0.00000000000E+00  0.14299609957E+04  0.14299609957E+04  0.25500000920E-02 0. -1.
       -2   -1    0    0    0  501  0.00000000000E+00  0.00000000000E+00 -0.20201888168E+03  0.20201888169E+03  0.25500000920E-02 0.  1.
    10030    2    1    2    0    0  0.00000000000E+00  0.00000000000E+00  0.12279421140E+04  0.16319798773E+04  0.10749495266E+04 0.  0.
        3    1    3    3  502    0 -0.14632259668E+03 -0.35967849048E+02 -0.16929707651E+03  0.22663957902E+03  0.10100000352E+00 0.  1.
       -3    1    3    3    0  502  0.14632259668E+03  0.35967849048E+02  0.13972391905E+04  0.14053402983E+04  0.10100000352E+00 0. -1.
</event>
<event>
 5   0  0.4598561E-03  0.1084354E+04  0.7818609E-02  0.9220577E-01
        1   -1    0    0  501    0  0.00000000000E+00  0.00000000000E+00  0.48702924913E+03  0.48702924916E+03  0.50400001928E-02 0.  1.
       -1   -1    0    0    0  501  0.00000000000E+00  0.00000000000E+00 -0.60356956648E+03  0.60356956650E+03  0.50400001928E-02 0. -1.
    10030    2    1    2    0    0  0.00000000000E+00  0.00000000000E+00 -0.11654031735E+03  0.10905988157E+04  0.10843542462E+04 0.  0.
        2    1    3    3  502    0  0.69519502626E+02  0.41835099936E+03 -0.39801052519E+03  0.58160372942E+03  0.25500000920E-02 0. -1.
       -2    1    3    3    0  502 -0.69519502626E+02 -0.41835099936E+03  0.28147020784E+03  0.50899508624E+03  0.25500000920E-02 0.  1.
</event>
<event>
 5   0  0.7537480E-03  0.1084825E+04  0.7818609E-02  0.9220110E-01
        2   -1    0    0  501    0  0.00000000000E+00  0.00000000000E+00  0.10056591756E+04  0.10056591757E+04  0.25500000920E-02 0.  1.
       -2   -1    0    0    0  501  0.00000000000E+00  0.00000000000E+00 -0.29255576355E+03  0.29255576356E+03  0.25500000920E-02 0. -1.
    10030    2    1    2    0    0  0.00000000000E+00  0.00000000000E+00  0.71310341210E+03  0.12982149392E+04  0.10848251251E+04 0.  0.
        1    1    3    3  502    0 -0.21187994909E+03  0.13806391631E+03 -0.21768763095E+03  0.33368047966E+03  0.50400001928E-02 0. -1.
       -1    1    3    3    0  502  0.21187994909E+03 -0.13806391631E+03  0.93079104305E+03  0.96453445955E+03  0.50400001928E-02 0.  1.
</event>
<event>
 5   0  0.4598561E-03  0.1282284E+04  0.7818609E-02  0.9043733E-01
        1   -1    0    0  501    0  0.00000000000E+00  0.00000000000E+00  0.63922129597E+03  0.63922129599E+03  0.50400001928E-02 0.  1.
       -1   -1    0    0    0  501  0.00000000000E+00  0.00000000000E+00 -0.64306885003E+03  0.64306885005E+03  0.50400001928E-02 0. -1.
    10030    2    1    2    0    0  0.00000000000E+00  0.00000000000E+00 -0.38475540636E+01  0.12822901460E+04  0.12822843737E+04 0.  0.
        2    1    3    3  502    0 -0.18321556249E+03 -0.28923955137E+03 -0.54399248929E+03  0.64277156815E+03  0.25500000920E-02 0. -1.
       -2    1    3    3    0  502  0.18321556249E+03  0.28923955137E+03  0.54014493522E+03  0.63951857789E+03  0.25500000920E-02 0.  1.
</event>
<event>
 5   0  0.4298101E-03  0.9271014E+03  0.7818609E-02  0.9392323E-01
        1   -1    0    0  501    0  0.00000000000E+00  0.00000000000E+00  0.83058062651E+03  0.83058062653E+03  0.50400001928E-02 0.  1.
       -1   -1    0    0    0  501  0.00000000000E+00  0.00000000000E+00 -0.25870967845E+03  0.25870967850E+03  0.50400001928E-02 0. -1.
    10030    2    1    2    0    0  0.00000000000E+00  0.00000000000E+00  0.57187094806E+03  0.10892903050E+04  0.92710139002E+03 0.  0.
        3    1    3    3  502    0  0.26913728164E+03 -0.10613366550E+03  0.71148511474E+03  0.76805618937E+03  0.10100000352E+00 0.  1.
       -3    1    3    3    0  502 -0.26913728164E+03  0.10613366550E+03 -0.13961416668E+03  0.32123411566E+03  0.10100000352E+00 0. -1.
</event>
<event>
 5   0  0.7738497E-03  0.1127879E+04  0.7818609E-02  0.9178438E-01
       -2   -1    0    0    0  501  0.00000000000E+00  0.00000000000E+00  0.54879834265E+03  0.54879834266E+03  0.25500000920E-02 0. -1.
        2   -1    0    0  501    0  0.00000000000E+00  0.00000000000E+00 -0.57949792011E+03  0.57949792012E+03  0.25500000920E-02 0.  1.
    10030    2    1    2    0    0  0.00000000000E+00  0.00000000000E+00 -0.30699577461E+02  0.11282962628E+04  0.11278785363E+04 0.  0.
        4    1    3    3  502    0 -0.24991844705E+03 -0.53782005149E+02  0.48750341935E+03  0.55046610343E+03  0.12699999809E+01 0. -1.
       -4    1    3    3    0  502  0.24991844705E+03  0.53782005149E+02 -0.51820299681E+03  0.57783015935E+03  0.12699999809E+01 0.  1.
</event>
<event>
 5   0  0.4428114E-03  0.1119657E+04  0.7818609E-02  0.9186242E-01
       -1   -1    0    0    0  501  0.00000000000E+00  0.00000000000E+00  0.29197315666E+03  0.29197315670E+03  0.50400001928E-02 0.  1.
        1   -1    0    0  501    0  0.00000000000E+00  0.00000000000E+00 -0.10734134061E+04  0.10734134061E+04  0.50400001928E-02 0. -1.
    10030    2    1    2    0    0  0.00000000000E+00  0.00000000000E+00 -0.78144024947E+03  0.13653865628E+04  0.11196569129E+04 0.  0.
        4    1    3    3  502    0  0.29636645751E+03  0.47000766210E+03 -0.47401981864E+03  0.73036749718E+03  0.12699999809E+01 0.  1.
       -4    1    3    3    0  502 -0.29636645751E+03 -0.47000766210E+03 -0.30742043083E+03  0.63501906567E+03  0.12699999809E+01 0. -1.
</event>
<event>
 5   0  0.7712816E-03  0.1098130E+04  0.7818609E-02  0.9207017E-01
       -2   -1    0    0    0  501  0.00000000000E+00  0.00000000000E+00  0.33122482355E+03  0.33122482355E+03  0.25500000920E-02 0. -1.
        2   -1    0    0  501    0  0.00000000000E+00  0.00000000000E+00 -0.91017373227E+03  0.91017373227E+03  0.25500000920E-02 0.  1.
    10030    2    1    2    0    0  0.00000000000E+00  0.00000000000E+00 -0.57894890872E+03  0.12413985558E+04  0.10981295623E+04 0.  0.
        2    1    3    3  502    0  0.62127545973E+02 -0.29472742936E+03 -0.80844107956E+03  0.86272885005E+03  0.25500000920E-02 0.  1.
       -2    1    3    3    0  502 -0.62127545973E+02  0.29472742936E+03  0.22949217084E+03  0.37866970577E+03  0.25500000920E-02 0. -1.
</event>
<event>
 5   0  0.4504740E-03  0.1080498E+04  0.7818609E-02  0.9224411E-01
       -1   -1    0    0    0  501  0.00000000000E+00  0.00000000000E+00  0.94357792447E+03  0.94357792448E+03  0.50400001928E-02 0.  1.
        1   -1    0    0  501    0  0.00000000000E+00  0.00000000000E+00 -0.30932156597E+03  0.30932156601E+03  0.50400001928E-02 0. -1.
    10030    2    1    2    0    0  0.00000000000E+00  0.00000000000E+00  0.63425635850E+03  0.12528994905E+04  0.10804980356E+04 0.  0.
        5    1    3    3  502    0 -0.20887489317E+03  0.47105693713E+03  0.12899538827E+03  0.53121112489E+03  0.46999998093E+01 0. -1.
       -5    1    3    3    0  502  0.20887489317E+03 -0.47105693713E+03  0.50526097023E+03  0.72168836560E+03  0.46999998093E+01 0.  1.
</event>
<event>
 5   0  0.7952121E-03  0.1281569E+04  0.7818609E-02  0.9044310E-01
       -2   -1    0    0    0  501  0.00000000000E+00  0.00000000000E+00  0.58163815299E+03  0.58163815300E+03  0.25500000920E-02 0.  1.
        2   -1    0    0  501    0  0.00000000000E+00  0.00000000000E+00 -0.70594593134E+03  0.70594593134E+03  0.25500000920E-02 0. -1.
    10030    2    1    2    0    0  0.00000000000E+00  0.00000000000E+00 -0.12430777835E+03  0.12875840843E+04  0.12815694872E+04 0.  0.
        3    1    3    3  502    0 -0.42720258305E+03  0.36507638651E+03 -0.37153129800E+03  0.67366039705E+03  0.10100000352E+00 0. -1.
       -3    1    3    3    0  502  0.42720258305E+03 -0.36507638651E+03  0.24722351965E+03  0.61392368730E+03  0.10100000352E+00 0.  1.
</event>
<event>
 5   0  0.4598561E-03  0.1095742E+04  0.7818609E-02  0.9209352E-01
        1   -1    0    0  501    0  0.00000000000E+00  0.00000000000E+00  0.32739851380E+03  0.32739851384E+03  0.50400001928E-02 0. -1.
       -1   -1    0    0    0  501  0.00000000000E+00  0.00000000000E+00 -0.91681180468E+03  0.91681180470E+03  0.50400001928E-02 0.  1.
    10030    2    1    2    0    0  0.00000000000E+00  0.00000000000E+00 -0.58941329088E+03  0.12442103185E+04  0.10957423462E+04 0.  0.
        2    1    3    3  502    0  0.40383275267E+03  0.33059926907E+02 -0.71343965391E+03  0.82046937217E+03  0.25500000920E-02 0.  1.
       -2    1    3    3    0  502 -0.40383275267E+03 -0.33059926907E+02  0.12402636303E+03  0.42374094636E+03  0.25500000920E-02 0. -1.
</event>
<event>
 5   0  0.7712816E-03  0.1041657E+04  0.7818609E-02  0.9264000E-01
        2   -1    0    0  501    0  0.00000000000E+00  0.00000000000E+00  0.12231748584E+04  0.12231748584E+04  0.25500000920E-02 0.  1.
       -2   -1    0    0    0  501  0.00000000000E+00  0.00000000000E+00 -0.22176896968E+03  0.22176896970E+03  0.25500000920E-02 0. -1.
    10030    2    1    2    0    0  0.00000000000E+00  0.00000000000E+00  0.10014058887E+04  0.14449438281E+04  0.10416568112E+04 0.  0.
        2    1    3    3  502    0 -0.55020016039E+02 -0.62964096568E+02  0.12138033596E+04  0.12166800218E+04  0.25500000920E-02 0.  1.
       -2    1    3    3    0  502  0.55020016039E+02  0.62964096568E+02 -0.21239747089E+03  0.22826380631E+03  0.25500000920E-02 0. -1.
</event>
<event>
 5   0  0.7537480E-03  0.1219172E+04  0.7818609E-02  0.9096239E-01
       -2   -1    0    0    0  501  0.00000000000E+00  0.00000000000E+00  0.37653730505E+03  0.37653730506E+03  0.25500000920E-02 0.  1.
        2   -1    0    0  501    0  0.00000000000E+00  0.00000000000E+00 -0.98687452599E+03  0.98687452600E+03  0.25500000920E-02 0. -1.
    10030    2    1    2    0    0  0.00000000000E+00  0.00000000000E+00 -0.61033722094E+03  0.13634118311E+04  0.12191719722E+04 0.  0.
        1    1    3    3  502    0  0.28269249163E+03 -0.53801741370E+03 -0.25250949637E+03  0.65813283465E+03  0.50400001928E-02 0.  1.
       -1    1    3    3    0  502 -0.28269249163E+03  0.53801741370E+03 -0.35782772458E+03  0.70527899640E+03  0.50400001928E-02 0. -1.
</event>
<event>
 5   0  0.4298101E-03  0.8653405E+03  0.7818609E-02  0.9469976E-01
        1   -1    0    0  501    0  0.00000000000E+00  0.00000000000E+00  0.11481648700E+04  0.11481648701E+04  0.50400001928E-02 0.  1.
       -1   -1    0    0    0  501  0.00000000000E+00  0.00000000000E+00 -0.16304586522E+03  0.16304586530E+03  0.50400001928E-02 0. -1.
    10030    2    1    2    0    0  0.00000000000E+00  0.00000000000E+00  0.98511900483E+03  0.13112107354E+04  0.86534047568E+03 0.  0.
        3    1    3    3  502    0  0.10833772978E+03  0.16039594399E+03 -0.93786293327E+02  0.21508091863E+03  0.10100000352E+00 0. -1.
       -3    1    3    3    0  502 -0.10833772978E+03 -0.16039594399E+03  0.10789052982E+04  0.10961298167E+04  0.10100000352E+00 0.  1.
</event>
<event>
 5   0  0.4598561E-03  0.1120704E+04  0.7818609E-02  0.9185244E-01
       -1   -1    0    0    0  501  0.00000000000E+00  0.00000000000E+00  0.20562422330E+03  0.20562422336E+03  0.50400001928E-02 0.  1.
        1   -1    0    0  501    0  0.00000000000E+00  0.00000000000E+00 -0.15270290270E+04  0.15270290270E+04  0.50400001928E-02 0. -1.
    10030    2    1    2    0    0  0.00000000000E+00  0.00000000000E+00 -0.13214048037E+04  0.17326532503E+04  0.11207036320E+04 0.  0.
        2    1    3    3  502    0 -0.11228270024E+03 -0.48405558922E+03 -0.10611147827E+04  0.11717003885E+04  0.25500000920E-02 0. -1.
       -2    1    3    3    0  502  0.11228270024E+03  0.48405558922E+03 -0.26029002093E+03  0.56095286186E+03  0.25500000920E-02 0.  1.
</event>
<event>
 5   0  0.7712816E-03  0.1155834E+04  0.7818609E-02  0.9152418E-01
       -2   -1    0    0    0  501  0.00000000000E+00  0.00000000000E+00  0.34792445935E+03  0.34792445936E+03  0.25500000920E-02 0.  1.
        2   -1    0    0  501    0  0.00000000000E+00  0.00000000000E+00 -0.95994420545E+03  0.95994420545E+03  0.25500000920E-02 0. -1.
    10030    2    1    2    0    0  0.00000000000E+00  0.00000000000E+00 -0.61201974610E+03  0.13078686648E+04  0.11558340170E+04 0.  0.
        2    1    3    3  502    0  0.44127334365E+03 -0.71489480062E+01  0.11618345187E+03  0.45636812528E+03  0.25500000920E-02 0.  1.
       -2    1    3    3    0  502 -0.44127334365E+03  0.71489480062E+01 -0.72820319797E+03  0.85150053953E+03  0.25500000920E-02 0. -1.
</event>
<event>
 5   0  0.7738497E-03  0.1056072E+04  0.7818609E-02  0.9249097E-01
        2   -1    0    0  501    0  0.00000000000E+00  0.00000000000E+00  0.40916430308E+03  0.40916430309E+03  0.25500000920E-02 0.  1.
       -2   -1    0    0    0  501  0.00000000000E+00  0.00000000000E+00 -0.68144265251E+03  0.68144265252E+03  0.25500000920E-02 0. -1.
    10030    2    1    2    0    0  0.00000000000E+00  0.00000000000E+00 -0.27227834944E+03  0.10906069556E+04  0.10560719824E+04 0.  0.
        4    1    3    3  502    0  0.51948356172E+02  0.47179443841E+03 -0.37507460264E+03  0.60495553082E+03  0.12699999809E+01 0. -1.
       -4    1    3    3    0  502 -0.51948356172E+02 -0.47179443841E+03  0.10279625321E+03  0.48565142478E+03  0.12699999809E+01 0.  1.
</event>
<event>
 5   0  0.7952121E-03  0.1112857E+04  0.7818609E-02  0.9192750E-01
        2   -1    0    0  501    0  0.00000000000E+00  0.00000000000E+00  0.97482013895E+03  0.97482013895E+03  0.25500000920E-02 0.  1.
       -2   -1    0    0    0  501  0.00000000000E+00  0.00000000000E+00 -0.31761007815E+03  0.31761007816E+03  0.25500000920E-02 0. -1.
    10030    2    1    2    0    0  0.00000000000E+00  0.00000000000E+00  0.65721006080E+03  0.12924302171E+04  0.11128570448E+04 0.  0.
        3    1    3    3  502    0  0.46807984193E+03  0.13126457459E+03  0.64299668774E+03  0.80608552748E+03  0.10100000352E+00 0.  1.
       -3    1    3    3    0  502 -0.46807984193E+03 -0.13126457459E+03  0.14213373055E+02  0.48634468963E+03  0.10100000352E+00 0. -1.
</event>
<event>
 5   0  0.7766551E-03  0.1092392E+04  0.7818609E-02  0.9212639E-01
        2   -1    0    0  501    0  0.00000000000E+00  0.00000000000E+00  0.50343337398E+03  0.50343337399E+03  0.25500000920E-02 0.  1.
       -2   -1    0    0    0  501  0.00000000000E+00  0.00000000000E+00 -0.59259055995E+03  0.59259055995E+03  0.25500000920E-02 0. -1.
    10030    2    1    2    0    0  0.00000000000E+00  0.00000000000E+00 -0.89157185970E+02  0.10960239339E+04  0.10923916239E+04 0.  0.
        5    1    3    3  502    0 -0.50832931768E+03  0.18331974015E+03 -0.12423371347E+03  0.55449159408E+03  0.46999998093E+01 0.  1.
       -5    1    3    3    0  502  0.50832931768E+03 -0.18331974015E+03  0.35076527502E+02  0.54153233986E+03  0.46999998093E+01 0. -1.
</event>
<event>
 5   0  0.4428114E-03  0.1102836E+04  0.7818609E-02  0.9202432E-01
        1   -1    0    0  501    0  0.00000000000E+00  0.00000000000E+00  0.82017382845E+03  0.82017382847E+03  0.50400001928E-02 0.  1.
       -1   -1    0    0    0  501  0.00000000000E+00  0.00000000000E+00 -0.37072826021E+03  0.37072826024E+03  0.50400001928E-02 0. -1.
    10030    2    1    2    0    0  0.00000000000E+00  0.00000000000E+00  0.44944556825E+03  0.11909020887E+04  0.11028356478E+04 0.  0.
        4    1    3    3  502    0 -0.31804538575E+03  0.16427825917E+03 -0.22819837486E+03  0.42451893365E+03  0.12699999809E+01 0. -1.
       -4    1    3    3    0  502  0.31804538575E+03 -0.16427825917E+03  0.67764394311E+03  0.76638315506E+03  0.12699999809E+01 0.  1.
</event>
<event>
 5   0  0.4298101E-03  0.1120384E+04  0.7818609E-02  0.9185549E-01
       -1   -1    0    0    0  501  0.00000000000E+00  0.00000000000E+00  0.20072049263E+03  0.20072049270E+03  0.50400001928E-02 0.  1.
        1   -1    0    0  501    0  0.00000000000E+00  0.00000000000E+00 -0.15634419930E+04  0.15634419930E+04  0.50400001928E-02 0. -1.
    10030    2    1    2    0    0  0.00000000000E+00  0.00000000000E+00 -0.13627215004E+04  0.17641624857E+04  0.11203835898E+04 0.  0.
        3    1    3    3  502    0  0.29510536748E+03  0.21020281705E+03 -0.86106626482E+01  0.36241765399E+03  0.10100000352E+00 0.  1.
       -3    1    3    3    0  502 -0.29510536748E+03 -0.21020281705E+03 -0.13541108377E+04  0.14017448317E+04  0.10100000352E+00 0. -1.
</event>
<event>
 5   0  0.4641021E-03  0.1099444E+04  0.7818609E-02  0.9205734E-01
       -1   -1    0    0    0  501  0.00000000000E+00  0.00000000000E+00  0.17989494210E+03  0.17989494217E+03  0.50400001928E-02 0. -1.
        1   -1    0    0  501    0  0.00000000000E+00  0.00000000000E+00 -0.16798361783E+04  0.16798361783E+04  0.50400001928E-02 0.  1.
    10030    2    1    2    0    0  0.00000000000E+00  0.00000000000E+00 -0.14999412362E+04  0.18597311204E+04  0.10994435540E+04 0.  0.
        1    1    3    3  502    0 -0.21902169858E+02 -0.41506448931E+02  0.17650016089E+03  0.18263295750E+03  0.50400001928E-02 0. -1.
       -1    1    3    3    0  502  0.21902169858E+02  0.41506448931E+02 -0.16764413971E+04  0.16770981629E+04  0.50400001928E-02 0.  1.
</event>
<event>
 5   0  0.7738497E-03  0.1097883E+04  0.7818609E-02  0.9207257E-01
        2   -1    0    0  501    0  0.00000000000E+00  0.00000000000E+00  0.15741690267E+04  0.15741690267E+04  0.25500000920E-02 0. -1.
       -2   -1    0    0    0  501  0.00000000000E+00  0.00000000000E+00 -0.19142602399E+03  0.19142602400E+03  0.25500000920E-02 0.  1.
    10030    2    1    2    0    0  0.00000000000E+00  0.00000000000E+00  0.13827430027E+04  0.17655950507E+04  0.10978832686E+04 0.  0.
        4    1    3    3  502    0  0.39940552268E+03  0.37618746880E+03  0.66381937754E+03  0.86121981057E+03  0.12699999809E+01 0.  1.
       -4    1    3    3    0  502 -0.39940552268E+03 -0.37618746880E+03  0.71892362516E+03  0.90437524012E+03  0.12699999809E+01 0. -1.
</event>
<event>
 5   0  0.7738497E-03  0.1155931E+04  0.7818609E-02  0.9152330E-01
       -2   -1    0    0    0  501  0.00000000000E+00  0.00000000000E+00  0.20492548057E+03  0.20492548059E+03  0.25500000920E-02 0. -1.
        2   -1    0    0  501    0  0.00000000000E+00  0.00000000000E+00 -0.16300753614E+04  0.16300753614E+04  0.25500000920E-02 0.  1.
    10030    2    1    2    0    0  0.00000000000E+00  0.00000000000E+00 -0.14251498808E+04  0.18350008420E+04  0.11559307537E+04 0.  0.
        4    1    3    3  502    0 -0.24156802329E+03  0.22478501700E+03  0.40692259534E+02  0.33247689639E+03  0.12699999809E+01 0. -1.
       -4    1    3    3    0  502  0.24156802329E+03 -0.22478501700E+03 -0.14658421404E+04  0.15025239456E+04  0.12699999809E+01 0.  1.
</event>
<event>
 5   0  0.4504740E-03  0.1074887E+04  0.7818609E-02  0.9230021E-01
        1   -1    0    0  501    0  0.00000000000E+00  0.00000000000E+00  0.62152305941E+03  0.62152305943E+03  0.50400001928E-02 0.  1.
       -1   -1    0    0    0  501  0.00000000000E+00  0.00000000000E+00 -0.46473801042E+03  0.46473801045E+03  0.50400001928E-02 0. -1.
    10030    2    1    2    0    0  0.00000000000E+00  0.00000000000E+00  0.15678504898E+03  0.10862610699E+04  0.10748867663E+04 0.  0.
        5    1    3    3  502    0 -0.17549479811E+03  0.22892780843E+03 -0.37985585650E+03  0.47698944156E+03  0.46999998093E+01 0. -1.
       -5    1    3    3    0  502  0.17549479811E+03 -0.22892780843E+03  0.53664090549E+03  0.60927162832E+03  0.46999998093E+01 0.  1.
</event>
<event>
 5   0  0.7712816E-03  0.1075670E+04  0.7818609E-02  0.9229236E-01
       -2   -1    0    0    0  501  0.00000000000E+00  0.00000000000E+00  0.87549494253E+03  0.87549494254E+03  0.25500000920E-02 0. -1.
        2   -1    0    0  501    0  0.00000000000E+00  0.00000000000E+00 -0.33040310473E+03  0.33040310474E+03  0.25500000920E-02 0.  1.
    10030    2    1    2    0    0  0.00000000000E+00  0.00000000000E+00  0.54509183781E+03  0.12058980473E+04  0.10756695537E+04 0.  0.
        2    1    3    3  502    0 -0.51538530736E+03 -0.39782558257E+01  0.44487117177E+03  0.68084374202E+03  0.25500000920E-02 0. -1.
       -2    1    3    3    0  502  0.51538530736E+03  0.39782558257E+01  0.10022066603E+03  0.52505430526E+03  0.25500000920E-02 0.  1.
</event>
<event>
 5   0  0.4598561E-03  0.1055422E+04  0.7818609E-02  0.9249764E-01
       -1   -1    0    0    0  501  0.00000000000E+00  0.00000000000E+00  0.33227804245E+03  0.33227804249E+03  0.50400001928E-02 0. -1.
        1   -1    0    0  501    0  0.00000000000E+00  0.00000000000E+00 -0.83808930455E+03  0.83808930457E+03  0.50400001928E-02 0.  1.
    10030    2    1    2    0    0  0.00000000000E+00  0.00000000000E+00 -0.50581126210E+03  0.11703673471E+04  0.10554215718E+04 0.  0.
        2    1    3    3  502    0 -0.45801893693E+03 -0.30003112173E+02  0.35831021783E+02  0.46039699766E+03  0.25500000920E-02 0. -1.
       -2    1    3    3    0  502  0.45801893693E+03  0.30003112173E+02 -0.54164228388E+03  0.70997034940E+03  0.25500000920E-02 0.  1.
</event>
<event>
 5   0  0.4298101E-03  0.1096962E+04  0.7818609E-02  0.9208158E-01
       -1   -1    0    0    0  501  0.00000000000E+00  0.00000000000E+00  0.26782186216E+03  0.26782186221E+03  0.50400001928E-02 0.  1.
        1   -1    0    0  501    0  0.00000000000E+00  0.00000000000E+00 -0.11232513764E+04  0.11232513764E+04  0.50400001928E-02 0. -1.
    10030    2    1    2    0    0  0.00000000000E+00  0.00000000000E+00 -0.85542951424E+03  0.13910732386E+04  0.10969617593E+04 0.  0.
        3    1    3    3  502    0 -0.41028131837E+03 -0.82170161015E+02  0.21971934019E+02  0.41900533606E+03  0.10100000352E+00 0.  1.
       -3    1    3    3    0  502  0.41028131837E+03  0.82170161015E+02 -0.87740144826E+03  0.97206790255E+03  0.10100000352E+00 0. -1.
</event>
<event>
 5   0  0.7766551E-03  0.1078241E+04  0.7818609E-02  0.9226663E-01
        2   -1    0    0  501    0  0.00000000000E+00  0.00000000000E+00  0.25466325912E+04  0.25466325912E+04  0.25500000920E-02 0. -1.
       -2   -1    0    0    0  501  0.00000000000E+00  0.00000000000E+00 -0.11413151726E+03  0.11413151729E+03  0.25500000920E-02 0.  1.
    10030    2    1    2    0    0  0.00000000000E+00  0.00000000000E+00  0.24325010739E+04  0.26607641085E+04  0.10782412375E+04 0.  0.
        5    1    3    3  502    0  0.33023007050E+03  0.31845539205E+03  0.19149300365E+04  0.19691228684E+04  0.46999998093E+01 0. -1.
       -5    1    3    3    0  502 -0.33023007050E+03 -0.31845539205E+03  0.51757103739E+03  0.69164124005E+03  0.46999998093E+01 0.  1.
</event>
<event>
 5   0  0.7537480E-03  0.1103584E+04  0.7818609E-02  0.9201706E-01
       -2   -1    0    0    0  501  0.00000000000E+00  0.00000000000E+00  0.33401651857E+03  0.33401651858E+03  0.25500000920E-02 0. -1.
        2   -1    0    0  501    0  0.00000000000E+00  0.00000000000E+00 -0.91155499063E+03  0.91155499063E+03  0.25500000920E-02 0.  1.
    10030    2    1    2    0    0  0.00000000000E+00  0.00000000000E+00 -0.57753847206E+03  0.12455715092E+04  0.11035840239E+04 0.  0.
        1    1    3    3  502    0  0.38154661373E+03  0.95358707900E+02 -0.72561083121E+03  0.82533761578E+03  0.50400001928E-02 0.  1.
       -1    1    3    3    0  502 -0.38154661373E+03 -0.95358707900E+02  0.14807235915E+03  0.42023389344E+03  0.50400001928E-02 0. -1.
</event>
<event>
 5   0  0.4428114E-03  0.1119764E+04  0.7818609E-02  0.9186140E-01
       -1   -1    0    0    0  501  0.00000000000E+00  0.00000000000E+00  0.31697809998E+03  0.31697810002E+03  0.50400001928E-02 0.  1.
        1   -1    0    0  501    0  0.00000000000E+00  0.00000000000E+00 -0.98892578221E+03  0.98892578222E+03  0.50400001928E-02 0. -1.
    10030    2    1    2    0    0  0.00000000000E+00  0.00000000000E+00 -0.67194768223E+03  0.13059038822E+04  0.11197639314E+04 0.  0.
        4    1    3    3  502    0 -0.53622615434E+03  0.16097359672E+03 -0.34052291514E+03  0.65529264918E+03  0.12699999809E+01 0.  1.
       -4    1    3    3    0  502  0.53622615434E+03 -0.16097359672E+03 -0.33142476709E+03  0.65061123306E+03  0.12699999809E+01 0. -1.
</event>
<event>
 5   0  0.4428114E-03  0.1058708E+04  0.7818609E-02  0.9246400E-01
        1   -1    0    0  501    0  0.00000000000E+00  0.00000000000E+00  0.40469729735E+03  0.40469729738E+03  0.50400001928E-02 0.  1.
       -1   -1    0    0    0  501  0.00000000000E+00  0.00000000000E+00 -0.69240762155E+03  0.69240762157E+03  0.50400001928E-02 0. -1.
    10030    2    1    2    0    0  0.00000000000E+00  0.00000000000E+00 -0.28771032420E+03  0.10971049190E+04  0.10587076898E+04 0.  0.
        4    1    3    3  502    0 -0.44852573039E+03  0.28090417582E+03 -0.15573358838E+03  0.55166751786E+03  0.12699999809E+01 0. -1.
       -4    1    3    3    0  502  0.44852573039E+03 -0.28090417582E+03 -0.13197673583E+03  0.54543740109E+03  0.12699999809E+01 0.  1.
</event>
<event>
 5   0  0.4298101E-03  0.1238806E+04  0.7818609E-02  0.9079552E-01
       -1   -1    0    0    0  501  0.00000000000E+00  0.00000000000E+00  0.38306972013E+03  0.38306972016E+03  0.50400001928E-02 0.  1.
        1   -1    0    0  501    0  0.00000000000E+00  0.00000000000E+00 -0.10015405355E+04  0.10015405356E+04  0.50400001928E-02 0. -1.
    10030    2    1    2    0    0  0.00000000000E+00  0.00000000000E+00 -0.61847081541E+03  0.13846102557E+04  0.12388056388E+04 0.  0.
        3    1    3    3  502    0 -0.16920357737E+03  0.50347431906E+03  0.46929111160E+02  0.53321533382E+03  0.10100000352E+00 0.  1.
       -3    1    3    3    0  502  0.16920357737E+03 -0.50347431906E+03 -0.66539992657E+03  0.85139492190E+03  0.10100000352E+00 0. -1.
</event>
<event>
 5   0  0.7738497E-03  0.1028302E+04  0.7818609E-02  0.9278037E-01
        2   -1    0    0  501    0  0.00000000000E+00  0.00000000000E+00  0.12315869052E+04  0.12315869052E+04  0.25500000920E-02 0. -1.
       -2   -1    0    0    0  501  0.00000000000E+00  0.00000000000E+00 -0.21464261781E+03  0.21464261782E+03  0.25500000920E-02 0.  1.
    10030    2    1    2    0    0  0.00000000000E+00  0.00000000000E+00  0.10169442874E+04  0.14462295231E+04  0.10283015850E+04 0.  0.
        4    1    3    3  502    0 -0.22681840486E+03  0.47058004951E+02 -0.13708844579E+03  0.26917633529E+03  0.12699999809E+01 0.  1.
       -4    1    3    3    0  502  0.22681840486E+03 -0.47058004951E+02  0.11540327332E+04  0.11770531878E+04  0.12699999809E+01 0. -1.
</event>
<event>
 5   0  0.4504740E-03  0.1056765E+04  0.7818609E-02  0.9248387E-01
       -1   -1    0    0    0  501  0.00000000000E+00  0.00000000000E+00  0.43834021272E+03  0.43834021275E+03  0.50400001928E-02 0. -1.
        1   -1    0    0  501    0  0.00000000000E+00  0.00000000000E+00 -0.63692124209E+03  0.63692124211E+03  0.50400001928E-02 0.  1.
    10030    2    1    2    0    0  0.00000000000E+00  0.00000000000E+00 -0.19858102937E+03  0.10752614549E+04  0.10567652393E+04 0.  0.
        5    1    3    3  502    0  0.18644897050E+03  0.28527649508E+03  0.31153392974E+03  0.46175900275E+03  0.46999998093E+01 0. -1.
       -5    1    3    3    0  502 -0.18644897050E+03 -0.28527649508E+03 -0.51011495911E+03  0.61350245211E+03  0.46999998093E+01 0.  1.
</event>
<event>
 5   0  0.7952121E-03  0.1062129E+04  0.7818609E-02  0.9242911E-01
       -2   -1    0    0    0  501  0.00000000000E+00  0.00000000000E+00  0.74169898721E+03  0.74169898722E+03  0.25500000920E-02 0.  1.
        2   -1    0    0  501    0  0.00000000000E+00  0.00000000000E+00 -0.38024770823E+03  0.38024770824E+03  0.25500000920E-02 0. -1.
    10030    2    1    2    0    0  0.00000000000E+00  0.00000000000E+00  0.36145127898E+03  0.11219466955E+04  0.10621286929E+04 0.  0.
        3    1    3    3  502    0 -0.89927073020E+02  0.13435378768E+03 -0.35362092560E+03  0.38882590957E+03  0.10100000352E+00 0. -1.
       -3    1    3    3    0  502  0.89927073020E+02 -0.13435378768E+03  0.71507220459E+03  0.73312078589E+03  0.10100000352E+00 0.  1.
</event>
<event>
 5   0  0.7952121E-03  0.1125669E+04  0.7818609E-02  0.9180528E-01
        2   -1    0    0  501    0  0.00000000000E+00  0.00000000000E+00  0.36966465829E+03  0.36966465830E+03  0.25500000920E-02 0. -1.
       -2   -1    0    0    0  501  0.00000000000E+00  0.00000000000E+00 -0.85694561622E+03  0.85694561622E+03  0.25500000920E-02 0.  1.
    10030    2    1    2    0    0  0.00000000000E+00  0.00000000000E+00 -0.48728095792E+03  0.12266102745E+04  0.11256687051E+04 0.  0.
        3    1    3    3  502    0  0.14353687055E+02  0.35005586375E+03 -0.72363765992E+03  0.80398794092E+03  0.10100000352E+00 0.  1.
       -3    1    3    3    0  502 -0.14353687055E+02 -0.35005586375E+03  0.23635670200E+03  0.42262233360E+03  0.10100000352E+00 0. -1.
</event>
<event>
 5   0  0.2992375E-03  0.1098989E+04  0.7818609E-02  0.9206178E-01
       -3   -1    0    0    0  501  0.00000000000E+00  0.00000000000E+00  0.72848157681E+03  0.72848158381E+03  0.10100000352E+00 0. -1.
        3   -1    0    0  501    0  0.00000000000E+00  0.00000000000E+00 -0.41448448963E+03  0.41448450193E+03  0.10100000352E+00 0.  1.
    10030    2    1    2    0    0  0.00000000000E+00  0.00000000000E+00  0.31399708718E+03  0.11429660857E+04  0.10989892185E+04 0.  0.
        2    1    3    3  502    0 -0.36397633735E+03 -0.41082267985E+03  0.18432300854E+03  0.57898965441E+03  0.25500000920E-02 0. -1.
       -2    1    3    3    0  502  0.36397633735E+03  0.41082267985E+03  0.12967407864E+03  0.56397643134E+03  0.25500000920E-02 0.  1.
</event>
<event>
 5   0  0.4504740E-03  0.1131352E+04  0.7818609E-02  0.9175162E-01
        1   -1    0    0  501    0  0.00000000000E+00  0.00000000000E+00  0.87253565183E+03  0.87253565185E+03  0.50400001928E-02 0. -1.
       -1   -1    0    0    0  501  0.00000000000E+00  0.00000000000E+00 -0.36673485337E+03  0.36673485341E+03  0.50400001928E-02 0.  1.
    10030    2    1    2    0    0  0.00000000000E+00  0.00000000000E+00  0.50580079846E+03  0.12392705053E+04  0.11313518186E+04 0.  0.
        5    1    3    3  502    0  0.30424407348E+03 -0.60264621623E+01 -0.26941345824E+03  0.40645599512E+03  0.46999998093E+01 0.  1.
       -5    1    3    3    0  502 -0.30424407348E+03  0.60264621623E+01  0.77521425670E+03  0.83281451013E+03  0.46999998093E+01 0. -1.
</event>
<event>
 5   0  0.7952121E-03  0.1062998E+04  0.7818609E-02  0.9242027E-01
       -2   -1    0    0    0  501  0.00000000000E+00  0.00000000000E+00  0.20419777109E+03  0.20419777111E+03  0.25500000920E-02 0. -1.
        2   -1    0    0  501    0  0.00000000000E+00  0.00000000000E+00 -0.13834189019E+04  0.13834189019E+04  0.25500000920E-02 0.  1.
    10030    2    1    2    0    0  0.00000000000E+00  0.00000000000E+00 -0.11792211308E+04  0.15876166730E+04  0.10629977540E+04 0.  0.
        3    1    3    3  502    0 -0.89886573066E+02 -0.11589380633E+03  0.17337615749E+03  0.22709089050E+03  0.10100000352E+00 0. -1.
       -3    1    3    3    0  502  0.89886573066E+02  0.11589380633E+03 -0.13525972883E+04  0.13605257825E+04  0.10100000352E+00 0.  1.
</event>
<event>
 5   0  0.2992375E-03  0.1117349E+04  0.7818609E-02  0.9188445E-01
        3   -1    0    0  501    0  0.00000000000E+00  0.00000000000E+00  0.60015136130E+03  0.60015136980E+03  0.10100000352E+00 0. -1.
       -3   -1    0    0    0  501  0.00000000000E+00  0.00000000000E+00 -0.52006417457E+03  0.52006418438E+03  0.10100000352E+00 0.  1.
    10030    2    1    2    0    0  0.00000000000E+00  0.00000000000E+00  0.80087186726E+02  0.11202155542E+04  0.11173490638E+04 0.  0.
        4    1    3    3  502    0 -0.55568478042E+03  0.19716018463E+02 -0.14329506980E+02  0.55622049966E+03  0.12699999809E+01 0. -1.
       -4    1    3    3    0  502  0.55568478042E+03 -0.19716018463E+02  0.94416693706E+02  0.56399505452E+03  0.12699999809E+01 0.  1.
</event>
<event>
 5   0  0.7712816E-03  0.1113763E+04  0.7818609E-02  0.9191880E-01
        2   -1    0    0  501    0  0.00000000000E+00  0.00000000000E+00  0.16614674637E+04  0.16614674637E+04  0.25500000920E-02 0. -1.
       -2   -1    0    0    0  501  0.00000000000E+00  0.00000000000E+00 -0.18665251047E+03  0.18665251049E+03  0.25500000920E-02 0.  1.
    10030    2    1    2    0    0  0.00000000000E+00  0.00000000000E+00  0.14748149532E+04  0.18481199741E+04  0.11137631223E+04 0.  0.
        2    1    3    3  502    0  0.56390129727E+02 -0.46049791922E+03  0.22628835238E+03  0.51618271839E+03  0.25500000920E-02 0.  1.
       -2    1    3    3    0  502 -0.56390129727E+02  0.46049791922E+03  0.12485266008E+04  0.13319372558E+04  0.25500000920E-02 0. -1.
</event>
<event>
 5   0  0.7537480E-03  0.1143197E+04  0.7818609E-02  0.9164083E-01
       -2   -1    0    0    0  501  0.00000000000E+00  0.00000000000E+00  0.14465354487E+04  0.14465354487E+04  0.25500000920E-02 0.  1.
        2   -1    0    0  501    0  0.00000000000E+00  0.00000000000E+00 -0.22586717448E+03  0.22586717449E+03  0.25500000920E-02 0. -1.
    10030    2    1    2    0    0  0.00000000000E+00  0.00000000000E+00  0.12206682742E+04  0.16724026232E+04  0.11431970514E+04 0.  0.
        1    1    3    3  502    0  0.31938771187E+03  0.76444331734E+02  0.12947427574E+04  0.13357436334E+04  0.50400001928E-02 0.  1.
       -1    1    3    3    0  502 -0.31938771187E+03 -0.76444331734E+02 -0.74074483130E+02  0.33665898982E+03  0.50400001928E-02 0. -1.
</event>
<event>
 5   0  0.4641021E-03  0.1086830E+04  0.7818609E-02  0.9218124E-01
       -1   -1    0    0    0  501  0.00000000000E+00  0.00000000000E+00  0.68877991052E+03  0.68877991053E+03  0.50400001928E-02 0.  1.
        1   -1    0    0  501    0  0.00000000000E+00  0.00000000000E+00 -0.42872863099E+03  0.42872863102E+03  0.50400001928E-02 0. -1.
    10030    2    1    2    0    0  0.00000000000E+00  0.00000000000E+00  0.26005127953E+03  0.11175085416E+04  0.10868296428E+04 0.  0.
        1    1    3    3  502    0  0.15561204885E+03 -0.19700158705E+03 -0.36552786041E+03  0.44343584859E+03  0.50400001928E-02 0. -1.
       -1    1    3    3    0  502 -0.15561204885E+03  0.19700158705E+03  0.62557913994E+03  0.67407269297E+03  0.50400001928E-02 0.  1.
</event>
<event>
 5   0  0.7738497E-03  0.1094628E+04  0.7818609E-02  0.9210443E-01
       -2   -1    0    0    0  501  0.00000000000E+00  0.00000000000E+00  0.24409738852E+03  0.24409738854E+03  0.25500000920E-02 0.  1.
        2   -1    0    0  501    0  0.00000000000E+00  0.00000000000E+00 -0.12271852004E+04  0.12271852004E+04  0.25500000920E-02 0. -1.
    10030    2    1    2    0    0  0.00000000000E+00  0.00000000000E+00 -0.98308781183E+03  0.14712825889E+04  0.10946281609E+04 0.  0.
        4    1    3    3  502    0  0.53624258114E+03 -0.67911344454E+02 -0.60703457308E+03  0.81281033602E+03  0.12699999809E+01 0. -1.
       -4    1    3    3    0  502 -0.53624258114E+03  0.67911344454E+02 -0.37605323875E+03  0.65847225287E+03  0.12699999809E+01 0.  1.
</event>
<event>
 5   0  0.7738497E-03  0.1114466E+04  0.7818609E-02  0.9191206E-01
       -2   -1    0    0    0  501  0.00000000000E+00  0.00000000000E+00  0.37889113736E+03  0.37889113737E+03  0.25500000920E-02 0.  1.
        2   -1    0    0  501    0  0.00000000000E+00  0.00000000000E+00 -0.81951978277E+03  0.81951978277E+03  0.25500000920E-02 0. -1.
    10030    2    1    2    0    0  0.00000000000E+00  0.00000000000E+00 -0.44062864541E+03  0.11984109201E+04  0.11144662984E+04 0.  0.
        4    1    3    3  502    0 -0.20790502337E+03 -0.41637433811E+03  0.10922442556E+03  0.47804150052E+03  0.12699999809E+01 0.  1.
       -4    1    3    3    0  502  0.20790502337E+03  0.41637433811E+03 -0.54985307096E+03  0.72036941962E+03  0.12699999809E+01 0. -1.
</event>
<event>
 5   0  0.7766551E-03  0.9209127E+03  0.7818609E-02  0.9399811E-01
        2   -1    0    0  501    0  0.00000000000E+00  0.00000000000E+00  0.69123511839E+03  0.69123511839E+03  0.25500000920E-02 0. -1.
       -2   -1    0    0    0  501  0.00000000000E+00  0.00000000000E+00 -0.30672635491E+03  0.30672635492E+03  0.25500000920E-02 0.  1.
    10030    2    1    2    0    0  0.00000000000E+00  0.00000000000E+00  0.38450876348E+03  0.99796147332E+03  0.92091265223E+03 0.  0.
        5    1    3    3  502    0  0.22792759885E+03 -0.38476432546E+03  0.31098064085E+03  0.54472527520E+03  0.46999998093E+01 0. -1.
       -5    1    3    3    0  502 -0.22792759885E+03  0.38476432546E+03  0.73528122629E+02  0.45323619811E+03  0.46999998093E+01 0.  1.
</event>
<event>
 5   0  0.4428114E-03  0.1068841E+04  0.7818609E-02  0.9236105E-01
       -1   -1    0    0    0  501  0.00000000000E+00  0.00000000000E+00  0.32859891021E+03  0.32859891025E+03  0.50400001928E-02 0.  1.
        1   -1    0    0  501    0  0.00000000000E+00  0.00000000000E+00 -0.86916057258E+03  0.86916057260E+03  0.50400001928E-02 0. -1.
    10030    2    1    2    0    0  0.00000000000E+00  0.00000000000E+00 -0.54056166237E+03  0.11977594828E+04  0.10688408993E+04 0.  0.
        4    1    3    3  502    0 -0.14889430857E+03 -0.47459917960E+03 -0.51288089268E+02  0.50004597529E+03  0.12699999809E+01 0.  1.
       -4    1    3    3    0  502  0.14889430857E+03  0.47459917960E+03 -0.48927357310E+03  0.69771350756E+03  0.12699999809E+01 0. -1.
</event>
<event>
 5   0  0.4598561E-03  0.1097342E+04  0.7818609E-02  0.9207786E-01
       -1   -1    0    0    0  501  0.00000000000E+00  0.00000000000E+00  0.69424049770E+03  0.69424049772E+03  0.50400001928E-02 0.  1.
        1   -1    0    0  501    0  0.00000000000E+00  0.00000000000E+00 -0.43362513400E+03  0.43362513403E+03  0.50400001928E-02 0. -1.
    10030    2    1    2    0    0  0.00000000000E+00  0.00000000000E+00  0.26061536370E+03  0.11278656318E+04  0.10973424787E+04 0.  0.
        2    1    3    3  502    0  0.50829697404E+03 -0.17807807164E+03  0.22693308494E+02  0.53906641490E+03  0.25500000920E-02 0.  1.
       -2    1    3    3    0  502 -0.50829697404E+03  0.17807807164E+03  0.23792205521E+03  0.58879921686E+03  0.25500000920E-02 0. -1.
</event>
<event>
 5   0  0.7952121E-03  0.1130077E+04  0.7818609E-02  0.9176363E-01
        2   -1    0    0  501    0  0.00000000000E+00  0.00000000000E+00  0.85512214075E+03  0.85512214075E+03  0.25500000920E-02 0.  1.
       -2   -1    0    0    0  501  0.00000000000E+00  0.00000000000E+00 -0.37336000055E+03  0.37336000056E+03  0.25500000920E-02 0. -1.
    10030    2    1    2    0    0  0.00000000000E+00  0.00000000000E+00  0.48176214020E+03  0.12284821413E+04  0.11300768168E+04 0.  0.
        3    1    3    3  502    0 -0.33383729380E+03 -0.27451585836E+03 -0.15476485376E+03  0.45908437719E+03  0.10100000352E+00 0. -1.
       -3    1    3    3    0  502  0.33383729380E+03  0.27451585836E+03  0.63652699395E+03  0.76939776413E+03  0.10100000352E+00 0.  1.
</event>
<event>
 5   0  0.7738497E-03  0.1109445E+04  0.7818609E-02  0.9196034E-01
        2   -1    0    0  501    0  0.00000000000E+00  0.00000000000E+00  0.12492787337E+04  0.12492787337E+04  0.25500000920E-02 0.  1.
       -2   -1    0    0    0  501  0.00000000000E+00  0.00000000000E+00 -0.24631595485E+03  0.24631595486E+03  0.25500000920E-02 0. -1.
    10030    2    1    2    0    0  0.00000000000E+00  0.00000000000E+00  0.10029627788E+04  0.14955946885E+04  0.11094454185E+04 0.  0.
        4    1    3    3  502    0 -0.21132347113E+03  0.48465916899E+03  0.27525061371E+03  0.59608441750E+03  0.12699999809E+01 0. -1.
       -4    1    3    3    0  502  0.21132347113E+03 -0.48465916899E+03  0.72771216511E+03  0.89951027103E+03  0.12699999809E+01 0.  1.
</event>
<event>
 5   0  0.7738497E-03  0.1179669E+04  0.7818609E-02  0.9130840E-01
        2   -1    0    0  501    0  0.00000000000E+00  0.00000000000E+00  0.12430883423E+04  0.12430883423E+04  0.25500000920E-02 0.  1.
       -2   -1    0    0    0  501  0.00000000000E+00  0.00000000000E+00 -0.27987151782E+03  0.27987151783E+03  0.25500000920E-02 0. -1.
    10030    2    1    2    0    0  0.00000000000E+00  0.00000000000E+00  0.96321682449E+03  0.15229598601E+04  0.11796694811E+04 0.  0.
        4    1    3    3  502    0 -0.19369953945E+03 -0.15487024166E+03  0.11725064212E+04  0.11984478395E+04  0.12699999809E+01 0.  1.
       -4    1    3    3    0  502  0.19369953945E+03  0.15487024166E+03 -0.20928959673E+03  0.32451202063E+03  0.12699999809E+01 0. -1.
</event>
<event>
 5   0  0.4298101E-03  0.8223219E+03  0.7818609E-02  0.9528257E-01
       -1   -1    0    0    0  501  0.00000000000E+00  0.00000000000E+00  0.13047482048E+04  0.13047482049E+04  0.50400001928E-02 0.  1.
        1   -1    0    0  501    0  0.00000000000E+00  0.00000000000E+00 -0.12956778114E+03  0.12956778124E+03  0.50400001928E-02 0. -1.
    10030    2    1    2    0    0  0.00000000000E+00  0.00000000000E+00  0.11751804237E+04  0.14343159861E+04  0.82232190760E+03 0.  0.
        3    1    3    3  502    0 -0.24006404940E+03 -0.28822435896E+03  0.29391041038E+03  0.47653684899E+03  0.10100000352E+00 0. -1.
       -3    1    3    3    0  502  0.24006404940E+03  0.28822435896E+03  0.88127001331E+03  0.95777913711E+03  0.10100000352E+00 0.  1.
</event>
<event>
 5   0  0.4641021E-03  0.1156971E+04  0.7818609E-02  0.9151376E-01
       -1   -1    0    0    0  501  0.00000000000E+00  0.00000000000E+00  0.42821754925E+03  0.42821754928E+03  0.50400001928E-02 0.  1.
        1   -1    0    0  501    0  0.00000000000E+00  0.00000000000E+00 -0.78148493824E+03  0.78148493826E+03  0.50400001928E-02 0. -1.
    10030    2    1    2    0    0  0.00000000000E+00  0.00000000000E+00 -0.35326738899E+03  0.12097024875E+04  0.11569711579E+04 0.  0.
        1    1    3    3  502    0 -0.19688316606E+03  0.49777081954E+03 -0.40596284057E+03  0.67182184976E+03  0.50400001928E-02 0. -1.
       -1    1    3    3    0  502  0.19688316606E+03 -0.49777081954E+03  0.52695451576E+02  0.53788063779E+03  0.50400001928E-02 0.  1.
</event>
<event>
 5   0  0.4598561E-03  0.1027345E+04  0.7818609E-02  0.9279052E-01
       -1   -1    0    0    0  501  0.00000000000E+00  0.00000000000E+00  0.33782409105E+03  0.33782409109E+03  0.50400001928E-02 0.  1.
        1   -1    0    0  501    0  0.00000000000E+00  0.00000000000E+00 -0.78105538862E+03  0.78105538863E+03  0.50400001928E-02 0. -1.
    10030    2    1    2    0    0  0.00000000000E+00  0.00000000000E+00 -0.44323129757E+03  0.11188794797E+04  0.10273447849E+04 0.  0.
        2    1    3    3  502    0  0.14017100721E+03 -0.30472844685E+03 -0.64531827399E+03  0.72728468452E+03  0.25500000920E-02 0. -1.
       -2    1    3    3    0  502 -0.14017100721E+03  0.30472844685E+03  0.20208697643E+03  0.39159479520E+03  0.25500000920E-02 0.  1.
</event>
<event>
 5   0  0.7537480E-03  0.1089285E+04  0.7818609E-02  0.9215699E-01
        2   -1    0    0  501    0  0.00000000000E+00  0.00000000000E+00  0.38223438773E+03  0.38223438774E+03  0.25500000920E-02 0. -1.
       -2   -1    0    0    0  501  0.00000000000E+00  0.00000000000E+00 -0.77605651144E+03  0.77605651145E+03  0.25500000920E-02 0.  1.
    10030    2    1    2    0    0  0.00000000000E+00  0.00000000000E+00 -0.39382212372E+03  0.11582908992E+04  0.10892850600E+04 0.  0.
        1    1    3    3  502    0 -0.45934670807E+03 -0.21984767928E+03  0.84643620650E+01  0.50931723488E+03  0.50400001928E-02 0. -1.
       -1    1    3    3    0  502  0.45934670807E+03  0.21984767928E+03 -0.40228648578E+03  0.64897366431E+03  0.50400001928E-02 0.  1.
</event>
<event>
 5   0  0.7738497E-03  0.1130174E+04  0.7818609E-02  0.9176271E-01
        2   -1    0    0  501    0  0.00000000000E+00  0.00000000000E+00  0.46203004129E+03  0.46203004129E+03  0.25500000920E-02 0.  1.
       -2   -1    0    0    0  501  0.00000000000E+00  0.00000000000E+00 -0.69113117997E+03  0.69113117997E+03  0.25500000920E-02 0. -1.
    10030    2    1    2    0    0  0.00000000000E+00  0.00000000000E+00 -0.22910113868E+03  0.11531612213E+04  0.11301740886E+04 0.  0.
        4    1    3    3  502    0  0.20019083619E+03  0.52679792828E+03 -0.15698156210E+03  0.58501047159E+03  0.12699999809E+01 0.  1.
       -4    1    3    3    0  502 -0.20019083619E+03 -0.52679792828E+03 -0.72119576580E+02  0.56815074968E+03  0.12699999809E+01 0. -1.
</event>
<event>
 5   0  0.4504740E-03  0.1144067E+04  0.7818609E-02  0.9163275E-01
       -1   -1    0    0    0  501  0.00000000000E+00  0.00000000000E+00  0.64580193563E+03  0.64580193565E+03  0.50400001928E-02 0.  1.
        1   -1    0    0  501    0  0.00000000000E+00  0.00000000000E+00 -0.50669137201E+03  0.50669137203E+03  0.50400001928E-02 0. -1.
    10030    2    1    2    0    0  0.00000000000E+00  0.00000000000E+00  0.13911056362E+03  0.11524933077E+04  0.11440669016E+04 0.  0.
        5    1    3    3  502    0  0.22825406803E+03  0.23374673376E+03 -0.40343756744E+03  0.51915452028E+03  0.46999998093E+01 0. -1.
       -5    1    3    3    0  502 -0.22825406803E+03 -0.23374673376E+03  0.54254813106E+03  0.63333878740E+03  0.46999998093E+01 0.  1.
</event>
<event>
 5   0  0.7537480E-03  0.1348168E+04  0.7818609E-02  0.8992216E-01
        2   -1    0    0  501    0  0.00000000000E+00  0.00000000000E+00  0.19382553743E+04  0.19382553743E+04  0.25500000920E-02 0. -1.
       -2   -1    0    0    0  501  0.00000000000E+00  0.00000000000E+00 -0.23443222068E+03  0.23443222069E+03  0.25500000920E-02 0.  1.
    10030    2    1    2    0    0  0.00000000000E+00  0.00000000000E+00  0.17038231536E+04  0.21726875950E+04  0.13481684044E+04 0.  0.
        1    1    3    3  502    0  0.37408619972E+03  0.55253072242E+03  0.69768007706E+03  0.96539534595E+03  0.50400001928E-02 0. -1.
       -1    1    3    3    0  502 -0.37408619972E+03 -0.55253072242E+03  0.10061430765E+04  0.12072922490E+04  0.50400001928E-02 0.  1.
</event>
<event>
 5   0  0.4298101E-03  0.1071088E+04  0.7818609E-02  0.9233839E-01
       -1   -1    0    0    0  501  0.00000000000E+00  0.00000000000E+00  0.69454097162E+03  0.69454097164E+03  0.50400001928E-02 0. -1.
        1   -1    0    0  501    0  0.00000000000E+00  0.00000000000E+00 -0.41294519214E+03  0.41294519217E+03  0.50400001928E-02 0.  1.
    10030    2    1    2    0    0  0.00000000000E+00  0.00000000000E+00  0.28159577948E+03  0.11074861638E+04  0.10710879609E+04 0.  0.
        3    1    3    3  502    0 -0.21124835983E+03 -0.39522589039E+03 -0.16238645122E+03  0.47665369369E+03  0.10100000352E+00 0.  1.
       -3    1    3    3    0  502  0.21124835983E+03  0.39522589039E+03  0.44398223071E+03  0.63083247011E+03  0.10100000352E+00 0. -1.
</event>
<event>
 5   0  0.4504740E-03  0.1092435E+04  0.7818609E-02  0.9212597E-01
        1   -1    0    0  501    0  0.00000000000E+00  0.00000000000E+00  0.10288451313E+04  0.10288451313E+04  0.50400001928E-02 0. -1.
       -1   -1    0    0    0  501  0.00000000000E+00  0.00000000000E+00 -0.28998868342E+03  0.28998868346E+03  0.50400001928E-02 0.  1.
    10030    2    1    2    0    0  0.00000000000E+00  0.00000000000E+00  0.73885644792E+03  0.13188338148E+04  0.10924347946E+04 0.  0.
        5    1    3    3  502    0  0.33107038362E+03  0.20591844295E+03 -0.92365898395E+02  0.40070382234E+03  0.46999998093E+01 0.  1.
       -5    1    3    3    0  502 -0.33107038362E+03 -0.20591844295E+03  0.83122234632E+03  0.91812999247E+03  0.46999998093E+01 0. -1.
</event>
<event>
 5   0  0.4504740E-03  0.1097296E+04  0.7818609E-02  0.9207832E-01
       -1   -1    0    0    0  501  0.00000000000E+00  0.00000000000E+00  0.26925556491E+03  0.26925556496E+03  0.50400001928E-02 0. -1.
        1   -1    0    0  501    0  0.00000000000E+00  0.00000000000E+00 -0.11179504048E+04  0.11179504048E+04  0.50400001928E-02 0.  1.
    10030    2    1    2    0    0  0.00000000000E+00  0.00000000000E+00 -0.84869483988E+03  0.13872059697E+04  0.10972955260E+04 0.  0.
        5    1    3    3  502    0  0.51807889120E+03  0.17831259024E+03 -0.45990642761E+03  0.71535804287E+03  0.46999998093E+01 0. -1.
       -5    1    3    3    0  502 -0.51807889120E+03 -0.17831259024E+03 -0.38878841227E+03  0.67184792688E+03  0.46999998093E+01 0.  1.
</event>
<event>
 5   0  0.7766551E-03  0.1106452E+04  0.7818609E-02  0.9198926E-01
        2   -1    0    0  501    0  0.00000000000E+00  0.00000000000E+00  0.11488945015E+04  0.11488945015E+04  0.25500000920E-02 0.  1.
       -2   -1    0    0    0  501  0.00000000000E+00  0.00000000000E+00 -0.26639423190E+03  0.26639423191E+03  0.25500000920E-02 0. -1.
    10030    2    1    2    0    0  0.00000000000E+00  0.00000000000E+00  0.88250026963E+03  0.14152887334E+04  0.11064517491E+04 0.  0.
        5    1    3    3  502    0 -0.24912194235E+03 -0.20960583252E+03  0.10133494931E+04  0.10643757008E+04  0.46999998093E+01 0.  1.
       -5    1    3    3    0  502  0.24912194235E+03  0.20960583252E+03 -0.13084922351E+03  0.35091303265E+03  0.46999998093E+01 0. -1.
</event>
<event>
 5   0  0.7766551E-03  0.1099594E+04  0.7818609E-02  0.9205588E-01
        2   -1    0    0  501    0  0.00000000000E+00  0.00000000000E+00  0.19181628998E+04  0.19181628998E+04  0.25500000920E-02 0. -1.
       -2   -1    0    0    0  501  0.00000000000E+00  0.00000000000E+00 -0.15758652413E+03  0.15758652415E+03  0.25500000920E-02 0.  1.
    10030    2    1    2    0    0  0.00000000000E+00  0.00000000000E+00  0.17605763757E+04  0.20757494239E+04  0.10995937870E+04 0.  0.
        5    1    3    3  502    0 -0.32053285079E+03 -0.68603798577E+02  0.17134793279E+04  0.17445576192E+04  0.46999998093E+01 0. -1.
       -5    1    3    3    0  502  0.32053285079E+03  0.68603798577E+02  0.47097047762E+02  0.33119180473E+03  0.46999998093E+01 0.  1.
</event>
<event>
 5   0  0.7738497E-03  0.1095133E+04  0.7818609E-02  0.9209949E-01
       -2   -1    0    0    0  501  0.00000000000E+00  0.00000000000E+00  0.12644434399E+03  0.12644434401E+03  0.25500000920E-02 0.  1.
        2   -1    0    0  501    0  0.00000000000E+00  0.00000000000E+00 -0.23712318913E+04  0.23712318913E+04  0.25500000920E-02 0. -1.
    10030    2    1    2    0    0  0.00000000000E+00  0.00000000000E+00 -0.22447875473E+04  0.24976762354E+04  0.10951326148E+04 0.  0.
        4    1    3    3  502    0  0.44077639346E+03 -0.27518053545E+03 -0.15162308835E+04  0.16027993827E+04  0.12699999809E+01 0. -1.
       -4    1    3    3    0  502 -0.44077639346E+03  0.27518053545E+03 -0.72855666385E+03  0.89487685268E+03  0.12699999809E+01 0.  1.
</event>
<event>
 5   0  0.4641021E-03  0.1096000E+04  0.7818609E-02  0.9209099E-01
       -1   -1    0    0    0  501  0.00000000000E+00  0.00000000000E+00  0.27420926177E+03  0.27420926182E+03  0.50400001928E-02 0. -1.
        1   -1    0    0  501    0  0.00000000000E+00  0.00000000000E+00 -0.10951645686E+04  0.10951645686E+04  0.50400001928E-02 0.  1.
    10030    2    1    2    0    0  0.00000000000E+00  0.00000000000E+00 -0.82095530682E+03  0.13693738304E+04  0.10960004889E+04 0.  0.
        1    1    3    3  502    0  0.39335975356E+03  0.33249743708E+03 -0.64428377048E+03  0.82485636223E+03  0.50400001928E-02 0.  1.
       -1    1    3    3    0  502 -0.39335975356E+03 -0.33249743708E+03 -0.17667153634E+03  0.54451746819E+03  0.50400001928E-02 0. -1.
</event>
<event>
 5   0  0.7766551E-03  0.1082250E+04  0.7818609E-02  0.9222667E-01
       -2   -1    0    0    0  501  0.00000000000E+00  0.00000000000E+00  0.29252218718E+03  0.29252218719E+03  0.25500000920E-02 0. -1.
        2   -1    0    0  501    0  0.00000000000E+00  0.00000000000E+00 -0.10010045173E+04  0.10010045173E+04  0.25500000920E-02 0.  1.
    10030    2    1    2    0    0  0.00000000000E+00  0.00000000000E+00 -0.70848233013E+03  0.12935267045E+04  0.10822495660E+04 0.  0.
        5    1    3    3  502    0  0.19281397297E+03 -0.36906065830E+03  0.58777846405E+02  0.42054717084E+03  0.46999998093E+01 0. -1.
       -5    1    3    3    0  502 -0.19281397297E+03  0.36906065830E+03 -0.76726017653E+03  0.87297953365E+03  0.46999998093E+01 0.  1.
</event>
<event>
 5   0  0.4504740E-03  0.1116640E+04  0.7818609E-02  0.9189124E-01
        1   -1    0    0  501    0  0.00000000000E+00  0.00000000000E+00  0.34110251778E+03  0.34110251781E+03  0.50400001928E-02 0. -1.
       -1   -1    0    0    0  501  0.00000000000E+00  0.00000000000E+00 -0.91386356808E+03  0.91386356809E+03  0.50400001928E-02 0.  1.
    10030    2    1    2    0    0  0.00000000000E+00  0.00000000000E+00 -0.57276105030E+03  0.12549660859E+04  0.11166398954E+04 0.  0.
        5    1    3    3  502    0 -0.50773575920E+03 -0.20282472110E+03 -0.41336176297E+03  0.68543672629E+03  0.46999998093E+01 0.  1.
       -5    1    3    3    0  502  0.50773575920E+03  0.20282472110E+03 -0.15939928733E+03  0.56952935962E+03  0.46999998093E+01 0. -1.
</event>
<event>
 5   0  0.7952121E-03  0.1078395E+04  0.7818609E-02  0.9226509E-01
       -2   -1    0    0    0  501  0.00000000000E+00  0.00000000000E+00  0.25290462262E+03  0.25290462263E+03  0.25500000920E-02 0. -1.
        2   -1    0    0  501    0  0.00000000000E+00  0.00000000000E+00 -0.11495796163E+04  0.11495796163E+04  0.25500000920E-02 0.  1.
    10030    2    1    2    0    0  0.00000000000E+00  0.00000000000E+00 -0.89667499363E+03  0.14024842389E+04  0.10783951020E+04 0.  0.
        3    1    3    3  502    0 -0.45356488221E+03 -0.23345887284E+03 -0.22117320989E+03  0.55600516783E+03  0.10100000352E+00 0. -1.
       -3    1    3    3    0  502  0.45356488221E+03  0.23345887284E+03 -0.67550178375E+03  0.84647907105E+03  0.10100000352E+00 0.  1.
</event>
<event>
 5   0  0.7766551E-03  0.1092889E+04  0.7818609E-02  0.9212151E-01
       -2   -1    0    0    0  501  0.00000000000E+00  0.00000000000E+00  0.59048900227E+03  0.59048900227E+03  0.25500000920E-02 0. -1.
        2   -1    0    0  501    0  0.00000000000E+00  0.00000000000E+00 -0.50568495411E+03  0.50568495411E+03  0.25500000920E-02 0.  1.
    10030    2    1    2    0    0  0.00000000000E+00  0.00000000000E+00  0.84804048161E+02  0.10961739564E+04  0.10928886568E+04 0.  0.
        5    1    3    3  502    0  0.20072606983E+03  0.50392968112E+03  0.10850336131E+03  0.55320082071E+03  0.46999998093E+01 0. -1.
       -5    1    3    3    0  502 -0.20072606983E+03 -0.50392968112E+03 -0.23699313145E+02  0.54297313567E+03  0.46999998093E+01 0.  1.
</event>
<event>
 5   0  0.4428114E-03  0.1019803E+04  0.7818609E-02  0.9287088E-01
        1   -1    0    0  501    0  0.00000000000E+00  0.00000000000E+00  0.60285628947E+03  0.60285628949E+03  0.50400001928E-02 0. -1.
       -1   -1    0    0    0  501  0.00000000000E+00  0.00000000000E+00 -0.43127938201E+03  0.43127938204E+03  0.50400001928E-02 0.  1.
    10030    2    1    2    0    0  0.00000000000E+00  0.00000000000E+00  0.17157690746E+03  0.10341356715E+04  0.10198028986E+04 0.  0.
        4    1    3    3  502    0 -0.43387574754E+03 -0.15316886270E+03  0.30862449222E+03  0.55403930808E+03  0.12699999809E+01 0. -1.
       -4    1    3    3    0  502  0.43387574754E+03  0.15316886270E+03 -0.13704758476E+03  0.48009636344E+03  0.12699999809E+01 0.  1.
</event>
<event>
 5   0  0.7952121E-03  0.1122503E+04  0.7818609E-02  0.9183532E-01
       -2   -1    0    0    0  501  0.00000000000E+00  0.00000000000E+00  0.33380562354E+03  0.33380562355E+03  0.25500000920E-02 0.  1.
        2   -1    0    0  501    0  0.00000000000E+00  0.00000000000E+00 -0.94367344710E+03  0.94367344710E+03  0.25500000920E-02 0. -1.
    10030    2    1    2    0    0  0.00000000000E+00  0.00000000000E+00 -0.60986782356E+03  0.12774790707E+04  0.11225034582E+04 0.  0.
        3    1    3    3  502    0 -0.36707309800E+03  0.29049042920E+03  0.47454312063E+02  0.47050958616E+03  0.10100000352E+00 0.  1.
       -3    1    3    3    0  502  0.36707309800E+03 -0.29049042920E+03 -0.65732213562E+03  0.80696948450E+03  0.10100000352E+00 0. -1.
</event>
<event>
 5   0  0.7712816E-03  0.1101494E+04  0.7818609E-02  0.9203737E-01
       -2   -1    0    0    0  501  0.00000000000E+00  0.00000000000E+00  0.17529272703E+03  0.17529272705E+03  0.25500000920E-02 0.  1.
        2   -1    0    0  501    0  0.00000000000E+00  0.00000000000E+00 -0.17303747742E+04  0.17303747742E+04  0.25500000920E-02 0. -1.
    10030    2    1    2    0    0  0.00000000000E+00  0.00000000000E+00 -0.15550820472E+04  0.19056675013E+04  0.11014937366E+04 0.  0.
        2    1    3    3  502    0  0.22301623220E+03  0.23755933792E+03 -0.15457246852E+04  0.15796947431E+04  0.25500000920E-02 0. -1.
       -2    1    3    3    0  502 -0.22301623220E+03 -0.23755933792E+03 -0.93573619970E+01  0.32597275820E+03  0.25500000920E-02 0.  1.
</event>
<event>
 5   0  0.7738497E-03  0.1105728E+04  0.7818609E-02  0.9199627E-01
       -2   -1    0    0    0  501  0.00000000000E+00  0.00000000000E+00  0.12791283464E+03  0.12791283466E+03  0.25500000920E-02 0. -1.
        2   -1    0    0  501    0  0.00000000000E+00  0.00000000000E+00 -0.23895859657E+04  0.23895859657E+04  0.25500000920E-02 0.  1.
    10030    2    1    2    0    0  0.00000000000E+00  0.00000000000E+00 -0.22616731311E+04  0.25174988004E+04  0.11057282026E+04 0.  0.
        4    1    3    3  502    0 -0.18419848503E+03 -0.50986236633E+03 -0.88384657204E+03  0.10368582788E+04  0.12699999809E+01 0.  1.
       -4    1    3    3    0  502  0.18419848503E+03  0.50986236633E+03 -0.13778265590E+04  0.14806405216E+04  0.12699999809E+01 0. -1.
</event>
<event>
 5   0  0.7766551E-03  0.1050168E+04  0.7818609E-02  0.9255171E-01
       -2   -1    0    0    0  501  0.00000000000E+00  0.00000000000E+00  0.46605256974E+03  0.46605256975E+03  0.25500000920E-02 0.  1.
        2   -1    0    0  501    0  0.00000000000E+00  0.00000000000E+00 -0.59159199955E+03  0.59159199955E+03  0.25500000920E-02 0. -1.
    10030    2    1    2    0    0  0.00000000000E+00  0.00000000000E+00 -0.12553942981E+03  0.10576445693E+04  0.10501675516E+04 0.  0.
        5    1    3    3  502    0  0.35009549395E+03 -0.31460805488E+03 -0.29711894450E+03  0.55663887778E+03  0.46999998093E+01 0. -1.
       -5    1    3    3    0  502 -0.35009549395E+03  0.31460805488E+03  0.17157951469E+03  0.50100569152E+03  0.46999998093E+01 0.  1.
</event>
<event>
 5   0  0.7537480E-03  0.1127571E+04  0.7818609E-02  0.9178729E-01
        2   -1    0    0  501    0  0.00000000000E+00  0.00000000000E+00  0.20804111408E+04  0.20804111408E+04  0.25500000920E-02 0.  1.
       -2   -1    0    0    0  501  0.00000000000E+00  0.00000000000E+00 -0.15278415590E+03  0.15278415592E+03  0.25500000920E-02 0. -1.
    10030    2    1    2    0    0  0.00000000000E+00  0.00000000000E+00  0.19276269849E+04  0.22331952967E+04  0.11275705922E+04 0.  0.
        1    1    3    3  502    0 -0.44984484395E+03 -0.28856782299E+03  0.13193300266E+04  0.14234688234E+04  0.50400001928E-02 0.  1.
       -1    1    3    3    0  502  0.44984484395E+03  0.28856782299E+03  0.60829695829E+03  0.80972647331E+03  0.50400001928E-02 0. -1.
</event>
<event>
 5   0  0.7537480E-03  0.1107328E+04  0.7818609E-02  0.9198078E-01
        2   -1    0    0  501    0  0.00000000000E+00  0.00000000000E+00  0.35095476618E+03  0.35095476619E+03  0.25500000920E-02 0. -1.
       -2   -1    0    0    0  501  0.00000000000E+00  0.00000000000E+00 -0.87345753220E+03  0.87345753220E+03  0.25500000920E-02 0.  1.
    10030    2    1    2    0    0  0.00000000000E+00  0.00000000000E+00 -0.52250276602E+03  0.12244122984E+04  0.11073284680E+04 0.  0.
        1    1    3    3  502    0  0.47202712661E+02  0.12580369006E+03  0.33265249734E+03  0.35876503248E+03  0.50400001928E-02 0. -1.
       -1    1    3    3    0  502 -0.47202712661E+02 -0.12580369006E+03 -0.85515526336E+03  0.86564726592E+03  0.50400001928E-02 0.  1.
</event>
<event>
 5   0  0.4641021E-03  0.1112776E+04  0.7818609E-02  0.9192828E-01
        1   -1    0    0  501    0  0.00000000000E+00  0.00000000000E+00  0.47176321222E+03  0.47176321225E+03  0.50400001928E-02 0. -1.
       -1   -1    0    0    0  501  0.00000000000E+00  0.00000000000E+00 -0.65619278291E+03  0.65619278293E+03  0.50400001928E-02 0.  1.
    10030    2    1    2    0    0  0.00000000000E+00  0.00000000000E+00 -0.18442957069E+03  0.11279559952E+04  0.11127760154E+04 0.  0.
        1    1    3    3  502    0  0.16869379004E+03  0.18321688416E+03 -0.59653745659E+03  0.64643867349E+03  0.50400001928E-02 0.  1.
       -1    1    3    3    0  502 -0.16869379004E+03 -0.18321688416E+03  0.41210788590E+03  0.48151732169E+03  0.50400001928E-02 0. -1.
</event>
<event>
 5   0  0.4598561E-03  0.1108501E+04  0.7818609E-02  0.9196946E-01
       -1   -1    0    0    0  501  0.00000000000E+00  0.00000000000E+00  0.48546322634E+03  0.48546322636E+03  0.50400001928E-02 0. -1.
        1   -1    0    0  501    0  0.00000000000E+00  0.00000000000E+00 -0.63278406060E+03  0.63278406062E+03  0.50400001928E-02 0.  1.
    10030    2    1    2    0    0  0.00000000000E+00  0.00000000000E+00 -0.14732083426E+03  0.11182472870E+04  0.11085005939E+04 0.  0.
        2    1    3    3  502    0  0.21707155800E+03 -0.34257231511E+02  0.43963543810E+03  0.49150069954E+03  0.25500000920E-02 0. -1.
       -2    1    3    3    0  502 -0.21707155800E+03  0.34257231511E+02 -0.58695627236E+03  0.62674658744E+03  0.25500000920E-02 0.  1.
</event>
<event>
 5   0  0.7537480E-03  0.1105770E+04  0.7818609E-02  0.9199587E-01
       -2   -1    0    0    0  501  0.00000000000E+00  0.00000000000E+00  0.20939194963E+03  0.20939194964E+03  0.25500000920E-02 0.  1.
        2   -1    0    0  501    0  0.00000000000E+00  0.00000000000E+00 -0.14598538135E+04  0.14598538135E+04  0.25500000920E-02 0. -1.
    10030    2    1    2    0    0  0.00000000000E+00  0.00000000000E+00 -0.12504618638E+04  0.16692457631E+04  0.11057696617E+04 0.  0.
        1    1    3    3  502    0  0.43816654782E+03  0.19427714705E+03 -0.10412508045E+04  0.11462708107E+04  0.50400001928E-02 0. -1.
       -1    1    3    3    0  502 -0.43816654782E+03 -0.19427714705E+03 -0.20921105932E+03  0.52297495242E+03  0.50400001928E-02 0.  1.
</event>
<event>
 5   0  0.4298101E-03  0.1099558E+04  0.7818609E-02  0.9205623E-01
        1   -1    0    0  501    0  0.00000000000E+00  0.00000000000E+00  0.39377596309E+03  0.39377596312E+03  0.50400001928E-02 0.  1.
       -1   -1    0    0    0  501  0.00000000000E+00  0.00000000000E+00 -0.76758611518E+03  0.76758611520E+03  0.50400001928E-02 0. -1.
    10030    2    1    2    0    0  0.00000000000E+00  0.00000000000E+00 -0.37381015210E+03  0.11613620783E+04  0.10995580235E+04 0.  0.
        3    1    3    3  502    0  0.51686382088E+03 -0.10640640826E+03 -0.34980242523E+03  0.63311316520E+03  0.10100000352E+00 0. -1.
       -3    1    3    3    0  502 -0.51686382088E+03  0.10640640826E+03 -0.24007726871E+02  0.52824891312E+03  0.10100000352E+00 0.  1.
</event>
<event>
 5   0  0.7766551E-03  0.1094562E+04  0.7818609E-02  0.9210508E-01
       -2   -1    0    0    0  501  0.00000000000E+00  0.00000000000E+00  0.25200900861E+03  0.25200900863E+03  0.25500000920E-02 0. -1.
        2   -1    0    0  501    0  0.00000000000E+00  0.00000000000E+00 -0.11885152016E+04  0.11885152016E+04  0.25500000920E-02 0.  1.
    10030    2    1    2    0    0  0.00000000000E+00  0.00000000000E+00 -0.93650619302E+03  0.14405242103E+04  0.10945620817E+04 0.  0.
        5    1    3    3  502    0 -0.13607154083E+02 -0.53694420380E+03 -0.60628540482E+03  0.80999895971E+03  0.46999998093E+01 0. -1.
       -5    1    3    3    0  502  0.13607154083E+02  0.53694420380E+03 -0.33022078820E+03  0.63052525056E+03  0.46999998093E+01 0.  1.
</event>
<event>
 5   0  0.4298101E-03  0.1104406E+04  0.7818609E-02  0.9200908E-01
        1   -1    0    0  501    0  0.00000000000E+00  0.00000000000E+00  0.58534798859E+03  0.58534798861E+03  0.50400001928E-02 0. -1.
       -1   -1    0    0    0  501  0.00000000000E+00  0.00000000000E+00 -0.52093520843E+03  0.52093520846E+03  0.50400001928E-02 0.  1.
    10030    2    1    2    0    0  0.00000000000E+00  0.00000000000E+00  0.64412780152E+02  0.11062831971E+04  0.11044064043E+04 0.  0.
        3    1    3    3  502    0  0.40824096145E+03  0.33143266788E+03 -0.13666262634E+03  0.54330928538E+03  0.10100000352E+00 0. -1.
       -3    1    3    3    0  502 -0.40824096145E+03 -0.33143266788E+03  0.20107540649E+03  0.56297391169E+03  0.10100000352E+00 0.  1.
</event>
<event>
 5   0  0.7712816E-03  0.1118701E+04  0.7818609E-02  0.9187154E-01
        2   -1    0    0  501    0  0.00000000000E+00  0.00000000000E+00  0.16287746445E+04  0.16287746445E+04  0.25500000920E-02 0. -1.
       -2   -1    0    0    0  501  0.00000000000E+00  0.00000000000E+00 -0.19209116511E+03  0.19209116513E+03  0.25500000920E-02 0.  1.
    10030    2    1    2    0    0  0.00000000000E+00  0.00000000000E+00  0.14366834794E+04  0.18208658096E+04  0.11187014243E+04 0.  0.
        2    1    3    3  502    0  0.17190898341E+03 -0.50984193872E+03  0.46945488432E+03  0.71405839360E+03  0.25500000920E-02 0.  1.
       -2    1    3    3    0  502 -0.17190898341E+03  0.50984193872E+03  0.96722859504E+03  0.11068074160E+04  0.25500000920E-02 0. -1.
</event>
<event>
 5   0  0.4428114E-03  0.1104451E+04  0.7818609E-02  0.9200865E-01
        1   -1    0    0  501    0  0.00000000000E+00  0.00000000000E+00  0.78879856867E+03  0.78879856869E+03  0.50400001928E-02 0.  1.
       -1   -1    0    0    0  501  0.00000000000E+00  0.00000000000E+00 -0.38660430341E+03  0.38660430345E+03  0.50400001928E-02 0. -1.
    10030    2    1    2    0    0  0.00000000000E+00  0.00000000000E+00  0.40219426526E+03  0.11754028721E+04  0.11044508521E+04 0.  0.
        4    1    3    3  502    0 -0.28404783826E+03 -0.47075575604E+03  0.25595621712E+03  0.60647288005E+03  0.12699999809E+01 0.  1.
       -4    1    3    3    0  502  0.28404783826E+03  0.47075575604E+03  0.14623804814E+03  0.56892999208E+03  0.12699999809E+01 0. -1.
</event>
<event>
 5   0  0.4504740E-03  0.1095599E+04  0.7818609E-02  0.9209492E-01
       -1   -1    0    0    0  501  0.00000000000E+00  0.00000000000E+00  0.23463475783E+03  0.23463475788E+03  0.50400001928E-02 0.  1.
        1   -1    0    0  501    0  0.00000000000E+00  0.00000000000E+00 -0.12789428776E+04  0.12789428776E+04  0.50400001928E-02 0. -1.
    10030    2    1    2    0    0  0.00000000000E+00  0.00000000000E+00 -0.10443081198E+04  0.15135776355E+04  0.10955992925E+04 0.  0.
        5    1    3    3  502    0  0.29550075001E+03 -0.38589851690E+03 -0.87116977420E+03  0.99759572176E+03  0.46999998093E+01 0. -1.
       -5    1    3    3    0  502 -0.29550075001E+03  0.38589851690E+03 -0.17313834560E+03  0.51598191375E+03  0.46999998093E+01 0.  1.
</event>
<event>
 5   0  0.4641021E-03  0.6872141E+03  0.7818609E-02  0.9739351E-01
        1   -1    0    0  501    0  0.00000000000E+00  0.00000000000E+00  0.13339020991E+04  0.13339020991E+04  0.50400001928E-02 0.  1.
       -1   -1    0    0    0  501  0.00000000000E+00  0.00000000000E+00 -0.88511600903E+02  0.88511601046E+02  0.50400001928E-02 0. -1.
    10030    2    1    2    0    0  0.00000000000E+00  0.00000000000E+00  0.12453904982E+04  0.14224137002E+04  0.68721411612E+03 0.  0.
        1    1    3    3  502    0  0.29512309097E+03 -0.11524456192E+03  0.89796548432E+03  0.95221896585E+03  0.50400001928E-02 0.  1.
       -1    1    3    3    0  502 -0.29512309097E+03  0.11524456192E+03  0.34742501391E+03  0.47019473433E+03  0.50400001928E-02 0. -1.
</event>
<event>
 5   0  0.4598561E-03  0.1099435E+04  0.7818609E-02  0.9205743E-01
       -1   -1    0    0    0  501  0.00000000000E+00  0.00000000000E+00  0.79058173913E+03  0.79058173915E+03  0.50400001928E-02 0.  1.
        1   -1    0    0  501    0  0.00000000000E+00  0.00000000000E+00 -0.38223659525E+03  0.38223659528E+03  0.50400001928E-02 0. -1.
    10030    2    1    2    0    0  0.00000000000E+00  0.00000000000E+00  0.40834514389E+03  0.11728183344E+04  0.10994348953E+04 0.  0.
        2    1    3    3  502    0  0.26025841729E+03  0.47111510675E+03  0.32346414275E+03  0.62794342040E+03  0.25500000920E-02 0.  1.
       -2    1    3    3    0  502 -0.26025841729E+03 -0.47111510675E+03  0.84881001134E+02  0.54487491403E+03  0.25500000920E-02 0. -1.
</event>
<event>
 5   0  0.7952121E-03  0.1099549E+04  0.7818609E-02  0.9205631E-01
        2   -1    0    0  501    0  0.00000000000E+00  0.00000000000E+00  0.11026267571E+04  0.11026267571E+04  0.25500000920E-02 0. -1.
       -2   -1    0    0    0  501  0.00000000000E+00  0.00000000000E+00 -0.27412008583E+03  0.27412008584E+03  0.25500000920E-02 0.  1.
    10030    2    1    2    0    0  0.00000000000E+00  0.00000000000E+00  0.82850667122E+03  0.13767468429E+04  0.10995492555E+04 0.  0.
        3    1    3    3  502    0  0.51938524663E+02  0.43526288119E+03  0.82971841775E+03  0.93839439952E+03  0.10100000352E+00 0. -1.
       -3    1    3    3    0  502 -0.51938524663E+02 -0.43526288119E+03 -0.12117465289E+01  0.43835244338E+03  0.10100000352E+00 0.  1.
</event>
<event>
 5   0  0.7537480E-03  0.1106497E+04  0.7818609E-02  0.9198882E-01
        2   -1    0    0  501    0  0.00000000000E+00  0.00000000000E+00  0.23767774998E+04  0.23767774998E+04  0.25500000920E-02 0.  1.
       -2   -1    0    0    0  501  0.00000000000E+00  0.00000000000E+00 -0.12878115459E+03  0.12878115461E+03  0.25500000920E-02 0. -1.
    10030    2    1    2    0    0  0.00000000000E+00  0.00000000000E+00  0.22479963452E+04  0.25055586544E+04  0.11064974481E+04 0.  0.
        1    1    3    3  502    0 -0.17481719194E+03  0.59645265878E+02 -0.56896324221E+02  0.19327648609E+03  0.50400001928E-02 0. -1.
       -1    1    3    3    0  502  0.17481719194E+03 -0.59645265878E+02  0.23048926694E+04  0.23122821683E+04  0.50400001928E-02 0.  1.
</event>
<event>
 5   0  0.4598561E-03  0.1119239E+04  0.7818609E-02  0.9186641E-01
       -1   -1    0    0    0  501  0.00000000000E+00  0.00000000000E+00  0.49199354043E+03  0.49199354045E+03  0.50400001928E-02 0.  1.
        1   -1    0    0  501    0  0.00000000000E+00  0.00000000000E+00 -0.63654042801E+03  0.63654042803E+03  0.50400001928E-02 0. -1.
    10030    2    1    2    0    0  0.00000000000E+00  0.00000000000E+00 -0.14454688758E+03  0.11285339685E+04  0.11192386320E+04 0.  0.
        2    1    3    3  502    0  0.38727633012E+02 -0.19009468866E+03 -0.60155000515E+03  0.63205872268E+03  0.25500000920E-02 0. -1.
       -2    1    3    3    0  502 -0.38727633012E+02  0.19009468866E+03  0.45700311757E+03  0.49647524580E+03  0.25500000920E-02 0.  1.
</event>
<event>
 5   0  0.4428114E-03  0.1078331E+04  0.7818609E-02  0.9226573E-01
        1   -1    0    0  501    0  0.00000000000E+00  0.00000000000E+00  0.35657491969E+03  0.35657491972E+03  0.50400001928E-02 0.  1.
       -1   -1    0    0    0  501  0.00000000000E+00  0.00000000000E+00 -0.81525525015E+03  0.81525525017E+03  0.50400001928E-02 0. -1.
    10030    2    1    2    0    0  0.00000000000E+00  0.00000000000E+00 -0.45868033046E+03  0.11718301699E+04  0.10783312578E+04 0.  0.
        4    1    3    3  502    0  0.18415350393E+03  0.47583623847E+03 -0.39974412820E+02  0.51179312758E+03  0.12699999809E+01 0.  1.
       -4    1    3    3    0  502 -0.18415350393E+03 -0.47583623847E+03 -0.41870591764E+03  0.66003704231E+03  0.12699999809E+01 0. -1.
</event>
<event>
 5   0  0.4298101E-03  0.1112654E+04  0.7818609E-02  0.9192945E-01
       -1   -1    0    0    0  501  0.00000000000E+00  0.00000000000E+00  0.41369315971E+03  0.41369315974E+03  0.50400001928E-02 0. -1.
        1   -1    0    0  501    0  0.00000000000E+00  0.00000000000E+00 -0.74813886062E+03  0.74813886064E+03  0.50400001928E-02 0.  1.
    10030    2    1    2    0    0  0.00000000000E+00  0.00000000000E+00 -0.33444570091E+03  0.11618320204E+04  0.11126543564E+04 0.  0.
        3    1    3    3  502    0  0.43331888327E+03  0.30860762489E+03  0.27475165181E+01  0.53198823275E+03  0.10100000352E+00 0.  1.
       -3    1    3    3    0  502 -0.43331888327E+03 -0.30860762489E+03 -0.33719321743E+03  0.62984378763E+03  0.10100000352E+00 0. -1.
</event>
<event>
 5   0  0.4428114E-03  0.1054327E+04  0.7818609E-02  0.9250888E-01
       -1   -1    0    0    0  501  0.00000000000E+00  0.00000000000E+00  0.16472063724E+03  0.16472063732E+03  0.50400001928E-02 0. -1.
        1   -1    0    0  501    0  0.00000000000E+00  0.00000000000E+00 -0.16871066847E+04  0.16871066847E+04  0.50400001928E-02 0.  1.
    10030    2    1    2    0    0  0.00000000000E+00  0.00000000000E+00 -0.15223860475E+04  0.18518273221E+04  0.10543268721E+04 0.  0.
        4    1    3    3  502    0  0.22247671416E+03 -0.27254006603E+03 -0.71647820022E+02  0.35903899364E+03  0.12699999809E+01 0. -1.
       -4    1    3    3    0  502 -0.22247671416E+03  0.27254006603E+03 -0.14507382275E+04  0.14927883284E+04  0.12699999809E+01 0.  1.
</event>
<event>
 5   0  0.7712816E-03  0.1089631E+04  0.7818609E-02  0.9215357E-01
        2   -1    0    0  501    0  0.00000000000E+00  0.00000000000E+00  0.68938951450E+03  0.68938951450E+03  0.25500000920E-02 0.  1.
       -2   -1    0    0    0  501  0.00000000000E+00  0.00000000000E+00 -0.43056071317E+03  0.43056071318E+03  0.25500000920E-02 0. -1.
    10030    2    1    2    0    0  0.00000000000E+00  0.00000000000E+00  0.25882880133E+03  0.11199502277E+04  0.10896312055E+04 0.  0.
        2    1    3    3  502    0  0.21468040108E+03  0.19068670394E+03 -0.34647519001E+03  0.44999350102E+03  0.25500000920E-02 0. -1.
       -2    1    3    3    0  502 -0.21468040108E+03 -0.19068670394E+03  0.60530399134E+03  0.66995672666E+03  0.25500000920E-02 0.  1.
</event>
<event>
 5   0  0.7537480E-03  0.1102593E+04  0.7818609E-02  0.9202668E-01
       -2   -1    0    0    0  501  0.00000000000E+00  0.00000000000E+00  0.23496948714E+03  0.23496948715E+03  0.25500000920E-02 0.  1.
        2   -1    0    0  501    0  0.00000000000E+00  0.00000000000E+00 -0.12934780549E+04  0.12934780550E+04  0.25500000920E-02 0. -1.
    10030    2    1    2    0    0  0.00000000000E+00  0.00000000000E+00 -0.10585085678E+04  0.15284475421E+04  0.11025930804E+04 0.  0.
        1    1    3    3  502    0  0.14514477189E+03  0.33458823729E+03 -0.11023418978E+04  0.11611089324E+04  0.50400001928E-02 0. -1.
       -1    1    3    3    0  502 -0.14514477189E+03 -0.33458823729E+03  0.43833329940E+02  0.36733860970E+03  0.50400001928E-02 0.  1.
</event>
<event>
 5   0  0.2992375E-03  0.1075394E+04  0.7818609E-02  0.9229512E-01
        3   -1    0    0  501    0  0.00000000000E+00  0.00000000000E+00  0.38473941177E+03  0.38473942503E+03  0.10100000352E+00 0. -1.
       -3   -1    0    0    0  501  0.00000000000E+00  0.00000000000E+00 -0.75146414885E+03  0.75146415563E+03  0.10100000352E+00 0.  1.
    10030    2    1    2    0    0  0.00000000000E+00  0.00000000000E+00 -0.36672473708E+03  0.11362035807E+04  0.10753936693E+04 0.  0.
        3    1    3    3  502    0  0.18334025318E+03  0.86844165773E+02  0.34275364660E+03  0.39829088619E+03  0.10100000352E+00 0. -1.
       -3    1    3    3    0  502 -0.18334025318E+03 -0.86844165773E+02 -0.70947838367E+03  0.73791269447E+03  0.10100000352E+00 0.  1.
</event>
<event>
 5   0  0.4641021E-03  0.9775792E+03  0.7818609E-02  0.9333483E-01
       -1   -1    0    0    0  501  0.00000000000E+00  0.00000000000E+00  0.16087508490E+03  0.16087508498E+03  0.50400001928E-02 0. -1.
        1   -1    0    0  501    0  0.00000000000E+00  0.00000000000E+00 -0.14850981404E+04  0.14850981404E+04  0.50400001928E-02 0.  1.
    10030    2    1    2    0    0  0.00000000000E+00  0.00000000000E+00 -0.13242230555E+04  0.16459732254E+04  0.97757923362E+03 0.  0.
        1    1    3    3  502    0 -0.42120902871E+03  0.24747085978E+03 -0.63515000913E+03  0.80129545514E+03  0.50400001928E-02 0.  1.
       -1    1    3    3    0  502  0.42120902871E+03 -0.24747085978E+03 -0.68907304640E+03  0.84467777028E+03  0.50400001928E-02 0. -1.
</event>
<event>
 5   0  0.7712816E-03  0.1085808E+04  0.7818609E-02  0.9219136E-01
        2   -1    0    0  501    0  0.00000000000E+00  0.00000000000E+00  0.18181968738E+04  0.18181968738E+04  0.25500000920E-02 0. -1.
       -2   -1    0    0    0  501  0.00000000000E+00  0.00000000000E+00 -0.16210826820E+03  0.16210826822E+03  0.25500000920E-02 0.  1.
    10030    2    1    2    0    0  0.00000000000E+00  0.00000000000E+00  0.16560886056E+04  0.19803051420E+04  0.10858079876E+04 0.  0.
        2    1    3    3  502    0  0.44716982502E+03 -0.25378070598E+03  0.11459275113E+04  0.12559917835E+04  0.25500000920E-02 0. -1.
       -2    1    3    3    0  502 -0.44716982502E+03  0.25378070598E+03  0.51016109427E+03  0.72431335847E+03  0.25500000920E-02 0.  1.
</event>
<event>
 5   0  0.4298101E-03  0.1099436E+04  0.7818609E-02  0.9205742E-01
        1   -1    0    0  501    0  0.00000000000E+00  0.00000000000E+00  0.24082729809E+04  0.24082729809E+04  0.50400001928E-02 0. -1.
       -1   -1    0    0    0  501  0.00000000000E+00  0.00000000000E+00 -0.12547987450E+03  0.12547987460E+03  0.50400001928E-02 0.  1.
    10030    2    1    2    0    0  0.00000000000E+00  0.00000000000E+00  0.22827931064E+04  0.25337528555E+04  0.10994358400E+04 0.  0.
        3    1    3    3  502    0  0.43873785617E+03  0.28592863304E+02  0.38094586769E+03  0.58174584019E+03  0.10100000352E+00 0.  1.
       -3    1    3    3    0  502 -0.43873785617E+03 -0.28592863304E+02  0.19018472387E+04  0.19520070153E+04  0.10100000352E+00 0. -1.
</event>
<event>
 5   0  0.7537480E-03  0.1118259E+04  0.7818609E-02  0.9187576E-01
        2   -1    0    0  501    0  0.00000000000E+00  0.00000000000E+00  0.18643395552E+04  0.18643395552E+04  0.25500000920E-02 0. -1.
       -2   -1    0    0    0  501  0.00000000000E+00  0.00000000000E+00 -0.16768725534E+03  0.16768725536E+03  0.25500000920E-02 0.  1.
    10030    2    1    2    0    0  0.00000000000E+00  0.00000000000E+00  0.16966522999E+04  0.20320268106E+04  0.11182593314E+04 0.  0.
        1    1    3    3  502    0  0.51702421020E+03 -0.14085735592E+03  0.11383349771E+04  0.12581579189E+04  0.50400001928E-02 0. -1.
       -1    1    3    3    0  502 -0.51702421020E+03  0.14085735592E+03  0.55831732277E+03  0.77386889173E+03  0.50400001928E-02 0.  1.
</event>
<event>
 5   0  0.4298101E-03  0.1126489E+04  0.7818609E-02  0.9179752E-01
       -1   -1    0    0    0  501  0.00000000000E+00  0.00000000000E+00  0.21021327004E+03  0.21021327010E+03  0.50400001928E-02 0. -1.
        1   -1    0    0  501    0  0.00000000000E+00  0.00000000000E+00 -0.15091543839E+04  0.15091543839E+04  0.50400001928E-02 0.  1.
    10030    2    1    2    0    0  0.00000000000E+00  0.00000000000E+00 -0.12989411139E+04  0.17193676540E+04  0.11264888426E+04 0.  0.
        3    1    3    3  502    0  0.17853423913E+03 -0.13354985656E+03  0.13999199680E+03  0.26326376146E+03  0.10100000352E+00 0. -1.
       -3    1    3    3    0  502 -0.17853423913E+03  0.13354985656E+03 -0.14389331107E+04  0.14561038926E+04  0.10100000352E+00 0.  1.
</event>
<event>
 5   0  0.7766551E-03  0.1171418E+04  0.7818609E-02  0.9138248E-01
       -2   -1    0    0    0  501  0.00000000000E+00  0.00000000000E+00  0.23208657587E+03  0.23208657588E+03  0.25500000920E-02 0.  1.
        2   -1    0    0  501    0  0.00000000000E+00  0.00000000000E+00 -0.14781349072E+04  0.14781349072E+04  0.25500000920E-02 0. -1.
    10030    2    1    2    0    0  0.00000000000E+00  0.00000000000E+00 -0.12460483314E+04  0.17102214831E+04  0.11714184040E+04 0.  0.
        5    1    3    3  502    0 -0.51787435461E+03  0.88351914249E+02 -0.10010187016E+04  0.11305133519E+04  0.46999998093E+01 0. -1.
       -5    1    3    3    0  502  0.51787435461E+03 -0.88351914249E+02 -0.24502962975E+03  0.57970813119E+03  0.46999998093E+01 0.  1.
</event>
<event>
 5   0  0.7537480E-03  0.1113127E+04  0.7818609E-02  0.9192491E-01
       -2   -1    0    0    0  501  0.00000000000E+00  0.00000000000E+00  0.29320533794E+03  0.29320533795E+03  0.25500000920E-02 0.  1.
        2   -1    0    0  501    0  0.00000000000E+00  0.00000000000E+00 -0.10564709715E+04  0.10564709715E+04  0.25500000920E-02 0. -1.
    10030    2    1    2    0    0  0.00000000000E+00  0.00000000000E+00 -0.76326563355E+03  0.13496763094E+04  0.11131269977E+04 0.  0.
        1    1    3    3  502    0 -0.58519058897E+02 -0.55309217927E+03 -0.35656321291E+03  0.66066085388E+03  0.50400001928E-02 0.  1.
       -1    1    3    3    0  502  0.58519058897E+02  0.55309217927E+03 -0.40670242064E+03  0.68901545557E+03  0.50400001928E-02 0. -1.
</event>
<event>
 5   0  0.4598561E-03  0.1127021E+04  0.7818609E-02  0.9179248E-01
       -1   -1    0    0    0  501  0.00000000000E+00  0.00000000000E+00  0.35959366914E+03  0.35959366918E+03  0.50400001928E-02 0. -1.
        1   -1    0    0  501    0  0.00000000000E+00  0.00000000000E+00 -0.88306405037E+03  0.88306405039E+03  0.50400001928E-02 0.  1.
    10030    2    1    2    0    0  0.00000000000E+00  0.00000000000E+00 -0.52347038123E+03  0.12426577196E+04  0.11270212811E+04 0.  0.
        2    1    3    3  502    0  0.50540621085E+03 -0.22346526733E+03 -0.38338229463E+03  0.67257278231E+03  0.25500000920E-02 0.  1.
       -2    1    3    3    0  502 -0.50540621085E+03  0.22346526733E+03 -0.14008808660E+03  0.57008493725E+03  0.25500000920E-02 0. -1.
</event>
<event>
 5   0  0.7712816E-03  0.1094203E+04  0.7818609E-02  0.9210861E-01
       -2   -1    0    0    0  501  0.00000000000E+00  0.00000000000E+00  0.55093076683E+03  0.55093076683E+03  0.25500000920E-02 0.  1.
        2   -1    0    0  501    0  0.00000000000E+00  0.00000000000E+00 -0.54329874051E+03  0.54329874052E+03  0.25500000920E-02 0. -1.
    10030    2    1    2    0    0  0.00000000000E+00  0.00000000000E+00  0.76320263167E+01  0.10942295074E+04  0.10942028911E+04 0.  0.
        2    1    3    3  502    0  0.50535257364E+03 -0.34131339789E+01 -0.20577705834E+03  0.54565288500E+03  0.25500000920E-02 0. -1.
       -2    1    3    3    0  502 -0.50535257364E+03  0.34131339789E+01  0.21340908465E+03  0.54857662235E+03  0.25500000920E-02 0.  1.
</event>
<event>
 5   0  0.7537480E-03  0.9621705E+03  0.7818609E-02  0.9351037E-01
        2   -1    0    0  501    0  0.00000000000E+00  0.00000000000E+00  0.50088525397E+03  0.50088525398E+03  0.25500000920E-02 0.  1.
       -2   -1    0    0    0  501  0.00000000000E+00  0.00000000000E+00 -0.46206795904E+03  0.46206795904E+03  0.25500000920E-02 0. -1.
    10030    2    1    2    0    0  0.00000000000E+00  0.00000000000E+00  0.38817294934E+02  0.96295321302E+03  0.96217051923E+03 0.  0.
        1    1    3    3  502    0  0.27731658094E+03  0.14149584010E+03  0.38647323057E+03  0.49627322798E+03  0.50400001928E-02 0.  1.
       -1    1    3    3    0  502 -0.27731658094E+03 -0.14149584010E+03 -0.34765593564E+03  0.46667998505E+03  0.50400001928E-02 0. -1.
</event>
<event>
 5   0  0.4598561E-03  0.1109107E+04  0.7818609E-02  0.9196361E-01
        1   -1    0    0  501    0  0.00000000000E+00  0.00000000000E+00  0.21473993956E+04  0.21473993956E+04  0.50400001928E-02 0. -1.
       -1   -1    0    0    0  501  0.00000000000E+00  0.00000000000E+00 -0.14321020202E+03  0.14321020211E+03  0.50400001928E-02 0.  1.
    10030    2    1    2    0    0  0.00000000000E+00  0.00000000000E+00  0.20041891936E+04  0.22906095977E+04  0.11091068504E+04 0.  0.
        2    1    3    3  502    0  0.22417134192E+02 -0.33723937161E+03  0.94086391420E+02  0.35083496223E+03  0.25500000920E-02 0.  1.
       -2    1    3    3    0  502 -0.22417134192E+02  0.33723937161E+03  0.19101028022E+04  0.19397746355E+04  0.25500000920E-02 0. -1.
</event>
<event>
 5   0  0.4428114E-03  0.1107682E+04  0.7818609E-02  0.9197737E-01
        1   -1    0    0  501    0  0.00000000000E+00  0.00000000000E+00  0.72950536536E+03  0.72950536537E+03  0.50400001928E-02 0. -1.
       -1   -1    0    0    0  501  0.00000000000E+00  0.00000000000E+00 -0.42047636842E+03  0.42047636845E+03  0.50400001928E-02 0.  1.
    10030    2    1    2    0    0  0.00000000000E+00  0.00000000000E+00  0.30902899693E+03  0.11499817338E+04  0.11076818438E+04 0.  0.
        4    1    3    3  502    0 -0.39546466994E+03  0.38438421213E+03  0.10163183705E+03  0.56077996657E+03  0.12699999809E+01 0.  1.
       -4    1    3    3    0  502  0.39546466994E+03 -0.38438421213E+03  0.20739715989E+03  0.58920176725E+03  0.12699999809E+01 0. -1.
</event>
<event>
 5   0  0.7766551E-03  0.1100112E+04  0.7818609E-02  0.9205083E-01
       -2   -1    0    0    0  501  0.00000000000E+00  0.00000000000E+00  0.31472324952E+03  0.31472324953E+03  0.25500000920E-02 0.  1.
        2   -1    0    0  501    0  0.00000000000E+00  0.00000000000E+00 -0.96135722572E+03  0.96135722572E+03  0.25500000920E-02 0. -1.
    10030    2    1    2    0    0  0.00000000000E+00  0.00000000000E+00 -0.64663397620E+03  0.12760804752E+04  0.11001117580E+04 0.  0.
        5    1    3    3  502    0  0.48048536833E+02 -0.21556372456E+03  0.26100927462E+03  0.34194197267E+03  0.46999998093E+01 0.  1.
       -5    1    3    3    0  502 -0.48048536833E+02  0.21556372456E+03 -0.90764325082E+03  0.93413850258E+03  0.46999998093E+01 0. -1.
</event>
<event>
 5   0  0.4298101E-03  0.1074575E+04  0.7818609E-02  0.9230333E-01
       -1   -1    0    0    0  501  0.00000000000E+00  0.00000000000E+00  0.25959842809E+03  0.25959842814E+03  0.50400001928E-02 0. -1.
        1   -1    0    0  501    0  0.00000000000E+00  0.00000000000E+00 -0.11120174516E+04  0.11120174517E+04  0.50400001928E-02 0.  1.
    10030    2    1    2    0    0  0.00000000000E+00  0.00000000000E+00 -0.85241902355E+03  0.13716158798E+04  0.10745752324E+04 0.  0.
        3    1    3    3  502    0 -0.10851259048E+03  0.21422941659E+03 -0.10397029054E+04  0.10670760830E+04  0.10100000352E+00 0.  1.
       -3    1    3    3    0  502  0.10851259048E+03 -0.21422941659E+03  0.18728388185E+03  0.30453979679E+03  0.10100000352E+00 0. -1.
</event>
<event>
 5   0  0.4298101E-03  0.1124903E+04  0.7818609E-02  0.9181254E-01
        1   -1    0    0  501    0  0.00000000000E+00  0.00000000000E+00  0.81183893050E+03  0.81183893052E+03  0.50400001928E-02 0. -1.
       -1   -1    0    0    0  501  0.00000000000E+00  0.00000000000E+00 -0.38967279812E+03  0.38967279815E+03  0.50400001928E-02 0.  1.
    10030    2    1    2    0    0  0.00000000000E+00  0.00000000000E+00  0.42216613238E+03  0.12015117287E+04  0.11249027473E+04 0.  0.
        3    1    3    3  502    0 -0.31275120954E+03 -0.17038000817E+03  0.67605614597E+03  0.76412995555E+03  0.10100000352E+00 0. -1.
       -3    1    3    3    0  502  0.31275120954E+03  0.17038000817E+03 -0.25389001359E+03  0.43738177312E+03  0.10100000352E+00 0.  1.
</event>
<event>
 5   0  0.7952121E-03  0.1051482E+04  0.7818609E-02  0.9253816E-01
       -2   -1    0    0    0  501  0.00000000000E+00  0.00000000000E+00  0.37757767245E+03  0.37757767245E+03  0.25500000920E-02 0.  1.
        2   -1    0    0  501    0  0.00000000000E+00  0.00000000000E+00 -0.73204381753E+03  0.73204381754E+03  0.25500000920E-02 0. -1.
    10030    2    1    2    0    0  0.00000000000E+00  0.00000000000E+00 -0.35446614509E+03  0.11096214900E+04  0.10514816228E+04 0.  0.
        3    1    3    3  502    0 -0.38773387009E+03 -0.31605006380E+03 -0.64900320013E+01  0.50026725613E+03  0.10100000352E+00 0. -1.
       -3    1    3    3    0  502  0.38773387009E+03  0.31605006380E+03 -0.34797611309E+03  0.60935423386E+03  0.10100000352E+00 0.  1.
</event>
<event>
 5   0  0.7766551E-03  0.1098411E+04  0.7818609E-02  0.9206742E-01
       -2   -1    0    0    0  501  0.00000000000E+00  0.00000000000E+00  0.33383363912E+03  0.33383363913E+03  0.25500000920E-02 0. -1.
        2   -1    0    0  501    0  0.00000000000E+00  0.00000000000E+00 -0.90352414299E+03  0.90352414299E+03  0.25500000920E-02 0.  1.
    10030    2    1    2    0    0  0.00000000000E+00  0.00000000000E+00 -0.56969050387E+03  0.12373577821E+04  0.10984111301E+04 0.  0.
        5    1    3    3  502    0 -0.52790992073E+03 -0.14312542186E+03 -0.34038618775E+03  0.64425043081E+03  0.46999998093E+01 0.  1.
       -5    1    3    3    0  502  0.52790992073E+03  0.14312542186E+03 -0.22930431612E+03  0.59310735131E+03  0.46999998093E+01 0. -1.
</event>
<event>
 5   0  0.4504740E-03  0.1130132E+04  0.7818609E-02  0.9176311E-01
        1   -1    0    0  501    0  0.00000000000E+00  0.00000000000E+00  0.89695467743E+03  0.89695467744E+03  0.50400001928E-02 0. -1.
       -1   -1    0    0    0  501  0.00000000000E+00  0.00000000000E+00 -0.35598179983E+03  0.35598179987E+03  0.50400001928E-02 0.  1.
    10030    2    1    2    0    0  0.00000000000E+00  0.00000000000E+00  0.54097287759E+03  0.12529364773E+04  0.11301319223E+04 0.  0.
        5    1    3    3  502    0  0.39821969667E+03  0.24606591649E+03  0.62133974978E+03  0.77795407109E+03  0.46999998093E+01 0. -1.
       -5    1    3    3    0  502 -0.39821969667E+03 -0.24606591649E+03 -0.80366872184E+02  0.47498240622E+03  0.46999998093E+01 0.  1.
</event>
<event>
 5   0  0.4598561E-03  0.1110876E+04  0.7818609E-02  0.9194656E-01
        1   -1    0    0  501    0  0.00000000000E+00  0.00000000000E+00  0.55183153389E+03  0.55183153392E+03  0.50400001928E-02 0. -1.
       -1   -1    0    0    0  501  0.00000000000E+00  0.00000000000E+00 -0.55906822191E+03  0.55906822193E+03  0.50400001928E-02 0.  1.
    10030    2    1    2    0    0  0.00000000000E+00  0.00000000000E+00 -0.72366880124E+01  0.11108997558E+04  0.11108761848E+04 0.  0.
        2    1    3    3  502    0  0.26116465188E+03  0.23632898742E+03  0.42587081358E+03  0.55265207459E+03  0.25500000920E-02 0. -1.
       -2    1    3    3    0  502 -0.26116465188E+03 -0.23632898742E+03 -0.43310750159E+03  0.55824768125E+03  0.25500000920E-02 0.  1.
</event>
<event>
 5   0  0.7738497E-03  0.1102073E+04  0.7818609E-02  0.9203174E-01
       -2   -1    0    0    0  501  0.00000000000E+00  0.00000000000E+00  0.19009247062E+03  0.19009247064E+03  0.25500000920E-02 0. -1.
        2   -1    0    0  501    0  0.00000000000E+00  0.00000000000E+00 -0.15973330034E+04  0.15973330034E+04  0.25500000920E-02 0.  1.
    10030    2    1    2    0    0  0.00000000000E+00  0.00000000000E+00 -0.14072405328E+04  0.17874254740E+04  0.11020725512E+04 0.  0.
        4    1    3    3  502    0  0.17615370173E+03  0.24803164898E+03  0.41542442239E+02  0.30704594597E+03  0.12699999809E+01 0. -1.
       -4    1    3    3    0  502 -0.17615370173E+03 -0.24803164898E+03 -0.14487829750E+04  0.14803795281E+04  0.12699999809E+01 0.  1.
</event>
<event>
 5   0  0.7766551E-03  0.1062003E+04  0.7818609E-02  0.9243038E-01
        2   -1    0    0  501    0  0.00000000000E+00  0.00000000000E+00  0.13114331377E+04  0.13114331377E+04  0.25500000920E-02 0. -1.
       -2   -1    0    0    0  501  0.00000000000E+00  0.00000000000E+00 -0.21500350180E+03  0.21500350182E+03  0.25500000920E-02 0.  1.
    10030    2    1    2    0    0  0.00000000000E+00  0.00000000000E+00  0.10964296359E+04  0.15264366395E+04  0.10620032335E+04 0.  0.
        5    1    3    3  502    0 -0.42863009310E+02  0.51454547603E+03  0.72627031517E+03  0.89111443999E+03  0.46999998093E+01 0. -1.
       -5    1    3    3    0  502  0.42863009310E+02 -0.51454547603E+03  0.37015932069E+03  0.63532219949E+03  0.46999998093E+01 0.  1.
</event>
<event>
 5   0  0.4641021E-03  0.1094159E+04  0.7818609E-02  0.9210904E-01
       -1   -1    0    0    0  501  0.00000000000E+00  0.00000000000E+00  0.40763108072E+03  0.40763108075E+03  0.50400001928E-02 0.  1.
        1   -1    0    0  501    0  0.00000000000E+00  0.00000000000E+00 -0.73423196425E+03  0.73423196426E+03  0.50400001928E-02 0. -1.
    10030    2    1    2    0    0  0.00000000000E+00  0.00000000000E+00 -0.32660088352E+03  0.11418630450E+04  0.10941586158E+04 0.  0.
        1    1    3    3  502    0  0.16444102158E+03 -0.54961240309E+02 -0.70480090379E+03  0.72581395793E+03  0.50400001928E-02 0. -1.
       -1    1    3    3    0  502 -0.16444102158E+03  0.54961240309E+02  0.37820002026E+03  0.41604908709E+03  0.50400001928E-02 0.  1.
</event>
<event>
 5   0  0.7712816E-03  0.1097291E+04  0.7818609E-02  0.9207837E-01
       -2   -1    0    0    0  501  0.00000000000E+00  0.00000000000E+00  0.14022814018E+04  0.14022814018E+04  0.25500000920E-02 0.  1.
        2   -1    0    0  501    0  0.00000000000E+00  0.00000000000E+00 -0.21465851567E+03  0.21465851569E+03  0.25500000920E-02 0. -1.
    10030    2    1    2    0    0  0.00000000000E+00  0.00000000000E+00  0.11876228861E+04  0.16169399174E+04  0.10972905618E+04 0.  0.
        2    1    3    3  502    0  0.25744395334E+03  0.43281049879E+03  0.91466298844E+03  0.10441315527E+04  0.25500000920E-02 0.  1.
       -2    1    3    3    0  502 -0.25744395334E+03 -0.43281049879E+03  0.27295989764E+03  0.57280836472E+03  0.25500000920E-02 0. -1.
</event>
<event>
 5   0  0.4598561E-03  0.9318067E+03  0.7818609E-02  0.9386672E-01
       -1   -1    0    0    0  501  0.00000000000E+00  0.00000000000E+00  0.35654848477E+03  0.35654848481E+03  0.50400001928E-02 0. -1.
        1   -1    0    0  501    0  0.00000000000E+00  0.00000000000E+00 -0.60879779615E+03  0.60879779617E+03  0.50400001928E-02 0.  1.
    10030    2    1    2    0    0  0.00000000000E+00  0.00000000000E+00 -0.25224931138E+03  0.96534628098E+03  0.93180670051E+03 0.  0.
        2    1    3    3  502    0 -0.33287300869E+03  0.17425764059E+03 -0.41153261121E+03  0.55725151890E+03  0.25500000920E-02 0.  1.
       -2    1    3    3    0  502  0.33287300869E+03 -0.17425764059E+03  0.15928329983E+03  0.40809476208E+03  0.25500000920E-02 0. -1.
</event>
<event>
 5   0  0.7537480E-03  0.1011082E+04  0.7818609E-02  0.9296473E-01
        2   -1    0    0  501    0  0.00000000000E+00  0.00000000000E+00  0.10865811937E+04  0.10865811937E+04  0.25500000920E-02 0. -1.
       -2   -1    0    0    0  501  0.00000000000E+00  0.00000000000E+00 -0.23520720721E+03  0.23520720723E+03  0.25500000920E-02 0.  1.
    10030    2    1    2    0    0  0.00000000000E+00  0.00000000000E+00  0.85137398645E+03  0.13217884009E+04  0.10110820501E+04 0.  0.
        1    1    3    3  502    0  0.71780368792E+01 -0.40282734085E+03  0.26477609075E+02  0.40376039251E+03  0.50400001928E-02 0.  1.
       -1    1    3    3    0  502 -0.71780368792E+01  0.40282734085E+03  0.82489637738E+03  0.91802800839E+03  0.50400001928E-02 0. -1.
</event>
<event>
 5   0  0.4298101E-03  0.1102263E+04  0.7818609E-02  0.9202989E-01
        1   -1    0    0  501    0  0.00000000000E+00  0.00000000000E+00  0.93588413764E+03  0.93588413765E+03  0.50400001928E-02 0.  1.
       -1   -1    0    0    0  501  0.00000000000E+00  0.00000000000E+00 -0.32455486259E+03  0.32455486263E+03  0.50400001928E-02 0. -1.
    10030    2    1    2    0    0  0.00000000000E+00  0.00000000000E+00  0.61132927505E+03  0.12604390003E+04  0.11022626687E+04 0.  0.
        3    1    3    3  502    0 -0.96697103872E+02 -0.79848116309E+02  0.91935290398E+03  0.92786627476E+03  0.10100000352E+00 0.  1.
       -3    1    3    3    0  502  0.96697103872E+02  0.79848116309E+02 -0.30802362893E+03  0.33257272552E+03  0.10100000352E+00 0. -1.
</event>
<event>
 5   0  0.4298101E-03  0.1107596E+04  0.7818609E-02  0.9197820E-01
       -1   -1    0    0    0  501  0.00000000000E+00  0.00000000000E+00  0.36351854472E+03  0.36351854476E+03  0.50400001928E-02 0. -1.
        1   -1    0    0  501    0  0.00000000000E+00  0.00000000000E+00 -0.84367655663E+03  0.84367655665E+03  0.50400001928E-02 0.  1.
    10030    2    1    2    0    0  0.00000000000E+00  0.00000000000E+00 -0.48015801191E+03  0.12071951014E+04  0.11075957279E+04 0.  0.
        3    1    3    3  502    0  0.36571776388E+03 -0.12570519034E+02  0.21297363063E+03  0.42339730551E+03  0.10100000352E+00 0. -1.
       -3    1    3    3    0  502 -0.36571776388E+03  0.12570519034E+02 -0.69313164254E+03  0.78379779590E+03  0.10100000352E+00 0.  1.
</event>
<event>
 5   0  0.7738497E-03  0.1094392E+04  0.7818609E-02  0.9210675E-01
        2   -1    0    0  501    0  0.00000000000E+00  0.00000000000E+00  0.13145548475E+04  0.13145548475E+04  0.25500000920E-02 0. -1.
       -2   -1    0    0    0  501  0.00000000000E+00  0.00000000000E+00 -0.22777554798E+03  0.22777554799E+03  0.25500000920E-02 0.  1.
    10030    2    1    2    0    0  0.00000000000E+00  0.00000000000E+00  0.10867792995E+04  0.15423303955E+04  0.10943919787E+04 0.  0.
        4    1    3    3  502    0  0.27163040781E+03 -0.19236526043E+03  0.11554791429E+04  0.12024646084E+04  0.12699999809E+01 0. -1.
       -4    1    3    3    0  502 -0.27163040781E+03  0.19236526043E+03 -0.68699843375E+02  0.33986578710E+03  0.12699999809E+01 0.  1.
</event>
<event>
 5   0  0.7537480E-03  0.1209719E+04  0.7818609E-02  0.9104392E-01
       -2   -1    0    0    0  501  0.00000000000E+00  0.00000000000E+00  0.20916253961E+03  0.20916253963E+03  0.25500000920E-02 0. -1.
        2   -1    0    0  501    0  0.00000000000E+00  0.00000000000E+00 -0.17491426852E+04  0.17491426852E+04  0.25500000920E-02 0.  1.
    10030    2    1    2    0    0  0.00000000000E+00  0.00000000000E+00 -0.15399801456E+04  0.19583052248E+04  0.12097191843E+04 0.  0.
        1    1    3    3  502    0 -0.34387437935E+02  0.42808776195E+02  0.20511949361E+03  0.21234192683E+03  0.50400001928E-02 0. -1.
       -1    1    3    3    0  502  0.34387437935E+02 -0.42808776195E+02 -0.17450996392E+04  0.17459632980E+04  0.50400001928E-02 0.  1.
</event>
<event>
 5   0  0.2992375E-03  0.1093430E+04  0.7818609E-02  0.9211619E-01
       -4   -1    0    0    0  501  0.00000000000E+00  0.00000000000E+00  0.46025472433E+03  0.46025647651E+03  0.12699999809E+01 0. -1.
        4   -1    0    0  501    0  0.00000000000E+00  0.00000000000E+00 -0.64941331088E+03  0.64941455269E+03  0.12699999809E+01 0.  1.
    10030    2    1    2    0    0  0.00000000000E+00  0.00000000000E+00 -0.18915858655E+03  0.11096710292E+04  0.10934298433E+04 0.  0.
        4    1    3    3  502    0 -0.52446780479E+03  0.12817500940E+03 -0.18188194604E+03  0.56971744444E+03  0.12699999809E+01 0.  1.
       -4    1    3    3    0  502  0.52446780479E+03 -0.12817500940E+03 -0.72766405097E+01  0.53995358476E+03  0.12699999809E+01 0. -1.
</event>
<event>
 5   0  0.4428114E-03  0.1047536E+04  0.7818609E-02  0.9257892E-01
       -1   -1    0    0    0  501  0.00000000000E+00  0.00000000000E+00  0.77084572877E+03  0.77084572879E+03  0.50400001928E-02 0.  1.
        1   -1    0    0  501    0  0.00000000000E+00  0.00000000000E+00 -0.35588557036E+03  0.35588557040E+03  0.50400001928E-02 0. -1.
    10030    2    1    2    0    0  0.00000000000E+00  0.00000000000E+00  0.41496015841E+03  0.11267312992E+04  0.10475359123E+04 0.  0.
        4    1    3    3  502    0  0.40605593652E+03 -0.17194661317E+03 -0.96525725871E+02  0.45140435312E+03  0.12699999809E+01 0. -1.
       -4    1    3    3    0  502 -0.40605593652E+03  0.17194661317E+03  0.51148588428E+03  0.67532694606E+03  0.12699999809E+01 0.  1.
</event>
<event>
 5   0  0.4504740E-03  0.1104673E+04  0.7818609E-02  0.9200649E-01
       -1   -1    0    0    0  501  0.00000000000E+00  0.00000000000E+00  0.27912302244E+03  0.27912302248E+03  0.50400001928E-02 0. -1.
        1   -1    0    0  501    0  0.00000000000E+00  0.00000000000E+00 -0.10929791214E+04  0.10929791214E+04  0.50400001928E-02 0.  1.
    10030    2    1    2    0    0  0.00000000000E+00  0.00000000000E+00 -0.81385609900E+03  0.13721021439E+04  0.11046730482E+04 0.  0.
        5    1    3    3  502    0 -0.54636549266E+03 -0.61881340333E+02 -0.34227980913E+03  0.64770526444E+03  0.46999998093E+01 0. -1.
       -5    1    3    3    0  502  0.54636549266E+03  0.61881340333E+02 -0.47157628987E+03  0.72439687949E+03  0.46999998093E+01 0.  1.
</event>
<event>
 5   0  0.7712816E-03  0.9687245E+03  0.7818609E-02  0.9343528E-01
        2   -1    0    0  501    0  0.00000000000E+00  0.00000000000E+00  0.14297286383E+04  0.14297286383E+04  0.25500000920E-02 0.  1.
       -2   -1    0    0    0  501  0.00000000000E+00  0.00000000000E+00 -0.16409183218E+03  0.16409183220E+03  0.25500000920E-02 0. -1.
    10030    2    1    2    0    0  0.00000000000E+00  0.00000000000E+00  0.12656368061E+04  0.15938204705E+04  0.96872450532E+03 0.  0.
        2    1    3    3  502    0 -0.53237215804E+00 -0.96119031907E+02  0.14138792949E+04  0.14171428341E+04  0.25500000920E-02 0.  1.
       -2    1    3    3    0  502  0.53237215804E+00  0.96119031907E+02 -0.14824248879E+03  0.17667763640E+03  0.25500000920E-02 0. -1.
</event>
<event>
 5   0  0.4428114E-03  0.1120870E+04  0.7818609E-02  0.9185086E-01
       -1   -1    0    0    0  501  0.00000000000E+00  0.00000000000E+00  0.32723366729E+03  0.32723366733E+03  0.50400001928E-02 0.  1.
        1   -1    0    0  501    0  0.00000000000E+00  0.00000000000E+00 -0.95982581879E+03  0.95982581880E+03  0.50400001928E-02 0. -1.
    10030    2    1    2    0    0  0.00000000000E+00  0.00000000000E+00 -0.63259215150E+03  0.12870594861E+04  0.11208698813E+04 0.  0.
        4    1    3    3  502    0 -0.14869149592E+03 -0.49902224840E+03 -0.78315279855E+02  0.52656173552E+03  0.12699999809E+01 0.  1.
       -4    1    3    3    0  502  0.14869149592E+03  0.49902224840E+03 -0.55427687164E+03  0.76049775061E+03  0.12699999809E+01 0. -1.
</event>
<event>
 5   0  0.7766551E-03  0.1171062E+04  0.7818609E-02  0.9138570E-01
       -2   -1    0    0    0  501  0.00000000000E+00  0.00000000000E+00  0.19921424942E+03  0.19921424944E+03  0.25500000920E-02 0.  1.
        2   -1    0    0  501    0  0.00000000000E+00  0.00000000000E+00 -0.17209936558E+04  0.17209936558E+04  0.25500000920E-02 0. -1.
    10030    2    1    2    0    0  0.00000000000E+00  0.00000000000E+00 -0.15217794064E+04  0.19202079053E+04  0.11710618420E+04 0.  0.
        5    1    3    3  502    0 -0.25103555764E+03 -0.16855864800E+03  0.61249666596E+02  0.30855223330E+03  0.46999998093E+01 0.  1.
       -5    1    3    3    0  502  0.25103555764E+03  0.16855864800E+03 -0.15830290730E+04  0.16116556720E+04  0.46999998093E+01 0. -1.
</event>
<event>
 5   0  0.4504740E-03  0.1105906E+04  0.7818609E-02  0.9199454E-01
       -1   -1    0    0    0  501  0.00000000000E+00  0.00000000000E+00  0.29587804446E+03  0.29587804451E+03  0.50400001928E-02 0.  1.
        1   -1    0    0  501    0  0.00000000000E+00  0.00000000000E+00 -0.10333893318E+04  0.10333893318E+04  0.50400001928E-02 0. -1.
    10030    2    1    2    0    0  0.00000000000E+00  0.00000000000E+00 -0.73751128737E+03  0.13292673763E+04  0.11059063517E+04 0.  0.
        5    1    3    3  502    0 -0.34790148077E+03 -0.17902687641E+03 -0.83836967409E+03  0.92518747464E+03  0.46999998093E+01 0. -1.
       -5    1    3    3    0  502  0.34790148077E+03  0.17902687641E+03  0.10085838672E+03  0.40407990171E+03  0.46999998093E+01 0.  1.
</event>
<event>
 5   0  0.4641021E-03  0.1102924E+04  0.7818609E-02  0.9202347E-01
        1   -1    0    0  501    0  0.00000000000E+00  0.00000000000E+00  0.76511782442E+03  0.76511782444E+03  0.50400001928E-02 0.  1.
       -1   -1    0    0    0  501  0.00000000000E+00  0.00000000000E+00 -0.39746857216E+03  0.39746857219E+03  0.50400001928E-02 0. -1.
    10030    2    1    2    0    0  0.00000000000E+00  0.00000000000E+00  0.36764925226E+03  0.11625863966E+04  0.11029239126E+04 0.  0.
        1    1    3    3  502    0 -0.32111289920E+03 -0.14548381066E+03  0.63082951497E+03  0.72265130608E+03  0.50400001928E-02 0.  1.
       -1    1    3    3    0  502  0.32111289920E+03  0.14548381066E+03 -0.26318026271E+03  0.43993509055E+03  0.50400001928E-02 0. -1.
</event>
<event>
 5   0  0.7712816E-03  0.1121738E+04  0.7818609E-02  0.9184260E-01
       -2   -1    0    0    0  501  0.00000000000E+00  0.00000000000E+00  0.26427070678E+03  0.26427070680E+03  0.25500000920E-02 0. -1.
        2   -1    0    0  501    0  0.00000000000E+00  0.00000000000E+00 -0.11903478239E+04  0.11903478240E+04  0.25500000920E-02 0.  1.
    10030    2    1    2    0    0  0.00000000000E+00  0.00000000000E+00 -0.92607711716E+03  0.14546185307E+04  0.11217380456E+04 0.  0.
        2    1    3    3  502    0  0.19180845544E+02 -0.37361260681E+02  0.26222888482E+03  0.26557062465E+03  0.25500000920E-02 0. -1.
       -2    1    3    3    0  502 -0.19180845544E+02  0.37361260681E+02 -0.11883060020E+04  0.11890479061E+04  0.25500000920E-02 0.  1.
</event>
<event>
 5   0  0.4504740E-03  0.1068007E+04  0.7818609E-02  0.9236948E-01
       -1   -1    0    0    0  501  0.00000000000E+00  0.00000000000E+00  0.31774883497E+03  0.31774883501E+03  0.50400001928E-02 0. -1.
        1   -1    0    0  501    0  0.00000000000E+00  0.00000000000E+00 -0.89743805868E+03  0.89743805870E+03  0.50400001928E-02 0.  1.
    10030    2    1    2    0    0  0.00000000000E+00  0.00000000000E+00 -0.57968922371E+03  0.12151868937E+04  0.10680072989E+04 0.  0.
        5    1    3    3  502    0 -0.10302314787E+03 -0.52227197116E+03 -0.33752441171E+03  0.63033847999E+03  0.46999998093E+01 0.  1.
       -5    1    3    3    0  502  0.10302314787E+03  0.52227197116E+03 -0.24216481200E+03  0.58484841372E+03  0.46999998093E+01 0. -1.
</event>
<event>
 5   0  0.7537480E-03  0.1062608E+04  0.7818609E-02  0.9242423E-01
       -2   -1    0    0    0  501  0.00000000000E+00  0.00000000000E+00  0.38485615026E+03  0.38485615027E+03  0.25500000920E-02 0. -1.
        2   -1    0    0  501    0  0.00000000000E+00  0.00000000000E+00 -0.73347884483E+03  0.73347884483E+03  0.25500000920E-02 0.  1.
    10030    2    1    2    0    0  0.00000000000E+00  0.00000000000E+00 -0.34862269456E+03  0.11183349951E+04  0.10626078195E+04 0.  0.
        1    1    3    3  502    0 -0.98819014470E+02  0.60304280300E+02 -0.72004383134E+03  0.72929069850E+03  0.50400001928E-02 0.  1.
       -1    1    3    3    0  502  0.98819014470E+02 -0.60304280300E+02  0.37142113678E+03  0.38904429660E+03  0.50400001928E-02 0. -1.
</event>
<event>
 5   0  0.4641021E-03  0.1093050E+04  0.7818609E-02  0.9211992E-01
        1   -1    0    0  501    0  0.00000000000E+00  0.00000000000E+00  0.82776628773E+03  0.82776628775E+03  0.50400001928E-02 0.  1.
       -1   -1    0    0    0  501  0.00000000000E+00  0.00000000000E+00 -0.36083820813E+03  0.36083820816E+03  0.50400001928E-02 0. -1.
    10030    2    1    2    0    0  0.00000000000E+00  0.00000000000E+00  0.46692807961E+03  0.11886044959E+04  0.10930502350E+04 0.  0.
        1    1    3    3  502    0 -0.29137386448E+03 -0.30691374933E+03 -0.14259291348E+03  0.44657308185E+03  0.50400001928E-02 0. -1.
       -1    1    3    3    0  502  0.29137386448E+03  0.30691374933E+03  0.60952099308E+03  0.74203141407E+03  0.50400001928E-02 0.  1.
</event>
<event>
 5   0  0.4598561E-03  0.1079611E+04  0.7818609E-02  0.9225296E-01
       -1   -1    0    0    0  501  0.00000000000E+00  0.00000000000E+00  0.17109386021E+03  0.17109386028E+03  0.50400001928E-02 0.  1.
        1   -1    0    0  501    0  0.00000000000E+00  0.00000000000E+00 -0.17030992327E+04  0.17030992327E+04  0.50400001928E-02 0. -1.
    10030    2    1    2    0    0  0.00000000000E+00  0.00000000000E+00 -0.15320053725E+04  0.18741930929E+04  0.10796107115E+04 0.  0.
        2    1    3    3  502    0 -0.15364579216E+03  0.30360043397E+03 -0.14934829857E+04  0.15317544455E+04  0.25500000920E-02 0. -1.
       -2    1    3    3    0  502  0.15364579216E+03 -0.30360043397E+03 -0.38522386798E+02  0.34243864742E+03  0.25500000920E-02 0.  1.
</event>
<event>
 5   0  0.7738497E-03  0.1093477E+04  0.7818609E-02  0.9211573E-01
       -2   -1    0    0    0  501  0.00000000000E+00  0.00000000000E+00  0.11517098627E+04  0.11517098627E+04  0.25500000920E-02 0.  1.
        2   -1    0    0  501    0  0.00000000000E+00  0.00000000000E+00 -0.25954697690E+03  0.25954697691E+03  0.25500000920E-02 0. -1.
    10030    2    1    2    0    0  0.00000000000E+00  0.00000000000E+00  0.89216288580E+03  0.14112568396E+04  0.10934766813E+04 0.  0.
        4    1    3    3  502    0  0.15519793679E+03 -0.15223595633E+03 -0.20136340500E+03  0.29632924216E+03  0.12699999809E+01 0. -1.
       -4    1    3    3    0  502 -0.15519793679E+03  0.15223595633E+03  0.10935262908E+04  0.11149275975E+04  0.12699999809E+01 0.  1.
</event>
<event>
 5   0  0.7712816E-03  0.1098514E+04  0.7818609E-02  0.9206642E-01
        2   -1    0    0  501    0  0.00000000000E+00  0.00000000000E+00  0.11184368424E+04  0.11184368424E+04  0.25500000920E-02 0.  1.
       -2   -1    0    0    0  501  0.00000000000E+00  0.00000000000E+00 -0.26973647391E+03  0.26973647392E+03  0.25500000920E-02 0. -1.
    10030    2    1    2    0    0  0.00000000000E+00  0.00000000000E+00  0.84870036846E+03  0.13881733163E+04  0.10985139237E+04 0.  0.
        2    1    3    3  502    0  0.24784930295E+03  0.31714838943E+03 -0.47920498465E+02  0.40535015983E+03  0.25500000920E-02 0. -1.
       -2    1    3    3    0  502 -0.24784930295E+03 -0.31714838943E+03  0.89662086693E+03  0.98282315648E+03  0.25500000920E-02 0.  1.
</event>
<event>
 5   0  0.7738497E-03  0.1101710E+04  0.7818609E-02  0.9203526E-01
       -2   -1    0    0    0  501  0.00000000000E+00  0.00000000000E+00  0.24998367924E+03  0.24998367926E+03  0.25500000920E-02 0.  1.
        2   -1    0    0  501    0  0.00000000000E+00  0.00000000000E+00 -0.12138452308E+04  0.12138452308E+04  0.25500000920E-02 0. -1.
    10030    2    1    2    0    0  0.00000000000E+00  0.00000000000E+00 -0.96386155156E+03  0.14638289101E+04  0.11017104825E+04 0.  0.
        4    1    3    3  502    0 -0.67371951205E+02  0.52633530879E+03 -0.67843303689E+03  0.86130182604E+03  0.12699999809E+01 0. -1.
       -4    1    3    3    0  502  0.67371951205E+02 -0.52633530879E+03 -0.28542851467E+03  0.60252708402E+03  0.12699999809E+01 0.  1.
</event>
<event>
 5   0  0.4598561E-03  0.1102321E+04  0.7818609E-02  0.9202932E-01
       -1   -1    0    0    0  501  0.00000000000E+00  0.00000000000E+00  0.27860193498E+03  0.27860193503E+03  0.50400001928E-02 0. -1.
        1   -1    0    0  501    0  0.00000000000E+00  0.00000000000E+00 -0.10903660960E+04  0.10903660960E+04  0.50400001928E-02 0.  1.
    10030    2    1    2    0    0  0.00000000000E+00  0.00000000000E+00 -0.81176416101E+03  0.13689680310E+04  0.11023213764E+04 0.  0.
        2    1    3    3  502    0  0.41963139211E+03 -0.14250072415E+03 -0.81283960920E+03  0.92579975800E+03  0.25500000920E-02 0.  1.
       -2    1    3    3    0  502 -0.41963139211E+03  0.14250072415E+03  0.10754481865E+01  0.44316827303E+03  0.25500000920E-02 0. -1.
</event>
<event>
 5   0  0.7537480E-03  0.1108029E+04  0.7818609E-02  0.9197401E-01
       -2   -1    0    0    0  501  0.00000000000E+00  0.00000000000E+00  0.57571652308E+03  0.57571652308E+03  0.25500000920E-02 0. -1.
        2   -1    0    0  501    0  0.00000000000E+00  0.00000000000E+00 -0.53313049332E+03  0.53313049333E+03  0.25500000920E-02 0.  1.
    10030    2    1    2    0    0  0.00000000000E+00  0.00000000000E+00  0.42586029753E+02  0.11088470164E+04  0.11080289418E+04 0.  0.
        1    1    3    3  502    0 -0.47813479905E+02 -0.42114898672E+03  0.37831885447E+03  0.56813533031E+03  0.50400001928E-02 0. -1.
       -1    1    3    3    0  502  0.47813479905E+02  0.42114898672E+03 -0.33573282472E+03  0.54071168611E+03  0.50400001928E-02 0.  1.
</event>
<event>
 5   0  0.4428114E-03  0.1124142E+04  0.7818609E-02  0.9181975E-01
       -1   -1    0    0    0  501  0.00000000000E+00  0.00000000000E+00  0.69059328777E+03  0.69059328778E+03  0.50400001928E-02 0. -1.
        1   -1    0    0  501    0  0.00000000000E+00  0.00000000000E+00 -0.45746747789E+03  0.45746747791E+03  0.50400001928E-02 0.  1.
    10030    2    1    2    0    0  0.00000000000E+00  0.00000000000E+00  0.23312580988E+03  0.11480607657E+04  0.11241422857E+04 0.  0.
        4    1    3    3  502    0 -0.46332380699E+00 -0.42990883555E+03 -0.25321914287E+03  0.49894224993E+03  0.12699999809E+01 0. -1.
       -4    1    3    3    0  502  0.46332380699E+00  0.42990883555E+03  0.48634495274E+03  0.64911851577E+03  0.12699999809E+01 0.  1.
</event>
<event>
 5   0  0.4598561E-03  0.1096147E+04  0.7818609E-02  0.9208955E-01
       -1   -1    0    0    0  501  0.00000000000E+00  0.00000000000E+00  0.60804856876E+03  0.60804856878E+03  0.50400001928E-02 0. -1.
        1   -1    0    0  501    0  0.00000000000E+00  0.00000000000E+00 -0.49401438354E+03  0.49401438357E+03  0.50400001928E-02 0.  1.
    10030    2    1    2    0    0  0.00000000000E+00  0.00000000000E+00  0.11403418522E+03  0.11020629524E+04  0.10961473238E+04 0.  0.
        2    1    3    3  502    0 -0.93807398787E+02 -0.74333616755E+02  0.59474875031E+03  0.60667239154E+03  0.25500000920E-02 0. -1.
       -2    1    3    3    0  502  0.93807398787E+02  0.74333616755E+02 -0.48071456509E+03  0.49539056082E+03  0.25500000920E-02 0.  1.
</event>
<event>
 5   0  0.4641021E-03  0.1099580E+04  0.7818609E-02  0.9205601E-01
       -1   -1    0    0    0  501  0.00000000000E+00  0.00000000000E+00  0.30340197031E+03  0.30340197035E+03  0.50400001928E-02 0.  1.
        1   -1    0    0  501    0  0.00000000000E+00  0.00000000000E+00 -0.99626671072E+03  0.99626671074E+03  0.50400001928E-02 0. -1.
    10030    2    1    2    0    0  0.00000000000E+00  0.00000000000E+00 -0.69286474042E+03  0.12996686811E+04  0.10995804346E+04 0.  0.
        1    1    3    3  502    0  0.28828198008E+03  0.24013638876E+03 -0.82142654103E+03  0.90305788717E+03  0.50400001928E-02 0. -1.
       -1    1    3    3    0  502 -0.28828198008E+03 -0.24013638876E+03  0.12856180061E+03  0.39661079392E+03  0.50400001928E-02 0.  1.
</event>
<event>
 5   0  0.7537480E-03  0.1122022E+04  0.7818609E-02  0.9183990E-01
       -2   -1    0    0    0  501  0.00000000000E+00  0.00000000000E+00  0.16813778743E+03  0.16813778745E+03  0.25500000920E-02 0. -1.
        2   -1    0    0  501    0  0.00000000000E+00  0.00000000000E+00 -0.18718777462E+04  0.18718777462E+04  0.25500000920E-02 0.  1.
    10030    2    1    2    0    0  0.00000000000E+00  0.00000000000E+00 -0.17037399588E+04  0.20400155337E+04  0.11220220722E+04 0.  0.
        1    1    3    3  502    0 -0.17983336337E+03  0.25445481452E+03 -0.36519290846E+01  0.31160973641E+03  0.50400001928E-02 0. -1.
       -1    1    3    3    0  502  0.17983336337E+03 -0.25445481452E+03 -0.17000880297E+04  0.17284057973E+04  0.50400001928E-02 0.  1.
</event>
<event>
 5   0  0.4298101E-03  0.1096968E+04  0.7818609E-02  0.9208152E-01
        1   -1    0    0  501    0  0.00000000000E+00  0.00000000000E+00  0.14559578829E+04  0.14559578829E+04  0.50400001928E-02 0.  1.
       -1   -1    0    0    0  501  0.00000000000E+00  0.00000000000E+00 -0.20662329440E+03  0.20662329446E+03  0.50400001928E-02 0. -1.
    10030    2    1    2    0    0  0.00000000000E+00  0.00000000000E+00  0.12493345885E+04  0.16625811774E+04  0.10969682116E+04 0.  0.
        3    1    3    3  502    0 -0.13676858585E+03  0.73619260846E+02 -0.17259411636E+03  0.23219427393E+03  0.10100000352E+00 0. -1.
       -3    1    3    3    0  502  0.13676858585E+03 -0.73619260846E+02  0.14219287048E+04  0.14303869034E+04  0.10100000352E+00 0.  1.
</event>
<event>
 5   0  0.4504740E-03  0.1165906E+04  0.7818609E-02  0.9143233E-01
       -1   -1    0    0    0  501  0.00000000000E+00  0.00000000000E+00  0.36599209863E+03  0.36599209867E+03  0.50400001928E-02 0.  1.
        1   -1    0    0  501    0  0.00000000000E+00  0.00000000000E+00 -0.92852920011E+03  0.92852920013E+03  0.50400001928E-02 0. -1.
    10030    2    1    2    0    0  0.00000000000E+00  0.00000000000E+00 -0.56253710148E+03  0.12945212988E+04  0.11659062580E+04 0.  0.
        5    1    3    3  502    0 -0.11398154918E+03 -0.12141438853E+03  0.33899726807E+03  0.37772276216E+03  0.46999998093E+01 0.  1.
       -5    1    3    3    0  502  0.11398154918E+03  0.12141438853E+03 -0.90153436955E+03  0.91679853663E+03  0.46999998093E+01 0. -1.
</event>
<event>
 5   0  0.4298101E-03  0.1050608E+04  0.7818609E-02  0.9254716E-01
        1   -1    0    0  501    0  0.00000000000E+00  0.00000000000E+00  0.58442784971E+03  0.58442784973E+03  0.50400001928E-02 0.  1.
       -1   -1    0    0    0  501  0.00000000000E+00  0.00000000000E+00 -0.47216151271E+03  0.47216151274E+03  0.50400001928E-02 0. -1.
    10030    2    1    2    0    0  0.00000000000E+00  0.00000000000E+00  0.11226633700E+03  0.10565893625E+04  0.10506080860E+04 0.  0.
        3    1    3    3  502    0  0.55887472983E+02 -0.45018135707E+03 -0.21024771411E+03  0.49999077529E+03  0.10100000352E+00 0. -1.
       -3    1    3    3    0  502 -0.55887472983E+02  0.45018135707E+03  0.32251405111E+03  0.55659858718E+03  0.10100000352E+00 0.  1.
</event>
<event>
 5   0  0.7712816E-03  0.1032415E+04  0.7818609E-02  0.9273690E-01
        2   -1    0    0  501    0  0.00000000000E+00  0.00000000000E+00  0.18635668959E+04  0.18635668959E+04  0.25500000920E-02 0.  1.
       -2   -1    0    0    0  501  0.00000000000E+00  0.00000000000E+00 -0.14298932962E+03  0.14298932965E+03  0.25500000920E-02 0. -1.
    10030    2    1    2    0    0  0.00000000000E+00  0.00000000000E+00  0.17205775662E+04  0.20065562255E+04  0.10324149964E+04 0.  0.
        2    1    3    3  502    0  0.12331987706E+03 -0.27003381146E+03  0.39509400397E+02  0.29947795267E+03  0.25500000920E-02 0. -1.
       -2    1    3    3    0  502 -0.12331987706E+03  0.27003381146E+03  0.16810681659E+04  0.17070782729E+04  0.25500000920E-02 0.  1.
</event>
<event>
 5   0  0.7712816E-03  0.1087800E+04  0.7818609E-02  0.9217165E-01
        2   -1    0    0  501    0  0.00000000000E+00  0.00000000000E+00  0.10616316678E+04  0.10616316678E+04  0.25500000920E-02 0. -1.
       -2   -1    0    0    0  501  0.00000000000E+00  0.00000000000E+00 -0.27865310480E+03  0.27865310481E+03  0.25500000920E-02 0.  1.
    10030    2    1    2    0    0  0.00000000000E+00  0.00000000000E+00  0.78297856300E+03  0.13402847726E+04  0.10877995411E+04 0.  0.
        2    1    3    3  502    0 -0.18790660085E+03  0.40866857132E+03  0.14722369644E+02  0.45003959826E+03  0.25500000920E-02 0.  1.
       -2    1    3    3    0  502  0.18790660085E+03 -0.40866857132E+03  0.76825619336E+03  0.89024517436E+03  0.25500000920E-02 0. -1.
</event>
<event>
 5   0  0.7738497E-03  0.1120450E+04  0.7818609E-02  0.9185486E-01
        2   -1    0    0  501    0  0.00000000000E+00  0.00000000000E+00  0.71591304916E+03  0.71591304917E+03  0.25500000920E-02 0. -1.
       -2   -1    0    0    0  501  0.00000000000E+00  0.00000000000E+00 -0.43839425645E+03  0.43839425646E+03  0.25500000920E-02 0.  1.
    10030    2    1    2    0    0  0.00000000000E+00  0.00000000000E+00  0.27751879271E+03  0.11543073056E+04  0.11204502111E+04 0.  0.
        4    1    3    3  502    0  0.59354471367E+01 -0.37401407982E+03  0.56840920733E+03  0.68045014609E+03  0.12699999809E+01 0. -1.
       -4    1    3    3    0  502 -0.59354471367E+01  0.37401407982E+03 -0.29089041462E+03  0.47385715954E+03  0.12699999809E+01 0.  1.
</event>
<event>
 5   0  0.2992375E-03  0.1096525E+04  0.7818609E-02  0.9208585E-01
        3   -1    0    0  501    0  0.00000000000E+00  0.00000000000E+00  0.32084586395E+03  0.32084587984E+03  0.10100000352E+00 0. -1.
       -3   -1    0    0    0  501  0.00000000000E+00  0.00000000000E+00 -0.93687360547E+03  0.93687361092E+03  0.10100000352E+00 0.  1.
    10030    2    1    2    0    0  0.00000000000E+00  0.00000000000E+00 -0.61602774153E+03  0.12577194908E+04  0.10965254849E+04 0.  0.
        2    1    3    3  502    0 -0.85874614288E+02  0.40378581769E+03 -0.72184979232E+03  0.83155550544E+03  0.25500000920E-02 0.  1.
       -2    1    3    3    0  502  0.85874614288E+02 -0.40378581769E+03  0.10582205079E+03  0.42616398532E+03  0.25500000920E-02 0. -1.
</event>
<event>
 5   0  0.4298101E-03  0.1100541E+04  0.7818609E-02  0.9204665E-01
       -1   -1    0    0    0  501  0.00000000000E+00  0.00000000000E+00  0.10539598217E+04  0.10539598217E+04  0.50400001928E-02 0.  1.
        1   -1    0    0  501    0  0.00000000000E+00  0.00000000000E+00 -0.28729505144E+03  0.28729505149E+03  0.50400001928E-02 0. -1.
    10030    2    1    2    0    0  0.00000000000E+00  0.00000000000E+00  0.76666477021E+03  0.13412548732E+04  0.11005406693E+04 0.  0.
        3    1    3    3  502    0  0.47301472204E+03  0.37654975734E+02  0.72290955850E+03  0.86473063115E+03  0.10100000352E+00 0.  1.
       -3    1    3    3    0  502 -0.47301472204E+03 -0.37654975734E+02  0.43755211711E+02  0.47652424201E+03  0.10100000352E+00 0. -1.
</event>
<event>
 5   0  0.4428114E-03  0.1091134E+04  0.7818609E-02  0.9213877E-01
       -1   -1    0    0    0  501  0.00000000000E+00  0.00000000000E+00  0.19132901613E+03  0.19132901620E+03  0.50400001928E-02 0.  1.
        1   -1    0    0  501    0  0.00000000000E+00  0.00000000000E+00 -0.15556615651E+04  0.15556615651E+04  0.50400001928E-02 0. -1.
    10030    2    1    2    0    0  0.00000000000E+00  0.00000000000E+00 -0.13643325490E+04  0.17469905813E+04  0.10911337164E+04 0.  0.
        4    1    3    3  502    0 -0.79301820299E+02  0.39503718862E+03 -0.93242674958E+02  0.41356857766E+03  0.12699999809E+01 0.  1.
       -4    1    3    3    0  502  0.79301820299E+02 -0.39503718862E+03 -0.12710898740E+04  0.13334220037E+04  0.12699999809E+01 0. -1.
</event>
<event>
 5   0  0.7766551E-03  0.1117909E+04  0.7818609E-02  0.9187910E-01
        2   -1    0    0  501    0  0.00000000000E+00  0.00000000000E+00  0.10326358413E+04  0.10326358413E+04  0.25500000920E-02 0. -1.
       -2   -1    0    0    0  501  0.00000000000E+00  0.00000000000E+00 -0.30255592433E+03  0.30255592434E+03  0.25500000920E-02 0.  1.
    10030    2    1    2    0    0  0.00000000000E+00  0.00000000000E+00  0.73007991694E+03  0.13351917656E+04  0.11179089255E+04 0.  0.
        5    1    3    3  502    0 -0.12554080212E+03 -0.29491608090E+03  0.91193936834E+03  0.96663927568E+03  0.46999998093E+01 0. -1.
       -5    1    3    3    0  502  0.12554080212E+03  0.29491608090E+03 -0.18185945140E+03  0.36855248992E+03  0.46999998093E+01 0.  1.
</event>
<event>
 5   0  0.4298101E-03  0.1098053E+04  0.7818609E-02  0.9207092E-01
        1   -1    0    0  501    0  0.00000000000E+00  0.00000000000E+00  0.98492837498E+03  0.98492837500E+03  0.50400001928E-02 0. -1.
       -1   -1    0    0    0  501  0.00000000000E+00  0.00000000000E+00 -0.30604242264E+03  0.30604242268E+03  0.50400001928E-02 0.  1.
    10030    2    1    2    0    0  0.00000000000E+00  0.00000000000E+00  0.67888595235E+03  0.12909707977E+04  0.10980525780E+04 0.  0.
        3    1    3    3  502    0  0.21816485283E+03  0.21530474791E+03 -0.19608124573E+03  0.36386797415E+03  0.10100000352E+00 0.  1.
       -3    1    3    3    0  502 -0.21816485283E+03 -0.21530474791E+03  0.87496719808E+03  0.92710282353E+03  0.10100000352E+00 0. -1.
</event>
<event>
 5   0  0.4598561E-03  0.1154668E+04  0.7818609E-02  0.9153488E-01
        1   -1    0    0  501    0  0.00000000000E+00  0.00000000000E+00  0.96709199934E+03  0.96709199935E+03  0.50400001928E-02 0. -1.
       -1   -1    0    0    0  501  0.00000000000E+00  0.00000000000E+00 -0.34465644898E+03  0.34465644901E+03  0.50400001928E-02 0.  1.
    10030    2    1    2    0    0  0.00000000000E+00  0.00000000000E+00  0.62243555036E+03  0.13117484484E+04  0.11546679079E+04 0.  0.
        2    1    3    3  502    0 -0.21438291968E+02 -0.75303370079E+02 -0.33859716059E+03  0.34753163176E+03  0.25500000920E-02 0.  1.
       -2    1    3    3    0  502  0.21438291968E+02  0.75303370079E+02  0.96103271095E+03  0.96421681661E+03  0.25500000920E-02 0. -1.
</event>
<event>
 5   0  0.7952121E-03  0.1091984E+04  0.7818609E-02  0.9213040E-01
       -2   -1    0    0    0  501  0.00000000000E+00  0.00000000000E+00  0.32217874915E+03  0.32217874916E+03  0.25500000920E-02 0.  1.
        2   -1    0    0  501    0  0.00000000000E+00  0.00000000000E+00 -0.92528573387E+03  0.92528573387E+03  0.25500000920E-02 0. -1.
    10030    2    1    2    0    0  0.00000000000E+00  0.00000000000E+00 -0.60310698472E+03  0.12474644830E+04  0.10919842496E+04 0.  0.
        3    1    3    3  502    0  0.36111750694E+03 -0.40925880990E+03 -0.31805936281E+03  0.63171227293E+03  0.10100000352E+00 0. -1.
       -3    1    3    3    0  502 -0.36111750694E+03  0.40925880990E+03 -0.28504762190E+03  0.61575221011E+03  0.10100000352E+00 0.  1.
</event>
<event>
 5   0  0.4298101E-03  0.1089308E+04  0.7818609E-02  0.9215677E-01
        1   -1    0    0  501    0  0.00000000000E+00  0.00000000000E+00  0.61225785053E+03  0.61225785055E+03  0.50400001928E-02 0. -1.
       -1   -1    0    0    0  501  0.00000000000E+00  0.00000000000E+00 -0.48451434587E+03  0.48451434589E+03  0.50400001928E-02 0.  1.
    10030    2    1    2    0    0  0.00000000000E+00  0.00000000000E+00  0.12774350467E+03  0.10967721964E+04  0.10893075084E+04 0.  0.
        3    1    3    3  502    0 -0.12562759126E+03 -0.25287641122E+03  0.53280892726E+03  0.60300425721E+03  0.10100000352E+00 0. -1.
       -3    1    3    3    0  502  0.12562759126E+03  0.25287641122E+03 -0.40506542259E+03  0.49376793924E+03  0.10100000352E+00 0.  1.
</event>
<event>
 5   0  0.4298101E-03  0.1083000E+04  0.7818609E-02  0.9221921E-01
       -1   -1    0    0    0  501  0.00000000000E+00  0.00000000000E+00  0.14320773383E+04  0.14320773383E+04  0.50400001928E-02 0.  1.
        1   -1    0    0  501    0  0.00000000000E+00  0.00000000000E+00 -0.20475318004E+03  0.20475318010E+03  0.50400001928E-02 0. -1.
    10030    2    1    2    0    0  0.00000000000E+00  0.00000000000E+00  0.12273241583E+04  0.16368305184E+04  0.10830002570E+04 0.  0.
        3    1    3    3  502    0  0.37359338159E+03  0.38793880864E+03  0.69854011523E+03  0.88205829558E+03  0.10100000352E+00 0. -1.
       -3    1    3    3    0  502 -0.37359338159E+03 -0.38793880864E+03  0.52878404307E+03  0.75477222287E+03  0.10100000352E+00 0.  1.
</event>
<event>
 5   0  0.4298101E-03  0.1112101E+04  0.7818609E-02  0.9193477E-01
        1   -1    0    0  501    0  0.00000000000E+00  0.00000000000E+00  0.20184331341E+03  0.20184331348E+03  0.50400001928E-02 0.  1.
       -1   -1    0    0    0  501  0.00000000000E+00  0.00000000000E+00 -0.15318418828E+04  0.15318418828E+04  0.50400001928E-02 0. -1.
    10030    2    1    2    0    0  0.00000000000E+00  0.00000000000E+00 -0.13299985694E+04  0.17336851963E+04  0.11121007891E+04 0.  0.
        3    1    3    3  502    0  0.48472304308E+03  0.27113989842E+03 -0.70679362430E+03  0.89890517329E+03  0.10100000352E+00 0.  1.
       -3    1    3    3    0  502 -0.48472304308E+03 -0.27113989842E+03 -0.62320494505E+03  0.83478002297E+03  0.10100000352E+00 0. -1.
</event>
<event>
 5   0  0.2992375E-03  0.1126340E+04  0.7818609E-02  0.9179893E-01
        4   -1    0    0  501    0  0.00000000000E+00  0.00000000000E+00  0.84891569854E+03  0.84891664851E+03  0.12699999809E+01 0.  1.
       -4   -1    0    0    0  501  0.00000000000E+00  0.00000000000E+00 -0.37360440873E+03  0.37360656729E+03  0.12699999809E+01 0. -1.
    10030    2    1    2    0    0  0.00000000000E+00  0.00000000000E+00  0.47531128980E+03  0.12225232158E+04  0.11263401755E+04 0.  0.
        4    1    3    3  502    0 -0.32851135337E+03 -0.16515729373E+03  0.70065271357E+03  0.79127269566E+03  0.12699999809E+01 0.  1.
       -4    1    3    3    0  502  0.32851135337E+03  0.16515729373E+03 -0.22534142377E+03  0.43125052015E+03  0.12699999809E+01 0. -1.
</event>
<event>
 5   0  0.4428114E-03  0.1140954E+04  0.7818609E-02  0.9166170E-01
       -1   -1    0    0    0  501  0.00000000000E+00  0.00000000000E+00  0.58425111098E+03  0.58425111100E+03  0.50400001928E-02 0.  1.
        1   -1    0    0  501    0  0.00000000000E+00  0.00000000000E+00 -0.55702759432E+03  0.55702759434E+03  0.50400001928E-02 0. -1.
    10030    2    1    2    0    0  0.00000000000E+00  0.00000000000E+00  0.27223516661E+02  0.11412787053E+04  0.11409539708E+04 0.  0.
        4    1    3    3  502    0  0.41033336147E+03 -0.30703776697E+02 -0.38162876768E+03  0.56121147410E+03  0.12699999809E+01 0. -1.
       -4    1    3    3    0  502 -0.41033336147E+03  0.30703776697E+02  0.40885228434E+03  0.58006723124E+03  0.12699999809E+01 0.  1.
</event>
<event>
 5   0  0.4428114E-03  0.1090263E+04  0.7818609E-02  0.9214734E-01
        1   -1    0    0  501    0  0.00000000000E+00  0.00000000000E+00  0.51724141228E+03  0.51724141230E+03  0.50400001928E-02 0.  1.
       -1   -1    0    0    0  501  0.00000000000E+00  0.00000000000E+00 -0.57452585192E+03  0.57452585194E+03  0.50400001928E-02 0. -1.
    10030    2    1    2    0    0  0.00000000000E+00  0.00000000000E+00 -0.57284439639E+02  0.10917672642E+04  0.10902633866E+04 0.  0.
        4    1    3    3  502    0  0.16573326599E+02  0.34886700455E+03 -0.44776953834E+03  0.56787501652E+03  0.12699999809E+01 0. -1.
       -4    1    3    3    0  502 -0.16573326599E+02 -0.34886700455E+03  0.39048509871E+03  0.52389224773E+03  0.12699999809E+01 0.  1.
</event>
<event>
 5   0  0.7952121E-03  0.1101459E+04  0.7818609E-02  0.9203771E-01
       -2   -1    0    0    0  501  0.00000000000E+00  0.00000000000E+00  0.80466996090E+03  0.80466996090E+03  0.25500000920E-02 0.  1.
        2   -1    0    0  501    0  0.00000000000E+00  0.00000000000E+00 -0.37692842064E+03  0.37692842065E+03  0.25500000920E-02 0. -1.
    10030    2    1    2    0    0  0.00000000000E+00  0.00000000000E+00  0.42774154026E+03  0.11815983815E+04  0.11014589915E+04 0.  0.
        3    1    3    3  502    0  0.16884062915E+03 -0.48448057058E+03  0.42862167047E+03  0.66853954851E+03  0.10100000352E+00 0. -1.
       -3    1    3    3    0  502 -0.16884062915E+03  0.48448057058E+03 -0.88013021074E+00  0.51305883304E+03  0.10100000352E+00 0.  1.
</event>
<event>
 5   0  0.7738497E-03  0.1107167E+04  0.7818609E-02  0.9198234E-01
        2   -1    0    0  501    0  0.00000000000E+00  0.00000000000E+00  0.69761402081E+03  0.69761402082E+03  0.25500000920E-02 0. -1.
       -2   -1    0    0    0  501  0.00000000000E+00  0.00000000000E+00 -0.43928989237E+03  0.43928989238E+03  0.25500000920E-02 0.  1.
    10030    2    1    2    0    0  0.00000000000E+00  0.00000000000E+00  0.25832412844E+03  0.11369039132E+04  0.11071671746E+04 0.  0.
        4    1    3    3  502    0  0.43998161303E+03 -0.12210979392E+02 -0.21559369245E+03  0.49011751749E+03  0.12699999809E+01 0.  1.
       -4    1    3    3    0  502 -0.43998161303E+03  0.12210979392E+02  0.47391782089E+03  0.64678639571E+03  0.12699999809E+01 0. -1.
</event>
<event>
 5   0  0.7738497E-03  0.1010794E+04  0.7818609E-02  0.9296784E-01
       -2   -1    0    0    0  501  0.00000000000E+00  0.00000000000E+00  0.29886539007E+03  0.29886539008E+03  0.25500000920E-02 0.  1.
        2   -1    0    0  501    0  0.00000000000E+00  0.00000000000E+00 -0.85465349908E+03  0.85465349908E+03  0.25500000920E-02 0. -1.
    10030    2    1    2    0    0  0.00000000000E+00  0.00000000000E+00 -0.55578810901E+03  0.11535188892E+04  0.10107944428E+04 0.  0.
        4    1    3    3  502    0  0.77731674375E+02 -0.24456227961E+02  0.29131716691E+03  0.30250227259E+03  0.12699999809E+01 0.  1.
       -4    1    3    3    0  502 -0.77731674375E+02  0.24456227961E+02 -0.84710527592E+03  0.85101661657E+03  0.12699999809E+01 0. -1.
</event>
<event>
 5   0  0.4504740E-03  0.1084153E+04  0.7818609E-02  0.9220777E-01
       -1   -1    0    0    0  501  0.00000000000E+00  0.00000000000E+00  0.26969181223E+03  0.26969181228E+03  0.50400001928E-02 0.  1.
        1   -1    0    0  501    0  0.00000000000E+00  0.00000000000E+00 -0.10895653709E+04  0.10895653709E+04  0.50400001928E-02 0. -1.
    10030    2    1    2    0    0  0.00000000000E+00  0.00000000000E+00 -0.81987355866E+03  0.13592571832E+04  0.10841528665E+04 0.  0.
        5    1    3    3  502    0 -0.56542021161E+02  0.26982812866E+03 -0.99507779312E+03  0.10325725754E+04  0.46999998093E+01 0. -1.
       -5    1    3    3    0  502  0.56542021161E+02 -0.26982812866E+03  0.17520423446E+03  0.32668460775E+03  0.46999998093E+01 0.  1.
</event>
<event>
 5   0  0.4298101E-03  0.1101214E+04  0.7818609E-02  0.9204009E-01
        1   -1    0    0  501    0  0.00000000000E+00  0.00000000000E+00  0.92045579417E+03  0.92045579419E+03  0.50400001928E-02 0. -1.
       -1   -1    0    0    0  501  0.00000000000E+00  0.00000000000E+00 -0.32936755807E+03  0.32936755811E+03  0.50400001928E-02 0.  1.
    10030    2    1    2    0    0  0.00000000000E+00  0.00000000000E+00  0.59108823610E+03  0.12498233523E+04  0.11012143793E+04 0.  0.
        3    1    3    3  502    0  0.37367187611E+02 -0.53687635514E+03  0.16350039606E+03  0.56246325847E+03  0.10100000352E+00 0.  1.
       -3    1    3    3    0  502 -0.37367187611E+02  0.53687635514E+03  0.42758784004E+03  0.68736009382E+03  0.10100000352E+00 0. -1.
</event>
<event>
 5   0  0.7738497E-03  0.1101851E+04  0.7818609E-02  0.9203390E-01
       -2   -1    0    0    0  501  0.00000000000E+00  0.00000000000E+00  0.22023352445E+03  0.22023352447E+03  0.25500000920E-02 0.  1.
        2   -1    0    0  501    0  0.00000000000E+00  0.00000000000E+00 -0.13781687730E+04  0.13781687730E+04  0.25500000920E-02 0. -1.
    10030    2    1    2    0    0  0.00000000000E+00  0.00000000000E+00 -0.11579352486E+04  0.15984022975E+04  0.11018511082E+04 0.  0.
        4    1    3    3  502    0  0.24926132155E+03 -0.21746141241E+03 -0.12180726561E+04  0.12621898751E+04  0.12699999809E+01 0. -1.
       -4    1    3    3    0  502 -0.24926132155E+03  0.21746141241E+03  0.60137407523E+02  0.33621242242E+03  0.12699999809E+01 0.  1.
</event>
<event>
 5   0  0.7766551E-03  0.1179718E+04  0.7818609E-02  0.9130797E-01
        2   -1    0    0  501    0  0.00000000000E+00  0.00000000000E+00  0.51076264194E+03  0.51076264194E+03  0.25500000920E-02 0. -1.
       -2   -1    0    0    0  501  0.00000000000E+00  0.00000000000E+00 -0.68120368899E+03  0.68120368900E+03  0.25500000920E-02 0.  1.
    10030    2    1    2    0    0  0.00000000000E+00  0.00000000000E+00 -0.17044104706E+03  0.11919663309E+04  0.11797175864E+04 0.  0.
        5    1    3    3  502    0 -0.41289691811E+03 -0.11014961149E+03 -0.49600605762E+03  0.65472200291E+03  0.46999998093E+01 0.  1.
       -5    1    3    3    0  502  0.41289691811E+03  0.11014961149E+03  0.32556501057E+03  0.53724432803E+03  0.46999998093E+01 0. -1.
</event>
<event>
 5   0  0.4504740E-03  0.1083225E+04  0.7818609E-02  0.9221698E-01
        1   -1    0    0  501    0  0.00000000000E+00  0.00000000000E+00  0.17637165320E+04  0.17637165321E+04  0.50400001928E-02 0. -1.
       -1   -1    0    0    0  501  0.00000000000E+00  0.00000000000E+00 -0.16632145032E+03  0.16632145040E+03  0.50400001928E-02 0.  1.
    10030    2    1    2    0    0  0.00000000000E+00  0.00000000000E+00  0.15973950817E+04  0.19300379825E+04  0.10832246150E+04 0.  0.
        5    1    3    3  502    0  0.40006564399E+03  0.36440408246E+03  0.83769093059E+03  0.99729185297E+03  0.46999998093E+01 0. -1.
       -5    1    3    3    0  502 -0.40006564399E+03 -0.36440408246E+03  0.75970415114E+03  0.93274612948E+03  0.46999998093E+01 0.  1.
</event>
<event>
 5   0  0.4298101E-03  0.1122238E+04  0.7818609E-02  0.9183784E-01
       -1   -1    0    0    0  501  0.00000000000E+00  0.00000000000E+00  0.93017352224E+03  0.93017352225E+03  0.50400001928E-02 0. -1.
        1   -1    0    0  501    0  0.00000000000E+00  0.00000000000E+00 -0.33849026508E+03  0.33849026512E+03  0.50400001928E-02 0.  1.
    10030    2    1    2    0    0  0.00000000000E+00  0.00000000000E+00  0.59168325715E+03  0.12686637874E+04  0.11222382673E+04 0.  0.
        3    1    3    3  502    0  0.47052814874E+03 -0.26566361824E+03  0.46684191446E+03  0.71408352460E+03  0.10100000352E+00 0. -1.
       -3    1    3    3    0  502 -0.47052814874E+03  0.26566361824E+03  0.12484134269E+03  0.55458026277E+03  0.10100000352E+00 0.  1.
</event>
<event>
 5   0  0.7712816E-03  0.1101132E+04  0.7818609E-02  0.9204089E-01
        2   -1    0    0  501    0  0.00000000000E+00  0.00000000000E+00  0.73589383840E+03  0.73589383841E+03  0.25500000920E-02 0.  1.
       -2   -1    0    0    0  501  0.00000000000E+00  0.00000000000E+00 -0.41191107626E+03  0.41191107627E+03  0.25500000920E-02 0. -1.
    10030    2    1    2    0    0  0.00000000000E+00  0.00000000000E+00  0.32398276214E+03  0.11478049147E+04  0.11011318232E+04 0.  0.
        2    1    3    3  502    0 -0.36034816306E+03  0.32512785933E+02 -0.27058637369E+03  0.45180179891E+03  0.25500000920E-02 0. -1.
       -2    1    3    3    0  502  0.36034816306E+03 -0.32512785933E+02  0.59456913583E+03  0.69600311576E+03  0.25500000920E-02 0.  1.
</event>
<event>
 5   0  0.7766551E-03  0.1058663E+04  0.7818609E-02  0.9246446E-01
        2   -1    0    0  501    0  0.00000000000E+00  0.00000000000E+00  0.18491771296E+04  0.18491771296E+04  0.25500000920E-02 0.  1.
       -2   -1    0    0    0  501  0.00000000000E+00  0.00000000000E+00 -0.15152237300E+03  0.15152237302E+03  0.25500000920E-02 0. -1.
    10030    2    1    2    0    0  0.00000000000E+00  0.00000000000E+00  0.16976547566E+04  0.20006995026E+04  0.10586627542E+04 0.  0.
        5    1    3    3  502    0 -0.46725427293E+03  0.16072682157E+03  0.12074481904E+04  0.13046504854E+04  0.46999998093E+01 0.  1.
       -5    1    3    3    0  502  0.46725427293E+03 -0.16072682157E+03  0.49020656624E+03  0.69604901718E+03  0.46999998093E+01 0. -1.
</event>
<event>
 5   0  0.7537480E-03  0.1086079E+04  0.7818609E-02  0.9218867E-01
       -2   -1    0    0    0  501  0.00000000000E+00  0.00000000000E+00  0.16068784049E+03  0.16068784051E+03  0.25500000920E-02 0.  1.
        2   -1    0    0  501    0  0.00000000000E+00  0.00000000000E+00 -0.18351848498E+04  0.18351848498E+04  0.25500000920E-02 0. -1.
    10030    2    1    2    0    0  0.00000000000E+00  0.00000000000E+00 -0.16744970093E+04  0.19958726903E+04  0.10860789850E+04 0.  0.
        1    1    3    3  502    0  0.34764637825E+03 -0.31583034926E+03 -0.33638174201E+03  0.57771921398E+03  0.50400001928E-02 0.  1.
       -1    1    3    3    0  502 -0.34764637825E+03  0.31583034926E+03 -0.13381152673E+04  0.14181534763E+04  0.50400001928E-02 0. -1.
</event>
<event>
 5   0  0.7738497E-03  0.1112235E+04  0.7818609E-02  0.9193348E-01
       -2   -1    0    0    0  501  0.00000000000E+00  0.00000000000E+00  0.29659222685E+03  0.29659222686E+03  0.25500000920E-02 0.  1.
        2   -1    0    0  501    0  0.00000000000E+00  0.00000000000E+00 -0.10427331783E+04  0.10427331783E+04  0.25500000920E-02 0. -1.
    10030    2    1    2    0    0  0.00000000000E+00  0.00000000000E+00 -0.74614095149E+03  0.13393254052E+04  0.11122347870E+04 0.  0.
        4    1    3    3  502    0  0.52448429064E+03  0.18361519815E+03 -0.34705833305E+03  0.65517128414E+03  0.12699999809E+01 0. -1.
       -4    1    3    3    0  502 -0.52448429064E+03 -0.18361519815E+03 -0.39908261845E+03  0.68415412106E+03  0.12699999809E+01 0.  1.
</event>
<event>
 5   0  0.7766551E-03  0.1103037E+04  0.7818609E-02  0.9202236E-01
       -2   -1    0    0    0  501  0.00000000000E+00  0.00000000000E+00  0.15434629930E+03  0.15434629932E+03  0.25500000920E-02 0.  1.
        2   -1    0    0  501    0  0.00000000000E+00  0.00000000000E+00 -0.19707172931E+04  0.19707172931E+04  0.25500000920E-02 0. -1.
    10030    2    1    2    0    0  0.00000000000E+00  0.00000000000E+00 -0.18163709938E+04  0.21250635924E+04  0.11030374811E+04 0.  0.
        5    1    3    3  502    0  0.27203611787E+03 -0.33287034664E+03 -0.24263212030E+03  0.49365853877E+03  0.46999998093E+01 0.  1.
       -5    1    3    3    0  502 -0.27203611787E+03  0.33287034664E+03 -0.15737388735E+04  0.16314050536E+04  0.46999998093E+01 0. -1.
</event>
<event>
 5   0  0.7952121E-03  0.1074081E+04  0.7818609E-02  0.9230829E-01
       -2   -1    0    0    0  501  0.00000000000E+00  0.00000000000E+00  0.13084789394E+03  0.13084789396E+03  0.25500000920E-02 0.  1.
        2   -1    0    0  501    0  0.00000000000E+00  0.00000000000E+00 -0.22041799738E+04  0.22041799738E+04  0.25500000920E-02 0. -1.
    10030    2    1    2    0    0  0.00000000000E+00  0.00000000000E+00 -0.20733320799E+04  0.23350278678E+04  0.10740806440E+04 0.  0.
        3    1    3    3  502    0 -0.50661670374E+03  0.12519357252E+03 -0.13123276899E+04  0.14122810949E+04  0.10100000352E+00 0.  1.
       -3    1    3    3    0  502  0.50661670374E+03 -0.12519357252E+03 -0.76100438997E+03  0.92274677288E+03  0.10100000352E+00 0. -1.
</event>
<event>
 5   0  0.4598561E-03  0.1125183E+04  0.7818609E-02  0.9180989E-01
       -1   -1    0    0    0  501  0.00000000000E+00  0.00000000000E+00  0.71209641148E+03  0.71209641150E+03  0.50400001928E-02 0.  1.
        1   -1    0    0  501    0  0.00000000000E+00  0.00000000000E+00 -0.44447493265E+03  0.44447493268E+03  0.50400001928E-02 0. -1.
    10030    2    1    2    0    0  0.00000000000E+00  0.00000000000E+00  0.26762147883E+03  0.11565713442E+04  0.11251826599E+04 0.  0.
        2    1    3    3  502    0 -0.17854996765E+03 -0.51429678613E+03 -0.12019231600E+02  0.54454176801E+03  0.25500000920E-02 0. -1.
       -2    1    3    3    0  502  0.17854996765E+03  0.51429678613E+03  0.27964071043E+03  0.61202957617E+03  0.25500000920E-02 0.  1.
</event>
<event>
 5   0  0.7766551E-03  0.1109690E+04  0.7818609E-02  0.9195799E-01
        2   -1    0    0  501    0  0.00000000000E+00  0.00000000000E+00  0.97479867585E+03  0.97479867585E+03  0.25500000920E-02 0. -1.
       -2   -1    0    0    0  501  0.00000000000E+00  0.00000000000E+00 -0.31581159957E+03  0.31581159958E+03  0.25500000920E-02 0.  1.
    10030    2    1    2    0    0  0.00000000000E+00  0.00000000000E+00  0.65898707627E+03  0.12906102754E+04  0.11096895586E+04 0.  0.
        5    1    3    3  502    0 -0.32037341203E+03  0.13504009356E+03 -0.17338483830E+03  0.38853486608E+03  0.46999998093E+01 0.  1.
       -5    1    3    3    0  502  0.32037341203E+03 -0.13504009356E+03  0.83237191457E+03  0.90207540936E+03  0.46999998093E+01 0. -1.
</event>
<event>
 5   0  0.4504740E-03  0.1086605E+04  0.7818609E-02  0.9218347E-01
        1   -1    0    0  501    0  0.00000000000E+00  0.00000000000E+00  0.70606275172E+03  0.70606275174E+03  0.50400001928E-02 0. -1.
       -1   -1    0    0    0  501  0.00000000000E+00  0.00000000000E+00 -0.41806120776E+03  0.41806120779E+03  0.50400001928E-02 0.  1.
    10030    2    1    2    0    0  0.00000000000E+00  0.00000000000E+00  0.28800154396E+03  0.11241239595E+04  0.10866047060E+04 0.  0.
        5    1    3    3  502    0 -0.48867038864E+03  0.13176871731E+03  0.34828712832E+03  0.61440032336E+03  0.46999998093E+01 0. -1.
       -5    1    3    3    0  502  0.48867038864E+03 -0.13176871731E+03 -0.60285584358E+02  0.50972363617E+03  0.46999998093E+01 0.  1.
</event>
<event>
 5   0  0.4504740E-03  0.1012346E+04  0.7818609E-02  0.9295106E-01
       -1   -1    0    0    0  501  0.00000000000E+00  0.00000000000E+00  0.26003010984E+03  0.26003010989E+03  0.50400001928E-02 0. -1.
        1   -1    0    0  501    0  0.00000000000E+00  0.00000000000E+00 -0.98531405717E+03  0.98531405718E+03  0.50400001928E-02 0.  1.
    10030    2    1    2    0    0  0.00000000000E+00  0.00000000000E+00 -0.72528394733E+03  0.12453441671E+04  0.10123464280E+04 0.  0.
        5    1    3    3  502    0  0.12169930316E+03  0.46047916277E+03 -0.57334532254E+03  0.74538495330E+03  0.46999998093E+01 0. -1.
       -5    1    3    3    0  502 -0.12169930316E+03 -0.46047916277E+03 -0.15193862479E+03  0.49995921377E+03  0.46999998093E+01 0.  1.
</event>
<event>
 5   0  0.4504740E-03  0.1090756E+04  0.7818609E-02  0.9214249E-01
        1   -1    0    0  501    0  0.00000000000E+00  0.00000000000E+00  0.72342731726E+03  0.72342731728E+03  0.50400001928E-02 0. -1.
       -1   -1    0    0    0  501  0.00000000000E+00  0.00000000000E+00 -0.41114994821E+03  0.41114994824E+03  0.50400001928E-02 0.  1.
    10030    2    1    2    0    0  0.00000000000E+00  0.00000000000E+00  0.31227736906E+03  0.11345772655E+04  0.10907558921E+04 0.  0.
        5    1    3    3  502    0  0.79496872258E+02 -0.67084185631E+02  0.71299197956E+03  0.72055512876E+03  0.46999998093E+01 0. -1.
       -5    1    3    3    0  502 -0.79496872258E+02  0.67084185631E+02 -0.40071461051E+03  0.41402213676E+03  0.46999998093E+01 0.  1.
</event>
<event>
 5   0  0.4428114E-03  0.1065646E+04  0.7818609E-02  0.9239338E-01
       -1   -1    0    0    0  501  0.00000000000E+00  0.00000000000E+00  0.27456012915E+03  0.27456012919E+03  0.50400001928E-02 0. -1.
        1   -1    0    0  501    0  0.00000000000E+00  0.00000000000E+00 -0.10340196857E+04  0.10340196857E+04  0.50400001928E-02 0.  1.
    10030    2    1    2    0    0  0.00000000000E+00  0.00000000000E+00 -0.75945955658E+03  0.13085798149E+04  0.10656464301E+04 0.  0.
        4    1    3    3  502    0  0.30824192387E+03  0.37135392846E+03 -0.65699546142E+03  0.81520639904E+03  0.12699999809E+01 0.  1.
       -4    1    3    3    0  502 -0.30824192387E+03 -0.37135392846E+03 -0.10246409516E+03  0.49337341589E+03  0.12699999809E+01 0. -1.
</event>
<event>
 5   0  0.7952121E-03  0.1111285E+04  0.7818609E-02  0.9194262E-01
        2   -1    0    0  501    0  0.00000000000E+00  0.00000000000E+00  0.10691543895E+04  0.10691543895E+04  0.25500000920E-02 0. -1.
       -2   -1    0    0    0  501  0.00000000000E+00  0.00000000000E+00 -0.28876906397E+03  0.28876906398E+03  0.25500000920E-02 0.  1.
    10030    2    1    2    0    0  0.00000000000E+00  0.00000000000E+00  0.78038532550E+03  0.13579234535E+04  0.11112852240E+04 0.  0.
        3    1    3    3  502    0 -0.43250132445E+03  0.33662993955E+03  0.50192893804E+03  0.74317547113E+03  0.10100000352E+00 0. -1.
       -3    1    3    3    0  502  0.43250132445E+03 -0.33662993955E+03  0.27845638746E+03  0.61474798232E+03  0.10100000352E+00 0.  1.
</event>
<event>
 5   0  0.2992375E-03  0.1079602E+04  0.7818609E-02  0.9225304E-01
       -4   -1    0    0    0  501  0.00000000000E+00  0.00000000000E+00  0.10633440654E+04  0.10633448238E+04  0.12699999809E+01 0.  1.
        4   -1    0    0  501    0  0.00000000000E+00  0.00000000000E+00 -0.27402484146E+03  0.27402778443E+03  0.12699999809E+01 0. -1.
    10030    2    1    2    0    0  0.00000000000E+00  0.00000000000E+00  0.78931922393E+03  0.13373726082E+04  0.10796020822E+04 0.  0.
        2    1    3    3  502    0 -0.12666129070E+03 -0.52333454737E+03  0.34727735274E+03  0.64072122703E+03  0.25500000920E-02 0. -1.
       -2    1    3    3    0  502  0.12666129070E+03  0.52333454737E+03  0.44204187119E+03  0.69665138120E+03  0.25500000920E-02 0.  1.
</event>
<event>
 5   0  0.4428114E-03  0.1096254E+04  0.7818609E-02  0.9208850E-01
        1   -1    0    0  501    0  0.00000000000E+00  0.00000000000E+00  0.14039003041E+04  0.14039003041E+04  0.50400001928E-02 0.  1.
       -1   -1    0    0    0  501  0.00000000000E+00  0.00000000000E+00 -0.21400622063E+03  0.21400622069E+03  0.50400001928E-02 0. -1.
    10030    2    1    2    0    0  0.00000000000E+00  0.00000000000E+00  0.11898940835E+04  0.16179065248E+04  0.10962543469E+04 0.  0.
        4    1    3    3  502    0 -0.20595240276E+03  0.43009356719E+03  0.99382229865E+03  0.11023072362E+04  0.12699999809E+01 0.  1.
       -4    1    3    3    0  502  0.20595240276E+03 -0.43009356719E+03  0.19607178485E+03  0.51559928865E+03  0.12699999809E+01 0. -1.
</event>
<event>
 5   0  0.7712816E-03  0.1072121E+04  0.7818609E-02  0.9232799E-01
        2   -1    0    0  501    0  0.00000000000E+00  0.00000000000E+00  0.18158026149E+03  0.18158026151E+03  0.25500000920E-02 0.  1.
       -2   -1    0    0    0  501  0.00000000000E+00  0.00000000000E+00 -0.15825551667E+04  0.15825551667E+04  0.25500000920E-02 0. -1.
    10030    2    1    2    0    0  0.00000000000E+00  0.00000000000E+00 -0.14009749052E+04  0.17641354282E+04  0.10721208533E+04 0.  0.
        2    1    3    3  502    0  0.47897166285E+03 -0.22619490026E+03 -0.83600405384E+03  0.98968720552E+03  0.25500000920E-02 0. -1.
       -2    1    3    3    0  502 -0.47897166285E+03  0.22619490026E+03 -0.56497085132E+03  0.77444822265E+03  0.25500000920E-02 0.  1.
</event>
<event>
 5   0  0.7712816E-03  0.1109442E+04  0.7818609E-02  0.9196038E-01
       -2   -1    0    0    0  501  0.00000000000E+00  0.00000000000E+00  0.46819243668E+03  0.46819243669E+03  0.25500000920E-02 0.  1.
        2   -1    0    0  501    0  0.00000000000E+00  0.00000000000E+00 -0.65724127746E+03  0.65724127747E+03  0.25500000920E-02 0. -1.
    10030    2    1    2    0    0  0.00000000000E+00  0.00000000000E+00 -0.18904884078E+03  0.11254337142E+04  0.11094420132E+04 0.  0.
        2    1    3    3  502    0 -0.40740264627E+03 -0.35323335067E+03  0.37601533508E+02  0.54052251715E+03  0.25500000920E-02 0.  1.
       -2    1    3    3    0  502  0.40740264627E+03  0.35323335067E+03 -0.22665037429E+03  0.58491119701E+03  0.25500000920E-02 0. -1.
</event>
<event>
 5   0  0.4428114E-03  0.1110837E+04  0.7818609E-02  0.9194693E-01
        1   -1    0    0  501    0  0.00000000000E+00  0.00000000000E+00  0.24363804822E+03  0.24363804827E+03  0.50400001928E-02 0.  1.
       -1   -1    0    0    0  501  0.00000000000E+00  0.00000000000E+00 -0.12661805527E+04  0.12661805528E+04  0.50400001928E-02 0. -1.
    10030    2    1    2    0    0  0.00000000000E+00  0.00000000000E+00 -0.10225425045E+04  0.15098186010E+04  0.11108370873E+04 0.  0.
        4    1    3    3  502    0  0.33072109689E+02 -0.55210464547E+03 -0.58023957583E+03  0.80161891335E+03  0.12699999809E+01 0.  1.
       -4    1    3    3    0  502 -0.33072109689E+02  0.55210464547E+03 -0.44230292870E+03  0.70819968768E+03  0.12699999809E+01 0. -1.
</event>
<event>
 5   0  0.7766551E-03  0.1017558E+04  0.7818609E-02  0.9289495E-01
        2   -1    0    0  501    0  0.00000000000E+00  0.00000000000E+00  0.12333954131E+04  0.12333954131E+04  0.25500000920E-02 0.  1.
       -2   -1    0    0    0  501  0.00000000000E+00  0.00000000000E+00 -0.20987260591E+03  0.20987260593E+03  0.25500000920E-02 0. -1.
    10030    2    1    2    0    0  0.00000000000E+00  0.00000000000E+00  0.10235228072E+04  0.14432680190E+04  0.10175576828E+04 0.  0.
        5    1    3    3  502    0  0.11820600593E+03  0.11857432859E+03 -0.16964634044E+03  0.23839987849E+03  0.46999998093E+01 0. -1.
       -5    1    3    3    0  502 -0.11820600593E+03 -0.11857432859E+03  0.11931691476E+04  0.12048681405E+04  0.46999998093E+01 0.  1.
</event>
<event>
 5   0  0.4298101E-03  0.9687994E+03  0.7818609E-02  0.9343443E-01
       -1   -1    0    0    0  501  0.00000000000E+00  0.00000000000E+00  0.85809292289E+03  0.85809292290E+03  0.50400001928E-02 0.  1.
        1   -1    0    0  501    0  0.00000000000E+00  0.00000000000E+00 -0.27344717674E+03  0.27344717679E+03  0.50400001928E-02 0. -1.
    10030    2    1    2    0    0  0.00000000000E+00  0.00000000000E+00  0.58464574615E+03  0.11315400997E+04  0.96879943679E+03 0.  0.
        3    1    3    3  502    0  0.46756232086E+03  0.18171194917E+02  0.14598281462E+03  0.49015886056E+03  0.10100000352E+00 0.  1.
       -3    1    3    3    0  502 -0.46756232086E+03 -0.18171194917E+02  0.43866293153E+03  0.64138123913E+03  0.10100000352E+00 0. -1.
</event>
<event>
 5   0  0.7738497E-03  0.1058345E+04  0.7818609E-02  0.9246771E-01
       -2   -1    0    0    0  501  0.00000000000E+00  0.00000000000E+00  0.48207529938E+03  0.48207529938E+03  0.25500000920E-02 0. -1.
        2   -1    0    0  501    0  0.00000000000E+00  0.00000000000E+00 -0.58087044864E+03  0.58087044864E+03  0.25500000920E-02 0.  1.
    10030    2    1    2    0    0  0.00000000000E+00  0.00000000000E+00 -0.98795149258E+02  0.10629457480E+04  0.10583445477E+04 0.  0.
        4    1    3    3  502    0 -0.10056439447E+03 -0.13701664022E+03 -0.55270991582E+03  0.57825307701E+03  0.12699999809E+01 0.  1.
       -4    1    3    3    0  502  0.10056439447E+03  0.13701664022E+03  0.45391476656E+03  0.48469267101E+03  0.12699999809E+01 0. -1.
</event>
<event>
 5   0  0.2992375E-03  0.1060418E+04  0.7818609E-02  0.9244654E-01
       -3   -1    0    0    0  501  0.00000000000E+00  0.00000000000E+00  0.16991015962E+03  0.16991018964E+03  0.10100000352E+00 0.  1.
        3   -1    0    0  501    0  0.00000000000E+00  0.00000000000E+00 -0.16545303491E+04  0.16545303522E+04  0.10100000352E+00 0. -1.
    10030    2    1    2    0    0  0.00000000000E+00  0.00000000000E+00 -0.14846201895E+04  0.18244405418E+04  0.10604179288E+04 0.  0.
        4    1    3    3  502    0  0.37339305221E+03  0.42854363743E+01 -0.94711801828E+02  0.38524365628E+03  0.12699999809E+01 0.  1.
       -4    1    3    3    0  502 -0.37339305221E+03 -0.42854363743E+01 -0.13899083876E+04  0.14391968855E+04  0.12699999809E+01 0. -1.
</event>
<event>
 5   0  0.2992375E-03  0.1107479E+04  0.7818609E-02  0.9197933E-01
        4   -1    0    0  501    0  0.00000000000E+00  0.00000000000E+00  0.15411250297E+04  0.15411255530E+04  0.12699999809E+01 0.  1.
       -4   -1    0    0    0  501  0.00000000000E+00  0.00000000000E+00 -0.19896076527E+03  0.19896481854E+03  0.12699999809E+01 0. -1.
    10030    2    1    2    0    0  0.00000000000E+00  0.00000000000E+00  0.13421642645E+04  0.17400903716E+04  0.11074789336E+04 0.  0.
        2    1    3    3  502    0  0.15386798790E+03  0.12063230107E+03  0.14850879235E+04  0.14979030844E+04  0.25500000920E-02 0.  1.
       -2    1    3    3    0  502 -0.15386798790E+03 -0.12063230107E+03 -0.14292365901E+03  0.24218728718E+03  0.25500000920E-02 0. -1.
</event>
<event>
 5   0  0.4641021E-03  0.1094450E+04  0.7818609E-02  0.9210618E-01
        1   -1    0    0  501    0  0.00000000000E+00  0.00000000000E+00  0.11363926088E+04  0.11363926089E+04  0.50400001928E-02 0. -1.
       -1   -1    0    0    0  501  0.00000000000E+00  0.00000000000E+00 -0.26351405072E+03  0.26351405077E+03  0.50400001928E-02 0.  1.
    10030    2    1    2    0    0  0.00000000000E+00  0.00000000000E+00  0.87287855812E+03  0.13999066596E+04  0.10944504002E+04 0.  0.
        1    1    3    3  502    0  0.10650385359E+03 -0.29849237904E+03  0.10070573445E+04  0.10557486757E+04  0.50400001928E-02 0. -1.
       -1    1    3    3    0  502 -0.10650385359E+03  0.29849237904E+03 -0.13417878634E+03  0.34415798393E+03  0.50400001928E-02 0.  1.
</event>
<event>
 5   0  0.4641021E-03  0.1100876E+04  0.7818609E-02  0.9204339E-01
        1   -1    0    0  501    0  0.00000000000E+00  0.00000000000E+00  0.50573085749E+03  0.50573085751E+03  0.50400001928E-02 0. -1.
       -1   -1    0    0    0  501  0.00000000000E+00  0.00000000000E+00 -0.59909712602E+03  0.59909712604E+03  0.50400001928E-02 0.  1.
    10030    2    1    2    0    0  0.00000000000E+00  0.00000000000E+00 -0.93366268534E+02  0.11048279836E+04  0.11008758391E+04 0.  0.
        1    1    3    3  502    0 -0.17060841994E+03  0.10437257090E+03 -0.56134091377E+03  0.59590644233E+03  0.50400001928E-02 0.  1.
       -1    1    3    3    0  502  0.17060841994E+03 -0.10437257090E+03  0.46797464524E+03  0.50892154122E+03  0.50400001928E-02 0. -1.
</event>
<event>
 5   0  0.4298101E-03  0.1094966E+04  0.7818609E-02  0.9210112E-01
       -1   -1    0    0    0  501  0.00000000000E+00  0.00000000000E+00  0.18649146482E+03  0.18649146489E+03  0.50400001928E-02 0. -1.
        1   -1    0    0  501    0  0.00000000000E+00  0.00000000000E+00 -0.16072454658E+04  0.16072454658E+04  0.50400001928E-02 0.  1.
    10030    2    1    2    0    0  0.00000000000E+00  0.00000000000E+00 -0.14207540010E+04  0.17937369307E+04  0.10949658649E+04 0.  0.
        3    1    3    3  502    0 -0.49143260592E+03  0.19131994561E+03 -0.46945936478E+03  0.70604633922E+03  0.10100000352E+00 0.  1.
       -3    1    3    3    0  502  0.49143260592E+03 -0.19131994561E+03 -0.95129463622E+03  0.10876905915E+04  0.10100000352E+00 0. -1.
</event>
<event>
 5   0  0.7738497E-03  0.1115017E+04  0.7818609E-02  0.9190677E-01
        2   -1    0    0  501    0  0.00000000000E+00  0.00000000000E+00  0.11653354469E+04  0.11653354469E+04  0.25500000920E-02 0.  1.
       -2   -1    0    0    0  501  0.00000000000E+00  0.00000000000E+00 -0.26671794402E+03  0.26671794403E+03  0.25500000920E-02 0. -1.
    10030    2    1    2    0    0  0.00000000000E+00  0.00000000000E+00  0.89861750292E+03  0.14320533910E+04  0.11150172636E+04 0.  0.
        4    1    3    3  502    0  0.14259398190E+03  0.41875768438E+03  0.13536991930E+02  0.44257869916E+03  0.12699999809E+01 0. -1.
       -4    1    3    3    0  502 -0.14259398190E+03 -0.41875768438E+03  0.88508051099E+03  0.98947469181E+03  0.12699999809E+01 0.  1.
</event>
<event>
 5   0  0.7537480E-03  0.1165788E+04  0.7818609E-02  0.9143341E-01
       -2   -1    0    0    0  501  0.00000000000E+00  0.00000000000E+00  0.29358216842E+03  0.29358216843E+03  0.25500000920E-02 0. -1.
        2   -1    0    0  501    0  0.00000000000E+00  0.00000000000E+00 -0.11573093548E+04  0.11573093548E+04  0.25500000920E-02 0.  1.
    10030    2    1    2    0    0  0.00000000000E+00  0.00000000000E+00 -0.86372718641E+03  0.14508915233E+04  0.11657879566E+04 0.  0.
        1    1    3    3  502    0 -0.48165533233E+03  0.21458368201E+03 -0.74107412689E+03  0.90952123522E+03  0.50400001928E-02 0.  1.
       -1    1    3    3    0  502  0.48165533233E+03 -0.21458368201E+03 -0.12265305952E+03  0.54137028804E+03  0.50400001928E-02 0. -1.
</event>
<event>
 5   0  0.2992375E-03  0.1074162E+04  0.7818609E-02  0.9230748E-01
       -4   -1    0    0    0  501  0.00000000000E+00  0.00000000000E+00  0.56225261068E+03  0.56225404500E+03  0.12699999809E+01 0. -1.
        4   -1    0    0  501    0  0.00000000000E+00  0.00000000000E+00 -0.51303364682E+03  0.51303521874E+03  0.12699999809E+01 0.  1.
    10030    2    1    2    0    0  0.00000000000E+00  0.00000000000E+00  0.49218963860E+02  0.10752892637E+04  0.10741622291E+04 0.  0.
        4    1    3    3  502    0  0.34208441935E+03  0.27925533415E+02 -0.38892554536E+03  0.51871598983E+03  0.12699999809E+01 0.  1.
       -4    1    3    3    0  502 -0.34208441935E+03 -0.27925533415E+02  0.43814450922E+03  0.55657327391E+03  0.12699999809E+01 0. -1.
</event>
<event>
 5   0  0.4598561E-03  0.1088202E+04  0.7818609E-02  0.9216767E-01
        1   -1    0    0  501    0  0.00000000000E+00  0.00000000000E+00  0.53554797802E+03  0.53554797804E+03  0.50400001928E-02 0. -1.
       -1   -1    0    0    0  501  0.00000000000E+00  0.00000000000E+00 -0.55279103213E+03  0.55279103215E+03  0.50400001928E-02 0.  1.
    10030    2    1    2    0    0  0.00000000000E+00  0.00000000000E+00 -0.17243054112E+02  0.10883390102E+04  0.10882024068E+04 0.  0.
        2    1    3    3  502    0 -0.97012754817E+02  0.52375335920E+03  0.10237467204E+03  0.54241094141E+03  0.25500000920E-02 0.  1.
       -2    1    3    3    0  502  0.97012754817E+02 -0.52375335920E+03 -0.11961772615E+03  0.54592806879E+03  0.25500000920E-02 0. -1.
</event>
<event>
 5   0  0.4504740E-03  0.1087353E+04  0.7818609E-02  0.9217607E-01
        1   -1    0    0  501    0  0.00000000000E+00  0.00000000000E+00  0.49019901946E+03  0.49019901949E+03  0.50400001928E-02 0.  1.
       -1   -1    0    0    0  501  0.00000000000E+00  0.00000000000E+00 -0.60298768797E+03  0.60298768799E+03  0.50400001928E-02 0. -1.
    10030    2    1    2    0    0  0.00000000000E+00  0.00000000000E+00 -0.11278866851E+03  0.10931867075E+04  0.10873526998E+04 0.  0.
        5    1    3    3  502    0 -0.47006604240E+03  0.26980649783E+03 -0.13689935211E+02  0.54218736136E+03  0.46999998093E+01 0.  1.
       -5    1    3    3    0  502  0.47006604240E+03 -0.26980649783E+03 -0.99098733299E+02  0.55099934612E+03  0.46999998093E+01 0. -1.
</event>
<event>
 5   0  0.7738497E-03  0.1070163E+04  0.7818609E-02  0.9234771E-01
        2   -1    0    0  501    0  0.00000000000E+00  0.00000000000E+00  0.95914015201E+03  0.95914015202E+03  0.25500000920E-02 0.  1.
       -2   -1    0    0    0  501  0.00000000000E+00  0.00000000000E+00 -0.29850914873E+03  0.29850914874E+03  0.25500000920E-02 0. -1.
    10030    2    1    2    0    0  0.00000000000E+00  0.00000000000E+00  0.66063100328E+03  0.12576493008E+04  0.10701628106E+04 0.  0.
        4    1    3    3  502    0 -0.44174659307E+03  0.79198348566E+02 -0.12104085094E+02  0.44895495619E+03  0.12699999809E+01 0. -1.
       -4    1    3    3    0  502  0.44174659307E+03 -0.79198348566E+02  0.67273508838E+03  0.80869434457E+03  0.12699999809E+01 0.  1.
</event>
<event>
 5   0  0.4298101E-03  0.1122349E+04  0.7818609E-02  0.9183679E-01
        1   -1    0    0  501    0  0.00000000000E+00  0.00000000000E+00  0.17421959441E+04  0.17421959441E+04  0.50400001928E-02 0.  1.
       -1   -1    0    0    0  501  0.00000000000E+00  0.00000000000E+00 -0.18075839648E+03  0.18075839655E+03  0.50400001928E-02 0. -1.
    10030    2    1    2    0    0  0.00000000000E+00  0.00000000000E+00  0.15614375476E+04  0.19229543406E+04  0.11223485114E+04 0.  0.
        3    1    3    3  502    0 -0.26942414037E+02 -0.27106506771E+03 -0.59886763442E+02  0.27890607603E+03  0.10100000352E+00 0. -1.
       -3    1    3    3    0  502  0.26942414037E+02  0.27106506771E+03  0.16213243110E+04  0.16440482646E+04  0.10100000352E+00 0.  1.
</event>
<event>
 5   0  0.7738497E-03  0.1097795E+04  0.7818609E-02  0.9207344E-01
        2   -1    0    0  501    0  0.00000000000E+00  0.00000000000E+00  0.13829688091E+04  0.13829688091E+04  0.25500000920E-02 0. -1.
       -2   -1    0    0    0  501  0.00000000000E+00  0.00000000000E+00 -0.21785625165E+03  0.21785625166E+03  0.25500000920E-02 0.  1.
    10030    2    1    2    0    0  0.00000000000E+00  0.00000000000E+00  0.11651125574E+04  0.16008250607E+04  0.10977948823E+04 0.  0.
        4    1    3    3  502    0  0.63076699466E+02  0.11206095500E+03 -0.19557861388E+03  0.23407036284E+03  0.12699999809E+01 0.  1.
       -4    1    3    3    0  502 -0.63076699466E+02 -0.11206095500E+03  0.13606911713E+04  0.13667546979E+04  0.12699999809E+01 0. -1.
</event>
<event>
 5   0  0.4298101E-03  0.1091968E+04  0.7818609E-02  0.9213056E-01
       -1   -1    0    0    0  501  0.00000000000E+00  0.00000000000E+00  0.38947239617E+03  0.38947239621E+03  0.50400001928E-02 0.  1.
        1   -1    0    0  501    0  0.00000000000E+00  0.00000000000E+00 -0.76539050135E+03  0.76539050136E+03  0.50400001928E-02 0. -1.
    10030    2    1    2    0    0  0.00000000000E+00  0.00000000000E+00 -0.37591810517E+03  0.11548628976E+04  0.10919678981E+04 0.  0.
        3    1    3    3  502    0  0.51334848664E+03  0.18586145105E+03 -0.19348642325E+03  0.57923065691E+03  0.10100000352E+00 0. -1.
       -3    1    3    3    0  502 -0.51334848664E+03 -0.18586145105E+03 -0.18243168193E+03  0.57563224066E+03  0.10100000352E+00 0.  1.
</event>
<event>
 5   0  0.4641021E-03  0.1111190E+04  0.7818609E-02  0.9194354E-01
        1   -1    0    0  501    0  0.00000000000E+00  0.00000000000E+00  0.85217818097E+02  0.85217818246E+02  0.50400001928E-02 0.  1.
       -1   -1    0    0    0  501  0.00000000000E+00  0.00000000000E+00 -0.36223139246E+04  0.36223139246E+04  0.50400001928E-02 0. -1.
    10030    2    1    2    0    0  0.00000000000E+00  0.00000000000E+00 -0.35370961065E+04  0.37075317428E+04  0.11111897937E+04 0.  0.
        1    1    3    3  502    0  0.25174998822E+03 -0.23783820428E+03 -0.31901098921E+03  0.47086418344E+03  0.50400001928E-02 0.  1.
       -1    1    3    3    0  502 -0.25174998822E+03  0.23783820428E+03 -0.32180851173E+04  0.32366675594E+04  0.50400001928E-02 0. -1.
</event>
<event>
 5   0  0.7738497E-03  0.1094212E+04  0.7818609E-02  0.9210851E-01
       -2   -1    0    0    0  501  0.00000000000E+00  0.00000000000E+00  0.73754686481E+03  0.73754686481E+03  0.25500000920E-02 0. -1.
        2   -1    0    0  501    0  0.00000000000E+00  0.00000000000E+00 -0.40583874278E+03  0.40583874279E+03  0.25500000920E-02 0.  1.
    10030    2    1    2    0    0  0.00000000000E+00  0.00000000000E+00  0.33170812202E+03  0.11433856076E+04  0.10942122141E+04 0.  0.
        4    1    3    3  502    0 -0.49695022002E+03 -0.15526209401E+03 -0.98003703024E+01  0.52073361632E+03  0.12699999809E+01 0.  1.
       -4    1    3    3    0  502  0.49695022002E+03  0.15526209401E+03  0.34150849233E+03  0.62265199128E+03  0.12699999809E+01 0. -1.
</event>
<event>
 5   0  0.7537480E-03  0.1093610E+04  0.7818609E-02  0.9211443E-01
        2   -1    0    0  501    0  0.00000000000E+00  0.00000000000E+00  0.11497110827E+04  0.11497110827E+04  0.25500000920E-02 0. -1.
       -2   -1    0    0    0  501  0.00000000000E+00  0.00000000000E+00 -0.26006150575E+03  0.26006150576E+03  0.25500000920E-02 0.  1.
    10030    2    1    2    0    0  0.00000000000E+00  0.00000000000E+00  0.88964957693E+03  0.14097725884E+04  0.10936097939E+04 0.  0.
        1    1    3    3  502    0  0.12334987624E+03 -0.32642557809E+03  0.98751414232E+03  0.10473552555E+04  0.50400001928E-02 0. -1.
       -1    1    3    3    0  502 -0.12334987624E+03  0.32642557809E+03 -0.97864565391E+02  0.36241733290E+03  0.50400001928E-02 0.  1.
</event>
<event>
 5   0  0.7712816E-03  0.1116805E+04  0.7818609E-02  0.9188965E-01
        2   -1    0    0  501    0  0.00000000000E+00  0.00000000000E+00  0.44814212399E+03  0.44814212400E+03  0.25500000920E-02 0.  1.
       -2   -1    0    0    0  501  0.00000000000E+00  0.00000000000E+00 -0.69579181714E+03  0.69579181715E+03  0.25500000920E-02 0. -1.
    10030    2    1    2    0    0  0.00000000000E+00  0.00000000000E+00 -0.24764969315E+03  0.11439339412E+04  0.11168054849E+04 0.  0.
        2    1    3    3  502    0 -0.34902419909E+03  0.43036425739E+03 -0.52990563111E+02  0.55663209158E+03  0.25500000920E-02 0. -1.
       -2    1    3    3    0  502  0.34902419909E+03 -0.43036425739E+03 -0.19465913004E+03  0.58730184957E+03  0.25500000920E-02 0.  1.
</event>
<event>
 5   0  0.7738497E-03  0.1056233E+04  0.7818609E-02  0.9248932E-01
       -2   -1    0    0    0  501  0.00000000000E+00  0.00000000000E+00  0.31575073595E+03  0.31575073596E+03  0.25500000920E-02 0. -1.
        2   -1    0    0  501    0  0.00000000000E+00  0.00000000000E+00 -0.88331405428E+03  0.88331405429E+03  0.25500000920E-02 0.  1.
    10030    2    1    2    0    0  0.00000000000E+00  0.00000000000E+00 -0.56756331833E+03  0.11990647903E+04  0.10562330476E+04 0.  0.
        4    1    3    3  502    0 -0.26243374681E+03  0.43695304169E+03 -0.44069793305E+03  0.67380688123E+03  0.12699999809E+01 0. -1.
       -4    1    3    3    0  502  0.26243374681E+03 -0.43695304169E+03 -0.12686538528E+03  0.52525790902E+03  0.12699999809E+01 0.  1.
</event>
<event>
 5   0  0.4641021E-03  0.1105624E+04  0.7818609E-02  0.9199728E-01
        1   -1    0    0  501    0  0.00000000000E+00  0.00000000000E+00  0.11232348458E+04  0.11232348458E+04  0.50400001928E-02 0.  1.
       -1   -1    0    0    0  501  0.00000000000E+00  0.00000000000E+00 -0.27207225464E+03  0.27207225469E+03  0.50400001928E-02 0. -1.
    10030    2    1    2    0    0  0.00000000000E+00  0.00000000000E+00  0.85116259113E+03  0.13953071005E+04  0.11056238728E+04 0.  0.
        1    1    3    3  502    0 -0.97801737336E+02 -0.36595188752E+03 -0.82547837160E+02  0.38768558040E+03  0.50400001928E-02 0. -1.
       -1    1    3    3    0  502  0.97801737336E+02  0.36595188752E+03  0.93371042829E+03  0.10076215201E+04  0.50400001928E-02 0.  1.
</event>
<event>
 5   0  0.4298101E-03  0.8906886E+03  0.7818609E-02  0.9437297E-01
        1   -1    0    0  501    0  0.00000000000E+00  0.00000000000E+00  0.11830611951E+04  0.11830611951E+04  0.50400001928E-02 0. -1.
       -1   -1    0    0    0  501  0.00000000000E+00  0.00000000000E+00 -0.16764267312E+03  0.16764267319E+03  0.50400001928E-02 0.  1.
    10030    2    1    2    0    0  0.00000000000E+00  0.00000000000E+00  0.10154185220E+04  0.13507038683E+04  0.89068859041E+03 0.  0.
        3    1    3    3  502    0 -0.42546528722E+03 -0.12541760572E+03  0.56801154821E+03  0.72068537903E+03  0.10100000352E+00 0.  1.
       -3    1    3    3    0  502  0.42546528722E+03  0.12541760572E+03  0.44740697381E+03  0.63001848931E+03  0.10100000352E+00 0. -1.
</event>
<event>
 5   0  0.7712816E-03  0.1090395E+04  0.7818609E-02  0.9214604E-01
        2   -1    0    0  501    0  0.00000000000E+00  0.00000000000E+00  0.83409335549E+03  0.83409335549E+03  0.25500000920E-02 0. -1.
       -2   -1    0    0    0  501  0.00000000000E+00  0.00000000000E+00 -0.35636364736E+03  0.35636364737E+03  0.25500000920E-02 0.  1.
    10030    2    1    2    0    0  0.00000000000E+00  0.00000000000E+00  0.47772970812E+03  0.11904570029E+04  0.10903954336E+04 0.  0.
        2    1    3    3  502    0 -0.11602135573E+03 -0.41420644989E+03 -0.12685667461E+03  0.44846466307E+03  0.25500000920E-02 0. -1.
       -2    1    3    3    0  502  0.11602135573E+03  0.41420644989E+03  0.60458638274E+03  0.74199233980E+03  0.25500000920E-02 0.  1.
</event>
<event>
 5   0  0.4598561E-03  0.1061998E+04  0.7818609E-02  0.9243044E-01
       -1   -1    0    0    0  501  0.00000000000E+00  0.00000000000E+00  0.96460869404E+03  0.96460869405E+03  0.50400001928E-02 0.  1.
        1   -1    0    0  501    0  0.00000000000E+00  0.00000000000E+00 -0.29230493288E+03  0.29230493292E+03  0.50400001928E-02 0. -1.
    10030    2    1    2    0    0  0.00000000000E+00  0.00000000000E+00  0.67230376116E+03  0.12569136270E+04  0.10619978900E+04 0.  0.
        2    1    3    3  502    0 -0.50946706978E+03 -0.14127747928E+03  0.27764326972E+03  0.59716145770E+03  0.25500000920E-02 0.  1.
       -2    1    3    3    0  502  0.50946706978E+03  0.14127747928E+03  0.39466049144E+03  0.65975216927E+03  0.25500000920E-02 0. -1.
</event>
<event>
 5   0  0.4428114E-03  0.1312821E+04  0.7818609E-02  0.9019459E-01
       -1   -1    0    0    0  501  0.00000000000E+00  0.00000000000E+00  0.31022842819E+03  0.31022842823E+03  0.50400001928E-02 0.  1.
        1   -1    0    0  501    0  0.00000000000E+00  0.00000000000E+00 -0.13888951168E+04  0.13888951168E+04  0.50400001928E-02 0. -1.
    10030    2    1    2    0    0  0.00000000000E+00  0.00000000000E+00 -0.10786666886E+04  0.16991235450E+04  0.13128210069E+04 0.  0.
        4    1    3    3  502    0 -0.10764765049E+03 -0.64191333650E+03 -0.64940114684E+03  0.91943689868E+03  0.12699999809E+01 0.  1.
       -4    1    3    3    0  502  0.10764765049E+03  0.64191333650E+03 -0.42926554175E+03  0.77968664633E+03  0.12699999809E+01 0. -1.
</event>
<event>
 5   0  0.4428114E-03  0.9577110E+03  0.7818609E-02  0.9356183E-01
        1   -1    0    0  501    0  0.00000000000E+00  0.00000000000E+00  0.10938431620E+04  0.10938431621E+04  0.50400001928E-02 0.  1.
       -1   -1    0    0    0  501  0.00000000000E+00  0.00000000000E+00 -0.20963023859E+03  0.20963023865E+03  0.50400001928E-02 0. -1.
    10030    2    1    2    0    0  0.00000000000E+00  0.00000000000E+00  0.88421292345E+03  0.13034734007E+04  0.95771102758E+03 0.  0.
        4    1    3    3  502    0  0.28117829015E+03 -0.14322010618E+03 -0.48105772255E+02  0.31920057627E+03  0.12699999809E+01 0. -1.
       -4    1    3    3    0  502 -0.28117829015E+03  0.14322010618E+03  0.93231869571E+03  0.98427282444E+03  0.12699999809E+01 0.  1.
</event>
<event>
 5   0  0.7712816E-03  0.1068717E+04  0.7818609E-02  0.9236230E-01
        2   -1    0    0  501    0  0.00000000000E+00  0.00000000000E+00  0.68291825690E+03  0.68291825691E+03  0.25500000920E-02 0.  1.
       -2   -1    0    0    0  501  0.00000000000E+00  0.00000000000E+00 -0.41811607568E+03  0.41811607569E+03  0.25500000920E-02 0. -1.
    10030    2    1    2    0    0  0.00000000000E+00  0.00000000000E+00  0.26480218122E+03  0.11010343326E+04  0.10687171779E+04 0.  0.
        2    1    3    3  502    0 -0.22027414171E+03 -0.26248064552E+03 -0.29002501739E+03  0.44892237357E+03  0.25500000920E-02 0. -1.
       -2    1    3    3    0  502  0.22027414171E+03  0.26248064552E+03  0.55482719861E+03  0.65211195902E+03  0.25500000920E-02 0.  1.
</event>
<event>
 5   0  0.4641021E-03  0.1097569E+04  0.7818609E-02  0.9207565E-01
        1   -1    0    0  501    0  0.00000000000E+00  0.00000000000E+00  0.31099251873E+03  0.31099251877E+03  0.50400001928E-02 0. -1.
       -1   -1    0    0    0  501  0.00000000000E+00  0.00000000000E+00 -0.96839761065E+03  0.96839761066E+03  0.50400001928E-02 0.  1.
    10030    2    1    2    0    0  0.00000000000E+00  0.00000000000E+00 -0.65740509192E+03  0.12793901294E+04  0.10975689720E+04 0.  0.
        1    1    3    3  502    0 -0.16271276137E+02  0.54854320724E+03 -0.32860200271E+03  0.63964340131E+03  0.50400001928E-02 0.  1.
       -1    1    3    3    0  502  0.16271276137E+02 -0.54854320724E+03 -0.32880308921E+03  0.63974672812E+03  0.50400001928E-02 0. -1.
</event>
<event>
 5   0  0.7712816E-03  0.1108838E+04  0.7818609E-02  0.9196620E-01
        2   -1    0    0  501    0  0.00000000000E+00  0.00000000000E+00  0.13992868025E+04  0.13992868025E+04  0.25500000920E-02 0. -1.
       -2   -1    0    0    0  501  0.00000000000E+00  0.00000000000E+00 -0.21966954217E+03  0.21966954218E+03  0.25500000920E-02 0.  1.
    10030    2    1    2    0    0  0.00000000000E+00  0.00000000000E+00  0.11796172603E+04  0.16189563447E+04  0.11088384757E+04 0.  0.
        2    1    3    3  502    0  0.44163152959E+03  0.31941175958E+03  0.73811959702E+03  0.91754172635E+03  0.25500000920E-02 0. -1.
       -2    1    3    3    0  502 -0.44163152959E+03 -0.31941175958E+03  0.44149766332E+03  0.70141461833E+03  0.25500000920E-02 0.  1.
</event>
<event>
 5   0  0.7712816E-03  0.9163175E+03  0.7818609E-02  0.9405410E-01
       -2   -1    0    0    0  501  0.00000000000E+00  0.00000000000E+00  0.17119722147E+03  0.17119722149E+03  0.25500000920E-02 0. -1.
        2   -1    0    0  501    0  0.00000000000E+00  0.00000000000E+00 -0.12261265670E+04  0.12261265670E+04  0.25500000920E-02 0.  1.
    10030    2    1    2    0    0  0.00000000000E+00  0.00000000000E+00 -0.10549293455E+04  0.13973237885E+04  0.91631754639E+03 0.  0.
        2    1    3    3  502    0 -0.18116323877E+03  0.29628658226E+03 -0.71757838603E+02  0.35461957830E+03  0.25500000920E-02 0. -1.
       -2    1    3    3    0  502  0.18116323877E+03 -0.29628658226E+03 -0.98317150693E+03  0.10427042102E+04  0.25500000920E-02 0.  1.
</event>
<event>
 5   0  0.7712816E-03  0.1117732E+04  0.7818609E-02  0.9188079E-01
        2   -1    0    0  501    0  0.00000000000E+00  0.00000000000E+00  0.15097593114E+04  0.15097593114E+04  0.25500000920E-02 0. -1.
       -2   -1    0    0    0  501  0.00000000000E+00  0.00000000000E+00 -0.20687490258E+03  0.20687490259E+03  0.25500000920E-02 0.  1.
    10030    2    1    2    0    0  0.00000000000E+00  0.00000000000E+00  0.13028844088E+04  0.17166342140E+04  0.11177321870E+04 0.  0.
        2    1    3    3  502    0  0.29762954269E+03  0.46153372585E+03  0.49231931717E+03  0.73754663232E+03  0.25500000920E-02 0.  1.
       -2    1    3    3    0  502 -0.29762954269E+03 -0.46153372585E+03  0.81056509165E+03  0.97908758167E+03  0.25500000920E-02 0. -1.
</event>
<event>
 5   0  0.7537480E-03  0.1091915E+04  0.7818609E-02  0.9213108E-01
       -2   -1    0    0    0  501  0.00000000000E+00  0.00000000000E+00  0.24178543816E+03  0.24178543818E+03  0.25500000920E-02 0. -1.
        2   -1    0    0  501    0  0.00000000000E+00  0.00000000000E+00 -0.12327850938E+04  0.12327850938E+04  0.25500000920E-02 0.  1.
    10030    2    1    2    0    0  0.00000000000E+00  0.00000000000E+00 -0.99099965559E+03  0.14745705319E+04  0.10919148027E+04 0.  0.
        1    1    3    3  502    0 -0.10998526265E+03  0.95258787547E+02  0.21511962246E+03  0.25970646237E+03  0.50400001928E-02 0. -1.
       -1    1    3    3    0  502  0.10998526265E+03 -0.95258787547E+02 -0.12061192780E+04  0.12148640696E+04  0.50400001928E-02 0.  1.
</event>
<event>
 5   0  0.4598561E-03  0.1105949E+04  0.7818609E-02  0.9199413E-01
        1   -1    0    0  501    0  0.00000000000E+00  0.00000000000E+00  0.10740266346E+04  0.10740266346E+04  0.50400001928E-02 0.  1.
       -1   -1    0    0    0  501  0.00000000000E+00  0.00000000000E+00 -0.28470503776E+03  0.28470503781E+03  0.50400001928E-02 0. -1.
    10030    2    1    2    0    0  0.00000000000E+00  0.00000000000E+00  0.78932159682E+03  0.13587316724E+04  0.11059489927E+04 0.  0.
        2    1    3    3  502    0 -0.19528995895E+03 -0.18097371095E+03 -0.20077085861E+03  0.33346452554E+03  0.25500000920E-02 0. -1.
       -2    1    3    3    0  502  0.19528995895E+03  0.18097371095E+03  0.99009245544E+03  0.10252671469E+04  0.25500000920E-02 0.  1.
</event>
<event>
 5   0  0.7738497E-03  0.1145376E+04  0.7818609E-02  0.9162060E-01
       -2   -1    0    0    0  501  0.00000000000E+00  0.00000000000E+00  0.60686515714E+03  0.60686515715E+03  0.25500000920E-02 0.  1.
        2   -1    0    0  501    0  0.00000000000E+00  0.00000000000E+00 -0.54043548021E+03  0.54043548022E+03  0.25500000920E-02 0. -1.
    10030    2    1    2    0    0  0.00000000000E+00  0.00000000000E+00  0.66429676934E+02  0.11473006374E+04  0.11453758556E+04 0.  0.
        4    1    3    3  502    0 -0.17855327008E+03 -0.51143138369E+03 -0.15291054681E+03  0.56287350151E+03  0.12699999809E+01 0. -1.
       -4    1    3    3    0  502  0.17855327008E+03  0.51143138369E+03  0.21934022374E+03  0.58442713586E+03  0.12699999809E+01 0.  1.
</event>
<event>
 5   0  0.7766551E-03  0.1084803E+04  0.7818609E-02  0.9220132E-01
        2   -1    0    0  501    0  0.00000000000E+00  0.00000000000E+00  0.22701391893E+04  0.22701391893E+04  0.25500000920E-02 0. -1.
       -2   -1    0    0    0  501  0.00000000000E+00  0.00000000000E+00 -0.12959536219E+03  0.12959536221E+03  0.25500000920E-02 0.  1.
    10030    2    1    2    0    0  0.00000000000E+00  0.00000000000E+00  0.21405438272E+04  0.23997345516E+04  0.10848032273E+04 0.  0.
        5    1    3    3  502    0  0.52786013865E+03 -0.79597125935E+02  0.12825149162E+04  0.13891863190E+04  0.46999998093E+01 0.  1.
       -5    1    3    3    0  502 -0.52786013865E+03  0.79597125935E+02  0.85802891093E+03  0.10105482326E+04  0.46999998093E+01 0. -1.
</event>
<event>
 5   0  0.4298101E-03  0.1105239E+04  0.7818609E-02  0.9200101E-01
       -1   -1    0    0    0  501  0.00000000000E+00  0.00000000000E+00  0.62328388662E+03  0.62328388664E+03  0.50400001928E-02 0. -1.
        1   -1    0    0  501    0  0.00000000000E+00  0.00000000000E+00 -0.48996668365E+03  0.48996668367E+03  0.50400001928E-02 0.  1.
    10030    2    1    2    0    0  0.00000000000E+00  0.00000000000E+00  0.13331720298E+03  0.11132505703E+04  0.11052390491E+04 0.  0.
        3    1    3    3  502    0 -0.53808680965E+03  0.56317143569E+02  0.18007718803E+03  0.57020771586E+03  0.10100000352E+00 0.  1.
       -3    1    3    3    0  502  0.53808680965E+03 -0.56317143569E+02 -0.46759985049E+02  0.54304285446E+03  0.10100000352E+00 0. -1.
</event>
<event>
 5   0  0.7766551E-03  0.1141338E+04  0.7818609E-02  0.9165812E-01
       -2   -1    0    0    0  501  0.00000000000E+00  0.00000000000E+00  0.14201190833E+03  0.14201190835E+03  0.25500000920E-02 0. -1.
        2   -1    0    0  501    0  0.00000000000E+00  0.00000000000E+00 -0.22932101211E+04  0.22932101211E+04  0.25500000920E-02 0.  1.
    10030    2    1    2    0    0  0.00000000000E+00  0.00000000000E+00 -0.21511982128E+04  0.24352220294E+04  0.11413380665E+04 0.  0.
        5    1    3    3  502    0 -0.48403545863E+03 -0.11140049872E+02 -0.43115526681E+03  0.64832968467E+03  0.46999998093E+01 0. -1.
       -5    1    3    3    0  502  0.48403545863E+03  0.11140049872E+02 -0.17200429459E+04  0.17868923448E+04  0.46999998093E+01 0.  1.
</event>
<event>
 5   0  0.4504740E-03  0.1099868E+04  0.7818609E-02  0.9205321E-01
        1   -1    0    0  501    0  0.00000000000E+00  0.00000000000E+00  0.24356437156E+03  0.24356437161E+03  0.50400001928E-02 0.  1.
       -1   -1    0    0    0  501  0.00000000000E+00  0.00000000000E+00 -0.12416733640E+04  0.12416733640E+04  0.50400001928E-02 0. -1.
    10030    2    1    2    0    0  0.00000000000E+00  0.00000000000E+00 -0.99810899243E+03  0.14852377356E+04  0.10998679787E+04 0.  0.
        5    1    3    3  502    0  0.76573125881E+02  0.44214692382E+03 -0.69795718333E+02  0.45414851992E+03  0.46999998093E+01 0.  1.
       -5    1    3    3    0  502 -0.76573125881E+02 -0.44214692382E+03 -0.92831327410E+03  0.10310892157E+04  0.46999998093E+01 0. -1.
</event>
<event>
 5   0  0.7766551E-03  0.1107937E+04  0.7818609E-02  0.9197490E-01
        2   -1    0    0  501    0  0.00000000000E+00  0.00000000000E+00  0.18752563175E+04  0.18752563175E+04  0.25500000920E-02 0. -1.
       -2   -1    0    0    0  501  0.00000000000E+00  0.00000000000E+00 -0.16364757843E+03  0.16364757845E+03  0.25500000920E-02 0.  1.
    10030    2    1    2    0    0  0.00000000000E+00  0.00000000000E+00  0.17116087390E+04  0.20389038959E+04  0.11079371016E+04 0.  0.
        5    1    3    3  502    0 -0.15361754171E+02  0.25036660896E+03  0.17647184717E+04  0.17824625653E+04  0.46999998093E+01 0. -1.
       -5    1    3    3    0  502  0.15361754171E+02 -0.25036660896E+03 -0.53109732609E+02  0.25644133065E+03  0.46999998093E+01 0.  1.
</event>
<event>
 5   0  0.7712816E-03  0.1159097E+04  0.7818609E-02  0.9149432E-01
        2   -1    0    0  501    0  0.00000000000E+00  0.00000000000E+00  0.16970779163E+04  0.16970779163E+04  0.25500000920E-02 0. -1.
       -2   -1    0    0    0  501  0.00000000000E+00  0.00000000000E+00 -0.19791472522E+03  0.19791472523E+03  0.25500000920E-02 0.  1.
    10030    2    1    2    0    0  0.00000000000E+00  0.00000000000E+00  0.14991631911E+04  0.18949926416E+04  0.11590974239E+04 0.  0.
        2    1    3    3  502    0  0.90968155170E+02 -0.71328029447E+02 -0.17887530752E+03  0.21297715532E+03  0.25500000920E-02 0.  1.
       -2    1    3    3    0  502 -0.90968155170E+02  0.71328029447E+02  0.16780384986E+04  0.16820154863E+04  0.25500000920E-02 0. -1.
</event>
<event>
 5   0  0.4641021E-03  0.1107988E+04  0.7818609E-02  0.9197441E-01
        1   -1    0    0  501    0  0.00000000000E+00  0.00000000000E+00  0.18366669796E+03  0.18366669803E+03  0.50400001928E-02 0. -1.
       -1   -1    0    0    0  501  0.00000000000E+00  0.00000000000E+00 -0.16710113500E+04  0.16710113500E+04  0.50400001928E-02 0.  1.
    10030    2    1    2    0    0  0.00000000000E+00  0.00000000000E+00 -0.14873446521E+04  0.18546780481E+04  0.11079876118E+04 0.  0.
        1    1    3    3  502    0  0.49315720624E+02  0.32044645697E+03 -0.14956149451E+04  0.15303535657E+04  0.50400001928E-02 0.  1.
       -1    1    3    3    0  502 -0.49315720624E+02 -0.32044645697E+03  0.82702930076E+01  0.32432448236E+03  0.50400001928E-02 0. -1.
</event>
<event>
 5   0  0.4298101E-03  0.1084194E+04  0.7818609E-02  0.9220736E-01
        1   -1    0    0  501    0  0.00000000000E+00  0.00000000000E+00  0.14960431227E+04  0.14960431227E+04  0.50400001928E-02 0. -1.
       -1   -1    0    0    0  501  0.00000000000E+00  0.00000000000E+00 -0.19643080681E+03  0.19643080687E+03  0.50400001928E-02 0.  1.
    10030    2    1    2    0    0  0.00000000000E+00  0.00000000000E+00  0.12996123159E+04  0.16924739296E+04  0.10841936315E+04 0.  0.
        3    1    3    3  502    0 -0.50775914844E+03  0.16558053966E+03  0.79484620938E+03  0.95760992827E+03  0.10100000352E+00 0.  1.
       -3    1    3    3    0  502  0.50775914844E+03 -0.16558053966E+03  0.50476610650E+03  0.73486400131E+03  0.10100000352E+00 0. -1.
</event>
<event>
 5   0  0.7738497E-03  0.1095126E+04  0.7818609E-02  0.9209955E-01
       -2   -1    0    0    0  501  0.00000000000E+00  0.00000000000E+00  0.31535257291E+03  0.31535257292E+03  0.25500000920E-02 0. -1.
        2   -1    0    0  501    0  0.00000000000E+00  0.00000000000E+00 -0.95076246214E+03  0.95076246215E+03  0.25500000920E-02 0.  1.
    10030    2    1    2    0    0  0.00000000000E+00  0.00000000000E+00 -0.63540988924E+03  0.12661150351E+04  0.10951262734E+04 0.  0.
        4    1    3    3  502    0 -0.35636557226E+03 -0.22580125632E+03  0.85853052244E+02  0.43052873066E+03  0.12699999809E+01 0. -1.
       -4    1    3    3    0  502  0.35636557226E+03  0.22580125632E+03 -0.72126294148E+03  0.83558630440E+03  0.12699999809E+01 0.  1.
</event>
<event>
 5   0  0.7738497E-03  0.1111831E+04  0.7818609E-02  0.9193736E-01
       -2   -1    0    0    0  501  0.00000000000E+00  0.00000000000E+00  0.26071153406E+03  0.26071153407E+03  0.25500000920E-02 0. -1.
        2   -1    0    0  501    0  0.00000000000E+00  0.00000000000E+00 -0.11853798365E+04  0.11853798365E+04  0.25500000920E-02 0.  1.
    10030    2    1    2    0    0  0.00000000000E+00  0.00000000000E+00 -0.92466830240E+03  0.14460913705E+04  0.11118312743E+04 0.  0.
        4    1    3    3  502    0 -0.27118077293E+03  0.73471575920E+02 -0.10862391418E+04  0.11219867067E+04  0.12699999809E+01 0.  1.
       -4    1    3    3    0  502  0.27118077293E+03 -0.73471575920E+02  0.16157083935E+03  0.32410466381E+03  0.12699999809E+01 0. -1.
</event>
<event>
 5   0  0.7537480E-03  0.1096390E+04  0.7818609E-02  0.9208718E-01
       -2   -1    0    0    0  501  0.00000000000E+00  0.00000000000E+00  0.46332128410E+03  0.46332128410E+03  0.25500000920E-02 0. -1.
        2   -1    0    0  501    0  0.00000000000E+00  0.00000000000E+00 -0.64861594785E+03  0.64861594786E+03  0.25500000920E-02 0.  1.
    10030    2    1    2    0    0  0.00000000000E+00  0.00000000000E+00 -0.18529466376E+03  0.11119372320E+04  0.10963896640E+04 0.  0.
        1    1    3    3  502    0 -0.51252314159E+03  0.11559722571E+03 -0.25131033337E+03  0.58240842451E+03  0.50400001928E-02 0.  1.
       -1    1    3    3    0  502  0.51252314159E+03 -0.11559722571E+03  0.66015669615E+02  0.52952880745E+03  0.50400001928E-02 0. -1.
</event>
<event>
 5   0  0.7766551E-03  0.1071780E+04  0.7818609E-02  0.9233142E-01
        2   -1    0    0  501    0  0.00000000000E+00  0.00000000000E+00  0.25416233542E+03  0.25416233544E+03  0.25500000920E-02 0.  1.
       -2   -1    0    0    0  501  0.00000000000E+00  0.00000000000E+00 -0.11299010527E+04  0.11299010527E+04  0.25500000920E-02 0. -1.
    10030    2    1    2    0    0  0.00000000000E+00  0.00000000000E+00 -0.87573871723E+03  0.13840633881E+04  0.10717803699E+04 0.  0.
        5    1    3    3  502    0  0.22410407439E+03 -0.29493284590E+03 -0.93792782247E+03  0.10084337905E+04  0.46999998093E+01 0. -1.
       -5    1    3    3    0  502 -0.22410407439E+03  0.29493284590E+03  0.62189105235E+02  0.37562959755E+03  0.46999998093E+01 0.  1.
</event>
<event>
 5   0  0.4298101E-03  0.1077511E+04  0.7818609E-02  0.9227393E-01
        1   -1    0    0  501    0  0.00000000000E+00  0.00000000000E+00  0.23428831689E+04  0.23428831689E+04  0.50400001928E-02 0. -1.
       -1   -1    0    0    0  501  0.00000000000E+00  0.00000000000E+00 -0.12388894001E+03  0.12388894011E+03  0.50400001928E-02 0.  1.
    10030    2    1    2    0    0  0.00000000000E+00  0.00000000000E+00  0.22189942289E+04  0.24667721090E+04  0.10775106728E+04 0.  0.
        3    1    3    3  502    0 -0.50093924848E+03  0.18011933095E+03  0.12993068458E+04  0.14041301200E+04  0.10100000352E+00 0. -1.
       -3    1    3    3    0  502  0.50093924848E+03 -0.18011933095E+03  0.91968738306E+03  0.10626419890E+04  0.10100000352E+00 0.  1.
</event>
<event>
 5   0  0.4641021E-03  0.1150588E+04  0.7818609E-02  0.9157241E-01
       -1   -1    0    0    0  501  0.00000000000E+00  0.00000000000E+00  0.55169457698E+03  0.55169457701E+03  0.50400001928E-02 0. -1.
        1   -1    0    0  501    0  0.00000000000E+00  0.00000000000E+00 -0.59990285100E+03  0.59990285103E+03  0.50400001928E-02 0.  1.
    10030    2    1    2    0    0  0.00000000000E+00  0.00000000000E+00 -0.48208274022E+02  0.11515974280E+04  0.11505879360E+04 0.  0.
        1    1    3    3  502    0  0.72561255418E+02  0.27499737477E+03  0.47640906575E+03  0.55484618578E+03  0.50400001928E-02 0. -1.
       -1    1    3    3    0  502 -0.72561255418E+02 -0.27499737477E+03 -0.52461733977E+03  0.59675124225E+03  0.50400001928E-02 0.  1.
</event>
<event>
 5   0  0.7712816E-03  0.1091057E+04  0.7818609E-02  0.9213952E-01
        2   -1    0    0  501    0  0.00000000000E+00  0.00000000000E+00  0.12345086292E+04  0.12345086292E+04  0.25500000920E-02 0. -1.
       -2   -1    0    0    0  501  0.00000000000E+00  0.00000000000E+00 -0.24106865734E+03  0.24106865735E+03  0.25500000920E-02 0.  1.
    10030    2    1    2    0    0  0.00000000000E+00  0.00000000000E+00  0.99343997182E+03  0.14755772865E+04  0.10910569879E+04 0.  0.
        2    1    3    3  502    0 -0.21777279724E+03  0.15206970425E+03 -0.14771095034E+03  0.30392221213E+03  0.25500000920E-02 0.  1.
       -2    1    3    3    0  502  0.21777279724E+03 -0.15206970425E+03  0.11411509222E+04  0.11716550744E+04  0.25500000920E-02 0. -1.
</event>
<event>
 5   0  0.4504740E-03  0.1071251E+04  0.7818609E-02  0.9233675E-01
       -1   -1    0    0    0  501  0.00000000000E+00  0.00000000000E+00  0.36420303474E+03  0.36420303477E+03  0.50400001928E-02 0.  1.
        1   -1    0    0  501    0  0.00000000000E+00  0.00000000000E+00 -0.78773225571E+03  0.78773225572E+03  0.50400001928E-02 0. -1.
    10030    2    1    2    0    0  0.00000000000E+00  0.00000000000E+00 -0.42352922097E+03  0.11519352905E+04  0.10712506301E+04 0.  0.
        5    1    3    3  502    0 -0.22723666602E+03 -0.14341686394E+03 -0.70998343313E+03  0.75914653695E+03  0.46999998093E+01 0. -1.
       -5    1    3    3    0  502  0.22723666602E+03  0.14341686394E+03  0.28645421216E+03  0.39278875355E+03  0.46999998093E+01 0.  1.
</event>
<event>
 5   0  0.4641021E-03  0.1102653E+04  0.7818609E-02  0.9202610E-01
        1   -1    0    0  501    0  0.00000000000E+00  0.00000000000E+00  0.26164252016E+03  0.26164252021E+03  0.50400001928E-02 0. -1.
       -1   -1    0    0    0  501  0.00000000000E+00  0.00000000000E+00 -0.11617415906E+04  0.11617415906E+04  0.50400001928E-02 0.  1.
    10030    2    1    2    0    0  0.00000000000E+00  0.00000000000E+00 -0.90009907048E+03  0.14233841109E+04  0.11026531596E+04 0.  0.
        1    1    3    3  502    0  0.12030289220E+03  0.75164924825E+02 -0.11377808462E+04  0.11465896414E+04  0.50400001928E-02 0.  1.
       -1    1    3    3    0  502 -0.12030289220E+03 -0.75164924825E+02  0.23768177570E+03  0.27679446946E+03  0.50400001928E-02 0. -1.
</event>
<event>
 5   0  0.4598561E-03  0.1085377E+04  0.7818609E-02  0.9219563E-01
       -1   -1    0    0    0  501  0.00000000000E+00  0.00000000000E+00  0.58643316452E+03  0.58643316455E+03  0.50400001928E-02 0. -1.
        1   -1    0    0  501    0  0.00000000000E+00  0.00000000000E+00 -0.50220718266E+03  0.50220718268E+03  0.50400001928E-02 0.  1.
    10030    2    1    2    0    0  0.00000000000E+00  0.00000000000E+00  0.84225981865E+02  0.10886403472E+04  0.10853772568E+04 0.  0.
        2    1    3    3  502    0 -0.33419237610E+03 -0.41454444095E+03  0.14721021022E+03  0.55245134063E+03  0.25500000920E-02 0.  1.
       -2    1    3    3    0  502  0.33419237610E+03  0.41454444095E+03 -0.62984228355E+02  0.53618900660E+03  0.25500000920E-02 0. -1.
</event>
<event>
 5   0  0.7712816E-03  0.1089357E+04  0.7818609E-02  0.9215628E-01
        2   -1    0    0  501    0  0.00000000000E+00  0.00000000000E+00  0.20913579794E+04  0.20913579794E+04  0.25500000920E-02 0.  1.
       -2   -1    0    0    0  501  0.00000000000E+00  0.00000000000E+00 -0.14185737542E+03  0.14185737544E+03  0.25500000920E-02 0. -1.
    10030    2    1    2    0    0  0.00000000000E+00  0.00000000000E+00  0.19495006040E+04  0.22332153548E+04  0.10893567901E+04 0.  0.
        2    1    3    3  502    0 -0.53475256668E+03 -0.14538984582E+02  0.76465596823E+03  0.93320439315E+03  0.25500000920E-02 0. -1.
       -2    1    3    3    0  502  0.53475256668E+03  0.14538984582E+02  0.11848446358E+04  0.13000109617E+04  0.25500000920E-02 0.  1.
</event>
<event>
 5   0  0.7952121E-03  0.1046239E+04  0.7818609E-02  0.9259235E-01
       -2   -1    0    0    0  501  0.00000000000E+00  0.00000000000E+00  0.34021869608E+03  0.34021869609E+03  0.25500000920E-02 0.  1.
        2   -1    0    0  501    0  0.00000000000E+00  0.00000000000E+00 -0.80434769342E+03  0.80434769342E+03  0.25500000920E-02 0. -1.
    10030    2    1    2    0    0  0.00000000000E+00  0.00000000000E+00 -0.46412899734E+03  0.11445663895E+04  0.10462392144E+04 0.  0.
        3    1    3    3  502    0  0.26807552331E+03  0.48339827593E+02 -0.72063828217E+03  0.77040299133E+03  0.10100000352E+00 0. -1.
       -3    1    3    3    0  502 -0.26807552331E+03 -0.48339827593E+02  0.25650928483E+03  0.37416339817E+03  0.10100000352E+00 0.  1.
</event>
<event>
 5   0  0.4504740E-03  0.1096379E+04  0.7818609E-02  0.9208729E-01
       -1   -1    0    0    0  501  0.00000000000E+00  0.00000000000E+00  0.25805962055E+03  0.25805962060E+03  0.50400001928E-02 0.  1.
        1   -1    0    0  501    0  0.00000000000E+00  0.00000000000E+00 -0.11645044814E+04  0.11645044815E+04  0.50400001928E-02 0. -1.
    10030    2    1    2    0    0  0.00000000000E+00  0.00000000000E+00 -0.90644486089E+03  0.14225641021E+04  0.10963787387E+04 0.  0.
        5    1    3    3  502    0 -0.38544167483E+03 -0.36265666680E+03 -0.26788094321E+03  0.59318414713E+03  0.46999998093E+01 0.  1.
       -5    1    3    3    0  502  0.38544167483E+03  0.36265666680E+03 -0.63856391768E+03  0.82937995492E+03  0.46999998093E+01 0. -1.
</event>
<event>
 5   0  0.4641021E-03  0.7286391E+03  0.7818609E-02  0.9669471E-01
       -1   -1    0    0    0  501  0.00000000000E+00  0.00000000000E+00  0.59819495674E+03  0.59819495676E+03  0.50400001928E-02 0.  1.
        1   -1    0    0  501    0  0.00000000000E+00  0.00000000000E+00 -0.22188204029E+03  0.22188204035E+03  0.50400001928E-02 0. -1.
    10030    2    1    2    0    0  0.00000000000E+00  0.00000000000E+00  0.37631291645E+03  0.82007699711E+03  0.72863905337E+03 0.  0.
        1    1    3    3  502    0 -0.12016968348E+03  0.32607950114E+03  0.65070072428E+02  0.35355722060E+03  0.50400001928E-02 0. -1.
       -1    1    3    3    0  502  0.12016968348E+03 -0.32607950114E+03  0.31124284402E+03  0.46651977650E+03  0.50400001928E-02 0.  1.
</event>
<event>
 5   0  0.4298101E-03  0.1092282E+04  0.7818609E-02  0.9212747E-01
       -1   -1    0    0    0  501  0.00000000000E+00  0.00000000000E+00  0.26035450169E+03  0.26035450174E+03  0.50400001928E-02 0. -1.
        1   -1    0    0  501    0  0.00000000000E+00  0.00000000000E+00 -0.11456312508E+04  0.11456312508E+04  0.50400001928E-02 0.  1.
    10030    2    1    2    0    0  0.00000000000E+00  0.00000000000E+00 -0.88527674913E+03  0.14059857526E+04  0.10922824790E+04 0.  0.
        3    1    3    3  502    0  0.29975222566E+03  0.34976484171E+03 -0.64974309522E+02  0.46519728330E+03  0.10100000352E+00 0. -1.
       -3    1    3    3    0  502 -0.29975222566E+03 -0.34976484171E+03 -0.82030243961E+03  0.94078846928E+03  0.10100000352E+00 0.  1.
</event>
<event>
 5   0  0.7766551E-03  0.1115283E+04  0.7818609E-02  0.9190422E-01
       -2   -1    0    0    0  501  0.00000000000E+00  0.00000000000E+00  0.46646452731E+03  0.46646452731E+03  0.25500000920E-02 0. -1.
        2   -1    0    0  501    0  0.00000000000E+00  0.00000000000E+00 -0.66664062697E+03  0.66664062698E+03  0.25500000920E-02 0.  1.
    10030    2    1    2    0    0  0.00000000000E+00  0.00000000000E+00 -0.20017609967E+03  0.11331051543E+04  0.11152832913E+04 0.  0.
        5    1    3    3  502    0 -0.39010176975E+03 -0.20445744850E+03  0.24737087283E+03  0.50516994935E+03  0.46999998093E+01 0. -1.
       -5    1    3    3    0  502  0.39010176975E+03  0.20445744850E+03 -0.44754697250E+03  0.62793520494E+03  0.46999998093E+01 0.  1.
</event>
<event>
 5   0  0.2992375E-03  0.1096587E+04  0.7818609E-02  0.9208525E-01
       -3   -1    0    0    0  501  0.00000000000E+00  0.00000000000E+00  0.49708137558E+03  0.49708138584E+03  0.10100000352E+00 0. -1.
        3   -1    0    0  501    0  0.00000000000E+00  0.00000000000E+00 -0.60478178172E+03  0.60478179016E+03  0.10100000352E+00 0.  1.
    10030    2    1    2    0    0  0.00000000000E+00  0.00000000000E+00 -0.10770040614E+03  0.11018631760E+04  0.10965870148E+04 0.  0.
        2    1    3    3  502    0 -0.10651648244E+03  0.51646195578E+03  0.97029043366E+02  0.53618406174E+03  0.25500000920E-02 0.  1.
       -2    1    3    3    0  502  0.10651648244E+03 -0.51646195578E+03 -0.20472944951E+03  0.56567911426E+03  0.25500000920E-02 0. -1.
</event>
<event>
 5   0  0.7712816E-03  0.1087633E+04  0.7818609E-02  0.9217330E-01
        2   -1    0    0  501    0  0.00000000000E+00  0.00000000000E+00  0.95354593461E+03  0.95354593461E+03  0.25500000920E-02 0. -1.
       -2   -1    0    0    0  501  0.00000000000E+00  0.00000000000E+00 -0.31014388930E+03  0.31014388931E+03  0.25500000920E-02 0.  1.
    10030    2    1    2    0    0  0.00000000000E+00  0.00000000000E+00  0.64340204531E+03  0.12636898239E+04  0.10876331087E+04 0.  0.
        2    1    3    3  502    0  0.31710973733E+03 -0.10068047667E+03 -0.17809455066E+03  0.37737622193E+03  0.25500000920E-02 0.  1.
       -2    1    3    3    0  502 -0.31710973733E+03  0.10068047667E+03  0.82149659597E+03  0.88631360200E+03  0.25500000920E-02 0. -1.
</event>
<event>
 5   0  0.7712816E-03  0.1045786E+04  0.7818609E-02  0.9259705E-01
        2   -1    0    0  501    0  0.00000000000E+00  0.00000000000E+00  0.14734554191E+04  0.14734554191E+04  0.25500000920E-02 0.  1.
       -2   -1    0    0    0  501  0.00000000000E+00  0.00000000000E+00 -0.18556196849E+03  0.18556196851E+03  0.25500000920E-02 0. -1.
    10030    2    1    2    0    0  0.00000000000E+00  0.00000000000E+00  0.12878934506E+04  0.16590173876E+04  0.10457863798E+04 0.  0.
        2    1    3    3  502    0  0.31858436409E+03 -0.15084678163E+02  0.13012793554E+04  0.13397953222E+04  0.25500000920E-02 0.  1.
       -2    1    3    3    0  502 -0.31858436409E+03  0.15084678163E+02 -0.13385904859E+02  0.31922206536E+03  0.25500000920E-02 0. -1.
</event>
<event>
 5   0  0.7766551E-03  0.1106992E+04  0.7818609E-02  0.9198403E-01
        2   -1    0    0  501    0  0.00000000000E+00  0.00000000000E+00  0.18031777969E+04  0.18031777969E+04  0.25500000920E-02 0. -1.
       -2   -1    0    0    0  501  0.00000000000E+00  0.00000000000E+00 -0.16989898004E+03  0.16989898006E+03  0.25500000920E-02 0.  1.
    10030    2    1    2    0    0  0.00000000000E+00  0.00000000000E+00  0.16332788168E+04  0.19730767769E+04  0.11069924454E+04 0.  0.
        5    1    3    3  502    0 -0.36103296600E+03  0.10708814679E+03  0.15395973625E+04  0.15849904739E+04  0.46999998093E+01 0. -1.
       -5    1    3    3    0  502  0.36103296600E+03 -0.10708814679E+03  0.93681454341E+02  0.38808630304E+03  0.46999998093E+01 0.  1.
</event>
<event>
 5   0  0.7537480E-03  0.1109390E+04  0.7818609E-02  0.9196088E-01
        2   -1    0    0  501    0  0.00000000000E+00  0.00000000000E+00  0.13400277500E+04  0.13400277500E+04  0.25500000920E-02 0.  1.
       -2   -1    0    0    0  501  0.00000000000E+00  0.00000000000E+00 -0.22961206475E+03  0.22961206476E+03  0.25500000920E-02 0. -1.
    10030    2    1    2    0    0  0.00000000000E+00  0.00000000000E+00  0.11104156853E+04  0.15696398148E+04  0.11093899919E+04 0.  0.
        1    1    3    3  502    0 -0.38627104012E+03 -0.33185142230E+03  0.86633670322E+03  0.10049228658E+04  0.50400001928E-02 0.  1.
       -1    1    3    3    0  502  0.38627104012E+03  0.33185142230E+03  0.24407898206E+03  0.56471694895E+03  0.50400001928E-02 0. -1.
</event>
<event>
 5   0  0.7712816E-03  0.1083377E+04  0.7818609E-02  0.9221546E-01
       -2   -1    0    0    0  501  0.00000000000E+00  0.00000000000E+00  0.68443631367E+03  0.68443631367E+03  0.25500000920E-02 0. -1.
        2   -1    0    0  501    0  0.00000000000E+00  0.00000000000E+00 -0.42871290038E+03  0.42871290039E+03  0.25500000920E-02 0.  1.
    10030    2    1    2    0    0  0.00000000000E+00  0.00000000000E+00  0.25572341328E+03  0.11131492141E+04  0.10833774544E+04 0.  0.
        2    1    3    3  502    0 -0.49637517828E+03 -0.20254011812E+03  0.20755512478E+03  0.57488255052E+03  0.25500000920E-02 0. -1.
       -2    1    3    3    0  502  0.49637517828E+03  0.20254011812E+03  0.48168288502E+02  0.53826666355E+03  0.25500000920E-02 0.  1.
</event>
<event>
 5   0  0.7537480E-03  0.1143707E+04  0.7818609E-02  0.9163609E-01
       -2   -1    0    0    0  501  0.00000000000E+00  0.00000000000E+00  0.11354872550E+04  0.11354872550E+04  0.25500000920E-02 0. -1.
        2   -1    0    0  501    0  0.00000000000E+00  0.00000000000E+00 -0.28799635271E+03  0.28799635272E+03  0.25500000920E-02 0.  1.
    10030    2    1    2    0    0  0.00000000000E+00  0.00000000000E+00  0.84749090227E+03  0.14234836077E+04  0.11437065847E+04 0.  0.
        1    1    3    3  502    0 -0.46576347557E+03  0.14379288395E+03  0.51596534268E+02  0.49017773411E+03  0.50400001928E-02 0.  1.
       -1    1    3    3    0  502  0.46576347557E+03 -0.14379288395E+03  0.79589436800E+03  0.93330587359E+03  0.50400001928E-02 0. -1.
</event>
<event>
 5   0  0.4428114E-03  0.1119776E+04  0.7818609E-02  0.9186128E-01
        1   -1    0    0  501    0  0.00000000000E+00  0.00000000000E+00  0.18045554002E+04  0.18045554002E+04  0.50400001928E-02 0. -1.
       -1   -1    0    0    0  501  0.00000000000E+00  0.00000000000E+00 -0.17371303995E+03  0.17371304003E+03  0.50400001928E-02 0.  1.
    10030    2    1    2    0    0  0.00000000000E+00  0.00000000000E+00  0.16308423603E+04  0.19782684402E+04  0.11197764141E+04 0.  0.
        4    1    3    3  502    0 -0.37521135111E+03 -0.15132131034E+03  0.14991714078E+04  0.15528033423E+04  0.12699999809E+01 0. -1.
       -4    1    3    3    0  502  0.37521135111E+03  0.15132131034E+03  0.13167095247E+03  0.42546509797E+03  0.12699999809E+01 0.  1.
</event>
<event>
 5   0  0.4428114E-03  0.1097329E+04  0.7818609E-02  0.9207799E-01
        1   -1    0    0  501    0  0.00000000000E+00  0.00000000000E+00  0.37661356933E+03  0.37661356936E+03  0.50400001928E-02 0.  1.
       -1   -1    0    0    0  501  0.00000000000E+00  0.00000000000E+00 -0.79931461648E+03  0.79931461650E+03  0.50400001928E-02 0. -1.
    10030    2    1    2    0    0  0.00000000000E+00  0.00000000000E+00 -0.42270104715E+03  0.11759281859E+04  0.10973289949E+04 0.  0.
        4    1    3    3  502    0 -0.28927980883E+00  0.61744339290E+02 -0.79557801474E+03  0.79797145160E+03  0.12699999809E+01 0. -1.
       -4    1    3    3    0  502  0.28927980883E+00 -0.61744339290E+02  0.37287696759E+03  0.37795673427E+03  0.12699999809E+01 0.  1.
</event>
<event>
 5   0  0.4428114E-03  0.1097689E+04  0.7818609E-02  0.9207447E-01
       -1   -1    0    0    0  501  0.00000000000E+00  0.00000000000E+00  0.21697446890E+03  0.21697446895E+03  0.50400001928E-02 0.  1.
        1   -1    0    0  501    0  0.00000000000E+00  0.00000000000E+00 -0.13883217336E+04  0.13883217336E+04  0.50400001928E-02 0. -1.
    10030    2    1    2    0    0  0.00000000000E+00  0.00000000000E+00 -0.11713472647E+04  0.16052962025E+04  0.10976891561E+04 0.  0.
        4    1    3    3  502    0  0.13435375341E+03  0.51389839423E+03 -0.78771314181E+03  0.95007162747E+03  0.12699999809E+01 0. -1.
       -4    1    3    3    0  502 -0.13435375341E+03 -0.51389839423E+03 -0.38363412287E+03  0.65522457507E+03  0.12699999809E+01 0.  1.
</event>
<event>
 5   0  0.7738497E-03  0.1053529E+04  0.7818609E-02  0.9251708E-01
       -2   -1    0    0    0  501  0.00000000000E+00  0.00000000000E+00  0.26482160232E+03  0.26482160233E+03  0.25500000920E-02 0. -1.
        2   -1    0    0  501    0  0.00000000000E+00  0.00000000000E+00 -0.10478036099E+04  0.10478036099E+04  0.25500000920E-02 0.  1.
    10030    2    1    2    0    0  0.00000000000E+00  0.00000000000E+00 -0.78298200757E+03  0.13126252122E+04  0.10535293653E+04 0.  0.
        4    1    3    3  502    0 -0.91039941144E+02 -0.61278491685E+01  0.25489834292E+03  0.27074083464E+03  0.12699999809E+01 0. -1.
       -4    1    3    3    0  502  0.91039941144E+02  0.61278491685E+01 -0.10378803505E+04  0.10418843776E+04  0.12699999809E+01 0.  1.
</event>
<event>
 5   0  0.4504740E-03  0.1154105E+04  0.7818609E-02  0.9154005E-01
       -1   -1    0    0    0  501  0.00000000000E+00  0.00000000000E+00  0.53609143323E+03  0.53609143326E+03  0.50400001928E-02 0. -1.
        1   -1    0    0  501    0  0.00000000000E+00  0.00000000000E+00 -0.62114308267E+03  0.62114308269E+03  0.50400001928E-02 0.  1.
    10030    2    1    2    0    0  0.00000000000E+00  0.00000000000E+00 -0.85051649437E+02  0.11572345159E+04  0.11541048227E+04 0.  0.
        5    1    3    3  502    0  0.17853764678E+03 -0.26875189990E+03 -0.52222058980E+03  0.61387271435E+03  0.46999998093E+01 0.  1.
       -5    1    3    3    0  502 -0.17853764678E+03  0.26875189990E+03  0.43716894036E+03  0.54336180160E+03  0.46999998093E+01 0. -1.
</event>
<event>
 5   0  0.4598561E-03  0.1128080E+04  0.7818609E-02  0.9178248E-01
       -1   -1    0    0    0  501  0.00000000000E+00  0.00000000000E+00  0.39740284588E+03  0.39740284592E+03  0.50400001928E-02 0. -1.
        1   -1    0    0  501    0  0.00000000000E+00  0.00000000000E+00 -0.80055028398E+03  0.80055028400E+03  0.50400001928E-02 0.  1.
    10030    2    1    2    0    0  0.00000000000E+00  0.00000000000E+00 -0.40314743810E+03  0.11979531299E+04  0.11280797155E+04 0.  0.
        2    1    3    3  502    0 -0.90853428610E+02  0.18574619478E+03 -0.75884947637E+03  0.78651670177E+03  0.25500000920E-02 0.  1.
       -2    1    3    3    0  502  0.90853428610E+02 -0.18574619478E+03  0.35570203827E+03  0.41143642814E+03  0.25500000920E-02 0. -1.
</event>
<event>
 5   0  0.4428114E-03  0.1097822E+04  0.7818609E-02  0.9207317E-01
        1   -1    0    0  501    0  0.00000000000E+00  0.00000000000E+00  0.58964774069E+03  0.58964774071E+03  0.50400001928E-02 0. -1.
       -1   -1    0    0    0  501  0.00000000000E+00  0.00000000000E+00 -0.51098864471E+03  0.51098864473E+03  0.50400001928E-02 0.  1.
    10030    2    1    2    0    0  0.00000000000E+00  0.00000000000E+00  0.78659095983E+02  0.11006363854E+04  0.10978220255E+04 0.  0.
        4    1    3    3  502    0 -0.12944024405E+03 -0.32842684621E+03  0.46074354913E+03  0.58043535476E+03  0.12699999809E+01 0. -1.
       -4    1    3    3    0  502  0.12944024405E+03  0.32842684621E+03 -0.38208445314E+03  0.52020103069E+03  0.12699999809E+01 0.  1.
</event>
<event>
 5   0  0.4428114E-03  0.1090163E+04  0.7818609E-02  0.9214833E-01
       -1   -1    0    0    0  501  0.00000000000E+00  0.00000000000E+00  0.80131803543E+03  0.80131803545E+03  0.50400001928E-02 0.  1.
        1   -1    0    0  501    0  0.00000000000E+00  0.00000000000E+00 -0.37078130820E+03  0.37078130824E+03  0.50400001928E-02 0. -1.
    10030    2    1    2    0    0  0.00000000000E+00  0.00000000000E+00  0.43053672723E+03  0.11720993437E+04  0.10901628309E+04 0.  0.
        4    1    3    3  502    0 -0.37501708795E+03  0.36244612426E+03  0.44906820679E+02  0.52347229601E+03  0.12699999809E+01 0.  1.
       -4    1    3    3    0  502  0.37501708795E+03 -0.36244612426E+03  0.38562990655E+03  0.64862704767E+03  0.12699999809E+01 0. -1.
</event>
<event>
 5   0  0.7952121E-03  0.1103899E+04  0.7818609E-02  0.9201400E-01
        2   -1    0    0  501    0  0.00000000000E+00  0.00000000000E+00  0.16107489052E+04  0.16107489052E+04  0.25500000920E-02 0.  1.
       -2   -1    0    0    0  501  0.00000000000E+00  0.00000000000E+00 -0.18913452270E+03  0.18913452272E+03  0.25500000920E-02 0. -1.
    10030    2    1    2    0    0  0.00000000000E+00  0.00000000000E+00  0.14216143825E+04  0.17998834279E+04  0.11038989544E+04 0.  0.
        3    1    3    3  502    0 -0.33086599393E+03 -0.15982296999E+03  0.39270691222E+02  0.36953739332E+03  0.10100000352E+00 0. -1.
       -3    1    3    3    0  502  0.33086599393E+03  0.15982296999E+03  0.13823436913E+04  0.14303460346E+04  0.10100000352E+00 0.  1.
</event>
<event>
 5   0  0.4598561E-03  0.1095440E+04  0.7818609E-02  0.9209648E-01
       -1   -1    0    0    0  501  0.00000000000E+00  0.00000000000E+00  0.58769500103E+03  0.58769500105E+03  0.50400001928E-02 0.  1.
        1   -1    0    0  501    0  0.00000000000E+00  0.00000000000E+00 -0.51046401544E+03  0.51046401547E+03  0.50400001928E-02 0. -1.
    10030    2    1    2    0    0  0.00000000000E+00  0.00000000000E+00  0.77230985585E+02  0.10981590165E+04  0.10954399118E+04 0.  0.
        2    1    3    3  502    0 -0.37759974811E+03 -0.14433786079E+03 -0.33187209568E+03  0.52302397242E+03  0.25500000920E-02 0. -1.
       -2    1    3    3    0  502  0.37759974811E+03  0.14433786079E+03  0.40910308126E+03  0.57513504409E+03  0.25500000920E-02 0.  1.
</event>
<event>
 5   0  0.7952121E-03  0.1099335E+04  0.7818609E-02  0.9205840E-01
       -2   -1    0    0    0  501  0.00000000000E+00  0.00000000000E+00  0.17431668974E+03  0.17431668975E+03  0.25500000920E-02 0.  1.
        2   -1    0    0  501    0  0.00000000000E+00  0.00000000000E+00 -0.17332504440E+04  0.17332504440E+04  0.25500000920E-02 0. -1.
    10030    2    1    2    0    0  0.00000000000E+00  0.00000000000E+00 -0.15589337543E+04  0.19075671338E+04  0.10993352171E+04 0.  0.
        3    1    3    3  502    0  0.33963752538E+03  0.23170116001E+03 -0.14125069500E+04  0.14711271088E+04  0.10100000352E+00 0. -1.
       -3    1    3    3    0  502 -0.33963752538E+03 -0.23170116001E+03 -0.14642680427E+03  0.43644002498E+03  0.10100000352E+00 0.  1.
</event>
<event>
 5   0  0.4504740E-03  0.1096622E+04  0.7818609E-02  0.9208491E-01
       -1   -1    0    0    0  501  0.00000000000E+00  0.00000000000E+00  0.36539525200E+03  0.36539525204E+03  0.50400001928E-02 0. -1.
        1   -1    0    0  501    0  0.00000000000E+00  0.00000000000E+00 -0.82279347940E+03  0.82279347942E+03  0.50400001928E-02 0.  1.
    10030    2    1    2    0    0  0.00000000000E+00  0.00000000000E+00 -0.45739822740E+03  0.11881887315E+04  0.10966217776E+04 0.  0.
        5    1    3    3  502    0  0.11372486016E+03  0.53373438284E+03 -0.17119188841E+03  0.57195671855E+03  0.46999998093E+01 0. -1.
       -5    1    3    3    0  502 -0.11372486016E+03 -0.53373438284E+03 -0.28620633899E+03  0.61623201290E+03  0.46999998093E+01 0.  1.
</event>
<event>
 5   0  0.7952121E-03  0.1166124E+04  0.7818609E-02  0.9143036E-01
       -2   -1    0    0    0  501  0.00000000000E+00  0.00000000000E+00  0.19209622121E+03  0.19209622123E+03  0.25500000920E-02 0.  1.
        2   -1    0    0  501    0  0.00000000000E+00  0.00000000000E+00 -0.17697442501E+04  0.17697442501E+04  0.25500000920E-02 0. -1.
    10030    2    1    2    0    0  0.00000000000E+00  0.00000000000E+00 -0.15776480289E+04  0.19618404714E+04  0.11661238064E+04 0.  0.
        3    1    3    3  502    0  0.26506009876E+03  0.11422503356E+03 -0.16411300220E+04  0.16663168887E+04  0.10100000352E+00 0. -1.
       -3    1    3    3    0  502 -0.26506009876E+03 -0.11422503356E+03  0.63481993097E+02  0.29552358264E+03  0.10100000352E+00 0.  1.
</event>
<event>
 5   0  0.4298101E-03  0.1097363E+04  0.7818609E-02  0.9207766E-01
       -1   -1    0    0    0  501  0.00000000000E+00  0.00000000000E+00  0.22578630419E+03  0.22578630425E+03  0.50400001928E-02 0. -1.
        1   -1    0    0  501    0  0.00000000000E+00  0.00000000000E+00 -0.13333462855E+04  0.13333462856E+04  0.50400001928E-02 0.  1.
    10030    2    1    2    0    0  0.00000000000E+00  0.00000000000E+00 -0.11075599814E+04  0.15591325898E+04  0.10973628936E+04 0.  0.
        3    1    3    3  502    0  0.21613579300E+03 -0.39982090250E+03 -0.11706061931E+03  0.46933424538E+03  0.10100000352E+00 0. -1.
       -3    1    3    3    0  502 -0.21613579300E+03  0.39982090250E+03 -0.99049936205E+03  0.10897983444E+04  0.10100000352E+00 0.  1.
</event>
<event>
 5   0  0.4504740E-03  0.1101042E+04  0.7818609E-02  0.9204177E-01
        1   -1    0    0  501    0  0.00000000000E+00  0.00000000000E+00  0.30406529805E+03  0.30406529809E+03  0.50400001928E-02 0.  1.
       -1   -1    0    0    0  501  0.00000000000E+00  0.00000000000E+00 -0.99673801626E+03  0.99673801627E+03  0.50400001928E-02 0. -1.
    10030    2    1    2    0    0  0.00000000000E+00  0.00000000000E+00 -0.69267271821E+03  0.13008033144E+04  0.11010421282E+04 0.  0.
        5    1    3    3  502    0 -0.19485860050E+03 -0.33061850432E+03 -0.81262370162E+03  0.89869785803E+03  0.46999998093E+01 0. -1.
       -5    1    3    3    0  502  0.19485860050E+03  0.33061850432E+03  0.11995098341E+03  0.40210545633E+03  0.46999998093E+01 0.  1.
</event>
<event>
 5   0  0.7766551E-03  0.1011049E+04  0.7818609E-02  0.9296508E-01
       -2   -1    0    0    0  501  0.00000000000E+00  0.00000000000E+00  0.15890306363E+03  0.15890306365E+03  0.25500000920E-02 0.  1.
        2   -1    0    0  501    0  0.00000000000E+00  0.00000000000E+00 -0.16082460810E+04  0.16082460810E+04  0.25500000920E-02 0. -1.
    10030    2    1    2    0    0  0.00000000000E+00  0.00000000000E+00 -0.14493430173E+04  0.17671491446E+04  0.10110494139E+04 0.  0.
        5    1    3    3  502    0  0.42782997516E+03 -0.21867626452E+03 -0.45011457075E+03  0.65839426874E+03  0.46999998093E+01 0. -1.
       -5    1    3    3    0  502 -0.42782997516E+03  0.21867626452E+03 -0.99922844659E+03  0.11087548759E+04  0.46999998093E+01 0.  1.
</event>
<event>
 5   0  0.4641021E-03  0.1114197E+04  0.7818609E-02  0.9191464E-01
       -1   -1    0    0    0  501  0.00000000000E+00  0.00000000000E+00  0.28239113361E+03  0.28239113365E+03  0.50400001928E-02 0. -1.
        1   -1    0    0  501    0  0.00000000000E+00  0.00000000000E+00 -0.10990393965E+04  0.10990393965E+04  0.50400001928E-02 0.  1.
    10030    2    1    2    0    0  0.00000000000E+00  0.00000000000E+00 -0.81664826286E+03  0.13814305301E+04  0.11141974351E+04 0.  0.
        1    1    3    3  502    0 -0.39257587050E+02 -0.55410761343E+03 -0.46067102102E+03  0.72166072017E+03  0.50400001928E-02 0. -1.
       -1    1    3    3    0  502  0.39257587050E+02  0.55410761343E+03 -0.35597724185E+03  0.65976980996E+03  0.50400001928E-02 0.  1.
</event>
<event>
 5   0  0.4598561E-03  0.1110223E+04  0.7818609E-02  0.9195285E-01
       -1   -1    0    0    0  501  0.00000000000E+00  0.00000000000E+00  0.68408907089E+03  0.68408907091E+03  0.50400001928E-02 0. -1.
        1   -1    0    0  501    0  0.00000000000E+00  0.00000000000E+00 -0.45045096148E+03  0.45045096151E+03  0.50400001928E-02 0.  1.
    10030    2    1    2    0    0  0.00000000000E+00  0.00000000000E+00  0.23363810941E+03  0.11345400324E+04  0.11102226439E+04 0.  0.
        2    1    3    3  502    0  0.10314904998E+03  0.16061116923E+03  0.64949719771E+03  0.67696549693E+03  0.25500000920E-02 0. -1.
       -2    1    3    3    0  502 -0.10314904998E+03 -0.16061116923E+03 -0.41585908830E+03  0.45757453548E+03  0.25500000920E-02 0.  1.
</event>
<event>
 5   0  0.7712816E-03  0.1119150E+04  0.7818609E-02  0.9186726E-01
       -2   -1    0    0    0  501  0.00000000000E+00  0.00000000000E+00  0.23080530997E+03  0.23080530999E+03  0.25500000920E-02 0.  1.
        2   -1    0    0  501    0  0.00000000000E+00  0.00000000000E+00 -0.13566585459E+04  0.13566585459E+04  0.25500000920E-02 0. -1.
    10030    2    1    2    0    0  0.00000000000E+00  0.00000000000E+00 -0.11258532359E+04  0.15874638559E+04  0.11191496705E+04 0.  0.
        2    1    3    3  502    0  0.26151411626E+03  0.86474750836E+02 -0.12538417695E+04  0.12837393421E+04  0.25500000920E-02 0. -1.
       -2    1    3    3    0  502 -0.26151411626E+03 -0.86474750836E+02  0.12798853357E+03  0.30372451378E+03  0.25500000920E-02 0.  1.
</event>
<event>
 5   0  0.7712816E-03  0.1049893E+04  0.7818609E-02  0.9255455E-01
        2   -1    0    0  501    0  0.00000000000E+00  0.00000000000E+00  0.10840001896E+04  0.10840001896E+04  0.25500000920E-02 0.  1.
       -2   -1    0    0    0  501  0.00000000000E+00  0.00000000000E+00 -0.25421460314E+03  0.25421460315E+03  0.25500000920E-02 0. -1.
    10030    2    1    2    0    0  0.00000000000E+00  0.00000000000E+00  0.82978558646E+03  0.13382147928E+04  0.10498927145E+04 0.  0.
        2    1    3    3  502    0  0.49636385054E+02  0.30982142670E+03  0.95131815203E+03  0.10017281635E+04  0.25500000920E-02 0.  1.
       -2    1    3    3    0  502 -0.49636385054E+02 -0.30982142670E+03 -0.12153256557E+03  0.33648662925E+03  0.25500000920E-02 0. -1.
</event>
<event>
 5   0  0.7738497E-03  0.1121300E+04  0.7818609E-02  0.9184677E-01
        2   -1    0    0  501    0  0.00000000000E+00  0.00000000000E+00  0.21884275016E+04  0.21884275016E+04  0.25500000920E-02 0.  1.
       -2   -1    0    0    0  501  0.00000000000E+00  0.00000000000E+00 -0.14363202204E+03  0.14363202206E+03  0.25500000920E-02 0. -1.
    10030    2    1    2    0    0  0.00000000000E+00  0.00000000000E+00  0.20447954796E+04  0.23320595237E+04  0.11212997230E+04 0.  0.
        4    1    3    3  502    0  0.51120654580E+02  0.33577034185E+03  0.19501103799E+04  0.19794663803E+04  0.12699999809E+01 0.  1.
       -4    1    3    3    0  502 -0.51120654580E+02 -0.33577034185E+03  0.94685099651E+02  0.35259314342E+03  0.12699999809E+01 0. -1.
</event>
<event>
 5   0  0.7537480E-03  0.1099389E+04  0.7818609E-02  0.9205788E-01
        2   -1    0    0  501    0  0.00000000000E+00  0.00000000000E+00  0.50449672123E+03  0.50449672124E+03  0.25500000920E-02 0.  1.
       -2   -1    0    0    0  501  0.00000000000E+00  0.00000000000E+00 -0.59894125521E+03  0.59894125521E+03  0.25500000920E-02 0. -1.
    10030    2    1    2    0    0  0.00000000000E+00  0.00000000000E+00 -0.94444533975E+02  0.11034379765E+04  0.10993887383E+04 0.  0.
        1    1    3    3  502    0  0.36413042447E+01 -0.18246488216E+03 -0.56764646821E+03  0.59626269816E+03  0.50400001928E-02 0. -1.
       -1    1    3    3    0  502 -0.36413042447E+01  0.18246488216E+03  0.47320193424E+03  0.50717527829E+03  0.50400001928E-02 0.  1.
</event>
<event>
 5   0  0.2992375E-03  0.1077783E+04  0.7818609E-02  0.9227121E-01
       -4   -1    0    0    0  501  0.00000000000E+00  0.00000000000E+00  0.33882282299E+03  0.33882520314E+03  0.12699999809E+01 0.  1.
        4   -1    0    0  501    0  0.00000000000E+00  0.00000000000E+00 -0.85709092337E+03  0.85709186429E+03  0.12699999809E+01 0. -1.
    10030    2    1    2    0    0  0.00000000000E+00  0.00000000000E+00 -0.51826810038E+03  0.11959170674E+04  0.10777828206E+04 0.  0.
        4    1    3    3  502    0 -0.21027886951E+03 -0.48476476459E+03 -0.37650241854E+03  0.64882182764E+03  0.12699999809E+01 0. -1.
       -4    1    3    3    0  502  0.21027886951E+03  0.48476476459E+03 -0.14176568184E+03  0.54709523979E+03  0.12699999809E+01 0.  1.
</event>
<event>
 5   0  0.7738497E-03  0.1102058E+04  0.7818609E-02  0.9203188E-01
        2   -1    0    0  501    0  0.00000000000E+00  0.00000000000E+00  0.16976591555E+04  0.16976591555E+04  0.25500000920E-02 0.  1.
       -2   -1    0    0    0  501  0.00000000000E+00  0.00000000000E+00 -0.17885389736E+03  0.17885389737E+03  0.25500000920E-02 0. -1.
    10030    2    1    2    0    0  0.00000000000E+00  0.00000000000E+00  0.15188052582E+04  0.18765130529E+04  0.11020579955E+04 0.  0.
        4    1    3    3  502    0 -0.93139117702E+02  0.39695157580E+03  0.12827351735E+03  0.42743555880E+03  0.12699999809E+01 0. -1.
       -4    1    3    3    0  502  0.93139117702E+02 -0.39695157580E+03  0.13905317408E+04  0.14490774941E+04  0.12699999809E+01 0.  1.
</event>
<event>
 5   0  0.7537480E-03  0.1012111E+04  0.7818609E-02  0.9295361E-01
        2   -1    0    0  501    0  0.00000000000E+00  0.00000000000E+00  0.40514716986E+03  0.40514716987E+03  0.25500000920E-02 0. -1.
       -2   -1    0    0    0  501  0.00000000000E+00  0.00000000000E+00 -0.63209610157E+03  0.63209610158E+03  0.25500000920E-02 0.  1.
    10030    2    1    2    0    0  0.00000000000E+00  0.00000000000E+00 -0.22694893171E+03  0.10372432714E+04  0.10121105604E+04 0.  0.
        1    1    3    3  502    0 -0.27536718030E+03  0.33538558520E+03 -0.38028799494E+03  0.57700046262E+03  0.50400001928E-02 0.  1.
       -1    1    3    3    0  502  0.27536718030E+03 -0.33538558520E+03  0.15333906322E+03  0.46024280883E+03  0.50400001928E-02 0. -1.
</event>
<event>
 5   0  0.2992375E-03  0.1109976E+04  0.7818609E-02  0.9195523E-01
       -3   -1    0    0    0  501  0.00000000000E+00  0.00000000000E+00  0.65563125786E+03  0.65563126564E+03  0.10100000352E+00 0.  1.
        3   -1    0    0  501    0  0.00000000000E+00  0.00000000000E+00 -0.46979422110E+03  0.46979423195E+03  0.10100000352E+00 0. -1.
    10030    2    1    2    0    0  0.00000000000E+00  0.00000000000E+00  0.18583703676E+03  0.11254254976E+04  0.11099761918E+04 0.  0.
        4    1    3    3  502    0  0.29427470158E+03 -0.43440132256E+01 -0.38415544916E+03  0.48393542179E+03  0.12699999809E+01 0. -1.
       -4    1    3    3    0  502 -0.29427470158E+03  0.43440132256E+01  0.56999248593E+03  0.64149007580E+03  0.12699999809E+01 0.  1.
</event>
<event>
 5   0  0.2992375E-03  0.1089845E+04  0.7818609E-02  0.9215146E-01
        3   -1    0    0  501    0  0.00000000000E+00  0.00000000000E+00  0.72667639504E+03  0.72667640206E+03  0.10100000352E+00 0.  1.
       -3   -1    0    0    0  501  0.00000000000E+00  0.00000000000E+00 -0.40862862191E+03  0.40862863440E+03  0.10100000352E+00 0. -1.
    10030    2    1    2    0    0  0.00000000000E+00  0.00000000000E+00  0.31804777313E+03  0.11353050365E+04  0.10898454660E+04 0.  0.
        4    1    3    3  502    0  0.17770894257E+03 -0.50854047603E+03  0.24457937839E+03  0.59162029145E+03  0.12699999809E+01 0. -1.
       -4    1    3    3    0  502 -0.17770894257E+03  0.50854047603E+03  0.73468394735E+02  0.54368474500E+03  0.12699999809E+01 0.  1.
</event>
<event>
 5   0  0.4298101E-03  0.1136535E+04  0.7818609E-02  0.9170296E-01
       -1   -1    0    0    0  501  0.00000000000E+00  0.00000000000E+00  0.39674466006E+03  0.39674466009E+03  0.50400001928E-02 0.  1.
        1   -1    0    0  501    0  0.00000000000E+00  0.00000000000E+00 -0.81394390369E+03  0.81394390371E+03  0.50400001928E-02 0. -1.
    10030    2    1    2    0    0  0.00000000000E+00  0.00000000000E+00 -0.41719924363E+03  0.12106885638E+04  0.11365349047E+04 0.  0.
        3    1    3    3  502    0  0.52340623312E+02  0.15688736722E+03 -0.78773926066E+03  0.80491387106E+03  0.10100000352E+00 0. -1.
       -3    1    3    3    0  502 -0.52340623312E+02 -0.15688736722E+03  0.37054001703E+03  0.40577469273E+03  0.10100000352E+00 0.  1.
</event>
<event>
 5   0  0.7766551E-03  0.1086666E+04  0.7818609E-02  0.9218286E-01
       -2   -1    0    0    0  501  0.00000000000E+00  0.00000000000E+00  0.25894650446E+03  0.25894650448E+03  0.25500000920E-02 0. -1.
        2   -1    0    0  501    0  0.00000000000E+00  0.00000000000E+00 -0.11400450961E+04  0.11400450961E+04  0.25500000920E-02 0.  1.
    10030    2    1    2    0    0  0.00000000000E+00  0.00000000000E+00 -0.88109859165E+03  0.13989916006E+04  0.10866658964E+04 0.  0.
        5    1    3    3  502    0 -0.10824147397E+03  0.68705804289E+02  0.23916747638E+03  0.27140352979E+03  0.46999998093E+01 0. -1.
       -5    1    3    3    0  502  0.10824147397E+03 -0.68705804289E+02 -0.11202660680E+04  0.11275880708E+04  0.46999998093E+01 0.  1.
</event>
<event>
 5   0  0.4428114E-03  0.1060746E+04  0.7818609E-02  0.9244319E-01
       -1   -1    0    0    0  501  0.00000000000E+00  0.00000000000E+00  0.32672897403E+03  0.32672897407E+03  0.50400001928E-02 0. -1.
        1   -1    0    0  501    0  0.00000000000E+00  0.00000000000E+00 -0.86094433736E+03  0.86094433737E+03  0.50400001928E-02 0.  1.
    10030    2    1    2    0    0  0.00000000000E+00  0.00000000000E+00 -0.53421536333E+03  0.11876733114E+04  0.10607458886E+04 0.  0.
        4    1    3    3  502    0  0.21923441899E+03  0.16049871909E+03  0.24288457784E+03  0.36444217696E+03  0.12699999809E+01 0. -1.
       -4    1    3    3    0  502 -0.21923441899E+03 -0.16049871909E+03 -0.77709994117E+03  0.82323113447E+03  0.12699999809E+01 0.  1.
</event>
<event>
 5   0  0.7537480E-03  0.1120465E+04  0.7818609E-02  0.9185472E-01
       -2   -1    0    0    0  501  0.00000000000E+00  0.00000000000E+00  0.34850577161E+03  0.34850577162E+03  0.25500000920E-02 0.  1.
        2   -1    0    0  501    0  0.00000000000E+00  0.00000000000E+00 -0.90058896475E+03  0.90058896475E+03  0.25500000920E-02 0. -1.
    10030    2    1    2    0    0  0.00000000000E+00  0.00000000000E+00 -0.55208319314E+03  0.12490947364E+04  0.11204649965E+04 0.  0.
        1    1    3    3  502    0 -0.32842745640E+02  0.47991789363E+03 -0.59616718253E+03  0.76603860224E+03  0.50400001928E-02 0. -1.
       -1    1    3    3    0  502  0.32842745640E+02 -0.47991789363E+03  0.44083989392E+02  0.48305613413E+03  0.50400001928E-02 0.  1.
</event>
<event>
 5   0  0.2992375E-03  0.1084389E+04  0.7818609E-02  0.9220543E-01
       -3   -1    0    0    0  501  0.00000000000E+00  0.00000000000E+00  0.35652435749E+03  0.35652437179E+03  0.10100000352E+00 0. -1.
        3   -1    0    0  501    0  0.00000000000E+00  0.00000000000E+00 -0.82455735439E+03  0.82455736058E+03  0.10100000352E+00 0.  1.
    10030    2    1    2    0    0  0.00000000000E+00  0.00000000000E+00 -0.46803299691E+03  0.11810817324E+04  0.10843888474E+04 0.  0.
        3    1    3    3  502    0 -0.54177141480E+02 -0.36057742209E+03  0.20304202984E+03  0.41734555953E+03  0.10100000352E+00 0. -1.
       -3    1    3    3    0  502  0.54177141480E+02  0.36057742209E+03 -0.67107502675E+03  0.76373617284E+03  0.10100000352E+00 0.  1.
</event>
<event>
 5   0  0.7712816E-03  0.1091133E+04  0.7818609E-02  0.9213878E-01
        2   -1    0    0  501    0  0.00000000000E+00  0.00000000000E+00  0.24953687375E+04  0.24953687375E+04  0.25500000920E-02 0. -1.
       -2   -1    0    0    0  501  0.00000000000E+00  0.00000000000E+00 -0.11927803112E+03  0.11927803115E+03  0.25500000920E-02 0.  1.
    10030    2    1    2    0    0  0.00000000000E+00  0.00000000000E+00  0.23760907063E+04  0.26146467686E+04  0.10911327508E+04 0.  0.
        2    1    3    3  502    0 -0.29029387857E+03 -0.25592423652E+03  0.21095185215E+04  0.21447228594E+04  0.25500000920E-02 0. -1.
       -2    1    3    3    0  502  0.29029387857E+03  0.25592423652E+03  0.26657218481E+03  0.46992390926E+03  0.25500000920E-02 0.  1.
</event>
<event>
 5   0  0.4504740E-03  0.1103191E+04  0.7818609E-02  0.9202087E-01
        1   -1    0    0  501    0  0.00000000000E+00  0.00000000000E+00  0.10089805200E+04  0.10089805200E+04  0.50400001928E-02 0.  1.
       -1   -1    0    0    0  501  0.00000000000E+00  0.00000000000E+00 -0.30154947296E+03  0.30154947300E+03  0.50400001928E-02 0. -1.
    10030    2    1    2    0    0  0.00000000000E+00  0.00000000000E+00  0.70743104707E+03  0.13105299930E+04  0.11031909066E+04 0.  0.
        5    1    3    3  502    0  0.88792212180E+02 -0.43763029876E+03  0.73834397079E+03  0.86288947412E+03  0.46999998093E+01 0.  1.
       -5    1    3    3    0  502 -0.88792212180E+02  0.43763029876E+03 -0.30912923727E+02  0.44764051893E+03  0.46999998093E+01 0. -1.
</event>
<event>
 5   0  0.7738497E-03  0.1081262E+04  0.7818609E-02  0.9223650E-01
       -2   -1    0    0    0  501  0.00000000000E+00  0.00000000000E+00  0.24273403645E+03  0.24273403646E+03  0.25500000920E-02 0.  1.
        2   -1    0    0  501    0  0.00000000000E+00  0.00000000000E+00 -0.12041240035E+04  0.12041240035E+04  0.25500000920E-02 0. -1.
    10030    2    1    2    0    0  0.00000000000E+00  0.00000000000E+00 -0.96138996705E+03  0.14468580400E+04  0.10812620030E+04 0.  0.
        4    1    3    3  502    0  0.24593388441E+03 -0.25605846723E+03 -0.10262653800E+04  0.10859427504E+04  0.12699999809E+01 0. -1.
       -4    1    3    3    0  502 -0.24593388441E+03  0.25605846723E+03  0.64875412909E+02  0.36091528957E+03  0.12699999809E+01 0.  1.
</event>
<event>
 5   0  0.7766551E-03  0.1133644E+04  0.7818609E-02  0.9173006E-01
        2   -1    0    0  501    0  0.00000000000E+00  0.00000000000E+00  0.12746213011E+04  0.12746213011E+04  0.25500000920E-02 0.  1.
       -2   -1    0    0    0  501  0.00000000000E+00  0.00000000000E+00 -0.25206503461E+03  0.25206503462E+03  0.25500000920E-02 0. -1.
    10030    2    1    2    0    0  0.00000000000E+00  0.00000000000E+00  0.10225562665E+04  0.15266863357E+04  0.11336444988E+04 0.  0.
        5    1    3    3  502    0  0.55604573261E+02 -0.17651126341E+03  0.12327625482E+04  0.12465848086E+04  0.46999998093E+01 0.  1.
       -5    1    3    3    0  502 -0.55604573261E+02  0.17651126341E+03 -0.21020628168E+03  0.28010152719E+03  0.46999998093E+01 0. -1.
</event>
<event>
 5   0  0.4428114E-03  0.1111658E+04  0.7818609E-02  0.9193903E-01
       -1   -1    0    0    0  501  0.00000000000E+00  0.00000000000E+00  0.31330850594E+03  0.31330850598E+03  0.50400001928E-02 0.  1.
        1   -1    0    0  501    0  0.00000000000E+00  0.00000000000E+00 -0.98607646666E+03  0.98607646667E+03  0.50400001928E-02 0. -1.
    10030    2    1    2    0    0  0.00000000000E+00  0.00000000000E+00 -0.67276796072E+03  0.12993849727E+04  0.11116584809E+04 0.  0.
        4    1    3    3  502    0  0.50679319908E+03 -0.20403986970E+03 -0.45600301041E+03  0.71162628778E+03  0.12699999809E+01 0.  1.
       -4    1    3    3    0  502 -0.50679319908E+03  0.20403986970E+03 -0.21676495032E+03  0.58775868487E+03  0.12699999809E+01 0. -1.
</event>
<event>
 5   0  0.7537480E-03  0.1100618E+04  0.7818609E-02  0.9204590E-01
        2   -1    0    0  501    0  0.00000000000E+00  0.00000000000E+00  0.11185739397E+04  0.11185739397E+04  0.25500000920E-02 0.  1.
       -2   -1    0    0    0  501  0.00000000000E+00  0.00000000000E+00 -0.27073755550E+03  0.27073755551E+03  0.25500000920E-02 0. -1.
    10030    2    1    2    0    0  0.00000000000E+00  0.00000000000E+00  0.84783638421E+03  0.13893114952E+04  0.11006179611E+04 0.  0.
        1    1    3    3  502    0 -0.10435663466E+03 -0.11226851710E+03  0.10910840786E+04  0.11017980730E+04  0.50400001928E-02 0.  1.
       -1    1    3    3    0  502  0.10435663466E+03  0.11226851710E+03 -0.24324769435E+03  0.28751342223E+03  0.50400001928E-02 0. -1.
</event>
<event>
 5   0  0.4504740E-03  0.1131308E+04  0.7818609E-02  0.9175203E-01
        1   -1    0    0  501    0  0.00000000000E+00  0.00000000000E+00  0.99881717547E+03  0.99881717548E+03  0.50400001928E-02 0.  1.
       -1   -1    0    0    0  501  0.00000000000E+00  0.00000000000E+00 -0.32034362006E+03  0.32034362010E+03  0.50400001928E-02 0. -1.
    10030    2    1    2    0    0  0.00000000000E+00  0.00000000000E+00  0.67847355541E+03  0.13191607956E+04  0.11313084633E+04 0.  0.
        5    1    3    3  502    0  0.69744995024E+02 -0.54237303731E+03  0.17062377739E+03  0.57285900477E+03  0.46999998093E+01 0.  1.
       -5    1    3    3    0  502 -0.69744995024E+02  0.54237303731E+03  0.50784977803E+03  0.74630179081E+03  0.46999998093E+01 0. -1.
</event>
<event>
 5   0  0.4298101E-03  0.1079881E+04  0.7818609E-02  0.9225026E-01
       -1   -1    0    0    0  501  0.00000000000E+00  0.00000000000E+00  0.22400835714E+03  0.22400835720E+03  0.50400001928E-02 0. -1.
        1   -1    0    0  501    0  0.00000000000E+00  0.00000000000E+00 -0.13014497194E+04  0.13014497194E+04  0.50400001928E-02 0.  1.
    10030    2    1    2    0    0  0.00000000000E+00  0.00000000000E+00 -0.10774413623E+04  0.15254580766E+04  0.10798807593E+04 0.  0.
        3    1    3    3  502    0  0.13854188043E+01 -0.42534834323E+03 -0.10085352936E+04  0.10945622784E+04  0.10100000352E+00 0.  1.
       -3    1    3    3    0  502 -0.13854188043E+01  0.42534834323E+03 -0.68906068637E+02  0.43089579827E+03  0.10100000352E+00 0. -1.
</event>
<event>
 5   0  0.4298101E-03  0.1102108E+04  0.7818609E-02  0.9203139E-01
       -1   -1    0    0    0  501  0.00000000000E+00  0.00000000000E+00  0.65315479749E+03  0.65315479751E+03  0.50400001928E-02 0.  1.
        1   -1    0    0  501    0  0.00000000000E+00  0.00000000000E+00 -0.46491385996E+03  0.46491385998E+03  0.50400001928E-02 0. -1.
    10030    2    1    2    0    0  0.00000000000E+00  0.00000000000E+00  0.18824093754E+03  0.11180686575E+04  0.11021083759E+04 0.  0.
        3    1    3    3  502    0  0.68378099012E+02  0.52688608021E+03  0.24244379012E+03  0.58400642763E+03  0.10100000352E+00 0.  1.
       -3    1    3    3    0  502 -0.68378099012E+02 -0.52688608021E+03 -0.54202852584E+02  0.53406222987E+03  0.10100000352E+00 0. -1.
</event>
<event>
 5   0  0.4428114E-03  0.9960492E+03  0.7818609E-02  0.9312889E-01
       -1   -1    0    0    0  501  0.00000000000E+00  0.00000000000E+00  0.34370758167E+03  0.34370758170E+03  0.50400001928E-02 0.  1.
        1   -1    0    0  501    0  0.00000000000E+00  0.00000000000E+00 -0.72162651493E+03  0.72162651495E+03  0.50400001928E-02 0. -1.
    10030    2    1    2    0    0  0.00000000000E+00  0.00000000000E+00 -0.37791893327E+03  0.10653340967E+04  0.99604920429E+03 0.  0.
        4    1    3    3  502    0 -0.19163243696E+03  0.45753461628E+03 -0.23638301868E+03  0.54949018227E+03  0.12699999809E+01 0. -1.
       -4    1    3    3    0  502  0.19163243696E+03 -0.45753461628E+03 -0.14153591459E+03  0.51584391439E+03  0.12699999809E+01 0.  1.
</event>
<event>
 5   0  0.7952121E-03  0.1087954E+04  0.7818609E-02  0.9217013E-01
        2   -1    0    0  501    0  0.00000000000E+00  0.00000000000E+00  0.91731788108E+03  0.91731788108E+03  0.25500000920E-02 0.  1.
       -2   -1    0    0    0  501  0.00000000000E+00  0.00000000000E+00 -0.32258300859E+03  0.32258300860E+03  0.25500000920E-02 0. -1.
    10030    2    1    2    0    0  0.00000000000E+00  0.00000000000E+00  0.59473487249E+03  0.12399008897E+04  0.10879543408E+04 0.  0.
        3    1    3    3  502    0  0.55282910915E+02  0.20431762084E+03 -0.27372665597E+03  0.34601760477E+03  0.10100000352E+00 0. -1.
       -3    1    3    3    0  502 -0.55282910915E+02 -0.20431762084E+03  0.86846152846E+03  0.89388328491E+03  0.10100000352E+00 0.  1.
</event>
<event>
 5   0  0.2992375E-03  0.1098198E+04  0.7818609E-02  0.9206950E-01
       -3   -1    0    0    0  501  0.00000000000E+00  0.00000000000E+00  0.75939580858E+03  0.75939581530E+03  0.10100000352E+00 0. -1.
        3   -1    0    0  501    0  0.00000000000E+00  0.00000000000E+00 -0.39703878035E+03  0.39703879320E+03  0.10100000352E+00 0.  1.
    10030    2    1    2    0    0  0.00000000000E+00  0.00000000000E+00  0.36235702823E+03  0.11564346085E+04  0.10981977908E+04 0.  0.
        2    1    3    3  502    0 -0.34372799093E+03  0.14193716824E+03  0.60660046151E+03  0.71151894661E+03  0.25500000920E-02 0. -1.
       -2    1    3    3    0  502  0.34372799093E+03 -0.14193716824E+03 -0.24424343328E+03  0.44491566188E+03  0.25500000920E-02 0.  1.
</event>
<event>
 5   0  0.7952121E-03  0.1110180E+04  0.7818609E-02  0.9195327E-01
        2   -1    0    0  501    0  0.00000000000E+00  0.00000000000E+00  0.50609911576E+03  0.50609911576E+03  0.25500000920E-02 0. -1.
       -2   -1    0    0    0  501  0.00000000000E+00  0.00000000000E+00 -0.60882283241E+03  0.60882283241E+03  0.25500000920E-02 0.  1.
    10030    2    1    2    0    0  0.00000000000E+00  0.00000000000E+00 -0.10272371665E+03  0.11149219482E+04  0.11101796200E+04 0.  0.
        3    1    3    3  502    0 -0.18086026448E+03 -0.30935013663E+03  0.37437915164E+03  0.51823517990E+03  0.10100000352E+00 0. -1.
       -3    1    3    3    0  502  0.18086026448E+03  0.30935013663E+03 -0.47710286829E+03  0.59668676828E+03  0.10100000352E+00 0.  1.
</event>
<event>
 5   0  0.7766551E-03  0.1159748E+04  0.7818609E-02  0.9148837E-01
        2   -1    0    0  501    0  0.00000000000E+00  0.00000000000E+00  0.56601874694E+03  0.56601874695E+03  0.25500000920E-02 0.  1.
       -2   -1    0    0    0  501  0.00000000000E+00  0.00000000000E+00 -0.59406860682E+03  0.59406860683E+03  0.25500000920E-02 0. -1.
    10030    2    1    2    0    0  0.00000000000E+00  0.00000000000E+00 -0.28049859881E+02  0.11600873538E+04  0.11597481941E+04 0.  0.
        5    1    3    3  502    0  0.16983679777E+03 -0.91526084609E+02 -0.56100320064E+03  0.59326911530E+03  0.46999998093E+01 0. -1.
       -5    1    3    3    0  502 -0.16983679777E+03  0.91526084609E+02  0.53295334076E+03  0.56681823847E+03  0.46999998093E+01 0.  1.
</event>
<event>
 5   0  0.4598561E-03  0.1103339E+04  0.7818609E-02  0.9201943E-01
       -1   -1    0    0    0  501  0.00000000000E+00  0.00000000000E+00  0.68047738656E+03  0.68047738657E+03  0.50400001928E-02 0. -1.
        1   -1    0    0  501    0  0.00000000000E+00  0.00000000000E+00 -0.44724394265E+03  0.44724394268E+03  0.50400001928E-02 0.  1.
    10030    2    1    2    0    0  0.00000000000E+00  0.00000000000E+00  0.23323344390E+03  0.11277213293E+04  0.11033392756E+04 0.  0.
        2    1    3    3  502    0  0.23276777304E+03  0.28870126558E+03  0.53406620733E+03  0.65019687075E+03  0.25500000920E-02 0. -1.
       -2    1    3    3    0  502 -0.23276777304E+03 -0.28870126558E+03 -0.30083276343E+03  0.47752445851E+03  0.25500000920E-02 0.  1.
</event>
<event>
 5   0  0.4428114E-03  0.1089264E+04  0.7818609E-02  0.9215720E-01
       -1   -1    0    0    0  501  0.00000000000E+00  0.00000000000E+00  0.49526138466E+03  0.49526138469E+03  0.50400001928E-02 0. -1.
        1   -1    0    0  501    0  0.00000000000E+00  0.00000000000E+00 -0.59892384185E+03  0.59892384187E+03  0.50400001928E-02 0.  1.
    10030    2    1    2    0    0  0.00000000000E+00  0.00000000000E+00 -0.10366245718E+03  0.10941852266E+04  0.10892636986E+04 0.  0.
        4    1    3    3  502    0 -0.84674943668E+02 -0.22793979383E+03 -0.54136856700E+03  0.59347108938E+03  0.12699999809E+01 0.  1.
       -4    1    3    3    0  502  0.84674943668E+02  0.22793979383E+03  0.43770610982E+03  0.50071413718E+03  0.12699999809E+01 0. -1.
</event>
<event>
 5   0  0.7712816E-03  0.1118984E+04  0.7818609E-02  0.9186884E-01
        2   -1    0    0  501    0  0.00000000000E+00  0.00000000000E+00  0.24351370348E+04  0.24351370348E+04  0.25500000920E-02 0.  1.
       -2   -1    0    0    0  501  0.00000000000E+00  0.00000000000E+00 -0.12854767056E+03  0.12854767059E+03  0.25500000920E-02 0. -1.
    10030    2    1    2    0    0  0.00000000000E+00  0.00000000000E+00  0.23065893642E+04  0.25636847054E+04  0.11189838128E+04 0.  0.
        2    1    3    3  502    0  0.19443096724E+03 -0.37613934853E+03  0.31541278925E+03  0.52798621020E+03  0.25500000920E-02 0. -1.
       -2    1    3    3    0  502 -0.19443096724E+03  0.37613934853E+03  0.19911765750E+04  0.20356984952E+04  0.25500000920E-02 0.  1.
</event>
<event>
 5   0  0.7952121E-03  0.1136045E+04  0.7818609E-02  0.9170755E-01
        2   -1    0    0  501    0  0.00000000000E+00  0.00000000000E+00  0.21406013491E+04  0.21406013491E+04  0.25500000920E-02 0.  1.
       -2   -1    0    0    0  501  0.00000000000E+00  0.00000000000E+00 -0.15072850131E+03  0.15072850134E+03  0.25500000920E-02 0. -1.
    10030    2    1    2    0    0  0.00000000000E+00  0.00000000000E+00  0.19898728478E+04  0.22913298504E+04  0.11360451281E+04 0.  0.
        3    1    3    3  502    0 -0.46724179030E+01 -0.47962006791E+03  0.16086696814E+04  0.16786528513E+04  0.10100000352E+00 0.  1.
       -3    1    3    3    0  502  0.46724179030E+01  0.47962006791E+03  0.38120316636E+03  0.61267699913E+03  0.10100000352E+00 0. -1.
</event>
<event>
 5   0  0.4641021E-03  0.1058797E+04  0.7818609E-02  0.9246309E-01
        1   -1    0    0  501    0  0.00000000000E+00  0.00000000000E+00  0.77735327722E+03  0.77735327723E+03  0.50400001928E-02 0.  1.
       -1   -1    0    0    0  501  0.00000000000E+00  0.00000000000E+00 -0.36053454170E+03  0.36053454174E+03  0.50400001928E-02 0. -1.
    10030    2    1    2    0    0  0.00000000000E+00  0.00000000000E+00  0.41681873552E+03  0.11378878190E+04  0.10587968787E+04 0.  0.
        1    1    3    3  502    0  0.47150498667E+03 -0.21496333827E+03  0.91981636184E+02  0.52629536448E+03  0.50400001928E-02 0.  1.
       -1    1    3    3    0  502 -0.47150498667E+03  0.21496333827E+03  0.32483709933E+03  0.61159245448E+03  0.50400001928E-02 0. -1.
</event>
<event>
 5   0  0.7766551E-03  0.1091199E+04  0.7818609E-02  0.9213812E-01
       -2   -1    0    0    0  501  0.00000000000E+00  0.00000000000E+00  0.56950000275E+03  0.56950000276E+03  0.25500000920E-02 0.  1.
        2   -1    0    0  501    0  0.00000000000E+00  0.00000000000E+00 -0.52270234119E+03  0.52270234120E+03  0.25500000920E-02 0. -1.
    10030    2    1    2    0    0  0.00000000000E+00  0.00000000000E+00  0.46797661559E+02  0.10922023440E+04  0.10911993122E+04 0.  0.
        5    1    3    3  502    0  0.38515032348E+03 -0.52479760334E+02  0.40658489734E+03  0.56251956913E+03  0.46999998093E+01 0.  1.
       -5    1    3    3    0  502 -0.38515032348E+03  0.52479760334E+02 -0.35978723578E+03  0.52968277482E+03  0.46999998093E+01 0. -1.
</event>
<event>
 5   0  0.4428114E-03  0.1091474E+04  0.7818609E-02  0.9213542E-01
       -1   -1    0    0    0  501  0.00000000000E+00  0.00000000000E+00  0.60289267916E+03  0.60289267918E+03  0.50400001928E-02 0.  1.
        1   -1    0    0  501    0  0.00000000000E+00  0.00000000000E+00 -0.49399970683E+03  0.49399970686E+03  0.50400001928E-02 0. -1.
    10030    2    1    2    0    0  0.00000000000E+00  0.00000000000E+00  0.10889297233E+03  0.10968923860E+04  0.10914738784E+04 0.  0.
        4    1    3    3  502    0  0.87705791715E+02  0.18299773018E+03  0.56356458182E+03  0.59898841887E+03  0.12699999809E+01 0. -1.
       -4    1    3    3    0  502 -0.87705791715E+02 -0.18299773018E+03 -0.45467160949E+03  0.49790396718E+03  0.12699999809E+01 0.  1.
</event>
<event>
 5   0  0.4504740E-03  0.1072626E+04  0.7818609E-02  0.9232291E-01
        1   -1    0    0  501    0  0.00000000000E+00  0.00000000000E+00  0.39098453505E+03  0.39098453508E+03  0.50400001928E-02 0. -1.
       -1   -1    0    0    0  501  0.00000000000E+00  0.00000000000E+00 -0.73565947176E+03  0.73565947178E+03  0.50400001928E-02 0.  1.
    10030    2    1    2    0    0  0.00000000000E+00  0.00000000000E+00 -0.34467493671E+03  0.11266440069E+04  0.10726257065E+04 0.  0.
        5    1    3    3  502    0 -0.16456535921E+02  0.25756392005E+03  0.32144316595E+03  0.41225937154E+03  0.46999998093E+01 0. -1.
       -5    1    3    3    0  502  0.16456535921E+02 -0.25756392005E+03 -0.66611810266E+03  0.71438463532E+03  0.46999998093E+01 0.  1.
</event>
<event>
 5   0  0.7712816E-03  0.1084169E+04  0.7818609E-02  0.9220760E-01
       -2   -1    0    0    0  501  0.00000000000E+00  0.00000000000E+00  0.58275467715E+03  0.58275467715E+03  0.25500000920E-02 0. -1.
        2   -1    0    0  501    0  0.00000000000E+00  0.00000000000E+00 -0.50425295883E+03  0.50425295884E+03  0.25500000920E-02 0.  1.
    10030    2    1    2    0    0  0.00000000000E+00  0.00000000000E+00  0.78501718315E+02  0.10870076360E+04  0.10841693045E+04 0.  0.
        2    1    3    3  502    0  0.22766584824E+03  0.29804695671E+03 -0.35317136260E+03  0.51516379747E+03  0.25500000920E-02 0.  1.
       -2    1    3    3    0  502 -0.22766584824E+03 -0.29804695671E+03  0.43167308092E+03  0.57184383852E+03  0.25500000920E-02 0. -1.
</event>
<event>
 5   0  0.4641021E-03  0.1027242E+04  0.7818609E-02  0.9279161E-01
        1   -1    0    0  501    0  0.00000000000E+00  0.00000000000E+00  0.67625144554E+03  0.67625144556E+03  0.50400001928E-02 0.  1.
       -1   -1    0    0    0  501  0.00000000000E+00  0.00000000000E+00 -0.39010094395E+03  0.39010094398E+03  0.50400001928E-02 0. -1.
    10030    2    1    2    0    0  0.00000000000E+00  0.00000000000E+00  0.28615050159E+03  0.10663523895E+04  0.10272416021E+04 0.  0.
        1    1    3    3  502    0 -0.14208242620E+03 -0.48854938640E+03  0.21602463857E+03  0.55275180984E+03  0.50400001928E-02 0.  1.
       -1    1    3    3    0  502  0.14208242620E+03  0.48854938640E+03  0.70125863020E+02  0.51360057971E+03  0.50400001928E-02 0. -1.
</event>
<event>
 5   0  0.4598561E-03  0.1128563E+04  0.7818609E-02  0.9177791E-01
        1   -1    0    0  501    0  0.00000000000E+00  0.00000000000E+00  0.15532062587E+04  0.15532062587E+04  0.50400001928E-02 0. -1.
       -1   -1    0    0    0  501  0.00000000000E+00  0.00000000000E+00 -0.20500412491E+03  0.20500412497E+03  0.50400001928E-02 0.  1.
    10030    2    1    2    0    0  0.00000000000E+00  0.00000000000E+00  0.13482021338E+04  0.17582103837E+04  0.11285631394E+04 0.  0.
        2    1    3    3  502    0 -0.51384871288E+03 -0.21701863089E+03  0.54121041579E+03  0.77720415596E+03  0.25500000920E-02 0. -1.
       -2    1    3    3    0  502  0.51384871288E+03  0.21701863089E+03  0.80699171800E+03  0.98100622771E+03  0.25500000920E-02 0.  1.
</event>
<event>
 5   0  0.7766551E-03  0.1110153E+04  0.7818609E-02  0.9195352E-01
        2   -1    0    0  501    0  0.00000000000E+00  0.00000000000E+00  0.77251260790E+03  0.77251260791E+03  0.25500000920E-02 0.  1.
       -2   -1    0    0    0  501  0.00000000000E+00  0.00000000000E+00 -0.39884151448E+03  0.39884151448E+03  0.25500000920E-02 0. -1.
    10030    2    1    2    0    0  0.00000000000E+00  0.00000000000E+00  0.37367109343E+03  0.11713541224E+04  0.11101533200E+04 0.  0.
        5    1    3    3  502    0 -0.15590768026E+03  0.43694012345E+03 -0.13470019119E+03  0.48310465507E+03  0.46999998093E+01 0. -1.
       -5    1    3    3    0  502  0.15590768026E+03 -0.43694012345E+03  0.50837128462E+03  0.68824946732E+03  0.46999998093E+01 0.  1.
</event>
<event>
 5   0  0.7738497E-03  0.1106419E+04  0.7818609E-02  0.9198958E-01
        2   -1    0    0  501    0  0.00000000000E+00  0.00000000000E+00  0.33850555701E+03  0.33850555702E+03  0.25500000920E-02 0.  1.
       -2   -1    0    0    0  501  0.00000000000E+00  0.00000000000E+00 -0.90409375812E+03  0.90409375812E+03  0.25500000920E-02 0. -1.
    10030    2    1    2    0    0  0.00000000000E+00  0.00000000000E+00 -0.56558820111E+03  0.12425993151E+04  0.11064190186E+04 0.  0.
        4    1    3    3  502    0  0.38145783205E+03 -0.12045493265E+03  0.14636386070E+03  0.42596180703E+03  0.12699999809E+01 0.  1.
       -4    1    3    3    0  502 -0.38145783205E+03  0.12045493265E+03 -0.71195206180E+03  0.81663750810E+03  0.12699999809E+01 0. -1.
</event>
<event>
 5   0  0.4598561E-03  0.1085374E+04  0.7818609E-02  0.9219566E-01
       -1   -1    0    0    0  501  0.00000000000E+00  0.00000000000E+00  0.42703655603E+03  0.42703655606E+03  0.50400001928E-02 0. -1.
        1   -1    0    0  501    0  0.00000000000E+00  0.00000000000E+00 -0.68965756626E+03  0.68965756628E+03  0.50400001928E-02 0.  1.
    10030    2    1    2    0    0  0.00000000000E+00  0.00000000000E+00 -0.26262101023E+03  0.11166941223E+04  0.10853736536E+04 0.  0.
        2    1    3    3  502    0  0.20666961632E+03 -0.21530240744E+03  0.33502564244E+03  0.44867542618E+03  0.25500000920E-02 0. -1.
       -2    1    3    3    0  502 -0.20666961632E+03  0.21530240744E+03 -0.59764665267E+03  0.66801869616E+03  0.25500000920E-02 0.  1.
</event>
<event>
 5   0  0.4298101E-03  0.1087163E+04  0.7818609E-02  0.9217795E-01
        1   -1    0    0  501    0  0.00000000000E+00  0.00000000000E+00  0.16560446077E+04  0.16560446077E+04  0.50400001928E-02 0. -1.
       -1   -1    0    0    0  501  0.00000000000E+00  0.00000000000E+00 -0.17842567575E+03  0.17842567583E+03  0.50400001928E-02 0.  1.
    10030    2    1    2    0    0  0.00000000000E+00  0.00000000000E+00  0.14776189319E+04  0.18344702835E+04  0.10871630573E+04 0.  0.
        3    1    3    3  502    0  0.15519884455E+03 -0.35752536208E+03  0.99446398577E+02  0.40224453044E+03  0.10100000352E+00 0.  1.
       -3    1    3    3    0  502 -0.15519884455E+03  0.35752536208E+03  0.13781725333E+04  0.14322257530E+04  0.10100000352E+00 0. -1.
</event>
<event>
 5   0  0.4598561E-03  0.1157721E+04  0.7818609E-02  0.9150690E-01
        1   -1    0    0  501    0  0.00000000000E+00  0.00000000000E+00  0.18640527952E+04  0.18640527952E+04  0.50400001928E-02 0.  1.
       -1   -1    0    0    0  501  0.00000000000E+00  0.00000000000E+00 -0.17975846036E+03  0.17975846043E+03  0.50400001928E-02 0. -1.
    10030    2    1    2    0    0  0.00000000000E+00  0.00000000000E+00  0.16842943349E+04  0.20438112557E+04  0.11577206236E+04 0.  0.
        2    1    3    3  502    0  0.27472123620E+03 -0.47190873699E+03  0.11813089912E+04  0.13014071409E+04  0.25500000920E-02 0.  1.
       -2    1    3    3    0  502 -0.27472123620E+03  0.47190873699E+03  0.50298534366E+03  0.74240411476E+03  0.25500000920E-02 0. -1.
</event>
<event>
 5   0  0.7952121E-03  0.9380540E+03  0.7818609E-02  0.9379224E-01
        2   -1    0    0  501    0  0.00000000000E+00  0.00000000000E+00  0.23082220150E+04  0.23082220150E+04  0.25500000920E-02 0. -1.
       -2   -1    0    0    0  501  0.00000000000E+00  0.00000000000E+00 -0.95305526879E+02  0.95305526913E+02  0.25500000920E-02 0.  1.
    10030    2    1    2    0    0  0.00000000000E+00  0.00000000000E+00  0.22129164881E+04  0.24035275419E+04  0.93805397571E+03 0.  0.
        3    1    3    3  502    0  0.39108684974E+02 -0.42924868907E+03  0.63259891945E+03  0.76548372249E+03  0.10100000352E+00 0.  1.
       -3    1    3    3    0  502 -0.39108684974E+02  0.42924868907E+03  0.15803175687E+04  0.16380438194E+04  0.10100000352E+00 0. -1.
</event>
<event>
 5   0  0.4504740E-03  0.1099358E+04  0.7818609E-02  0.9205818E-01
        1   -1    0    0  501    0  0.00000000000E+00  0.00000000000E+00  0.82220131350E+03  0.82220131352E+03  0.50400001928E-02 0.  1.
       -1   -1    0    0    0  501  0.00000000000E+00  0.00000000000E+00 -0.36748548980E+03  0.36748548983E+03  0.50400001928E-02 0. -1.
    10030    2    1    2    0    0  0.00000000000E+00  0.00000000000E+00  0.45471582371E+03  0.11896868034E+04  0.10993580899E+04 0.  0.
        5    1    3    3  502    0 -0.81355335152E+02  0.56546469644E+02 -0.35772092497E+03  0.37121765037E+03  0.46999998093E+01 0. -1.
       -5    1    3    3    0  502  0.81355335152E+02 -0.56546469644E+02  0.81243674868E+03  0.81846915298E+03  0.46999998093E+01 0.  1.
</event>
<event>
 5   0  0.4428114E-03  0.1109066E+04  0.7818609E-02  0.9196400E-01
       -1   -1    0    0    0  501  0.00000000000E+00  0.00000000000E+00  0.18089792045E+03  0.18089792052E+03  0.50400001928E-02 0. -1.
        1   -1    0    0  501    0  0.00000000000E+00  0.00000000000E+00 -0.16998915155E+04  0.16998915155E+04  0.50400001928E-02 0.  1.
    10030    2    1    2    0    0  0.00000000000E+00  0.00000000000E+00 -0.15189935950E+04  0.18807894360E+04  0.11090659858E+04 0.  0.
        4    1    3    3  502    0  0.11110848563E+03  0.23756697480E+03 -0.15880665429E+04  0.16095776219E+04  0.12699999809E+01 0.  1.
       -4    1    3    3    0  502 -0.11110848563E+03 -0.23756697480E+03  0.69072947920E+02  0.27121181414E+03  0.12699999809E+01 0. -1.
</event>
<event>
 5   0  0.4298101E-03  0.1108106E+04  0.7818609E-02  0.9197327E-01
        1   -1    0    0  501    0  0.00000000000E+00  0.00000000000E+00  0.43629476359E+03  0.43629476362E+03  0.50400001928E-02 0.  1.
       -1   -1    0    0    0  501  0.00000000000E+00  0.00000000000E+00 -0.70359514850E+03  0.70359514851E+03  0.50400001928E-02 0. -1.
    10030    2    1    2    0    0  0.00000000000E+00  0.00000000000E+00 -0.26730038490E+03  0.11398899121E+04  0.11081062747E+04 0.  0.
        3    1    3    3  502    0 -0.22646361216E+03  0.15671225923E+03 -0.62819996042E+03  0.68591522822E+03  0.10100000352E+00 0.  1.
       -3    1    3    3    0  502  0.22646361216E+03 -0.15671225923E+03  0.36089957552E+03  0.45397468392E+03  0.10100000352E+00 0. -1.
</event>
<event>
 5   0  0.7537480E-03  0.1099995E+04  0.7818609E-02  0.9205197E-01
       -2   -1    0    0    0  501  0.00000000000E+00  0.00000000000E+00  0.72594970752E+03  0.72594970752E+03  0.25500000920E-02 0. -1.
        2   -1    0    0  501    0  0.00000000000E+00  0.00000000000E+00 -0.41669174453E+03  0.41669174453E+03  0.25500000920E-02 0.  1.
    10030    2    1    2    0    0  0.00000000000E+00  0.00000000000E+00  0.30925796299E+03  0.11426414521E+04  0.10999950001E+04 0.  0.
        1    1    3    3  502    0  0.26502801720E+02  0.54847766539E+03  0.12232504629E+03  0.56257760789E+03  0.50400001928E-02 0.  1.
       -1    1    3    3    0  502 -0.26502801720E+02 -0.54847766539E+03  0.18693291671E+03  0.58006384416E+03  0.50400001928E-02 0. -1.
</event>
<event>
 5   0  0.4641021E-03  0.1081007E+04  0.7818609E-02  0.9223904E-01
        1   -1    0    0  501    0  0.00000000000E+00  0.00000000000E+00  0.39003165478E+03  0.39003165481E+03  0.50400001928E-02 0. -1.
       -1   -1    0    0    0  501  0.00000000000E+00  0.00000000000E+00 -0.74902696829E+03  0.74902696830E+03  0.50400001928E-02 0.  1.
    10030    2    1    2    0    0  0.00000000000E+00  0.00000000000E+00 -0.35899531350E+03  0.11390586231E+04  0.10810073597E+04 0.  0.
        1    1    3    3  502    0  0.49564688912E+03  0.11856799219E+03  0.10227127526E+02  0.50973404990E+03  0.50400001928E-02 0. -1.
       -1    1    3    3    0  502 -0.49564688912E+03 -0.11856799219E+03 -0.36922244103E+03  0.62932457321E+03  0.50400001928E-02 0.  1.
</event>
<event>
 5   0  0.7952121E-03  0.1095787E+04  0.7818609E-02  0.9209308E-01
       -2   -1    0    0    0  501  0.00000000000E+00  0.00000000000E+00  0.38702466555E+03  0.38702466556E+03  0.25500000920E-02 0.  1.
        2   -1    0    0  501    0  0.00000000000E+00  0.00000000000E+00 -0.77562875250E+03  0.77562875250E+03  0.25500000920E-02 0. -1.
    10030    2    1    2    0    0  0.00000000000E+00  0.00000000000E+00 -0.38860408694E+03  0.11626534181E+04  0.10957873125E+04 0.  0.
        3    1    3    3  502    0  0.17829792602E+03 -0.47178019148E+03  0.32817808425E+02  0.50541440249E+03  0.10100000352E+00 0.  1.
       -3    1    3    3    0  502 -0.17829792602E+03  0.47178019148E+03 -0.42142189537E+03  0.65723901557E+03  0.10100000352E+00 0. -1.
</event>
<event>
 5   0  0.7952121E-03  0.1099601E+04  0.7818609E-02  0.9205581E-01
        2   -1    0    0  501    0  0.00000000000E+00  0.00000000000E+00  0.48323317512E+03  0.48323317513E+03  0.25500000920E-02 0. -1.
       -2   -1    0    0    0  501  0.00000000000E+00  0.00000000000E+00 -0.62553721111E+03  0.62553721111E+03  0.25500000920E-02 0.  1.
    10030    2    1    2    0    0  0.00000000000E+00  0.00000000000E+00 -0.14230403598E+03  0.11087703862E+04  0.10996005324E+04 0.  0.
        3    1    3    3  502    0 -0.32174522541E+03  0.36914859025E+03 -0.32321596077E+03  0.58673608996E+03  0.10100000352E+00 0.  1.
       -3    1    3    3    0  502  0.32174522541E+03 -0.36914859025E+03  0.18091192479E+03  0.52203429628E+03  0.10100000352E+00 0. -1.
</event>
<event>
 5   0  0.7738497E-03  0.1164104E+04  0.7818609E-02  0.9144870E-01
        2   -1    0    0  501    0  0.00000000000E+00  0.00000000000E+00  0.10597494686E+04  0.10597494686E+04  0.25500000920E-02 0. -1.
       -2   -1    0    0    0  501  0.00000000000E+00  0.00000000000E+00 -0.31968335558E+03  0.31968335559E+03  0.25500000920E-02 0.  1.
    10030    2    1    2    0    0  0.00000000000E+00  0.00000000000E+00  0.74006611300E+03  0.13794328242E+04  0.11641035456E+04 0.  0.
        4    1    3    3  502    0  0.10097510369E+03 -0.82956784110E+02  0.10421390228E+04  0.10503014593E+04  0.12699999809E+01 0. -1.
       -4    1    3    3    0  502 -0.10097510369E+03  0.82956784110E+02 -0.30207290983E+03  0.32913136488E+03  0.12699999809E+01 0.  1.
</event>
<event>
 5   0  0.4298101E-03  0.1124919E+04  0.7818609E-02  0.9181239E-01
        1   -1    0    0  501    0  0.00000000000E+00  0.00000000000E+00  0.22917427788E+03  0.22917427794E+03  0.50400001928E-02 0.  1.
       -1   -1    0    0    0  501  0.00000000000E+00  0.00000000000E+00 -0.13804361023E+04  0.13804361023E+04  0.50400001928E-02 0. -1.
    10030    2    1    2    0    0  0.00000000000E+00  0.00000000000E+00 -0.11512618244E+04  0.16096103802E+04  0.11249185694E+04 0.  0.
        3    1    3    3  502    0 -0.99435769872E+02  0.47303271405E+03 -0.98714679925E+03  0.10991388604E+04  0.10100000352E+00 0.  1.
       -3    1    3    3    0  502  0.99435769872E+02 -0.47303271405E+03 -0.16411502512E+03  0.51047151984E+03  0.10100000352E+00 0. -1.
</event>
<event>
 5   0  0.7738497E-03  0.1099968E+04  0.7818609E-02  0.9205223E-01
        2   -1    0    0  501    0  0.00000000000E+00  0.00000000000E+00  0.10882567041E+04  0.10882567041E+04  0.25500000920E-02 0.  1.
       -2   -1    0    0    0  501  0.00000000000E+00  0.00000000000E+00 -0.27795145301E+03  0.27795145302E+03  0.25500000920E-02 0. -1.
    10030    2    1    2    0    0  0.00000000000E+00  0.00000000000E+00  0.81030525108E+03  0.13662081571E+04  0.10999682398E+04 0.  0.
        4    1    3    3  502    0  0.16462009459E+02  0.53623543632E+03  0.25476032256E+03  0.59390561184E+03  0.12699999809E+01 0. -1.
       -4    1    3    3    0  502 -0.16462009459E+02 -0.53623543632E+03  0.55554492851E+03  0.77230254526E+03  0.12699999809E+01 0.  1.
</event>
<event>
 5   0  0.4504740E-03  0.1064911E+04  0.7818609E-02  0.9240083E-01
        1   -1    0    0  501    0  0.00000000000E+00  0.00000000000E+00  0.12802586489E+04  0.12802586489E+04  0.50400001928E-02 0.  1.
       -1   -1    0    0    0  501  0.00000000000E+00  0.00000000000E+00 -0.22144673606E+03  0.22144673612E+03  0.50400001928E-02 0. -1.
    10030    2    1    2    0    0  0.00000000000E+00  0.00000000000E+00  0.10588119128E+04  0.15017053850E+04  0.10649114501E+04 0.  0.
        5    1    3    3  502    0 -0.37702611707E+03  0.41174562920E+02  0.10563697566E+04  0.11224006372E+04  0.46999998093E+01 0.  1.
       -5    1    3    3    0  502  0.37702611707E+03 -0.41174562920E+02  0.24421561471E+01  0.37930474780E+03  0.46999998093E+01 0. -1.
</event>
<event>
 5   0  0.7537480E-03  0.1099632E+04  0.7818609E-02  0.9205550E-01
       -2   -1    0    0    0  501  0.00000000000E+00  0.00000000000E+00  0.81991211707E+03  0.81991211707E+03  0.25500000920E-02 0.  1.
        2   -1    0    0  501    0  0.00000000000E+00  0.00000000000E+00 -0.36869529498E+03  0.36869529499E+03  0.25500000920E-02 0. -1.
    10030    2    1    2    0    0  0.00000000000E+00  0.00000000000E+00  0.45121682208E+03  0.11886074121E+04  0.10996321928E+04 0.  0.
        1    1    3    3  502    0 -0.40098149132E+03 -0.31322933935E+03  0.42796670270E+00  0.50882114597E+03  0.50400001928E-02 0. -1.
       -1    1    3    3    0  502  0.40098149132E+03  0.31322933935E+03  0.45078885538E+03  0.67978626609E+03  0.50400001928E-02 0.  1.
</event>
<event>
 5   0  0.4598561E-03  0.1070900E+04  0.7818609E-02  0.9234028E-01
        1   -1    0    0  501    0  0.00000000000E+00  0.00000000000E+00  0.68986046624E+03  0.68986046625E+03  0.50400001928E-02 0. -1.
       -1   -1    0    0    0  501  0.00000000000E+00  0.00000000000E+00 -0.41560080387E+03  0.41560080390E+03  0.50400001928E-02 0.  1.
    10030    2    1    2    0    0  0.00000000000E+00  0.00000000000E+00  0.27425966236E+03  0.11054612702E+04  0.10708997420E+04 0.  0.
        2    1    3    3  502    0  0.21914270036E+03 -0.33693775950E+03  0.50232122412E+03  0.64333287582E+03  0.25500000920E-02 0. -1.
       -2    1    3    3    0  502 -0.21914270036E+03  0.33693775950E+03 -0.22806156175E+03  0.46212839434E+03  0.25500000920E-02 0.  1.
</event>
<event>
 5   0  0.7766551E-03  0.1080053E+04  0.7818609E-02  0.9224855E-01
       -2   -1    0    0    0  501  0.00000000000E+00  0.00000000000E+00  0.52788224847E+03  0.52788224848E+03  0.25500000920E-02 0.  1.
        2   -1    0    0  501    0  0.00000000000E+00  0.00000000000E+00 -0.55245006195E+03  0.55245006196E+03  0.25500000920E-02 0. -1.
    10030    2    1    2    0    0  0.00000000000E+00  0.00000000000E+00 -0.24567813483E+02  0.10803323104E+04  0.10800529263E+04 0.  0.
        5    1    3    3  502    0 -0.29831981500E+03  0.14507853136E+03  0.41392958833E+03  0.53047364343E+03  0.46999998093E+01 0.  1.
       -5    1    3    3    0  502  0.29831981500E+03 -0.14507853136E+03 -0.43849740181E+03  0.54985866700E+03  0.46999998093E+01 0. -1.
</event>
<event>
 5   0  0.4298101E-03  0.1096241E+04  0.7818609E-02  0.9208864E-01
        1   -1    0    0  501    0  0.00000000000E+00  0.00000000000E+00  0.98261469165E+03  0.98261469167E+03  0.50400001928E-02 0.  1.
       -1   -1    0    0    0  501  0.00000000000E+00  0.00000000000E+00 -0.30575140884E+03  0.30575140888E+03  0.50400001928E-02 0. -1.
    10030    2    1    2    0    0  0.00000000000E+00  0.00000000000E+00  0.67686328281E+03  0.12883661005E+04  0.10962405326E+04 0.  0.
        3    1    3    3  502    0 -0.37354385600E+03  0.70940831813E+02 -0.12556217896E+03  0.40041663922E+03  0.10100000352E+00 0. -1.
       -3    1    3    3    0  502  0.37354385600E+03 -0.70940831813E+02  0.80242546177E+03  0.88794946133E+03  0.10100000352E+00 0.  1.
</event>
<event>
 5   0  0.4298101E-03  0.9733052E+03  0.7818609E-02  0.9338318E-01
       -1   -1    0    0    0  501  0.00000000000E+00  0.00000000000E+00  0.13933080039E+03  0.13933080048E+03  0.50400001928E-02 0.  1.
        1   -1    0    0  501    0  0.00000000000E+00  0.00000000000E+00 -0.16997731562E+04  0.16997731562E+04  0.50400001928E-02 0. -1.
    10030    2    1    2    0    0  0.00000000000E+00  0.00000000000E+00 -0.15604423558E+04  0.18391039567E+04  0.97330520276E+03 0.  0.
        3    1    3    3  502    0 -0.23962823965E+03 -0.20747900800E+03 -0.82465887057E+02  0.32752078518E+03  0.10100000352E+00 0.  1.
       -3    1    3    3    0  502  0.23962823965E+03  0.20747900800E+03 -0.14779764688E+04  0.15115831715E+04  0.10100000352E+00 0. -1.
</event>
<event>
 5   0  0.2992375E-03  0.1053072E+04  0.7818609E-02  0.9252179E-01
       -3   -1    0    0    0  501  0.00000000000E+00  0.00000000000E+00  0.18427850012E+04  0.18427850040E+04  0.10100000352E+00 0. -1.
        3   -1    0    0  501    0  0.00000000000E+00  0.00000000000E+00 -0.15044616174E+03  0.15044619564E+03  0.10100000352E+00 0.  1.
    10030    2    1    2    0    0  0.00000000000E+00  0.00000000000E+00  0.16923388395E+04  0.19932311997E+04  0.10530716346E+04 0.  0.
        2    1    3    3  502    0 -0.95641622040E+00  0.52535450894E+03  0.77947235523E+03  0.93998692936E+03  0.25500000920E-02 0. -1.
       -2    1    3    3    0  502  0.95641622040E+00 -0.52535450894E+03  0.91286648427E+03  0.10532442703E+04  0.25500000920E-02 0.  1.
</event>
<event>
 5   0  0.4641021E-03  0.1153264E+04  0.7818609E-02  0.9154777E-01
        1   -1    0    0  501    0  0.00000000000E+00  0.00000000000E+00  0.10316618873E+04  0.10316618873E+04  0.50400001928E-02 0.  1.
       -1   -1    0    0    0  501  0.00000000000E+00  0.00000000000E+00 -0.32229993030E+03  0.32229993034E+03  0.50400001928E-02 0. -1.
    10030    2    1    2    0    0  0.00000000000E+00  0.00000000000E+00  0.70936195702E+03  0.13539618177E+04  0.11532641578E+04 0.  0.
        1    1    3    3  502    0 -0.18516890082E+03 -0.39964227470E+03 -0.82244474887E+02  0.44806877066E+03  0.50400001928E-02 0. -1.
       -1    1    3    3    0  502  0.18516890082E+03  0.39964227470E+03  0.79160643191E+03  0.90589304702E+03  0.50400001928E-02 0.  1.
</event>
<event>
 5   0  0.4598561E-03  0.1155935E+04  0.7818609E-02  0.9152326E-01
        1   -1    0    0  501    0  0.00000000000E+00  0.00000000000E+00  0.14874009964E+04  0.14874009964E+04  0.50400001928E-02 0. -1.
       -1   -1    0    0    0  501  0.00000000000E+00  0.00000000000E+00 -0.22458388415E+03  0.22458388421E+03  0.50400001928E-02 0.  1.
    10030    2    1    2    0    0  0.00000000000E+00  0.00000000000E+00  0.12628171123E+04  0.17119848806E+04  0.11559347614E+04 0.  0.
        2    1    3    3  502    0  0.21691832345E+03  0.11605188981E+03  0.14059860437E+04  0.14273466135E+04  0.25500000920E-02 0. -1.
       -2    1    3    3    0  502 -0.21691832345E+03 -0.11605188981E+03 -0.14316893140E+03  0.28463826711E+03  0.25500000920E-02 0.  1.
</event>
<event>
 5   0  0.4504740E-03  0.1109336E+04  0.7818609E-02  0.9196140E-01
       -1   -1    0    0    0  501  0.00000000000E+00  0.00000000000E+00  0.17352786828E+03  0.17352786835E+03  0.50400001928E-02 0. -1.
        1   -1    0    0  501    0  0.00000000000E+00  0.00000000000E+00 -0.17729513959E+04  0.17729513959E+04  0.50400001928E-02 0.  1.
    10030    2    1    2    0    0  0.00000000000E+00  0.00000000000E+00 -0.15994235276E+04  0.19464792642E+04  0.11093357947E+04 0.  0.
        5    1    3    3  502    0 -0.43097283691E+03 -0.17253475367E+03 -0.13322905876E+04  0.14108600665E+04  0.46999998093E+01 0.  1.
       -5    1    3    3    0  502  0.43097283691E+03  0.17253475367E+03 -0.26713293999E+03  0.53561919775E+03  0.46999998093E+01 0. -1.
</event>
<event>
 5   0  0.7766551E-03  0.1034031E+04  0.7818609E-02  0.9271988E-01
        2   -1    0    0  501    0  0.00000000000E+00  0.00000000000E+00  0.64664059364E+03  0.64664059365E+03  0.25500000920E-02 0. -1.
       -2   -1    0    0    0  501  0.00000000000E+00  0.00000000000E+00 -0.41337472082E+03  0.41337472083E+03  0.25500000920E-02 0.  1.
    10030    2    1    2    0    0  0.00000000000E+00  0.00000000000E+00  0.23326587283E+03  0.10600153145E+04  0.10340307053E+04 0.  0.
        5    1    3    3  502    0  0.11726576359E+02  0.15881813788E+03 -0.38758286377E+03  0.41905045019E+03  0.46999998093E+01 0.  1.
       -5    1    3    3    0  502 -0.11726576359E+02 -0.15881813788E+03  0.62084873660E+03  0.64096486429E+03  0.46999998093E+01 0. -1.
</event>
<event>
 5   0  0.4504740E-03  0.1106410E+04  0.7818609E-02  0.9198966E-01
        1   -1    0    0  501    0  0.00000000000E+00  0.00000000000E+00  0.69671578019E+03  0.69671578021E+03  0.50400001928E-02 0. -1.
       -1   -1    0    0    0  501  0.00000000000E+00  0.00000000000E+00 -0.43925519218E+03  0.43925519221E+03  0.50400001928E-02 0.  1.
    10030    2    1    2    0    0  0.00000000000E+00  0.00000000000E+00  0.25746058801E+03  0.11359709724E+04  0.11064104554E+04 0.  0.
        5    1    3    3  502    0 -0.34350300994E+03 -0.10438145937E+03  0.56083582390E+03  0.66591945328E+03  0.46999998093E+01 0. -1.
       -5    1    3    3    0  502  0.34350300994E+03  0.10438145937E+03 -0.30337523589E+03  0.47005151914E+03  0.46999998093E+01 0.  1.
</event>
<event>
 5   0  0.7537480E-03  0.1108390E+04  0.7818609E-02  0.9197053E-01
        2   -1    0    0  501    0  0.00000000000E+00  0.00000000000E+00  0.11213065789E+04  0.11213065789E+04  0.25500000920E-02 0.  1.
       -2   -1    0    0    0  501  0.00000000000E+00  0.00000000000E+00 -0.27390568581E+03  0.27390568583E+03  0.25500000920E-02 0. -1.
    10030    2    1    2    0    0  0.00000000000E+00  0.00000000000E+00  0.84740089308E+03  0.13952122647E+04  0.11083902697E+04 0.  0.
        1    1    3    3  502    0 -0.40118812183E+03 -0.28310329922E+03  0.74716570003E+03  0.89406709506E+03  0.50400001928E-02 0.  1.
       -1    1    3    3    0  502  0.40118812183E+03  0.28310329922E+03  0.10023519304E+03  0.50114516967E+03  0.50400001928E-02 0. -1.
</event>
<event>
 5   0  0.4641021E-03  0.1080551E+04  0.7818609E-02  0.9224358E-01
        1   -1    0    0  501    0  0.00000000000E+00  0.00000000000E+00  0.64426888469E+03  0.64426888471E+03  0.50400001928E-02 0.  1.
       -1   -1    0    0    0  501  0.00000000000E+00  0.00000000000E+00 -0.45306801338E+03  0.45306801341E+03  0.50400001928E-02 0. -1.
    10030    2    1    2    0    0  0.00000000000E+00  0.00000000000E+00  0.19120087131E+03  0.10973368981E+04  0.10805510144E+04 0.  0.
        1    1    3    3  502    0 -0.48346458474E+03  0.23899959935E+03  0.12833170661E+03  0.55437157227E+03  0.50400001928E-02 0. -1.
       -1    1    3    3    0  502  0.48346458474E+03 -0.23899959935E+03  0.62869164695E+02  0.54296532586E+03  0.50400001928E-02 0.  1.
</event>
<event>
 5   0  0.7738497E-03  0.1116509E+04  0.7818609E-02  0.9189249E-01
       -2   -1    0    0    0  501  0.00000000000E+00  0.00000000000E+00  0.45266375263E+03  0.45266375264E+03  0.25500000920E-02 0. -1.
        2   -1    0    0  501    0  0.00000000000E+00  0.00000000000E+00 -0.68847597293E+03  0.68847597293E+03  0.25500000920E-02 0.  1.
    10030    2    1    2    0    0  0.00000000000E+00  0.00000000000E+00 -0.23581222030E+03  0.11411397256E+04  0.11165090551E+04 0.  0.
        4    1    3    3  502    0  0.39832897168E+03  0.35590913738E+03  0.47873291633E+02  0.53631217467E+03  0.12699999809E+01 0. -1.
       -4    1    3    3    0  502 -0.39832897168E+03 -0.35590913738E+03 -0.28368551193E+03  0.60482755090E+03  0.12699999809E+01 0.  1.
</event>
<event>
 5   0  0.7952121E-03  0.1117055E+04  0.7818609E-02  0.9188727E-01
        2   -1    0    0  501    0  0.00000000000E+00  0.00000000000E+00  0.17660481880E+04  0.17660481880E+04  0.25500000920E-02 0. -1.
       -2   -1    0    0    0  501  0.00000000000E+00  0.00000000000E+00 -0.17663884900E+03  0.17663884901E+03  0.25500000920E-02 0.  1.
    10030    2    1    2    0    0  0.00000000000E+00  0.00000000000E+00  0.15894093390E+04  0.19426870371E+04  0.11170545541E+04 0.  0.
        3    1    3    3  502    0  0.98955312876E+02  0.48471275783E+03  0.12455822538E+04  0.13402290001E+04  0.10100000352E+00 0.  1.
       -3    1    3    3    0  502 -0.98955312876E+02 -0.48471275783E+03  0.34382708526E+03  0.60245803697E+03  0.10100000352E+00 0. -1.
</event>
<event>
 5   0  0.4298101E-03  0.1117611E+04  0.7818609E-02  0.9188195E-01
       -1   -1    0    0    0  501  0.00000000000E+00  0.00000000000E+00  0.79808882283E+03  0.79808882284E+03  0.50400001928E-02 0.  1.
        1   -1    0    0  501    0  0.00000000000E+00  0.00000000000E+00 -0.39126425942E+03  0.39126425945E+03  0.50400001928E-02 0. -1.
    10030    2    1    2    0    0  0.00000000000E+00  0.00000000000E+00  0.40682456341E+03  0.11893530823E+04  0.11176110813E+04 0.  0.
        3    1    3    3  502    0 -0.11915606356E+03  0.79668732837E+02 -0.37136815183E+03  0.39806982913E+03  0.10100000352E+00 0. -1.
       -3    1    3    3    0  502  0.11915606356E+03 -0.79668732837E+02  0.77819271524E+03  0.79128325316E+03  0.10100000352E+00 0.  1.
</event>
<event>
 5   0  0.4504740E-03  0.1084891E+04  0.7818609E-02  0.9220045E-01
        1   -1    0    0  501    0  0.00000000000E+00  0.00000000000E+00  0.12938130298E+04  0.12938130298E+04  0.50400001928E-02 0. -1.
       -1   -1    0    0    0  501  0.00000000000E+00  0.00000000000E+00 -0.22742610752E+03  0.22742610757E+03  0.50400001928E-02 0.  1.
    10030    2    1    2    0    0  0.00000000000E+00  0.00000000000E+00  0.10663869223E+04  0.15212391374E+04  0.10848905222E+04 0.  0.
        5    1    3    3  502    0  0.29495602087E+03  0.42511934407E+03  0.30493417709E+03  0.60061006761E+03  0.46999998093E+01 0.  1.
       -5    1    3    3    0  502 -0.29495602087E+03 -0.42511934407E+03  0.76145274518E+03  0.92062906976E+03  0.46999998093E+01 0. -1.
</event>
<event>
 5   0  0.2992375E-03  0.1099026E+04  0.7818609E-02  0.9206142E-01
        3   -1    0    0  501    0  0.00000000000E+00  0.00000000000E+00  0.18679255904E+03  0.18679258634E+03  0.10100000352E+00 0. -1.
       -3   -1    0    0    0  501  0.00000000000E+00  0.00000000000E+00 -0.16165754025E+04  0.16165754057E+04  0.10100000352E+00 0.  1.
    10030    2    1    2    0    0  0.00000000000E+00  0.00000000000E+00 -0.14297828435E+04  0.18033679920E+04  0.10990255389E+04 0.  0.
        4    1    3    3  502    0  0.48122145529E+03 -0.26516742262E+03 -0.72908477170E+03  0.91293705603E+03  0.12699999809E+01 0.  1.
       -4    1    3    3    0  502 -0.48122145529E+03  0.26516742262E+03 -0.70069807178E+03  0.89043093598E+03  0.12699999809E+01 0. -1.
</event>
<event>
 5   0  0.4598561E-03  0.1121129E+04  0.7818609E-02  0.9184839E-01
       -1   -1    0    0    0  501  0.00000000000E+00  0.00000000000E+00  0.69435055511E+03  0.69435055513E+03  0.50400001928E-02 0.  1.
        1   -1    0    0  501    0  0.00000000000E+00  0.00000000000E+00 -0.45255596912E+03  0.45255596915E+03  0.50400001928E-02 0. -1.
    10030    2    1    2    0    0  0.00000000000E+00  0.00000000000E+00  0.24179458599E+03  0.11469065243E+04  0.11211288747E+04 0.  0.
        2    1    3    3  502    0  0.14840070040E+03  0.28719673076E+03 -0.34759283382E+03  0.47468464076E+03  0.25500000920E-02 0. -1.
       -2    1    3    3    0  502 -0.14840070040E+03 -0.28719673076E+03  0.58938741981E+03  0.67222188352E+03  0.25500000920E-02 0.  1.
</event>
<event>
 5   0  0.7952121E-03  0.1114238E+04  0.7818609E-02  0.9191425E-01
        2   -1    0    0  501    0  0.00000000000E+00  0.00000000000E+00  0.13029240454E+04  0.13029240454E+04  0.25500000920E-02 0.  1.
       -2   -1    0    0    0  501  0.00000000000E+00  0.00000000000E+00 -0.23821927317E+03  0.23821927319E+03  0.25500000920E-02 0. -1.
    10030    2    1    2    0    0  0.00000000000E+00  0.00000000000E+00  0.10647047722E+04  0.15411433185E+04  0.11142380699E+04 0.  0.
        3    1    3    3  502    0 -0.15388155701E+02 -0.35079324577E+03 -0.65906364985E+02  0.35726230666E+03  0.10100000352E+00 0. -1.
       -3    1    3    3    0  502  0.15388155701E+02  0.35079324577E+03  0.11306111372E+04  0.11838810119E+04  0.10100000352E+00 0.  1.
</event>
<event>
 5   0  0.7712816E-03  0.1087788E+04  0.7818609E-02  0.9217177E-01
       -2   -1    0    0    0  501  0.00000000000E+00  0.00000000000E+00  0.56016560841E+03  0.56016560841E+03  0.25500000920E-02 0.  1.
        2   -1    0    0  501    0  0.00000000000E+00  0.00000000000E+00 -0.52809459693E+03  0.52809459694E+03  0.25500000920E-02 0. -1.
    10030    2    1    2    0    0  0.00000000000E+00  0.00000000000E+00  0.32071011480E+02  0.10882602053E+04  0.10877875366E+04 0.  0.
        2    1    3    3  502    0  0.12275904331E+03 -0.12995029341E+03  0.52993523248E+03  0.55927471970E+03  0.25500000920E-02 0.  1.
       -2    1    3    3    0  502 -0.12275904331E+03  0.12995029341E+03 -0.49786422100E+03  0.52898548565E+03  0.25500000920E-02 0. -1.
</event>
<event>
 5   0  0.7952121E-03  0.1016762E+04  0.7818609E-02  0.9290349E-01
        2   -1    0    0  501    0  0.00000000000E+00  0.00000000000E+00  0.92292883889E+03  0.92292883889E+03  0.25500000920E-02 0. -1.
       -2   -1    0    0    0  501  0.00000000000E+00  0.00000000000E+00 -0.28003364038E+03  0.28003364039E+03  0.25500000920E-02 0.  1.
    10030    2    1    2    0    0  0.00000000000E+00  0.00000000000E+00  0.64289519851E+03  0.12029624793E+04  0.10167617667E+04 0.  0.
        3    1    3    3  502    0  0.42675968075E+03  0.18824706042E+03  0.56069277565E+03  0.72934023593E+03  0.10100000352E+00 0. -1.
       -3    1    3    3    0  502 -0.42675968075E+03 -0.18824706042E+03  0.82202422859E+02  0.47362224335E+03  0.10100000352E+00 0.  1.
</event>
<event>
 5   0  0.7712816E-03  0.1093498E+04  0.7818609E-02  0.9211553E-01
       -2   -1    0    0    0  501  0.00000000000E+00  0.00000000000E+00  0.11347270387E+04  0.11347270387E+04  0.25500000920E-02 0. -1.
        2   -1    0    0  501    0  0.00000000000E+00  0.00000000000E+00 -0.26344163723E+03  0.26344163724E+03  0.25500000920E-02 0.  1.
    10030    2    1    2    0    0  0.00000000000E+00  0.00000000000E+00  0.87128540148E+03  0.13981686759E+04  0.10934977803E+04 0.  0.
        2    1    3    3  502    0  0.48578644958E+02 -0.11364974519E+02 -0.26052512511E+03  0.26525909637E+03  0.25500000920E-02 0.  1.
       -2    1    3    3    0  502 -0.48578644958E+02  0.11364974519E+02  0.11318105266E+04  0.11329095796E+04  0.25500000920E-02 0. -1.
</event>
<event>
 5   0  0.7952121E-03  0.1082213E+04  0.7818609E-02  0.9222704E-01
        2   -1    0    0  501    0  0.00000000000E+00  0.00000000000E+00  0.43779904117E+03  0.43779904117E+03  0.25500000920E-02 0. -1.
       -2   -1    0    0    0  501  0.00000000000E+00  0.00000000000E+00 -0.66879094614E+03  0.66879094614E+03  0.25500000920E-02 0.  1.
    10030    2    1    2    0    0  0.00000000000E+00  0.00000000000E+00 -0.23099190497E+03  0.11065899873E+04  0.10822126131E+04 0.  0.
        3    1    3    3  502    0 -0.12044236871E+03 -0.29074991125E+03  0.33459434535E+03  0.45934220491E+03  0.10100000352E+00 0. -1.
       -3    1    3    3    0  502  0.12044236871E+03  0.29074991125E+03 -0.56558625032E+03  0.64724778240E+03  0.10100000352E+00 0.  1.
</event>
<event>
 5   0  0.7766551E-03  0.1146598E+04  0.7818609E-02  0.9160928E-01
        2   -1    0    0  501    0  0.00000000000E+00  0.00000000000E+00  0.13369581129E+04  0.13369581129E+04  0.25500000920E-02 0. -1.
       -2   -1    0    0    0  501  0.00000000000E+00  0.00000000000E+00 -0.24583560252E+03  0.24583560253E+03  0.25500000920E-02 0.  1.
    10030    2    1    2    0    0  0.00000000000E+00  0.00000000000E+00  0.10911225104E+04  0.15827937155E+04  0.11465982788E+04 0.  0.
        5    1    3    3  502    0 -0.25551430820E+03 -0.29170447386E+03 -0.37283750334E+02  0.38960393967E+03  0.46999998093E+01 0.  1.
       -5    1    3    3    0  502  0.25551430820E+03  0.29170447386E+03  0.11284062607E+04  0.11931897758E+04  0.46999998093E+01 0. -1.
</event>
<event>
 5   0  0.7738497E-03  0.1073793E+04  0.7818609E-02  0.9231118E-01
        2   -1    0    0  501    0  0.00000000000E+00  0.00000000000E+00  0.41217372492E+03  0.41217372492E+03  0.25500000920E-02 0.  1.
       -2   -1    0    0    0  501  0.00000000000E+00  0.00000000000E+00 -0.69936052127E+03  0.69936052127E+03  0.25500000920E-02 0. -1.
    10030    2    1    2    0    0  0.00000000000E+00  0.00000000000E+00 -0.28718679635E+03  0.11115342462E+04  0.10737933342E+04 0.  0.
        4    1    3    3  502    0  0.48417331061E+03  0.73395815721E+02  0.84246439288E+02  0.49690020719E+03  0.12699999809E+01 0.  1.
       -4    1    3    3    0  502 -0.48417331061E+03 -0.73395815721E+02 -0.37143323564E+03  0.61463403901E+03  0.12699999809E+01 0. -1.
</event>
<event>
 5   0  0.7738497E-03  0.1077944E+04  0.7818609E-02  0.9226960E-01
       -2   -1    0    0    0  501  0.00000000000E+00  0.00000000000E+00  0.13813200247E+03  0.13813200249E+03  0.25500000920E-02 0. -1.
        2   -1    0    0  501    0  0.00000000000E+00  0.00000000000E+00 -0.21029947667E+04  0.21029947668E+04  0.25500000920E-02 0.  1.
    10030    2    1    2    0    0  0.00000000000E+00  0.00000000000E+00 -0.19648627643E+04  0.22411267692E+04  0.10779441142E+04 0.  0.
        4    1    3    3  502    0  0.12086049385E+03  0.38387135356E+03 -0.23707559178E+03  0.46708770501E+03  0.12699999809E+01 0. -1.
       -4    1    3    3    0  502 -0.12086049385E+03 -0.38387135356E+03 -0.17277871725E+04  0.17740390642E+04  0.12699999809E+01 0.  1.
</event>
<event>
 5   0  0.4641021E-03  0.1035718E+04  0.7818609E-02  0.9270215E-01
        1   -1    0    0  501    0  0.00000000000E+00  0.00000000000E+00  0.11602964349E+04  0.11602964349E+04  0.50400001928E-02 0.  1.
       -1   -1    0    0    0  501  0.00000000000E+00  0.00000000000E+00 -0.23112868128E+03  0.23112868134E+03  0.50400001928E-02 0. -1.
    10030    2    1    2    0    0  0.00000000000E+00  0.00000000000E+00  0.92916775364E+03  0.13914251163E+04  0.10357176931E+04 0.  0.
        1    1    3    3  502    0  0.29349987161E+03 -0.15064781729E+03 -0.71684270126E+02  0.33760268674E+03  0.50400001928E-02 0.  1.
       -1    1    3    3    0  502 -0.29349987161E+03  0.15064781729E+03  0.10008520238E+04  0.10538224295E+04  0.50400001928E-02 0. -1.
</event>
<event>
 5   0  0.7712816E-03  0.1071421E+04  0.7818609E-02  0.9233504E-01
       -2   -1    0    0    0  501  0.00000000000E+00  0.00000000000E+00  0.51580140592E+03  0.51580140593E+03  0.25500000920E-02 0. -1.
        2   -1    0    0  501    0  0.00000000000E+00  0.00000000000E+00 -0.55638791540E+03  0.55638791540E+03  0.25500000920E-02 0.  1.
    10030    2    1    2    0    0  0.00000000000E+00  0.00000000000E+00 -0.40586509472E+02  0.10721893213E+04  0.10714208678E+04 0.  0.
        2    1    3    3  502    0 -0.38418498440E+03  0.27639728004E+03  0.23086904781E+03  0.52658719685E+03  0.25500000920E-02 0. -1.
       -2    1    3    3    0  502  0.38418498440E+03 -0.27639728004E+03 -0.27145555728E+03  0.54560212448E+03  0.25500000920E-02 0.  1.
</event>
<event>
 5   0  0.4504740E-03  0.1096159E+04  0.7818609E-02  0.9208944E-01
        1   -1    0    0  501    0  0.00000000000E+00  0.00000000000E+00  0.52535336772E+03  0.52535336774E+03  0.50400001928E-02 0. -1.
       -1   -1    0    0    0  501  0.00000000000E+00  0.00000000000E+00 -0.57178841824E+03  0.57178841826E+03  0.50400001928E-02 0.  1.
    10030    2    1    2    0    0  0.00000000000E+00  0.00000000000E+00 -0.46435050521E+02  0.10971417860E+04  0.10961586950E+04 0.  0.
        5    1    3    3  502    0 -0.30612847358E+03 -0.25269272154E+03  0.35501108806E+03  0.53256287563E+03  0.46999998093E+01 0. -1.
       -5    1    3    3    0  502  0.30612847358E+03  0.25269272154E+03 -0.40144613858E+03  0.56457891037E+03  0.46999998093E+01 0.  1.
</event>
<event>
 5   0  0.4428114E-03  0.1103767E+04  0.7818609E-02  0.9201528E-01
        1   -1    0    0  501    0  0.00000000000E+00  0.00000000000E+00  0.51561126869E+03  0.51561126871E+03  0.50400001928E-02 0. -1.
       -1   -1    0    0    0  501  0.00000000000E+00  0.00000000000E+00 -0.59070747429E+03  0.59070747431E+03  0.50400001928E-02 0.  1.
    10030    2    1    2    0    0  0.00000000000E+00  0.00000000000E+00 -0.75096205603E+02  0.11063187430E+04  0.11037670592E+04 0.  0.
        4    1    3    3  502    0  0.35441481917E+03 -0.33826708905E+02  0.38511349120E+03  0.52446937402E+03  0.12699999809E+01 0. -1.
       -4    1    3    3    0  502 -0.35441481917E+03  0.33826708905E+02 -0.46020969680E+03  0.58184936900E+03  0.12699999809E+01 0.  1.
</event>
<event>
 5   0  0.4504740E-03  0.1050483E+04  0.7818609E-02  0.9254846E-01
       -1   -1    0    0    0  501  0.00000000000E+00  0.00000000000E+00  0.50240549487E+03  0.50240549490E+03  0.50400001928E-02 0.  1.
        1   -1    0    0  501    0  0.00000000000E+00  0.00000000000E+00 -0.54911527385E+03  0.54911527387E+03  0.50400001928E-02 0. -1.
    10030    2    1    2    0    0  0.00000000000E+00  0.00000000000E+00 -0.46709778974E+02  0.10515207688E+04  0.10504828050E+04 0.  0.
        5    1    3    3  502    0 -0.45742472715E+03 -0.25673505627E+03  0.32452420947E+01  0.52457877552E+03  0.46999998093E+01 0. -1.
       -5    1    3    3    0  502  0.45742472715E+03  0.25673505627E+03 -0.49955021069E+02  0.52694199326E+03  0.46999998093E+01 0.  1.
</event>
<event>
 5   0  0.7537480E-03  0.1117462E+04  0.7818609E-02  0.9188337E-01
       -2   -1    0    0    0  501  0.00000000000E+00  0.00000000000E+00  0.21641520684E+03  0.21641520685E+03  0.25500000920E-02 0.  1.
        2   -1    0    0  501    0  0.00000000000E+00  0.00000000000E+00 -0.14425066556E+04  0.14425066556E+04  0.25500000920E-02 0. -1.
    10030    2    1    2    0    0  0.00000000000E+00  0.00000000000E+00 -0.12260914488E+04  0.16589218625E+04  0.11174620821E+04 0.  0.
        1    1    3    3  502    0 -0.55830715441E+03  0.65855957873E+00 -0.64533460738E+03  0.85332530015E+03  0.50400001928E-02 0.  1.
       -1    1    3    3    0  502  0.55830715441E+03 -0.65855957873E+00 -0.58075684140E+03  0.80559656233E+03  0.50400001928E-02 0. -1.
</event>
<event>
 5   0  0.7952121E-03  0.1113787E+04  0.7818609E-02  0.9191857E-01
       -2   -1    0    0    0  501  0.00000000000E+00  0.00000000000E+00  0.60744941475E+03  0.60744941476E+03  0.25500000920E-02 0. -1.
        2   -1    0    0  501    0  0.00000000000E+00  0.00000000000E+00 -0.51054508066E+03  0.51054508067E+03  0.25500000920E-02 0.  1.
    10030    2    1    2    0    0  0.00000000000E+00  0.00000000000E+00  0.96904334086E+02  0.11179944954E+04  0.11137868925E+04 0.  0.
        3    1    3    3  502    0 -0.41181922198E+03 -0.31971846644E+03 -0.14803032276E+03  0.54196674809E+03  0.10100000352E+00 0.  1.
       -3    1    3    3    0  502  0.41181922198E+03  0.31971846644E+03  0.24493465684E+03  0.57602774734E+03  0.10100000352E+00 0. -1.
</event>
<event>
 5   0  0.7766551E-03  0.1109204E+04  0.7818609E-02  0.9196268E-01
        2   -1    0    0  501    0  0.00000000000E+00  0.00000000000E+00  0.10524780462E+04  0.10524780462E+04  0.25500000920E-02 0. -1.
       -2   -1    0    0    0  501  0.00000000000E+00  0.00000000000E+00 -0.29224658120E+03  0.29224658121E+03  0.25500000920E-02 0.  1.
    10030    2    1    2    0    0  0.00000000000E+00  0.00000000000E+00  0.76023146504E+03  0.13447246275E+04  0.11092035175E+04 0.  0.
        5    1    3    3  502    0 -0.23288915665E+03  0.17550959230E+03 -0.19176661287E+03  0.34905228847E+03  0.46999998093E+01 0.  1.
       -5    1    3    3    0  502  0.23288915665E+03 -0.17550959230E+03  0.95199807792E+03  0.99567233899E+03  0.46999998093E+01 0. -1.
</event>
<event>
 5   0  0.4504740E-03  0.8051947E+03  0.7818609E-02  0.9552528E-01
        1   -1    0    0  501    0  0.00000000000E+00  0.00000000000E+00  0.39950079647E+03  0.39950079650E+03  0.50400001928E-02 0. -1.
       -1   -1    0    0    0  501  0.00000000000E+00  0.00000000000E+00 -0.40571787508E+03  0.40571787511E+03  0.50400001928E-02 0.  1.
    10030    2    1    2    0    0  0.00000000000E+00  0.00000000000E+00 -0.62170786137E+01  0.80521867161E+03  0.80519467028E+03 0.  0.
        5    1    3    3  502    0  0.31991896967E+03 -0.68014020855E+02  0.23160778797E+03  0.40079709534E+03  0.46999998093E+01 0. -1.
       -5    1    3    3    0  502 -0.31991896967E+03  0.68014020855E+02 -0.23782486658E+03  0.40442157627E+03  0.46999998093E+01 0.  1.
</event>
<event>
 5   0  0.7952121E-03  0.1118242E+04  0.7818609E-02  0.9187592E-01
       -2   -1    0    0    0  501  0.00000000000E+00  0.00000000000E+00  0.13063536717E+03  0.13063536720E+03  0.25500000920E-02 0. -1.
        2   -1    0    0  501    0  0.00000000000E+00  0.00000000000E+00 -0.23930440560E+04  0.23930440560E+04  0.25500000920E-02 0.  1.
    10030    2    1    2    0    0  0.00000000000E+00  0.00000000000E+00 -0.22624086888E+04  0.25236794232E+04  0.11182418145E+04 0.  0.
        3    1    3    3  502    0 -0.32367403398E+02  0.11997761422E+03 -0.23614838580E+04  0.23647512128E+04  0.10100000352E+00 0.  1.
       -3    1    3    3    0  502  0.32367403398E+02 -0.11997761422E+03  0.99075169152E+02  0.15892821040E+03  0.10100000352E+00 0. -1.
</event>
<event>
 5   0  0.7738497E-03  0.1111747E+04  0.7818609E-02  0.9193818E-01
        2   -1    0    0  501    0  0.00000000000E+00  0.00000000000E+00  0.18907345367E+04  0.18907345367E+04  0.25500000920E-02 0.  1.
       -2   -1    0    0    0  501  0.00000000000E+00  0.00000000000E+00 -0.16342600379E+03  0.16342600381E+03  0.25500000920E-02 0. -1.
    10030    2    1    2    0    0  0.00000000000E+00  0.00000000000E+00  0.17273085329E+04  0.20541605405E+04  0.11117467150E+04 0.  0.
        4    1    3    3  502    0  0.18353663149E+03  0.42871007176E+03  0.30470036907E+03  0.55706547958E+03  0.12699999809E+01 0. -1.
       -4    1    3    3    0  502 -0.18353663149E+03 -0.42871007176E+03  0.14226081638E+04  0.14970950609E+04  0.12699999809E+01 0.  1.
</event>
<event>
 5   0  0.7766551E-03  0.1081754E+04  0.7818609E-02  0.9223161E-01
       -2   -1    0    0    0  501  0.00000000000E+00  0.00000000000E+00  0.24678815965E+03  0.24678815967E+03  0.25500000920E-02 0. -1.
        2   -1    0    0  501    0  0.00000000000E+00  0.00000000000E+00 -0.11854203080E+04  0.11854203080E+04  0.25500000920E-02 0.  1.
    10030    2    1    2    0    0  0.00000000000E+00  0.00000000000E+00 -0.93863214830E+03  0.14322084676E+04  0.10817535694E+04 0.  0.
        5    1    3    3  502    0  0.53598830772E+03  0.54815712534E+02 -0.53194104977E+03  0.75714701266E+03  0.46999998093E+01 0.  1.
       -5    1    3    3    0  502 -0.53598830772E+03 -0.54815712534E+02 -0.40669109853E+03  0.67506145496E+03  0.46999998093E+01 0. -1.
</event>
<event>
 5   0  0.4504740E-03  0.1080960E+04  0.7818609E-02  0.9223951E-01
       -1   -1    0    0    0  501  0.00000000000E+00  0.00000000000E+00  0.10434469549E+04  0.10434469549E+04  0.50400001928E-02 0. -1.
        1   -1    0    0  501    0  0.00000000000E+00  0.00000000000E+00 -0.27995536839E+03  0.27995536843E+03  0.50400001928E-02 0.  1.
    10030    2    1    2    0    0  0.00000000000E+00  0.00000000000E+00  0.76349158647E+03  0.13234023233E+04  0.10809599006E+04 0.  0.
        5    1    3    3  502    0  0.12564138594E+03 -0.49936204124E+03  0.18076810824E+03  0.54575397850E+03  0.46999998093E+01 0.  1.
       -5    1    3    3    0  502 -0.12564138594E+03  0.49936204124E+03  0.58272347823E+03  0.77764834480E+03  0.46999998093E+01 0. -1.
</event>
<event>
 5   0  0.7952121E-03  0.1088656E+04  0.7818609E-02  0.9216320E-01
        2   -1    0    0  501    0  0.00000000000E+00  0.00000000000E+00  0.10526479730E+04  0.10526479730E+04  0.25500000920E-02 0. -1.
       -2   -1    0    0    0  501  0.00000000000E+00  0.00000000000E+00 -0.28147371818E+03  0.28147371819E+03  0.25500000920E-02 0.  1.
    10030    2    1    2    0    0  0.00000000000E+00  0.00000000000E+00  0.77117425483E+03  0.13341216912E+04  0.10886555725E+04 0.  0.
        3    1    3    3  502    0 -0.45403698059E+03 -0.10347403756E+03  0.40193457528E+02  0.46740986342E+03  0.10100000352E+00 0.  1.
       -3    1    3    3    0  502  0.45403698059E+03  0.10347403756E+03  0.73098079730E+03  0.86671182778E+03  0.10100000352E+00 0. -1.
</event>
<event>
 5   0  0.7537480E-03  0.1088090E+04  0.7818609E-02  0.9216878E-01
       -2   -1    0    0    0  501  0.00000000000E+00  0.00000000000E+00  0.25055421495E+03  0.25055421496E+03  0.25500000920E-02 0. -1.
        2   -1    0    0  501    0  0.00000000000E+00  0.00000000000E+00 -0.11813217184E+04  0.11813217184E+04  0.25500000920E-02 0.  1.
    10030    2    1    2    0    0  0.00000000000E+00  0.00000000000E+00 -0.93076750343E+03  0.14318759333E+04  0.10880903193E+04 0.  0.
        1    1    3    3  502    0 -0.14937503339E+03  0.25970344071E+03  0.13221891840E+03  0.32747613673E+03  0.50400001928E-02 0. -1.
       -1    1    3    3    0  502  0.14937503339E+03 -0.25970344071E+03 -0.10629864218E+04  0.11043997966E+04  0.50400001928E-02 0.  1.
</event>
<event>
 5   0  0.7738497E-03  0.1105829E+04  0.7818609E-02  0.9199529E-01
        2   -1    0    0  501    0  0.00000000000E+00  0.00000000000E+00  0.16997713956E+04  0.16997713956E+04  0.25500000920E-02 0. -1.
       -2   -1    0    0    0  501  0.00000000000E+00  0.00000000000E+00 -0.17985614899E+03  0.17985614901E+03  0.25500000920E-02 0.  1.
    10030    2    1    2    0    0  0.00000000000E+00  0.00000000000E+00  0.15199152466E+04  0.18796275446E+04  0.11058288066E+04 0.  0.
        4    1    3    3  502    0 -0.54546863461E+03  0.32224540939E+02  0.90356622424E+03  0.10559393860E+04  0.12699999809E+01 0. -1.
       -4    1    3    3    0  502  0.54546863461E+03 -0.32224540939E+02  0.61634902235E+03  0.82368815861E+03  0.12699999809E+01 0.  1.
</event>
<event>
 5   0  0.7537480E-03  0.1116692E+04  0.7818609E-02  0.9189074E-01
        2   -1    0    0  501    0  0.00000000000E+00  0.00000000000E+00  0.45728567527E+03  0.45728567528E+03  0.25500000920E-02 0.  1.
       -2   -1    0    0    0  501  0.00000000000E+00  0.00000000000E+00 -0.68174063500E+03  0.68174063501E+03  0.25500000920E-02 0. -1.
    10030    2    1    2    0    0  0.00000000000E+00  0.00000000000E+00 -0.22445495973E+03  0.11390263103E+04  0.11166919479E+04 0.  0.
        1    1    3    3  502    0  0.48949422561E+03  0.11667313014E+03 -0.35900227600E+03  0.61814225741E+03  0.50400001928E-02 0.  1.
       -1    1    3    3    0  502 -0.48949422561E+03 -0.11667313014E+03  0.13454731627E+03  0.52088405288E+03  0.50400001928E-02 0. -1.
</event>
<event>
 5   0  0.7952121E-03  0.1062490E+04  0.7818609E-02  0.9242543E-01
       -2   -1    0    0    0  501  0.00000000000E+00  0.00000000000E+00  0.23195109341E+03  0.23195109342E+03  0.25500000920E-02 0.  1.
        2   -1    0    0  501    0  0.00000000000E+00  0.00000000000E+00 -0.12167270785E+04  0.12167270785E+04  0.25500000920E-02 0. -1.
    10030    2    1    2    0    0  0.00000000000E+00  0.00000000000E+00 -0.98477598511E+03  0.14486781719E+04  0.10624898611E+04 0.  0.
        3    1    3    3  502    0 -0.26665733703E+03 -0.17181833071E+03  0.88640275176E+02  0.32937028212E+03  0.10100000352E+00 0.  1.
       -3    1    3    3    0  502  0.26665733703E+03  0.17181833071E+03 -0.10734162603E+04  0.11193078898E+04  0.10100000352E+00 0. -1.
</event>
<event>
 5   0  0.7712816E-03  0.1106505E+04  0.7818609E-02  0.9198875E-01
       -2   -1    0    0    0  501  0.00000000000E+00  0.00000000000E+00  0.85267836733E+03  0.85267836733E+03  0.25500000920E-02 0. -1.
        2   -1    0    0  501    0  0.00000000000E+00  0.00000000000E+00 -0.35897250685E+03  0.35897250686E+03  0.25500000920E-02 0.  1.
    10030    2    1    2    0    0  0.00000000000E+00  0.00000000000E+00  0.49370586048E+03  0.12116508742E+04  0.11065045704E+04 0.  0.
        2    1    3    3  502    0 -0.25192893212E+02 -0.19864165571E+03 -0.31790318770E+03  0.37570683519E+03  0.25500000920E-02 0.  1.
       -2    1    3    3    0  502  0.25192893212E+02  0.19864165571E+03  0.81160904818E+03  0.83594403900E+03  0.25500000920E-02 0. -1.
</event>
<event>
 5   0  0.7537480E-03  0.1097527E+04  0.7818609E-02  0.9207606E-01
       -2   -1    0    0    0  501  0.00000000000E+00  0.00000000000E+00  0.21307114748E+03  0.21307114749E+03  0.25500000920E-02 0. -1.
        2   -1    0    0  501    0  0.00000000000E+00  0.00000000000E+00 -0.14133361916E+04  0.14133361916E+04  0.25500000920E-02 0.  1.
    10030    2    1    2    0    0  0.00000000000E+00  0.00000000000E+00 -0.12002650442E+04  0.16264073391E+04  0.10975266086E+04 0.  0.
        1    1    3    3  502    0  0.16102003250E+03  0.19953509639E+03 -0.13191128322E+04  0.13438007180E+04  0.50400001928E-02 0.  1.
       -1    1    3    3    0  502 -0.16102003250E+03 -0.19953509639E+03  0.11884778805E+03  0.28260662113E+03  0.50400001928E-02 0. -1.
</event>
<event>
 5   0  0.7712816E-03  0.1065457E+04  0.7818609E-02  0.9239529E-01
       -2   -1    0    0    0  501  0.00000000000E+00  0.00000000000E+00  0.30233311894E+03  0.30233311895E+03  0.25500000920E-02 0.  1.
        2   -1    0    0  501    0  0.00000000000E+00  0.00000000000E+00 -0.93869881652E+03  0.93869881652E+03  0.25500000920E-02 0. -1.
    10030    2    1    2    0    0  0.00000000000E+00  0.00000000000E+00 -0.63636569758E+03  0.12410319355E+04  0.10654571619E+04 0.  0.
        2    1    3    3  502    0  0.15758262659E+02  0.53031615500E+03 -0.26212525961E+03  0.59177123859E+03  0.25500000920E-02 0. -1.
       -2    1    3    3    0  502 -0.15758262659E+02 -0.53031615500E+03 -0.37424043797E+03  0.64926069687E+03  0.25500000920E-02 0.  1.
</event>
<event>
 5   0  0.4641021E-03  0.1040647E+04  0.7818609E-02  0.9265054E-01
       -1   -1    0    0    0  501  0.00000000000E+00  0.00000000000E+00  0.76649156162E+03  0.76649156164E+03  0.50400001928E-02 0.  1.
        1   -1    0    0  501    0  0.00000000000E+00  0.00000000000E+00 -0.35321501117E+03  0.35321501121E+03  0.50400001928E-02 0. -1.
    10030    2    1    2    0    0  0.00000000000E+00  0.00000000000E+00  0.41327655045E+03  0.11197065728E+04  0.10406465789E+04 0.  0.
        1    1    3    3  502    0  0.30120786035E+03 -0.26228262578E+03 -0.15219148728E+03  0.42741151101E+03  0.50400001928E-02 0. -1.
       -1    1    3    3    0  502 -0.30120786035E+03  0.26228262578E+03  0.56546803773E+03  0.69229506183E+03  0.50400001928E-02 0.  1.
</event>
<event>
 5   0  0.4598561E-03  0.1153824E+04  0.7818609E-02  0.9154263E-01
       -1   -1    0    0    0  501  0.00000000000E+00  0.00000000000E+00  0.32454700682E+03  0.32454700686E+03  0.50400001928E-02 0. -1.
        1   -1    0    0  501    0  0.00000000000E+00  0.00000000000E+00 -0.10255140334E+04  0.10255140334E+04  0.50400001928E-02 0.  1.
    10030    2    1    2    0    0  0.00000000000E+00  0.00000000000E+00 -0.70096702656E+03  0.13500610402E+04  0.11538240941E+04 0.  0.
        2    1    3    3  502    0 -0.33530360752E+03 -0.42990744048E+03 -0.57118648876E+03  0.78962201181E+03  0.25500000920E-02 0. -1.
       -2    1    3    3    0  502  0.33530360752E+03  0.42990744048E+03 -0.12978053780E+03  0.56043902843E+03  0.25500000920E-02 0.  1.
</event>
<event>
 5   0  0.4428114E-03  0.1118389E+04  0.7818609E-02  0.9187452E-01
        1   -1    0    0  501    0  0.00000000000E+00  0.00000000000E+00  0.68264748020E+03  0.68264748021E+03  0.50400001928E-02 0. -1.
       -1   -1    0    0    0  501  0.00000000000E+00  0.00000000000E+00 -0.45806708357E+03  0.45806708360E+03  0.50400001928E-02 0.  1.
    10030    2    1    2    0    0  0.00000000000E+00  0.00000000000E+00  0.22458039662E+03  0.11407145638E+04  0.11183887345E+04 0.  0.
        4    1    3    3  502    0  0.51051243063E+03 -0.13005579411E+03  0.30354139655E+03  0.60801023324E+03  0.12699999809E+01 0. -1.
       -4    1    3    3    0  502 -0.51051243063E+03  0.13005579411E+03 -0.78960999926E+02  0.53270433058E+03  0.12699999809E+01 0.  1.
</event>
<event>
 5   0  0.4504740E-03  0.1064934E+04  0.7818609E-02  0.9240060E-01
        1   -1    0    0  501    0  0.00000000000E+00  0.00000000000E+00  0.73780980550E+03  0.73780980552E+03  0.50400001928E-02 0. -1.
       -1   -1    0    0    0  501  0.00000000000E+00  0.00000000000E+00 -0.38427383872E+03  0.38427383875E+03  0.50400001928E-02 0.  1.
    10030    2    1    2    0    0  0.00000000000E+00  0.00000000000E+00  0.35353596679E+03  0.11220836443E+04  0.10649338125E+04 0.  0.
        5    1    3    3  502    0  0.11396259018E+03  0.23642154646E+03  0.66489625708E+03  0.71483686410E+03  0.46999998093E+01 0. -1.
       -5    1    3    3    0  502 -0.11396259018E+03 -0.23642154646E+03 -0.31136029030E+03  0.40724678017E+03  0.46999998093E+01 0.  1.
</event>
<event>
 5   0  0.7952121E-03  0.1065357E+04  0.7818609E-02  0.9239631E-01
        2   -1    0    0  501    0  0.00000000000E+00  0.00000000000E+00  0.13505430640E+04  0.13505430640E+04  0.25500000920E-02 0.  1.
       -2   -1    0    0    0  501  0.00000000000E+00  0.00000000000E+00 -0.21009814235E+03  0.21009814237E+03  0.25500000920E-02 0. -1.
    10030    2    1    2    0    0  0.00000000000E+00  0.00000000000E+00  0.11404449217E+04  0.15606412064E+04  0.10653573840E+04 0.  0.
        3    1    3    3  502    0 -0.18905465850E+03 -0.48703939836E+03  0.72244190979E+03  0.89155558586E+03  0.10100000352E+00 0.  1.
       -3    1    3    3    0  502  0.18905465850E+03  0.48703939836E+03  0.41800301187E+03  0.66908562052E+03  0.10100000352E+00 0. -1.
</event>
<event>
 5   0  0.2992375E-03  0.1060372E+04  0.7818609E-02  0.9244701E-01
        3   -1    0    0  501    0  0.00000000000E+00  0.00000000000E+00  0.69737574203E+03  0.69737574935E+03  0.10100000352E+00 0.  1.
       -3   -1    0    0    0  501  0.00000000000E+00  0.00000000000E+00 -0.40307857061E+03  0.40307858326E+03  0.10100000352E+00 0. -1.
    10030    2    1    2    0    0  0.00000000000E+00  0.00000000000E+00  0.29429717142E+03  0.11004543326E+04  0.10603720635E+04 0.  0.
        1    1    3    3  502    0  0.35346751043E+03 -0.22603786378E+01 -0.26295039340E+03  0.44055340159E+03  0.50400001928E-02 0. -1.
       -1    1    3    3    0  502 -0.35346751043E+03  0.22603786378E+01  0.55724756482E+03  0.65990093102E+03  0.50400001928E-02 0.  1.
</event>
<event>
 5   0  0.7952121E-03  0.1111343E+04  0.7818609E-02  0.9194206E-01
        2   -1    0    0  501    0  0.00000000000E+00  0.00000000000E+00  0.22394169601E+03  0.22394169603E+03  0.25500000920E-02 0. -1.
       -2   -1    0    0    0  501  0.00000000000E+00  0.00000000000E+00 -0.13787995289E+04  0.13787995289E+04  0.25500000920E-02 0.  1.
    10030    2    1    2    0    0  0.00000000000E+00  0.00000000000E+00 -0.11548578329E+04  0.16027412249E+04  0.11113428004E+04 0.  0.
        3    1    3    3  502    0 -0.41688641622E+03 -0.36327084311E+03 -0.49829739957E+03  0.74435226748E+03  0.10100000352E+00 0. -1.
       -3    1    3    3    0  502  0.41688641622E+03  0.36327084311E+03 -0.65656043332E+03  0.85838895745E+03  0.10100000352E+00 0.  1.
</event>
<event>
 5   0  0.4298101E-03  0.1122252E+04  0.7818609E-02  0.9183771E-01
       -1   -1    0    0    0  501  0.00000000000E+00  0.00000000000E+00  0.27921162035E+03  0.27921162040E+03  0.50400001928E-02 0. -1.
        1   -1    0    0  501    0  0.00000000000E+00  0.00000000000E+00 -0.11276832235E+04  0.11276832235E+04  0.50400001928E-02 0.  1.
    10030    2    1    2    0    0  0.00000000000E+00  0.00000000000E+00 -0.84847160312E+03  0.14068948439E+04  0.11222517723E+04 0.  0.
        3    1    3    3  502    0  0.37977702532E+03  0.17599001059E+03  0.44260403650E+02  0.42090624410E+03  0.10100000352E+00 0. -1.
       -3    1    3    3    0  502 -0.37977702532E+03 -0.17599001059E+03 -0.89273200677E+03  0.98598859979E+03  0.10100000352E+00 0.  1.
</event>
<event>
 5   0  0.4428114E-03  0.1104288E+04  0.7818609E-02  0.9201022E-01
       -1   -1    0    0    0  501  0.00000000000E+00  0.00000000000E+00  0.50404757716E+03  0.50404757719E+03  0.50400001928E-02 0. -1.
        1   -1    0    0  501    0  0.00000000000E+00  0.00000000000E+00 -0.60483028437E+03  0.60483028439E+03  0.50400001928E-02 0.  1.
    10030    2    1    2    0    0  0.00000000000E+00  0.00000000000E+00 -0.10078270721E+03  0.11088778616E+04  0.11042884396E+04 0.  0.
        4    1    3    3  502    0  0.52298642202E+02 -0.26109196280E+03 -0.53609307345E+03  0.59858295776E+03  0.12699999809E+01 0.  1.
       -4    1    3    3    0  502 -0.52298642202E+02  0.26109196280E+03  0.43531036624E+03  0.51029490383E+03  0.12699999809E+01 0. -1.
</event>
<event>
 5   0  0.4504740E-03  0.1113917E+04  0.7818609E-02  0.9191732E-01
       -1   -1    0    0    0  501  0.00000000000E+00  0.00000000000E+00  0.37916181148E+03  0.37916181151E+03  0.50400001928E-02 0. -1.
        1   -1    0    0  501    0  0.00000000000E+00  0.00000000000E+00 -0.81812829919E+03  0.81812829920E+03  0.50400001928E-02 0.  1.
    10030    2    1    2    0    0  0.00000000000E+00  0.00000000000E+00 -0.43896648771E+03  0.11972901107E+04  0.11139174260E+04 0.  0.
        5    1    3    3  502    0  0.25575194215E+03  0.30368667325E+02  0.31128805000E+03  0.40404659625E+03  0.46999998093E+01 0. -1.
       -5    1    3    3    0  502 -0.25575194215E+03 -0.30368667325E+02 -0.75025453771E+03  0.79324351446E+03  0.46999998093E+01 0.  1.
</event>
<event>
 5   0  0.7738497E-03  0.1113041E+04  0.7818609E-02  0.9192574E-01
       -2   -1    0    0    0  501  0.00000000000E+00  0.00000000000E+00  0.24996509244E+04  0.24996509244E+04  0.25500000920E-02 0. -1.
        2   -1    0    0  501    0  0.00000000000E+00  0.00000000000E+00 -0.12390328996E+03  0.12390328999E+03  0.25500000920E-02 0.  1.
    10030    2    1    2    0    0  0.00000000000E+00  0.00000000000E+00  0.23757476344E+04  0.26235542144E+04  0.11130408318E+04 0.  0.
        4    1    3    3  502    0 -0.41914990512E+03 -0.25081524205E+03  0.55928010529E+03  0.74255691882E+03  0.12699999809E+01 0.  1.
       -4    1    3    3    0  502  0.41914990512E+03  0.25081524205E+03  0.18164675291E+04  0.18809972956E+04  0.12699999809E+01 0. -1.
</event>
<event>
 5   0  0.7738497E-03  0.1134609E+04  0.7818609E-02  0.9172101E-01
       -2   -1    0    0    0  501  0.00000000000E+00  0.00000000000E+00  0.15488476639E+03  0.15488476641E+03  0.25500000920E-02 0. -1.
        2   -1    0    0  501    0  0.00000000000E+00  0.00000000000E+00 -0.20778952222E+04  0.20778952223E+04  0.25500000920E-02 0.  1.
    10030    2    1    2    0    0  0.00000000000E+00  0.00000000000E+00 -0.19230104559E+04  0.22327799887E+04  0.11346088597E+04 0.  0.
        4    1    3    3  502    0  0.34759871232E+03 -0.39539329906E+03 -0.13774324538E+04  0.14746126621E+04  0.12699999809E+01 0.  1.
       -4    1    3    3    0  502 -0.34759871232E+03  0.39539329906E+03 -0.54557800209E+03  0.75816732653E+03  0.12699999809E+01 0. -1.
</event>
<event>
 5   0  0.7952121E-03  0.1141139E+04  0.7818609E-02  0.9165998E-01
       -2   -1    0    0    0  501  0.00000000000E+00  0.00000000000E+00  0.25809843469E+03  0.25809843471E+03  0.25500000920E-02 0.  1.
        2   -1    0    0  501    0  0.00000000000E+00  0.00000000000E+00 -0.12613381331E+04  0.12613381331E+04  0.25500000920E-02 0. -1.
    10030    2    1    2    0    0  0.00000000000E+00  0.00000000000E+00 -0.10032396984E+04  0.15194365678E+04  0.11411387256E+04 0.  0.
        3    1    3    3  502    0  0.22430770709E+03 -0.24866368433E+03 -0.11167162446E+04  0.11658485136E+04  0.10100000352E+00 0. -1.
       -3    1    3    3    0  502 -0.22430770709E+03  0.24866368433E+03  0.11347654622E+03  0.35358805425E+03  0.10100000352E+00 0.  1.
</event>
<event>
 5   0  0.4641021E-03  0.1087889E+04  0.7818609E-02  0.9217077E-01
       -1   -1    0    0    0  501  0.00000000000E+00  0.00000000000E+00  0.20426624655E+03  0.20426624661E+03  0.50400001928E-02 0. -1.
        1   -1    0    0  501    0  0.00000000000E+00  0.00000000000E+00 -0.14484802788E+04  0.14484802788E+04  0.50400001928E-02 0.  1.
    10030    2    1    2    0    0  0.00000000000E+00  0.00000000000E+00 -0.12442140322E+04  0.16527465254E+04  0.10878890197E+04 0.  0.
        1    1    3    3  502    0  0.44569153254E+03  0.13812930017E+02 -0.10953735106E+04  0.11826558532E+04  0.50400001928E-02 0.  1.
       -1    1    3    3    0  502 -0.44569153254E+03 -0.13812930017E+02 -0.14884052159E+03  0.47009067221E+03  0.50400001928E-02 0. -1.
</event>
<event>
 5   0  0.7738497E-03  0.1097469E+04  0.7818609E-02  0.9207662E-01
       -2   -1    0    0    0  501  0.00000000000E+00  0.00000000000E+00  0.24041370163E+03  0.24041370165E+03  0.25500000920E-02 0.  1.
        2   -1    0    0  501    0  0.00000000000E+00  0.00000000000E+00 -0.12524648171E+04  0.12524648171E+04  0.25500000920E-02 0. -1.
    10030    2    1    2    0    0  0.00000000000E+00  0.00000000000E+00 -0.10120511154E+04  0.14928785187E+04  0.10974692758E+04 0.  0.
        4    1    3    3  502    0 -0.11042890274E+03 -0.53746574266E+03 -0.51506130200E+03  0.75256476452E+03  0.12699999809E+01 0.  1.
       -4    1    3    3    0  502  0.11042890274E+03  0.53746574266E+03 -0.49698981344E+03  0.74031375420E+03  0.12699999809E+01 0. -1.
</event>
<event>
 5   0  0.4428114E-03  0.1091884E+04  0.7818609E-02  0.9213138E-01
        1   -1    0    0  501    0  0.00000000000E+00  0.00000000000E+00  0.46419582552E+03  0.46419582555E+03  0.50400001928E-02 0. -1.
       -1   -1    0    0    0  501  0.00000000000E+00  0.00000000000E+00 -0.64208421535E+03  0.64208421537E+03  0.50400001928E-02 0.  1.
    10030    2    1    2    0    0  0.00000000000E+00  0.00000000000E+00 -0.17788838983E+03  0.11062800409E+04  0.10918842657E+04 0.  0.
        4    1    3    3  502    0 -0.47756128539E+03 -0.24577599165E+03  0.10226732229E+02  0.53719346453E+03  0.12699999809E+01 0. -1.
       -4    1    3    3    0  502  0.47756128539E+03  0.24577599165E+03 -0.18811512206E+03  0.56908657639E+03  0.12699999809E+01 0.  1.
</event>
<event>
 5   0  0.7537480E-03  0.1108663E+04  0.7818609E-02  0.9196789E-01
       -2   -1    0    0    0  501  0.00000000000E+00  0.00000000000E+00  0.26671089933E+03  0.26671089934E+03  0.25500000920E-02 0.  1.
        2   -1    0    0  501    0  0.00000000000E+00  0.00000000000E+00 -0.11521223872E+04  0.11521223872E+04  0.25500000920E-02 0. -1.
    10030    2    1    2    0    0  0.00000000000E+00  0.00000000000E+00 -0.88541148788E+03  0.14188332866E+04  0.11086633358E+04 0.  0.
        1    1    3    3  502    0  0.11917277282E+02 -0.55096883160E+02 -0.11484447370E+04  0.11498273792E+04  0.50400001928E-02 0. -1.
       -1    1    3    3    0  502 -0.11917277282E+02  0.55096883160E+02  0.26303324910E+03  0.26900590735E+03  0.50400001928E-02 0.  1.
</event>
<event>
 5   0  0.7766551E-03  0.1040838E+04  0.7818609E-02  0.9264854E-01
       -2   -1    0    0    0  501  0.00000000000E+00  0.00000000000E+00  0.24706429159E+03  0.24706429160E+03  0.25500000920E-02 0. -1.
        2   -1    0    0  501    0  0.00000000000E+00  0.00000000000E+00 -0.10962173549E+04  0.10962173549E+04  0.25500000920E-02 0.  1.
    10030    2    1    2    0    0  0.00000000000E+00  0.00000000000E+00 -0.84915306328E+03  0.13432816465E+04  0.10408384394E+04 0.  0.
        5    1    3    3  502    0 -0.10177499325E+03  0.23231538676E+03 -0.10110231998E+04  0.10423620238E+04  0.46999998093E+01 0.  1.
       -5    1    3    3    0  502  0.10177499325E+03 -0.23231538676E+03  0.16187013654E+03  0.30091962262E+03  0.46999998093E+01 0. -1.
</event>
<event>
 5   0  0.4428114E-03  0.1097530E+04  0.7818609E-02  0.9207602E-01
       -1   -1    0    0    0  501  0.00000000000E+00  0.00000000000E+00  0.12195999014E+04  0.12195999014E+04  0.50400001928E-02 0.  1.
        1   -1    0    0  501    0  0.00000000000E+00  0.00000000000E+00 -0.24691971480E+03  0.24691971485E+03  0.50400001928E-02 0. -1.
    10030    2    1    2    0    0  0.00000000000E+00  0.00000000000E+00  0.97268018660E+03  0.14665196163E+04  0.10975304276E+04 0.  0.
        4    1    3    3  502    0 -0.45857887674E+03  0.25475433393E+03  0.70157728207E+03  0.87601749553E+03  0.12699999809E+01 0.  1.
       -4    1    3    3    0  502  0.45857887674E+03 -0.25475433393E+03  0.27110290453E+03  0.59050212074E+03  0.12699999809E+01 0. -1.
</event>
<event>
 5   0  0.4641021E-03  0.1078177E+04  0.7818609E-02  0.9226727E-01
        1   -1    0    0  501    0  0.00000000000E+00  0.00000000000E+00  0.39675781905E+03  0.39675781908E+03  0.50400001928E-02 0. -1.
       -1   -1    0    0    0  501  0.00000000000E+00  0.00000000000E+00 -0.73247785275E+03  0.73247785276E+03  0.50400001928E-02 0.  1.
    10030    2    1    2    0    0  0.00000000000E+00  0.00000000000E+00 -0.33572003370E+03  0.11292356718E+04  0.10781768229E+04 0.  0.
        1    1    3    3  502    0  0.46656713804E+03  0.12777658018E+03  0.81324085743E+02  0.49053578431E+03  0.50400001928E-02 0. -1.
       -1    1    3    3    0  502 -0.46656713804E+03 -0.12777658018E+03 -0.41704411944E+03  0.63869988753E+03  0.50400001928E-02 0.  1.
</event>
<event>
 5   0  0.4428114E-03  0.1283227E+04  0.7818609E-02  0.9042973E-01
       -1   -1    0    0    0  501  0.00000000000E+00  0.00000000000E+00  0.10701506636E+04  0.10701506636E+04  0.50400001928E-02 0. -1.
        1   -1    0    0  501    0  0.00000000000E+00  0.00000000000E+00 -0.38468246430E+03  0.38468246433E+03  0.50400001928E-02 0.  1.
    10030    2    1    2    0    0  0.00000000000E+00  0.00000000000E+00  0.68546819926E+03  0.14548331279E+04  0.12832274848E+04 0.  0.
        4    1    3    3  502    0 -0.28354971249E+03 -0.32585842021E+03  0.88060782311E+03  0.98084448334E+03  0.12699999809E+01 0. -1.
       -4    1    3    3    0  502  0.28354971249E+03  0.32585842021E+03 -0.19513962385E+03  0.47398864456E+03  0.12699999809E+01 0.  1.
</event>
<event>
 5   0  0.7738497E-03  0.1079725E+04  0.7818609E-02  0.9225182E-01
        2   -1    0    0  501    0  0.00000000000E+00  0.00000000000E+00  0.10902812256E+04  0.10902812256E+04  0.25500000920E-02 0. -1.
       -2   -1    0    0    0  501  0.00000000000E+00  0.00000000000E+00 -0.26731765563E+03  0.26731765564E+03  0.25500000920E-02 0.  1.
    10030    2    1    2    0    0  0.00000000000E+00  0.00000000000E+00  0.82296357000E+03  0.13575988813E+04  0.10797248190E+04 0.  0.
        4    1    3    3  502    0  0.53863459977E+03  0.33026327692E+02  0.39233699419E+03  0.66719404996E+03  0.12699999809E+01 0. -1.
       -4    1    3    3    0  502 -0.53863459977E+03 -0.33026327692E+02  0.43062657581E+03  0.69040483130E+03  0.12699999809E+01 0.  1.
</event>
<event>
 5   0  0.4641021E-03  0.1100710E+04  0.7818609E-02  0.9204500E-01
       -1   -1    0    0    0  501  0.00000000000E+00  0.00000000000E+00  0.43358536522E+03  0.43358536525E+03  0.50400001928E-02 0.  1.
        1   -1    0    0  501    0  0.00000000000E+00  0.00000000000E+00 -0.69857162045E+03  0.69857162047E+03  0.50400001928E-02 0. -1.
    10030    2    1    2    0    0  0.00000000000E+00  0.00000000000E+00 -0.26498625523E+03  0.11321569857E+04  0.11007096460E+04 0.  0.
        1    1    3    3  502    0 -0.31203391924E+03 -0.76465194463E+01  0.33374168884E+03  0.45695421096E+03  0.50400001928E-02 0.  1.
       -1    1    3    3    0  502  0.31203391924E+03  0.76465194463E+01 -0.59872794407E+03  0.67520277477E+03  0.50400001928E-02 0. -1.
</event>
<event>
 5   0  0.7537480E-03  0.1137583E+04  0.7818609E-02  0.9169316E-01
        2   -1    0    0  501    0  0.00000000000E+00  0.00000000000E+00  0.10441503185E+04  0.10441503185E+04  0.25500000920E-02 0.  1.
       -2   -1    0    0    0  501  0.00000000000E+00  0.00000000000E+00 -0.30984393368E+03  0.30984393369E+03  0.25500000920E-02 0. -1.
    10030    2    1    2    0    0  0.00000000000E+00  0.00000000000E+00  0.73430638481E+03  0.13539942522E+04  0.11375827742E+04 0.  0.
        1    1    3    3  502    0  0.38278526561E+03 -0.14387893119E+03  0.83770823795E+03  0.93219139578E+03  0.50400001928E-02 0.  1.
       -1    1    3    3    0  502 -0.38278526561E+03  0.14387893119E+03 -0.10340185314E+03  0.42180285640E+03  0.50400001928E-02 0. -1.
</event>
<event>
 5   0  0.2992375E-03  0.7901357E+03  0.7818609E-02  0.9574406E-01
        3   -1    0    0  501    0  0.00000000000E+00  0.00000000000E+00  0.41930338553E+03  0.41930339769E+03  0.10100000352E+00 0. -1.
       -3   -1    0    0    0  501  0.00000000000E+00  0.00000000000E+00 -0.37223305542E+03  0.37223306913E+03  0.10100000352E+00 0.  1.
    10030    2    1    2    0    0  0.00000000000E+00  0.00000000000E+00  0.47070330104E+02  0.79153646682E+03  0.79013566071E+03 0.  0.
        4    1    3    3  502    0 -0.22714769794E+03  0.16947455267E+03  0.29926716807E+03  0.41216519924E+03  0.12699999809E+01 0. -1.
       -4    1    3    3    0  502  0.22714769794E+03 -0.16947455267E+03 -0.25219683797E+03  0.37937126758E+03  0.12699999809E+01 0.  1.
</event>
<event>
 5   0  0.4504740E-03  0.1075394E+04  0.7818609E-02  0.9229512E-01
        1   -1    0    0  501    0  0.00000000000E+00  0.00000000000E+00  0.12224425131E+04  0.12224425131E+04  0.50400001928E-02 0. -1.
       -1   -1    0    0    0  501  0.00000000000E+00  0.00000000000E+00 -0.23650846972E+03  0.23650846977E+03  0.50400001928E-02 0.  1.
    10030    2    1    2    0    0  0.00000000000E+00  0.00000000000E+00  0.98593404337E+03  0.14589509829E+04  0.10753938965E+04 0.  0.
        5    1    3    3  502    0 -0.33685000467E+03 -0.41180242361E+03  0.59846262740E+03  0.80076761181E+03  0.46999998093E+01 0.  1.
       -5    1    3    3    0  502  0.33685000467E+03  0.41180242361E+03  0.38747141597E+03  0.65818337105E+03  0.46999998093E+01 0. -1.
</event>
<event>
 5   0  0.7952121E-03  0.1068165E+04  0.7818609E-02  0.9236788E-01
        2   -1    0    0  501    0  0.00000000000E+00  0.00000000000E+00  0.70931395792E+03  0.70931395793E+03  0.25500000920E-02 0.  1.
       -2   -1    0    0    0  501  0.00000000000E+00  0.00000000000E+00 -0.40214064289E+03  0.40214064290E+03  0.25500000920E-02 0. -1.
    10030    2    1    2    0    0  0.00000000000E+00  0.00000000000E+00  0.30717331503E+03  0.11114546008E+04  0.10681647271E+04 0.  0.
        3    1    3    3  502    0 -0.71019941228E+02 -0.11275404097E+03 -0.38456484264E+03  0.40699807642E+03  0.10100000352E+00 0. -1.
       -3    1    3    3    0  502  0.71019941228E+02  0.11275404097E+03  0.69173815767E+03  0.70445652441E+03  0.10100000352E+00 0.  1.
</event>
<event>
 5   0  0.4641021E-03  0.9887456E+03  0.7818609E-02  0.9320975E-01
       -1   -1    0    0    0  501  0.00000000000E+00  0.00000000000E+00  0.94122312003E+03  0.94122312005E+03  0.50400001928E-02 0. -1.
        1   -1    0    0  501    0  0.00000000000E+00  0.00000000000E+00 -0.25966689785E+03  0.25966689790E+03  0.50400001928E-02 0.  1.
    10030    2    1    2    0    0  0.00000000000E+00  0.00000000000E+00  0.68155622218E+03  0.12008900179E+04  0.98874564536E+03 0.  0.
        1    1    3    3  502    0  0.42986497327E+03 -0.21170229210E+03  0.19300698254E+03  0.51657860104E+03  0.50400001928E-02 0.  1.
       -1    1    3    3    0  502 -0.42986497327E+03  0.21170229210E+03  0.48854923964E+03  0.68431141690E+03  0.50400001928E-02 0. -1.
</event>
<event>
 5   0  0.4504740E-03  0.1114383E+04  0.7818609E-02  0.9191285E-01
       -1   -1    0    0    0  501  0.00000000000E+00  0.00000000000E+00  0.31156793144E+03  0.31156793148E+03  0.50400001928E-02 0. -1.
        1   -1    0    0  501    0  0.00000000000E+00  0.00000000000E+00 -0.99645227357E+03  0.99645227358E+03  0.50400001928E-02 0.  1.
    10030    2    1    2    0    0  0.00000000000E+00  0.00000000000E+00 -0.68488434213E+03  0.13080202051E+04  0.11143833697E+04 0.  0.
        5    1    3    3  502    0  0.18272792368E+03 -0.74862098769E+02  0.26909389900E+03  0.33380749602E+03  0.46999998093E+01 0. -1.
       -5    1    3    3    0  502 -0.18272792368E+03  0.74862098769E+02 -0.95397824112E+03  0.97421270904E+03  0.46999998093E+01 0.  1.
</event>
<event>
 5   0  0.2992375E-03  0.1123452E+04  0.7818609E-02  0.9182631E-01
        3   -1    0    0  501    0  0.00000000000E+00  0.00000000000E+00  0.33016370308E+03  0.33016371853E+03  0.10100000352E+00 0. -1.
       -3   -1    0    0    0  501  0.00000000000E+00  0.00000000000E+00 -0.95569568488E+03  0.95569569021E+03  0.10100000352E+00 0.  1.
    10030    2    1    2    0    0  0.00000000000E+00  0.00000000000E+00 -0.62553198180E+03  0.12858594087E+04  0.11234518943E+04 0.  0.
        1    1    3    3  502    0 -0.27660514531E+02 -0.37764209714E+03 -0.78766562074E+03  0.87395411077E+03  0.50400001928E-02 0.  1.
       -1    1    3    3    0  502  0.27660514531E+02  0.37764209714E+03  0.16213363894E+03  0.41190529797E+03  0.50400001928E-02 0. -1.
</event>
<event>
 5   0  0.7766551E-03  0.1030263E+04  0.7818609E-02  0.9275962E-01
        2   -1    0    0  501    0  0.00000000000E+00  0.00000000000E+00  0.14427936719E+04  0.14427936719E+04  0.25500000920E-02 0.  1.
       -2   -1    0    0    0  501  0.00000000000E+00  0.00000000000E+00 -0.18392121767E+03  0.18392121769E+03  0.25500000920E-02 0. -1.
    10030    2    1    2    0    0  0.00000000000E+00  0.00000000000E+00  0.12588724542E+04  0.16267148896E+04  0.10302628189E+04 0.  0.
        5    1    3    3  502    0  0.34817150578E+03 -0.37850903499E+03  0.58351693328E+03  0.77782169449E+03  0.46999998093E+01 0.  1.
       -5    1    3    3    0  502 -0.34817150578E+03  0.37850903499E+03  0.67535552094E+03  0.84889319509E+03  0.46999998093E+01 0. -1.
</event>
<event>
 5   0  0.4641021E-03  0.1054485E+04  0.7818609E-02  0.9250726E-01
       -1   -1    0    0    0  501  0.00000000000E+00  0.00000000000E+00  0.60576483102E+03  0.60576483104E+03  0.50400001928E-02 0.  1.
        1   -1    0    0  501    0  0.00000000000E+00  0.00000000000E+00 -0.45889879761E+03  0.45889879764E+03  0.50400001928E-02 0. -1.
    10030    2    1    2    0    0  0.00000000000E+00  0.00000000000E+00  0.14686603340E+03  0.10646636287E+04  0.10544851874E+04 0.  0.
        1    1    3    3  502    0  0.35148777101E+03 -0.32430572199E+03 -0.15067095019E+03  0.50141758021E+03  0.50400001928E-02 0. -1.
       -1    1    3    3    0  502 -0.35148777101E+03  0.32430572199E+03  0.29753698359E+03  0.56324604847E+03  0.50400001928E-02 0.  1.
</event>
<event>
 5   0  0.4504740E-03  0.1087642E+04  0.7818609E-02  0.9217321E-01
        1   -1    0    0  501    0  0.00000000000E+00  0.00000000000E+00  0.60023837925E+03  0.60023837927E+03  0.50400001928E-02 0. -1.
       -1   -1    0    0    0  501  0.00000000000E+00  0.00000000000E+00 -0.49270628491E+03  0.49270628493E+03  0.50400001928E-02 0.  1.
    10030    2    1    2    0    0  0.00000000000E+00  0.00000000000E+00  0.10753209434E+03  0.10929446642E+04  0.10876418931E+04 0.  0.
        5    1    3    3  502    0  0.15188412283E+03  0.10103272881E+03 -0.46102326630E+03  0.49582349796E+03  0.46999998093E+01 0.  1.
       -5    1    3    3    0  502 -0.15188412283E+03 -0.10103272881E+03  0.56855536064E+03  0.59712116624E+03  0.46999998093E+01 0. -1.
</event>
<event>
 5   0  0.4298101E-03  0.1067920E+04  0.7818609E-02  0.9237035E-01
       -1   -1    0    0    0  501  0.00000000000E+00  0.00000000000E+00  0.30766441779E+03  0.30766441783E+03  0.50400001928E-02 0.  1.
        1   -1    0    0  501    0  0.00000000000E+00  0.00000000000E+00 -0.92670302426E+03  0.92670302427E+03  0.50400001928E-02 0. -1.
    10030    2    1    2    0    0  0.00000000000E+00  0.00000000000E+00 -0.61903860647E+03  0.12343674421E+04  0.10679204960E+04 0.  0.
        3    1    3    3  502    0  0.17498281040E+03  0.24406592751E+03  0.20079864142E+03  0.36125789335E+03  0.10100000352E+00 0.  1.
       -3    1    3    3    0  502 -0.17498281040E+03 -0.24406592751E+03 -0.81983724788E+03  0.87310954876E+03  0.10100000352E+00 0. -1.
</event>
<event>
 5   0  0.7738497E-03  0.1105779E+04  0.7818609E-02  0.9199577E-01
        2   -1    0    0  501    0  0.00000000000E+00  0.00000000000E+00  0.60030468331E+03  0.60030468331E+03  0.25500000920E-02 0.  1.
       -2   -1    0    0    0  501  0.00000000000E+00  0.00000000000E+00 -0.50921970339E+03  0.50921970340E+03  0.25500000920E-02 0. -1.
    10030    2    1    2    0    0  0.00000000000E+00  0.00000000000E+00  0.91084979918E+02  0.11095243867E+04  0.11057793139E+04 0.  0.
        4    1    3    3  502    0  0.21732411435E+03  0.24421038832E+03  0.49294149414E+03  0.59149084015E+03  0.12699999809E+01 0.  1.
       -4    1    3    3    0  502 -0.21732411435E+03 -0.24421038832E+03 -0.40185651422E+03  0.51803354656E+03  0.12699999809E+01 0. -1.
</event>
<event>
 5   0  0.4598561E-03  0.1114025E+04  0.7818609E-02  0.9191629E-01
        1   -1    0    0  501    0  0.00000000000E+00  0.00000000000E+00  0.15158585308E+04  0.15158585308E+04  0.50400001928E-02 0. -1.
       -1   -1    0    0    0  501  0.00000000000E+00  0.00000000000E+00 -0.20467800396E+03  0.20467800402E+03  0.50400001928E-02 0.  1.
    10030    2    1    2    0    0  0.00000000000E+00  0.00000000000E+00  0.13111805269E+04  0.17205365349E+04  0.11140249520E+04 0.  0.
        2    1    3    3  502    0  0.16624177748E+03  0.21551378229E+02  0.14759764257E+04  0.14854653142E+04  0.25500000920E-02 0. -1.
       -2    1    3    3    0  502 -0.16624177748E+03 -0.21551378229E+02 -0.16479589886E+03  0.23507122063E+03  0.25500000920E-02 0.  1.
</event>
<event>
 5   0  0.2992375E-03  0.1099395E+04  0.7818609E-02  0.9205782E-01
       -3   -1    0    0    0  501  0.00000000000E+00  0.00000000000E+00  0.86422849176E+03  0.86422849766E+03  0.10100000352E+00 0.  1.
        3   -1    0    0  501    0  0.00000000000E+00  0.00000000000E+00 -0.34963808881E+03  0.34963810340E+03  0.10100000352E+00 0. -1.
    10030    2    1    2    0    0  0.00000000000E+00  0.00000000000E+00  0.51459040295E+03  0.12138666011E+04  0.10993947618E+04 0.  0.
        2    1    3    3  502    0  0.27563436373E+03  0.99519629180E+02  0.77078789177E+03  0.82461653704E+03  0.25500000920E-02 0.  1.
       -2    1    3    3    0  502 -0.27563436373E+03 -0.99519629180E+02 -0.25619748881E+03  0.38925006402E+03  0.25500000920E-02 0. -1.
</event>
<event>
 5   0  0.7537480E-03  0.1099983E+04  0.7818609E-02  0.9205208E-01
       -2   -1    0    0    0  501  0.00000000000E+00  0.00000000000E+00  0.27841677451E+03  0.27841677452E+03  0.25500000920E-02 0. -1.
        2   -1    0    0  501    0  0.00000000000E+00  0.00000000000E+00 -0.10864679690E+04  0.10864679690E+04  0.25500000920E-02 0.  1.
    10030    2    1    2    0    0  0.00000000000E+00  0.00000000000E+00 -0.80805119447E+03  0.13648847435E+04  0.10999834681E+04 0.  0.
        1    1    3    3  502    0  0.34411254311E+03  0.26491017716E+02 -0.93537561947E+03  0.99701693359E+03  0.50400001928E-02 0.  1.
       -1    1    3    3    0  502 -0.34411254311E+03 -0.26491017716E+02  0.12732442500E+03  0.36786780992E+03  0.50400001928E-02 0. -1.
</event>
<event>
 5   0  0.7738497E-03  0.1095594E+04  0.7818609E-02  0.9209497E-01
        2   -1    0    0  501    0  0.00000000000E+00  0.00000000000E+00  0.10068873605E+04  0.10068873605E+04  0.25500000920E-02 0. -1.
       -2   -1    0    0    0  501  0.00000000000E+00  0.00000000000E+00 -0.29802914686E+03  0.29802914687E+03  0.25500000920E-02 0.  1.
    10030    2    1    2    0    0  0.00000000000E+00  0.00000000000E+00  0.70885821368E+03  0.13049165074E+04  0.10955944159E+04 0.  0.
        4    1    3    3  502    0 -0.47436294012E+03  0.25459462325E+03  0.47496480746E+03  0.71793579265E+03  0.12699999809E+01 0. -1.
       -4    1    3    3    0  502  0.47436294012E+03 -0.25459462325E+03  0.23389340622E+03  0.58698071477E+03  0.12699999809E+01 0.  1.
</event>
<event>
 5   0  0.7738497E-03  0.1124957E+04  0.7818609E-02  0.9181203E-01
        2   -1    0    0  501    0  0.00000000000E+00  0.00000000000E+00  0.83186584614E+03  0.83186584614E+03  0.25500000920E-02 0.  1.
       -2   -1    0    0    0  501  0.00000000000E+00  0.00000000000E+00 -0.38032812321E+03  0.38032812322E+03  0.25500000920E-02 0. -1.
    10030    2    1    2    0    0  0.00000000000E+00  0.00000000000E+00  0.45153772293E+03  0.12121939694E+04  0.11249568454E+04 0.  0.
        4    1    3    3  502    0 -0.53482997847E+03 -0.11611142044E+03  0.85872722806E+02  0.55398619590E+03  0.12699999809E+01 0. -1.
       -4    1    3    3    0  502  0.53482997847E+03  0.11611142044E+03  0.36566500013E+03  0.65820777346E+03  0.12699999809E+01 0.  1.
</event>
<event>
 5   0  0.7712816E-03  0.1101179E+04  0.7818609E-02  0.9204044E-01
        2   -1    0    0  501    0  0.00000000000E+00  0.00000000000E+00  0.53891322008E+03  0.53891322008E+03  0.25500000920E-02 0.  1.
       -2   -1    0    0    0  501  0.00000000000E+00  0.00000000000E+00 -0.56251844952E+03  0.56251844952E+03  0.25500000920E-02 0. -1.
    10030    2    1    2    0    0  0.00000000000E+00  0.00000000000E+00 -0.23605229437E+02  0.11014316696E+04  0.11011786939E+04 0.  0.
        2    1    3    3  502    0  0.14980339811E+03  0.25721348315E+03 -0.47510314746E+03  0.56064501668E+03  0.25500000920E-02 0. -1.
       -2    1    3    3    0  502 -0.14980339811E+03 -0.25721348315E+03  0.45149791802E+03  0.54078665293E+03  0.25500000920E-02 0.  1.
</event>
<event>
 5   0  0.7952121E-03  0.1087546E+04  0.7818609E-02  0.9217416E-01
       -2   -1    0    0    0  501  0.00000000000E+00  0.00000000000E+00  0.25992612739E+03  0.25992612740E+03  0.25500000920E-02 0. -1.
        2   -1    0    0  501    0  0.00000000000E+00  0.00000000000E+00 -0.11375890657E+04  0.11375890657E+04  0.25500000920E-02 0.  1.
    10030    2    1    2    0    0  0.00000000000E+00  0.00000000000E+00 -0.87766293829E+03  0.13975151931E+04  0.10875460825E+04 0.  0.
        3    1    3    3  502    0 -0.82050283965E+02  0.52997425180E+03 -0.55436981526E+03  0.77131761223E+03  0.10100000352E+00 0.  1.
       -3    1    3    3    0  502  0.82050283965E+02 -0.52997425180E+03 -0.32329312303E+03  0.62619758085E+03  0.10100000352E+00 0. -1.
</event>
<event>
 5   0  0.4298101E-03  0.1086544E+04  0.7818609E-02  0.9218407E-01
        1   -1    0    0  501    0  0.00000000000E+00  0.00000000000E+00  0.78053157774E+03  0.78053157776E+03  0.50400001928E-02 0. -1.
       -1   -1    0    0    0  501  0.00000000000E+00  0.00000000000E+00 -0.37813259804E+03  0.37813259807E+03  0.50400001928E-02 0.  1.
    10030    2    1    2    0    0  0.00000000000E+00  0.00000000000E+00  0.40239897970E+03  0.11586641758E+04  0.10865439400E+04 0.  0.
        3    1    3    3  502    0 -0.42465412959E+03 -0.33554558993E+03  0.15092747035E+03  0.56187283633E+03  0.10100000352E+00 0.  1.
       -3    1    3    3    0  502  0.42465412959E+03  0.33554558993E+03  0.25147150935E+03  0.59679133951E+03  0.10100000352E+00 0. -1.
</event>
<event>
 5   0  0.4428114E-03  0.1090905E+04  0.7818609E-02  0.9214102E-01
        1   -1    0    0  501    0  0.00000000000E+00  0.00000000000E+00  0.12094408238E+04  0.12094408238E+04  0.50400001928E-02 0. -1.
       -1   -1    0    0    0  501  0.00000000000E+00  0.00000000000E+00 -0.24599668881E+03  0.24599668887E+03  0.50400001928E-02 0.  1.
    10030    2    1    2    0    0  0.00000000000E+00  0.00000000000E+00  0.96344413495E+03  0.14554375126E+04  0.10909050151E+04 0.  0.
        4    1    3    3  502    0 -0.14846669117E+03  0.51930587598E+03  0.38015191843E+03  0.66048319070E+03  0.12699999809E+01 0.  1.
       -4    1    3    3    0  502  0.14846669117E+03 -0.51930587598E+03  0.58329221652E+03  0.79495432194E+03  0.12699999809E+01 0. -1.
</event>
<event>
 5   0  0.7952121E-03  0.1106846E+04  0.7818609E-02  0.9198545E-01
        2   -1    0    0  501    0  0.00000000000E+00  0.00000000000E+00  0.96908590796E+03  0.96908590796E+03  0.25500000920E-02 0. -1.
       -2   -1    0    0    0  501  0.00000000000E+00  0.00000000000E+00 -0.31604723299E+03  0.31604723300E+03  0.25500000920E-02 0.  1.
    10030    2    1    2    0    0  0.00000000000E+00  0.00000000000E+00  0.65303867497E+03  0.12851331410E+04  0.11068458244E+04 0.  0.
        3    1    3    3  502    0 -0.45176201615E+03  0.20992524884E+03  0.60643131307E+03  0.78480346394E+03  0.10100000352E+00 0. -1.
       -3    1    3    3    0  502  0.45176201615E+03 -0.20992524884E+03  0.46607361896E+02  0.50032967703E+03  0.10100000352E+00 0.  1.
</event>
<event>
 5   0  0.7712816E-03  0.1102613E+04  0.7818609E-02  0.9202649E-01
       -2   -1    0    0    0  501  0.00000000000E+00  0.00000000000E+00  0.21967664371E+03  0.21967664372E+03  0.25500000920E-02 0. -1.
        2   -1    0    0  501    0  0.00000000000E+00  0.00000000000E+00 -0.13835733517E+04  0.13835733517E+04  0.25500000920E-02 0.  1.
    10030    2    1    2    0    0  0.00000000000E+00  0.00000000000E+00 -0.11638967080E+04  0.16032499954E+04  0.11026128064E+04 0.  0.
        2    1    3    3  502    0 -0.42768928191E+03  0.53129899302E+02 -0.82048524009E+02  0.43871729890E+03  0.25500000920E-02 0. -1.
       -2    1    3    3    0  502  0.42768928191E+03 -0.53129899302E+02 -0.10818481840E+04  0.11645326965E+04  0.25500000920E-02 0.  1.
</event>
<event>
 5   0  0.4641021E-03  0.1110529E+04  0.7818609E-02  0.9194990E-01
       -1   -1    0    0    0  501  0.00000000000E+00  0.00000000000E+00  0.15934264875E+03  0.15934264883E+03  0.50400001928E-02 0.  1.
        1   -1    0    0  501    0  0.00000000000E+00  0.00000000000E+00 -0.19349423736E+04  0.19349423736E+04  0.50400001928E-02 0. -1.
    10030    2    1    2    0    0  0.00000000000E+00  0.00000000000E+00 -0.17755997248E+04  0.20942850224E+04  0.11105293208E+04 0.  0.
        1    1    3    3  502    0 -0.21720874473E+02 -0.36599079426E+03 -0.16742166625E+04  0.17138910382E+04  0.50400001928E-02 0. -1.
       -1    1    3    3    0  502  0.21720874473E+02  0.36599079426E+03 -0.10138306236E+03  0.38039398422E+03  0.50400001928E-02 0.  1.
</event>
<event>
 5   0  0.7537480E-03  0.1105588E+04  0.7818609E-02  0.9199762E-01
        2   -1    0    0  501    0  0.00000000000E+00  0.00000000000E+00  0.10674727936E+04  0.10674727936E+04  0.25500000920E-02 0.  1.
       -2   -1    0    0    0  501  0.00000000000E+00  0.00000000000E+00 -0.28626617862E+03  0.28626617863E+03  0.25500000920E-02 0. -1.
    10030    2    1    2    0    0  0.00000000000E+00  0.00000000000E+00  0.78120661496E+03  0.13537389722E+04  0.11055882731E+04 0.  0.
        1    1    3    3  502    0  0.37950697466E+03 -0.21689554213E+03  0.80495323644E+03  0.91597976664E+03  0.50400001928E-02 0.  1.
       -1    1    3    3    0  502 -0.37950697466E+03  0.21689554213E+03 -0.23746621484E+02  0.43775920558E+03  0.50400001928E-02 0. -1.
</event>
<event>
 5   0  0.4598561E-03  0.1074193E+04  0.7818609E-02  0.9230716E-01
        1   -1    0    0  501    0  0.00000000000E+00  0.00000000000E+00  0.10292824062E+04  0.10292824062E+04  0.50400001928E-02 0.  1.
       -1   -1    0    0    0  501  0.00000000000E+00  0.00000000000E+00 -0.28026586752E+03  0.28026586757E+03  0.50400001928E-02 0. -1.
    10030    2    1    2    0    0  0.00000000000E+00  0.00000000000E+00  0.74901653867E+03  0.13095482738E+04  0.10741931419E+04 0.  0.
        2    1    3    3  502    0 -0.31759974194E+03 -0.31458758356E+03  0.73745975538E+03  0.86236989431E+03  0.25500000920E-02 0.  1.
       -2    1    3    3    0  502  0.31759974194E+03  0.31458758356E+03  0.11556783295E+02  0.44717837946E+03  0.25500000920E-02 0. -1.
</event>
<event>
 5   0  0.7766551E-03  0.1055649E+04  0.7818609E-02  0.9249532E-01
       -2   -1    0    0    0  501  0.00000000000E+00  0.00000000000E+00  0.18337830429E+03  0.18337830431E+03  0.25500000920E-02 0.  1.
        2   -1    0    0  501    0  0.00000000000E+00  0.00000000000E+00 -0.15192553000E+04  0.15192553000E+04  0.25500000920E-02 0. -1.
    10030    2    1    2    0    0  0.00000000000E+00  0.00000000000E+00 -0.13358769958E+04  0.17026336044E+04  0.10556485414E+04 0.  0.
        5    1    3    3  502    0 -0.41660194605E+03  0.70200331240E+02 -0.15766902666E+03  0.45096217128E+03  0.46999998093E+01 0.  1.
       -5    1    3    3    0  502  0.41660194605E+03 -0.70200331240E+02 -0.11782079691E+04  0.12516714331E+04  0.46999998093E+01 0. -1.
</event>
<event>
 5   0  0.4598561E-03  0.1086845E+04  0.7818609E-02  0.9218109E-01
        1   -1    0    0  501    0  0.00000000000E+00  0.00000000000E+00  0.10379048708E+04  0.10379048708E+04  0.50400001928E-02 0. -1.
       -1   -1    0    0    0  501  0.00000000000E+00  0.00000000000E+00 -0.28452310734E+03  0.28452310738E+03  0.50400001928E-02 0.  1.
    10030    2    1    2    0    0  0.00000000000E+00  0.00000000000E+00  0.75338176343E+03  0.13224279782E+04  0.10868448261E+04 0.  0.
        2    1    3    3  502    0 -0.53954699102E+03 -0.43205101758E+02  0.43542747950E+03  0.69467598652E+03  0.25500000920E-02 0.  1.
       -2    1    3    3    0  502  0.53954699102E+03  0.43205101758E+02  0.31795428393E+03  0.62775199164E+03  0.25500000920E-02 0. -1.
</event>
<event>
 5   0  0.4298101E-03  0.1070034E+04  0.7818609E-02  0.9234901E-01
       -1   -1    0    0    0  501  0.00000000000E+00  0.00000000000E+00  0.18863227371E+03  0.18863227378E+03  0.50400001928E-02 0.  1.
        1   -1    0    0  501    0  0.00000000000E+00  0.00000000000E+00 -0.15174667740E+04  0.15174667740E+04  0.50400001928E-02 0. -1.
    10030    2    1    2    0    0  0.00000000000E+00  0.00000000000E+00 -0.13288345003E+04  0.17060990478E+04  0.10700340330E+04 0.  0.
        3    1    3    3  502    0 -0.89488953910E+02 -0.48984566376E+03 -0.97639778700E+03  0.10960427436E+04  0.10100000352E+00 0. -1.
       -3    1    3    3    0  502  0.89488953910E+02  0.48984566376E+03 -0.35243671326E+03  0.61005630414E+03  0.10100000352E+00 0.  1.
</event>
<event>
 5   0  0.4504740E-03  0.1122137E+04  0.7818609E-02  0.9183880E-01
       -1   -1    0    0    0  501  0.00000000000E+00  0.00000000000E+00  0.84727597396E+03  0.84727597397E+03  0.50400001928E-02 0.  1.
        1   -1    0    0  501    0  0.00000000000E+00  0.00000000000E+00 -0.37154120145E+03  0.37154120149E+03  0.50400001928E-02 0. -1.
    10030    2    1    2    0    0  0.00000000000E+00  0.00000000000E+00  0.47573477250E+03  0.12188171755E+04  0.11221371277E+04 0.  0.
        5    1    3    3  502    0  0.15417183942E+03  0.14124857609E+03  0.80335347767E+03  0.83013192710E+03  0.46999998093E+01 0.  1.
       -5    1    3    3    0  502 -0.15417183942E+03 -0.14124857609E+03 -0.32761870516E+03  0.38868524836E+03  0.46999998093E+01 0. -1.
</event>
<event>
 5   0  0.7537480E-03  0.1098756E+04  0.7818609E-02  0.9206405E-01
        2   -1    0    0  501    0  0.00000000000E+00  0.00000000000E+00  0.46924210050E+03  0.46924210050E+03  0.25500000920E-02 0.  1.
       -2   -1    0    0    0  501  0.00000000000E+00  0.00000000000E+00 -0.64319948491E+03  0.64319948492E+03  0.25500000920E-02 0. -1.
    10030    2    1    2    0    0  0.00000000000E+00  0.00000000000E+00 -0.17395738442E+03  0.11124415854E+04  0.10987561647E+04 0.  0.
        1    1    3    3  502    0 -0.21743204255E+03 -0.44204063453E+03  0.15923676167E+03  0.51771899907E+03  0.50400001928E-02 0.  1.
       -1    1    3    3    0  502  0.21743204255E+03  0.44204063453E+03 -0.33319414608E+03  0.59472258635E+03  0.50400001928E-02 0. -1.
</event>
<event>
 5   0  0.4298101E-03  0.1067534E+04  0.7818609E-02  0.9237426E-01
        1   -1    0    0  501    0  0.00000000000E+00  0.00000000000E+00  0.24718132016E+03  0.24718132021E+03  0.50400001928E-02 0.  1.
       -1   -1    0    0    0  501  0.00000000000E+00  0.00000000000E+00 -0.11526248662E+04  0.11526248662E+04  0.50400001928E-02 0. -1.
    10030    2    1    2    0    0  0.00000000000E+00  0.00000000000E+00 -0.90544354604E+03  0.13998061864E+04  0.10675342357E+04 0.  0.
        3    1    3    3  502    0  0.78420635792E+02  0.50735096450E+03 -0.26111504567E+03  0.57596516785E+03  0.10100000352E+00 0. -1.
       -3    1    3    3    0  502 -0.78420635792E+02 -0.50735096450E+03 -0.64432850037E+03  0.82384101858E+03  0.10100000352E+00 0.  1.
</event>
<event>
 5   0  0.7712816E-03  0.1106944E+04  0.7818609E-02  0.9198450E-01
       -2   -1    0    0    0  501  0.00000000000E+00  0.00000000000E+00  0.18708472014E+03  0.18708472016E+03  0.25500000920E-02 0. -1.
        2   -1    0    0  501    0  0.00000000000E+00  0.00000000000E+00 -0.16373943680E+04  0.16373943680E+04  0.25500000920E-02 0.  1.
    10030    2    1    2    0    0  0.00000000000E+00  0.00000000000E+00 -0.14503096479E+04  0.18244790882E+04  0.11069443836E+04 0.  0.
        2    1    3    3  502    0  0.43629175542E+03 -0.18306544732E+03 -0.25183373515E+03  0.53598851109E+03  0.25500000920E-02 0. -1.
       -2    1    3    3    0  502 -0.43629175542E+03  0.18306544732E+03 -0.11984759127E+04  0.12884905771E+04  0.25500000920E-02 0.  1.
</event>
<event>
 5   0  0.4428114E-03  0.1143457E+04  0.7818609E-02  0.9163841E-01
        1   -1    0    0  501    0  0.00000000000E+00  0.00000000000E+00  0.90916169425E+03  0.90916169426E+03  0.50400001928E-02 0. -1.
       -1   -1    0    0    0  501  0.00000000000E+00  0.00000000000E+00 -0.35953309819E+03  0.35953309823E+03  0.50400001928E-02 0.  1.
    10030    2    1    2    0    0  0.00000000000E+00  0.00000000000E+00  0.54962859605E+03  0.12686947925E+04  0.11434574250E+04 0.  0.
        4    1    3    3  502    0 -0.53316843750E+03 -0.48004368230E+02  0.52081146215E+02  0.53785412595E+03  0.12699999809E+01 0.  1.
       -4    1    3    3    0  502  0.53316843750E+03  0.48004368230E+02  0.49754744984E+03  0.73084066653E+03  0.12699999809E+01 0. -1.
</event>
<event>
 5   0  0.4504740E-03  0.9922803E+03  0.7818609E-02  0.9317052E-01
       -1   -1    0    0    0  501  0.00000000000E+00  0.00000000000E+00  0.36351434498E+03  0.36351434502E+03  0.50400001928E-02 0. -1.
        1   -1    0    0  501    0  0.00000000000E+00  0.00000000000E+00 -0.67715362957E+03  0.67715362959E+03  0.50400001928E-02 0.  1.
    10030    2    1    2    0    0  0.00000000000E+00  0.00000000000E+00 -0.31363928459E+03  0.10406679746E+04  0.99228031954E+03 0.  0.
        5    1    3    3  502    0  0.48575682718E+03  0.64541338877E+02 -0.75530691649E+02  0.49583490696E+03  0.46999998093E+01 0.  1.
       -5    1    3    3    0  502 -0.48575682718E+03 -0.64541338877E+02 -0.23810859294E+03  0.54483306765E+03  0.46999998093E+01 0. -1.
</event>
<event>
 5   0  0.7766551E-03  0.1102723E+04  0.7818609E-02  0.9202542E-01
       -2   -1    0    0    0  501  0.00000000000E+00  0.00000000000E+00  0.15727863455E+03  0.15727863457E+03  0.25500000920E-02 0. -1.
        2   -1    0    0  501    0  0.00000000000E+00  0.00000000000E+00 -0.19328724227E+04  0.19328724227E+04  0.25500000920E-02 0.  1.
    10030    2    1    2    0    0  0.00000000000E+00  0.00000000000E+00 -0.17755937881E+04  0.20901510572E+04  0.11027230576E+04 0.  0.
        5    1    3    3  502    0 -0.18340811904E+03  0.40692944622E+03 -0.27434190084E+03  0.52394244043E+03  0.46999998093E+01 0. -1.
       -5    1    3    3    0  502  0.18340811904E+03 -0.40692944622E+03 -0.15012518873E+04  0.15662086168E+04  0.46999998093E+01 0.  1.
</event>
<event>
 5   0  0.4504740E-03  0.1102867E+04  0.7818609E-02  0.9202402E-01
       -1   -1    0    0    0  501  0.00000000000E+00  0.00000000000E+00  0.24710960732E+03  0.24710960737E+03  0.50400001928E-02 0.  1.
        1   -1    0    0  501    0  0.00000000000E+00  0.00000000000E+00 -0.12305428022E+04  0.12305428022E+04  0.50400001928E-02 0. -1.
    10030    2    1    2    0    0  0.00000000000E+00  0.00000000000E+00 -0.98343319486E+03  0.14776524096E+04  0.11028670794E+04 0.  0.
        5    1    3    3  502    0  0.11536435336E+03  0.26229191924E+03  0.13949873959E+03  0.31872868285E+03  0.46999998093E+01 0.  1.
       -5    1    3    3    0  502 -0.11536435336E+03 -0.26229191924E+03 -0.11229319344E+04  0.11589237267E+04  0.46999998093E+01 0. -1.
</event>
<event>
 5   0  0.4598561E-03  0.1131357E+04  0.7818609E-02  0.9175157E-01
       -1   -1    0    0    0  501  0.00000000000E+00  0.00000000000E+00  0.20183143082E+03  0.20183143089E+03  0.50400001928E-02 0.  1.
        1   -1    0    0  501    0  0.00000000000E+00  0.00000000000E+00 -0.15854429413E+04  0.15854429413E+04  0.50400001928E-02 0. -1.
    10030    2    1    2    0    0  0.00000000000E+00  0.00000000000E+00 -0.13836115105E+04  0.17872743722E+04  0.11313570920E+04 0.  0.
        2    1    3    3  502    0  0.34646953818E+03 -0.42479953457E+03 -0.91238725913E+03  0.10643995002E+04  0.25500000920E-02 0. -1.
       -2    1    3    3    0  502 -0.34646953818E+03  0.42479953457E+03 -0.47122425134E+03  0.72287487196E+03  0.25500000920E-02 0.  1.
</event>
<event>
 5   0  0.7537480E-03  0.1099589E+04  0.7818609E-02  0.9205593E-01
       -2   -1    0    0    0  501  0.00000000000E+00  0.00000000000E+00  0.30029105776E+03  0.30029105777E+03  0.25500000920E-02 0.  1.
        2   -1    0    0  501    0  0.00000000000E+00  0.00000000000E+00 -0.10066027634E+04  0.10066027634E+04  0.25500000920E-02 0. -1.
    10030    2    1    2    0    0  0.00000000000E+00  0.00000000000E+00 -0.70631170562E+03  0.13068938212E+04  0.10995886659E+04 0.  0.
        1    1    3    3  502    0 -0.31324965042E+03 -0.45177091404E+03 -0.34462602706E+03  0.64883696012E+03  0.50400001928E-02 0. -1.
       -1    1    3    3    0  502  0.31324965042E+03  0.45177091404E+03 -0.36168567856E+03  0.65805686104E+03  0.50400001928E-02 0.  1.
</event>
<event>
 5   0  0.4428114E-03  0.1068081E+04  0.7818609E-02  0.9236873E-01
        1   -1    0    0  501    0  0.00000000000E+00  0.00000000000E+00  0.67592398171E+03  0.67592398173E+03  0.50400001928E-02 0. -1.
       -1   -1    0    0    0  501  0.00000000000E+00  0.00000000000E+00 -0.42193966237E+03  0.42193966240E+03  0.50400001928E-02 0.  1.
    10030    2    1    2    0    0  0.00000000000E+00  0.00000000000E+00  0.25398431934E+03  0.10978636441E+04  0.10680807772E+04 0.  0.
        4    1    3    3  502    0 -0.34111535597E+03  0.12398978024E+03  0.52966105944E+03  0.64208691193E+03  0.12699999809E+01 0. -1.
       -4    1    3    3    0  502  0.34111535597E+03 -0.12398978024E+03 -0.27567674010E+03  0.45577673220E+03  0.12699999809E+01 0.  1.
</event>
<event>
 5   0  0.7537480E-03  0.1087400E+04  0.7818609E-02  0.9217560E-01
       -2   -1    0    0    0  501  0.00000000000E+00  0.00000000000E+00  0.29558661123E+03  0.29558661124E+03  0.25500000920E-02 0. -1.
        2   -1    0    0  501    0  0.00000000000E+00  0.00000000000E+00 -0.10000781139E+04  0.10000781140E+04  0.25500000920E-02 0.  1.
    10030    2    1    2    0    0  0.00000000000E+00  0.00000000000E+00 -0.70449150271E+03  0.12956647252E+04  0.10874000196E+04 0.  0.
        1    1    3    3  502    0 -0.21884230133E+03  0.15437736277E+03  0.21154268455E+03  0.34128379744E+03  0.50400001928E-02 0. -1.
       -1    1    3    3    0  502  0.21884230133E+03 -0.15437736277E+03 -0.91603418727E+03  0.95438092775E+03  0.50400001928E-02 0.  1.
</event>
<event>
 5   0  0.7537480E-03  0.1117979E+04  0.7818609E-02  0.9187844E-01
        2   -1    0    0  501    0  0.00000000000E+00  0.00000000000E+00  0.24730619647E+04  0.24730619647E+04  0.25500000920E-02 0.  1.
       -2   -1    0    0    0  501  0.00000000000E+00  0.00000000000E+00 -0.12634911116E+03  0.12634911119E+03  0.25500000920E-02 0. -1.
    10030    2    1    2    0    0  0.00000000000E+00  0.00000000000E+00  0.23467128535E+04  0.25994110759E+04  0.11179788569E+04 0.  0.
        1    1    3    3  502    0  0.55248486761E+03 -0.84966659549E+02  0.11658874919E+04  0.12929626855E+04  0.50400001928E-02 0. -1.
       -1    1    3    3    0  502 -0.55248486761E+03  0.84966659549E+02  0.11808253616E+04  0.13064483904E+04  0.50400001928E-02 0.  1.
</event>
<event>
 5   0  0.4428114E-03  0.1124469E+04  0.7818609E-02  0.9181665E-01
       -1   -1    0    0    0  501  0.00000000000E+00  0.00000000000E+00  0.44846902898E+03  0.44846902900E+03  0.50400001928E-02 0.  1.
        1   -1    0    0  501    0  0.00000000000E+00  0.00000000000E+00 -0.70485995014E+03  0.70485995016E+03  0.50400001928E-02 0. -1.
    10030    2    1    2    0    0  0.00000000000E+00  0.00000000000E+00 -0.25639092117E+03  0.11533289792E+04  0.11244693992E+04 0.  0.
        4    1    3    3  502    0 -0.17537379531E+03  0.23711531635E+03 -0.61915230808E+03  0.68580670369E+03  0.12699999809E+01 0. -1.
       -4    1    3    3    0  502  0.17537379531E+03 -0.23711531635E+03  0.36276138691E+03  0.46752227547E+03  0.12699999809E+01 0.  1.
</event>
<event>
 5   0  0.4298101E-03  0.1037155E+04  0.7818609E-02  0.9268707E-01
       -1   -1    0    0    0  501  0.00000000000E+00  0.00000000000E+00  0.23647604712E+03  0.23647604717E+03  0.50400001928E-02 0. -1.
        1   -1    0    0  501    0  0.00000000000E+00  0.00000000000E+00 -0.11372093413E+04  0.11372093413E+04  0.50400001928E-02 0.  1.
    10030    2    1    2    0    0  0.00000000000E+00  0.00000000000E+00 -0.90073329421E+03  0.13736853885E+04  0.10371552822E+04 0.  0.
        3    1    3    3  502    0 -0.11431479693E+03 -0.18735831418E+03 -0.10726605871E+04  0.10948843574E+04  0.10100000352E+00 0.  1.
       -3    1    3    3    0  502  0.11431479693E+03  0.18735831418E+03  0.17192729293E+03  0.27880103110E+03  0.10100000352E+00 0. -1.
</event>
<event>
 5   0  0.7738497E-03  0.1078567E+04  0.7818609E-02  0.9226337E-01
       -2   -1    0    0    0  501  0.00000000000E+00  0.00000000000E+00  0.17525373474E+03  0.17525373476E+03  0.25500000920E-02 0.  1.
        2   -1    0    0  501    0  0.00000000000E+00  0.00000000000E+00 -0.16594614338E+04  0.16594614338E+04  0.25500000920E-02 0. -1.
    10030    2    1    2    0    0  0.00000000000E+00  0.00000000000E+00 -0.14842076990E+04  0.18347151685E+04  0.10785672236E+04 0.  0.
        4    1    3    3  502    0  0.27055574933E+03  0.31086844556E+03 -0.13337857292E+04  0.13960034342E+04  0.12699999809E+01 0. -1.
       -4    1    3    3    0  502 -0.27055574933E+03 -0.31086844556E+03 -0.15042196982E+03  0.43871173434E+03  0.12699999809E+01 0.  1.
</event>
<event>
 5   0  0.4428114E-03  0.1084239E+04  0.7818609E-02  0.9220691E-01
       -1   -1    0    0    0  501  0.00000000000E+00  0.00000000000E+00  0.10524626529E+03  0.10524626541E+03  0.50400001928E-02 0. -1.
        1   -1    0    0  501    0  0.00000000000E+00  0.00000000000E+00 -0.27924364160E+04  0.27924364160E+04  0.50400001928E-02 0.  1.
    10030    2    1    2    0    0  0.00000000000E+00  0.00000000000E+00 -0.26871901507E+04  0.28976826815E+04  0.10842389110E+04 0.  0.
        4    1    3    3  502    0 -0.38729803023E+03 -0.17237207531E+03 -0.44052626107E+03  0.61137295995E+03  0.12699999809E+01 0. -1.
       -4    1    3    3    0  502  0.38729803023E+03  0.17237207531E+03 -0.22466638897E+04  0.22863097215E+04  0.12699999809E+01 0.  1.
</event>
<event>
 5   0  0.4641021E-03  0.1104505E+04  0.7818609E-02  0.9200812E-01
       -1   -1    0    0    0  501  0.00000000000E+00  0.00000000000E+00  0.38248197798E+03  0.38248197801E+03  0.50400001928E-02 0.  1.
        1   -1    0    0  501    0  0.00000000000E+00  0.00000000000E+00 -0.79737879457E+03  0.79737879459E+03  0.50400001928E-02 0. -1.
    10030    2    1    2    0    0  0.00000000000E+00  0.00000000000E+00 -0.41489681659E+03  0.11798607726E+04  0.11045053528E+04 0.  0.
        1    1    3    3  502    0 -0.47651171790E+03  0.10976327526E+03  0.66716662997E+02  0.49352052342E+03  0.50400001928E-02 0.  1.
       -1    1    3    3    0  502  0.47651171790E+03 -0.10976327526E+03 -0.48161347959E+03  0.68634024918E+03  0.50400001928E-02 0. -1.
</event>
<event>
 5   0  0.4504740E-03  0.1165058E+04  0.7818609E-02  0.9144003E-01
        1   -1    0    0  501    0  0.00000000000E+00  0.00000000000E+00  0.59074652178E+03  0.59074652180E+03  0.50400001928E-02 0. -1.
       -1   -1    0    0    0  501  0.00000000000E+00  0.00000000000E+00 -0.57442582171E+03  0.57442582173E+03  0.50400001928E-02 0.  1.
    10030    2    1    2    0    0  0.00000000000E+00  0.00000000000E+00  0.16320700077E+02  0.11651723435E+04  0.11650580350E+04 0.  0.
        5    1    3    3  502    0  0.26996567452E+03  0.51617459026E+03  0.87018557688E+01  0.58259375670E+03  0.46999998093E+01 0.  1.
       -5    1    3    3    0  502 -0.26996567452E+03 -0.51617459026E+03  0.76188443084E+01  0.58257858683E+03  0.46999998093E+01 0. -1.
</event>
<event>
 5   0  0.7738497E-03  0.1151911E+04  0.7818609E-02  0.9156022E-01
       -2   -1    0    0    0  501  0.00000000000E+00  0.00000000000E+00  0.26712468446E+03  0.26712468447E+03  0.25500000920E-02 0. -1.
        2   -1    0    0  501    0  0.00000000000E+00  0.00000000000E+00 -0.12418347035E+04  0.12418347035E+04  0.25500000920E-02 0.  1.
    10030    2    1    2    0    0  0.00000000000E+00  0.00000000000E+00 -0.97471001900E+03  0.15089593879E+04  0.11519109398E+04 0.  0.
        4    1    3    3  502    0 -0.26234569571E+03  0.11086902056E+03 -0.11431291435E+04  0.11780759973E+04  0.12699999809E+01 0.  1.
       -4    1    3    3    0  502  0.26234569571E+03 -0.11086902056E+03  0.16841912452E+03  0.33088339061E+03  0.12699999809E+01 0. -1.
</event>
<event>
 5   0  0.7712816E-03  0.1069018E+04  0.7818609E-02  0.9235926E-01
        2   -1    0    0  501    0  0.00000000000E+00  0.00000000000E+00  0.76014062517E+03  0.76014062518E+03  0.25500000920E-02 0. -1.
       -2   -1    0    0    0  501  0.00000000000E+00  0.00000000000E+00 -0.37585163184E+03  0.37585163185E+03  0.25500000920E-02 0.  1.
    10030    2    1    2    0    0  0.00000000000E+00  0.00000000000E+00  0.38428899333E+03  0.11359922570E+04  0.10690184178E+04 0.  0.
        2    1    3    3  502    0 -0.30346120727E+03  0.37725822027E+02  0.65800242334E+03  0.72558881682E+03  0.25500000920E-02 0. -1.
       -2    1    3    3    0  502  0.30346120727E+03 -0.37725822027E+02 -0.27371343000E+03  0.41040344021E+03  0.25500000920E-02 0.  1.
</event>
<event>
 5   0  0.4504740E-03  0.1119032E+04  0.7818609E-02  0.9186838E-01
       -1   -1    0    0    0  501  0.00000000000E+00  0.00000000000E+00  0.93182741473E+03  0.93182741475E+03  0.50400001928E-02 0.  1.
        1   -1    0    0  501    0  0.00000000000E+00  0.00000000000E+00 -0.33596156755E+03  0.33596156758E+03  0.50400001928E-02 0. -1.
    10030    2    1    2    0    0  0.00000000000E+00  0.00000000000E+00  0.59586584719E+03  0.12677889823E+04  0.11190320799E+04 0.  0.
        5    1    3    3  502    0 -0.18832439171E+03  0.68243922697E+02 -0.29392353139E+03  0.35571961122E+03  0.46999998093E+01 0. -1.
       -5    1    3    3    0  502  0.18832439171E+03 -0.68243922697E+02  0.88978937858E+03  0.91206937112E+03  0.46999998093E+01 0.  1.
</event>
<event>
 5   0  0.4641021E-03  0.1110617E+04  0.7818609E-02  0.9194905E-01
        1   -1    0    0  501    0  0.00000000000E+00  0.00000000000E+00  0.99423223804E+03  0.99423223805E+03  0.50400001928E-02 0.  1.
       -1   -1    0    0    0  501  0.00000000000E+00  0.00000000000E+00 -0.31015646738E+03  0.31015646742E+03  0.50400001928E-02 0. -1.
    10030    2    1    2    0    0  0.00000000000E+00  0.00000000000E+00  0.68407577066E+03  0.13043887055E+04  0.11106170514E+04 0.  0.
        1    1    3    3  502    0  0.97406602867E+02  0.54641179386E+03  0.32123732635E+03  0.64128567317E+03  0.50400001928E-02 0. -1.
       -1    1    3    3    0  502 -0.97406602867E+02 -0.54641179386E+03  0.36283844431E+03  0.66310303230E+03  0.50400001928E-02 0.  1.
</event>
<event>
 5   0  0.7952121E-03  0.1097158E+04  0.7818609E-02  0.9207966E-01
       -2   -1    0    0    0  501  0.00000000000E+00  0.00000000000E+00  0.64071171337E+03  0.64071171337E+03  0.25500000920E-02 0. -1.
        2   -1    0    0  501    0  0.00000000000E+00  0.00000000000E+00 -0.46969506363E+03  0.46969506364E+03  0.25500000920E-02 0.  1.
    10030    2    1    2    0    0  0.00000000000E+00  0.00000000000E+00  0.17101664973E+03  0.11104067770E+04  0.10971583823E+04 0.  0.
        3    1    3    3  502    0  0.31861460313E+03 -0.24923196728E+03  0.46053275529E+03  0.61296188115E+03  0.10100000352E+00 0. -1.
       -3    1    3    3    0  502 -0.31861460313E+03  0.24923196728E+03 -0.28951610556E+03  0.49744489586E+03  0.10100000352E+00 0.  1.
</event>
<event>
 5   0  0.7738497E-03  0.1099074E+04  0.7818609E-02  0.9206095E-01
       -2   -1    0    0    0  501  0.00000000000E+00  0.00000000000E+00  0.50135790010E+03  0.50135790010E+03  0.25500000920E-02 0. -1.
        2   -1    0    0  501    0  0.00000000000E+00  0.00000000000E+00 -0.60234552613E+03  0.60234552613E+03  0.25500000920E-02 0.  1.
    10030    2    1    2    0    0  0.00000000000E+00  0.00000000000E+00 -0.10098762603E+03  0.11037034262E+04  0.10990735883E+04 0.  0.
        4    1    3    3  502    0 -0.44051103491E+03  0.26352619865E+02  0.27836798179E+03  0.52176122761E+03  0.12699999809E+01 0. -1.
       -4    1    3    3    0  502  0.44051103491E+03 -0.26352619865E+02 -0.37935560782E+03  0.58194219862E+03  0.12699999809E+01 0.  1.
</event>
<event>
 5   0  0.7738497E-03  0.1101162E+04  0.7818609E-02  0.9204060E-01
       -2   -1    0    0    0  501  0.00000000000E+00  0.00000000000E+00  0.33767842188E+03  0.33767842189E+03  0.25500000920E-02 0.  1.
        2   -1    0    0  501    0  0.00000000000E+00  0.00000000000E+00 -0.89771710845E+03  0.89771710845E+03  0.25500000920E-02 0. -1.
    10030    2    1    2    0    0  0.00000000000E+00  0.00000000000E+00 -0.56003868657E+03  0.12353955303E+04  0.11011624703E+04 0.  0.
        4    1    3    3  502    0 -0.53805090501E+03 -0.81012220880E+02 -0.37439469415E+03  0.66048070087E+03  0.12699999809E+01 0. -1.
       -4    1    3    3    0  502  0.53805090501E+03  0.81012220880E+02 -0.18564399242E+03  0.57491482946E+03  0.12699999809E+01 0.  1.
</event>
<event>
 5   0  0.4298101E-03  0.1071607E+04  0.7818609E-02  0.9233316E-01
       -1   -1    0    0    0  501  0.00000000000E+00  0.00000000000E+00  0.44868493469E+03  0.44868493472E+03  0.50400001928E-02 0. -1.
        1   -1    0    0  501    0  0.00000000000E+00  0.00000000000E+00 -0.63983742411E+03  0.63983742413E+03  0.50400001928E-02 0.  1.
    10030    2    1    2    0    0  0.00000000000E+00  0.00000000000E+00 -0.19115248942E+03  0.10885223589E+04  0.10716070416E+04 0.  0.
        3    1    3    3  502    0  0.29389846921E+03  0.37008214286E+03  0.16089347627E+03  0.49922322019E+03  0.10100000352E+00 0. -1.
       -3    1    3    3    0  502 -0.29389846921E+03 -0.37008214286E+03 -0.35204596569E+03  0.58929913866E+03  0.10100000352E+00 0.  1.
</event>
<event>
 5   0  0.4298101E-03  0.1077112E+04  0.7818609E-02  0.9227791E-01
       -1   -1    0    0    0  501  0.00000000000E+00  0.00000000000E+00  0.34874687285E+03  0.34874687289E+03  0.50400001928E-02 0.  1.
        1   -1    0    0  501    0  0.00000000000E+00  0.00000000000E+00 -0.83167131539E+03  0.83167131540E+03  0.50400001928E-02 0. -1.
    10030    2    1    2    0    0  0.00000000000E+00  0.00000000000E+00 -0.48292444253E+03  0.11804181883E+04  0.10771123813E+04 0.  0.
        3    1    3    3  502    0  0.41587370385E+03 -0.25273104964E+03  0.11355535622E+02  0.48677805969E+03  0.10100000352E+00 0.  1.
       -3    1    3    3    0  502 -0.41587370385E+03  0.25273104964E+03 -0.49427997815E+03  0.69364012860E+03  0.10100000352E+00 0. -1.
</event>
<event>
 5   0  0.4641021E-03  0.1088458E+04  0.7818609E-02  0.9216515E-01
       -1   -1    0    0    0  501  0.00000000000E+00  0.00000000000E+00  0.94344421170E+03  0.94344421172E+03  0.50400001928E-02 0. -1.
        1   -1    0    0  501    0  0.00000000000E+00  0.00000000000E+00 -0.31394053070E+03  0.31394053074E+03  0.50400001928E-02 0.  1.
    10030    2    1    2    0    0  0.00000000000E+00  0.00000000000E+00  0.62950368100E+03  0.12573847425E+04  0.10884583162E+04 0.  0.
        1    1    3    3  502    0 -0.34489107223E+03  0.19084918504E+03 -0.11873547374E+03  0.41166901253E+03  0.50400001928E-02 0.  1.
       -1    1    3    3    0  502  0.34489107223E+03 -0.19084918504E+03  0.74823915474E+03  0.84571572993E+03  0.50400001928E-02 0. -1.
</event>
<event>
 5   0  0.4598561E-03  0.1105748E+04  0.7818609E-02  0.9199608E-01
        1   -1    0    0  501    0  0.00000000000E+00  0.00000000000E+00  0.98577173727E+03  0.98577173728E+03  0.50400001928E-02 0. -1.
       -1   -1    0    0    0  501  0.00000000000E+00  0.00000000000E+00 -0.31008152052E+03  0.31008152056E+03  0.50400001928E-02 0.  1.
    10030    2    1    2    0    0  0.00000000000E+00  0.00000000000E+00  0.67569021675E+03  0.12958532578E+04  0.11057478903E+04 0.  0.
        2    1    3    3  502    0  0.37355105506E+02  0.40501416225E+01  0.98427370411E+03  0.98499062542E+03  0.25500000920E-02 0. -1.
       -2    1    3    3    0  502 -0.37355105506E+02 -0.40501416225E+01 -0.30858348737E+03  0.31086263242E+03  0.25500000920E-02 0.  1.
</event>
<event>
 5   0  0.7952121E-03  0.1120465E+04  0.7818609E-02  0.9185472E-01
        2   -1    0    0  501    0  0.00000000000E+00  0.00000000000E+00  0.62872490360E+03  0.62872490361E+03  0.25500000920E-02 0.  1.
       -2   -1    0    0    0  501  0.00000000000E+00  0.00000000000E+00 -0.49920142914E+03  0.49920142914E+03  0.25500000920E-02 0. -1.
    10030    2    1    2    0    0  0.00000000000E+00  0.00000000000E+00  0.12952347446E+03  0.11279263328E+04  0.11204648507E+04 0.  0.
        3    1    3    3  502    0 -0.60753065380E+02  0.53925624183E+03 -0.75348928423E+02  0.54787379981E+03  0.10100000352E+00 0. -1.
       -3    1    3    3    0  502  0.60753065380E+02 -0.53925624183E+03  0.20487240289E+03  0.58005253294E+03  0.10100000352E+00 0.  1.
</event>
<event>
 5   0  0.7952121E-03  0.1103103E+04  0.7818609E-02  0.9202173E-01
        2   -1    0    0  501    0  0.00000000000E+00  0.00000000000E+00  0.37297745029E+03  0.37297745030E+03  0.25500000920E-02 0. -1.
       -2   -1    0    0    0  501  0.00000000000E+00  0.00000000000E+00 -0.81562316861E+03  0.81562316862E+03  0.25500000920E-02 0.  1.
    10030    2    1    2    0    0  0.00000000000E+00  0.00000000000E+00 -0.44264571832E+03  0.11886006189E+04  0.11031029867E+04 0.  0.
        3    1    3    3  502    0  0.12311889424E+03  0.41955629244E+03 -0.58356908863E+03  0.72920411138E+03  0.10100000352E+00 0.  1.
       -3    1    3    3    0  502 -0.12311889424E+03 -0.41955629244E+03  0.14092337031E+03  0.45939650754E+03  0.10100000352E+00 0. -1.
</event>
<event>
 5   0  0.4298101E-03  0.1110771E+04  0.7818609E-02  0.9194757E-01
        1   -1    0    0  501    0  0.00000000000E+00  0.00000000000E+00  0.18078526151E+04  0.18078526151E+04  0.50400001928E-02 0.  1.
       -1   -1    0    0    0  501  0.00000000000E+00  0.00000000000E+00 -0.17061833255E+03  0.17061833263E+03  0.50400001928E-02 0. -1.
    10030    2    1    2    0    0  0.00000000000E+00  0.00000000000E+00  0.16372342825E+04  0.19784709477E+04  0.11107705411E+04 0.  0.
        3    1    3    3  502    0  0.18575571135E+03 -0.48549620359E+03  0.47030374754E+03  0.70099741308E+03  0.10100000352E+00 0. -1.
       -3    1    3    3    0  502 -0.18575571135E+03  0.48549620359E+03  0.11669305350E+04  0.12774735346E+04  0.10100000352E+00 0.  1.
</event>
<event>
 5   0  0.7712816E-03  0.1110360E+04  0.7818609E-02  0.9195153E-01
        2   -1    0    0  501    0  0.00000000000E+00  0.00000000000E+00  0.45803257924E+03  0.45803257924E+03  0.25500000920E-02 0. -1.
       -2   -1    0    0    0  501  0.00000000000E+00  0.00000000000E+00 -0.67293213292E+03  0.67293213292E+03  0.25500000920E-02 0.  1.
    10030    2    1    2    0    0  0.00000000000E+00  0.00000000000E+00 -0.21489955368E+03  0.11309647122E+04  0.11103600146E+04 0.  0.
        2    1    3    3  502    0 -0.25376065946E+03 -0.47127115099E+03  0.42710056479E+02  0.53694982911E+03  0.25500000920E-02 0. -1.
       -2    1    3    3    0  502  0.25376065946E+03  0.47127115099E+03 -0.25760961016E+03  0.59401488306E+03  0.25500000920E-02 0.  1.
</event>
<event>
 5   0  0.7537480E-03  0.1032834E+04  0.7818609E-02  0.9273249E-01
       -2   -1    0    0    0  501  0.00000000000E+00  0.00000000000E+00  0.28909861738E+03  0.28909861739E+03  0.25500000920E-02 0. -1.
        2   -1    0    0  501    0  0.00000000000E+00  0.00000000000E+00 -0.92247543417E+03  0.92247543417E+03  0.25500000920E-02 0.  1.
    10030    2    1    2    0    0  0.00000000000E+00  0.00000000000E+00 -0.63337681679E+03  0.12115740516E+04  0.10328337187E+04 0.  0.
        1    1    3    3  502    0  0.79919127371E+02 -0.46296328892E+03 -0.56818370943E+03  0.73726169132E+03  0.50400001928E-02 0.  1.
       -1    1    3    3    0  502 -0.79919127371E+02  0.46296328892E+03 -0.65193107358E+02  0.47431236024E+03  0.50400001928E-02 0. -1.
</event>
<event>
 5   0  0.7738497E-03  0.1119133E+04  0.7818609E-02  0.9186742E-01
        2   -1    0    0  501    0  0.00000000000E+00  0.00000000000E+00  0.92637670159E+03  0.92637670159E+03  0.25500000920E-02 0.  1.
       -2   -1    0    0    0  501  0.00000000000E+00  0.00000000000E+00 -0.33799932633E+03  0.33799932634E+03  0.25500000920E-02 0. -1.
    10030    2    1    2    0    0  0.00000000000E+00  0.00000000000E+00  0.58837737526E+03  0.12643760279E+04  0.11191330592E+04 0.  0.
        4    1    3    3  502    0 -0.50700926969E+03  0.15084955416E+03  0.88025661588E+02  0.53625005132E+03  0.12699999809E+01 0. -1.
       -4    1    3    3    0  502  0.50700926969E+03 -0.15084955416E+03  0.50035171367E+03  0.72812597661E+03  0.12699999809E+01 0.  1.
</event>
<event>
 5   0  0.4504740E-03  0.9588440E+03  0.7818609E-02  0.9354873E-01
       -1   -1    0    0    0  501  0.00000000000E+00  0.00000000000E+00  0.18863309056E+03  0.18863309063E+03  0.50400001928E-02 0. -1.
        1   -1    0    0  501    0  0.00000000000E+00  0.00000000000E+00 -0.12184790658E+04  0.12184790658E+04  0.50400001928E-02 0.  1.
    10030    2    1    2    0    0  0.00000000000E+00  0.00000000000E+00 -0.10298459753E+04  0.14071121565E+04  0.95884403742E+03 0.  0.
        5    1    3    3  502    0  0.33458859051E+03 -0.22798512697E+03 -0.13820845422E+03  0.42784390826E+03  0.46999998093E+01 0. -1.
       -5    1    3    3    0  502 -0.33458859051E+03  0.22798512697E+03 -0.89163752105E+03  0.97926824821E+03  0.46999998093E+01 0.  1.
</event>
<event>
 5   0  0.7537480E-03  0.1100609E+04  0.7818609E-02  0.9204599E-01
        2   -1    0    0  501    0  0.00000000000E+00  0.00000000000E+00  0.14016905952E+04  0.14016905952E+04  0.25500000920E-02 0. -1.
       -2   -1    0    0    0  501  0.00000000000E+00  0.00000000000E+00 -0.21604970175E+03  0.21604970176E+03  0.25500000920E-02 0.  1.
    10030    2    1    2    0    0  0.00000000000E+00  0.00000000000E+00  0.11856408935E+04  0.16177402970E+04  0.11006086226E+04 0.  0.
        1    1    3    3  502    0  0.42468819607E+02  0.51604885534E+03  0.86672285600E+03  0.10096130600E+04  0.50400001928E-02 0. -1.
       -1    1    3    3    0  502 -0.42468819607E+02 -0.51604885534E+03  0.31891803746E+03  0.60812723700E+03  0.50400001928E-02 0.  1.
</event>
<event>
 5   0  0.7952121E-03  0.1090334E+04  0.7818609E-02  0.9214664E-01
       -2   -1    0    0    0  501  0.00000000000E+00  0.00000000000E+00  0.78654790639E+03  0.78654790640E+03  0.25500000920E-02 0.  1.
        2   -1    0    0  501    0  0.00000000000E+00  0.00000000000E+00 -0.37786266260E+03  0.37786266261E+03  0.25500000920E-02 0. -1.
    10030    2    1    2    0    0  0.00000000000E+00  0.00000000000E+00  0.40868524380E+03  0.11644105690E+04  0.10903340519E+04 0.  0.
        3    1    3    3  502    0 -0.32030482587E+03  0.34862945649E+03 -0.84335800681E+02  0.48088482705E+03  0.10100000352E+00 0. -1.
       -3    1    3    3    0  502  0.32030482587E+03 -0.34862945649E+03  0.49302104448E+03  0.68352574195E+03  0.10100000352E+00 0.  1.
</event>
<event>
 5   0  0.4428114E-03  0.1097794E+04  0.7818609E-02  0.9207345E-01
        1   -1    0    0  501    0  0.00000000000E+00  0.00000000000E+00  0.65872526335E+03  0.65872526337E+03  0.50400001928E-02 0. -1.
       -1   -1    0    0    0  501  0.00000000000E+00  0.00000000000E+00 -0.45738033038E+03  0.45738033041E+03  0.50400001928E-02 0.  1.
    10030    2    1    2    0    0  0.00000000000E+00  0.00000000000E+00  0.20134493297E+03  0.11161055938E+04  0.10977941130E+04 0.  0.
        4    1    3    3  502    0  0.46506813342E+03  0.79538790338E+02  0.38583556004E+03  0.60949608709E+03  0.12699999809E+01 0. -1.
       -4    1    3    3    0  502 -0.46506813342E+03 -0.79538790338E+02 -0.18449062707E+03  0.50660950669E+03  0.12699999809E+01 0.  1.
</event>
<event>
 5   0  0.7766551E-03  0.1114685E+04  0.7818609E-02  0.9190996E-01
        2   -1    0    0  501    0  0.00000000000E+00  0.00000000000E+00  0.10617067706E+04  0.10617067706E+04  0.25500000920E-02 0. -1.
       -2   -1    0    0    0  501  0.00000000000E+00  0.00000000000E+00 -0.29257661460E+03  0.29257661461E+03  0.25500000920E-02 0.  1.
    10030    2    1    2    0    0  0.00000000000E+00  0.00000000000E+00  0.76913015598E+03  0.13542833852E+04  0.11146848391E+04 0.  0.
        5    1    3    3  502    0  0.54767477086E+03  0.76925391861E+02  0.46824057614E+03  0.72466302354E+03  0.46999998093E+01 0.  1.
       -5    1    3    3    0  502 -0.54767477086E+03 -0.76925391861E+02  0.30088957984E+03  0.62962036165E+03  0.46999998093E+01 0. -1.
</event>
<event>
 5   0  0.7712816E-03  0.1100639E+04  0.7818609E-02  0.9204570E-01
       -2   -1    0    0    0  501  0.00000000000E+00  0.00000000000E+00  0.31586966640E+03  0.31586966641E+03  0.25500000920E-02 0.  1.
        2   -1    0    0  501    0  0.00000000000E+00  0.00000000000E+00 -0.95878562162E+03  0.95878562163E+03  0.25500000920E-02 0. -1.
    10030    2    1    2    0    0  0.00000000000E+00  0.00000000000E+00 -0.64291595522E+03  0.12746552880E+04  0.11006385319E+04 0.  0.
        2    1    3    3  502    0  0.12692876192E+03  0.26201114687E+02  0.29794311168E+03  0.32491153691E+03  0.25500000920E-02 0.  1.
       -2    1    3    3    0  502 -0.12692876192E+03 -0.26201114687E+02 -0.94085906691E+03  0.94974375112E+03  0.25500000920E-02 0. -1.
</event>
<event>
 5   0  0.7712816E-03  0.1096036E+04  0.7818609E-02  0.9209064E-01
        2   -1    0    0  501    0  0.00000000000E+00  0.00000000000E+00  0.91216293344E+03  0.91216293344E+03  0.25500000920E-02 0.  1.
       -2   -1    0    0    0  501  0.00000000000E+00  0.00000000000E+00 -0.32924373368E+03  0.32924373369E+03  0.25500000920E-02 0. -1.
    10030    2    1    2    0    0  0.00000000000E+00  0.00000000000E+00  0.58291919976E+03  0.12414066671E+04  0.10960363679E+04 0.  0.
        2    1    3    3  502    0 -0.52209216129E+03 -0.16055399680E+03  0.24123759722E+03  0.59712091664E+03  0.25500000920E-02 0.  1.
       -2    1    3    3    0  502  0.52209216129E+03  0.16055399680E+03  0.34168160253E+03  0.64428575049E+03  0.25500000920E-02 0. -1.
</event>
<event>
 5   0  0.4298101E-03  0.9690108E+03  0.7818609E-02  0.9343202E-01
        1   -1    0    0  501    0  0.00000000000E+00  0.00000000000E+00  0.38731543616E+03  0.38731543620E+03  0.50400001928E-02 0.  1.
       -1   -1    0    0    0  501  0.00000000000E+00  0.00000000000E+00 -0.60608343998E+03  0.60608344000E+03  0.50400001928E-02 0. -1.
    10030    2    1    2    0    0  0.00000000000E+00  0.00000000000E+00 -0.21876800381E+03  0.99339887620E+03  0.96901077793E+03 0.  0.
        3    1    3    3  502    0  0.91257145407E+02  0.39533912276E+03 -0.38085920842E+03  0.55648417355E+03  0.10100000352E+00 0. -1.
       -3    1    3    3    0  502 -0.91257145407E+02 -0.39533912276E+03  0.16209120461E+03  0.43691470264E+03  0.10100000352E+00 0.  1.
</event>
<event>
 5   0  0.4598561E-03  0.1091963E+04  0.7818609E-02  0.9213060E-01
       -1   -1    0    0    0  501  0.00000000000E+00  0.00000000000E+00  0.36930950999E+03  0.36930951003E+03  0.50400001928E-02 0.  1.
        1   -1    0    0  501    0  0.00000000000E+00  0.00000000000E+00 -0.80717121138E+03  0.80717121139E+03  0.50400001928E-02 0. -1.
    10030    2    1    2    0    0  0.00000000000E+00  0.00000000000E+00 -0.43786170138E+03  0.11764807214E+04  0.10919633777E+04 0.  0.
        2    1    3    3  502    0  0.33947794770E+03  0.36621793853E+03  0.18916266108E+02  0.49971860142E+03  0.25500000920E-02 0. -1.
       -2    1    3    3    0  502 -0.33947794770E+03 -0.36621793853E+03 -0.45677796749E+03  0.67676212000E+03  0.25500000920E-02 0.  1.
</event>
<event>
 5   0  0.7537480E-03  0.1040747E+04  0.7818609E-02  0.9264949E-01
       -2   -1    0    0    0  501  0.00000000000E+00  0.00000000000E+00  0.47155490917E+03  0.47155490917E+03  0.25500000920E-02 0.  1.
        2   -1    0    0  501    0  0.00000000000E+00  0.00000000000E+00 -0.57424632507E+03  0.57424632508E+03  0.25500000920E-02 0. -1.
    10030    2    1    2    0    0  0.00000000000E+00  0.00000000000E+00 -0.10269141591E+03  0.10458012343E+04  0.10407471810E+04 0.  0.
        1    1    3    3  502    0 -0.48434433304E+03 -0.18647308248E+03 -0.13386207463E+02  0.51917322159E+03  0.50400001928E-02 0.  1.
       -1    1    3    3    0  502  0.48434433304E+03  0.18647308248E+03 -0.89305208443E+02  0.52662801266E+03  0.50400001928E-02 0. -1.
</event>
<event>
 5   0  0.2992375E-03  0.1077017E+04  0.7818609E-02  0.9227886E-01
       -4   -1    0    0    0  501  0.00000000000E+00  0.00000000000E+00  0.36248476179E+03  0.36248698657E+03  0.12699999809E+01 0. -1.
        4   -1    0    0  501    0  0.00000000000E+00  0.00000000000E+00 -0.80000538839E+03  0.80000639645E+03  0.12699999809E+01 0.  1.
    10030    2    1    2    0    0  0.00000000000E+00  0.00000000000E+00 -0.43752062660E+03  0.11624933830E+04  0.10770174404E+04 0.  0.
        3    1    3    3  502    0  0.48568427034E+03 -0.12473885995E+03 -0.68566469675E+01  0.50149378605E+03  0.10100000352E+00 0. -1.
       -3    1    3    3    0  502 -0.48568427034E+03  0.12473885995E+03 -0.43066397963E+03  0.66099959697E+03  0.10100000352E+00 0.  1.
</event>
<event>
 5   0  0.4504740E-03  0.8852559E+03  0.7818609E-02  0.9444202E-01
       -1   -1    0    0    0  501  0.00000000000E+00  0.00000000000E+00  0.20503186516E+03  0.20503186522E+03  0.50400001928E-02 0. -1.
        1   -1    0    0  501    0  0.00000000000E+00  0.00000000000E+00 -0.95555628055E+03  0.95555628057E+03  0.50400001928E-02 0.  1.
    10030    2    1    2    0    0  0.00000000000E+00  0.00000000000E+00 -0.75052441540E+03  0.11605881458E+04  0.88525586473E+03 0.  0.
        5    1    3    3  502    0  0.84090334539E+02  0.22866201027E+03  0.10917679742E+03  0.26701903003E+03  0.46999998093E+01 0. -1.
       -5    1    3    3    0  502 -0.84090334539E+02 -0.22866201027E+03 -0.85970121282E+03  0.89356911576E+03  0.46999998093E+01 0.  1.
</event>
<event>
 5   0  0.7766551E-03  0.1113076E+04  0.7818609E-02  0.9192540E-01
       -2   -1    0    0    0  501  0.00000000000E+00  0.00000000000E+00  0.26690090090E+03  0.26690090092E+03  0.25500000920E-02 0. -1.
        2   -1    0    0  501    0  0.00000000000E+00  0.00000000000E+00 -0.11604852340E+04  0.11604852340E+04  0.25500000920E-02 0.  1.
    10030    2    1    2    0    0  0.00000000000E+00  0.00000000000E+00 -0.89358433306E+03  0.14273861349E+04  0.11130760162E+04 0.  0.
        5    1    3    3  502    0 -0.37224523503E+03  0.92374068877E+02  0.70331309875E+02  0.38995905778E+03  0.46999998093E+01 0.  1.
       -5    1    3    3    0  502  0.37224523503E+03 -0.92374068877E+02 -0.96391564294E+03  0.10374270771E+04  0.46999998093E+01 0. -1.
</event>
<event>
 5   0  0.2992375E-03  0.1105482E+04  0.7818609E-02  0.9199865E-01
       -4   -1    0    0    0  501  0.00000000000E+00  0.00000000000E+00  0.13622782246E+04  0.13622788166E+04  0.12699999809E+01 0.  1.
        4   -1    0    0  501    0  0.00000000000E+00  0.00000000000E+00 -0.22427101517E+03  0.22427461101E+03  0.12699999809E+01 0. -1.
    10030    2    1    2    0    0  0.00000000000E+00  0.00000000000E+00  0.11380072095E+04  0.15865534276E+04  0.11054824150E+04 0.  0.
        5    1    3    3  502    0  0.54629447014E+03  0.83217988961E+02  0.58585511501E+03  0.80536400936E+03  0.46999998093E+01 0. -1.
       -5    1    3    3    0  502 -0.54629447014E+03 -0.83217988961E+02  0.55215209446E+03  0.78118941827E+03  0.46999998093E+01 0.  1.
</event>
<event>
 5   0  0.4298101E-03  0.1084246E+04  0.7818609E-02  0.9220684E-01
        1   -1    0    0  501    0  0.00000000000E+00  0.00000000000E+00  0.12917513897E+04  0.12917513897E+04  0.50400001928E-02 0.  1.
       -1   -1    0    0    0  501  0.00000000000E+00  0.00000000000E+00 -0.22751856342E+03  0.22751856348E+03  0.50400001928E-02 0. -1.
    10030    2    1    2    0    0  0.00000000000E+00  0.00000000000E+00  0.10642328262E+04  0.15192699532E+04  0.10842461354E+04 0.  0.
        3    1    3    3  502    0  0.39076973198E+03 -0.73988194810E+01  0.10585392411E+04  0.11283887013E+04  0.10100000352E+00 0.  1.
       -3    1    3    3    0  502 -0.39076973198E+03  0.73988194810E+01  0.56935851341E+01  0.39088125189E+03  0.10100000352E+00 0. -1.
</event>
<event>
 5   0  0.4298101E-03  0.1111413E+04  0.7818609E-02  0.9194139E-01
       -1   -1    0    0    0  501  0.00000000000E+00  0.00000000000E+00  0.49612891854E+03  0.49612891857E+03  0.50400001928E-02 0. -1.
        1   -1    0    0  501    0  0.00000000000E+00  0.00000000000E+00 -0.62243813567E+03  0.62243813569E+03  0.50400001928E-02 0.  1.
    10030    2    1    2    0    0  0.00000000000E+00  0.00000000000E+00 -0.12630921713E+03  0.11185670543E+04  0.11114127211E+04 0.  0.
        3    1    3    3  502    0  0.47798681329E+03  0.28197906007E+03 -0.92079215556E+02  0.56254970992E+03  0.10100000352E+00 0.  1.
       -3    1    3    3    0  502 -0.47798681329E+03 -0.28197906007E+03 -0.34230001571E+02  0.55601734434E+03  0.10100000352E+00 0. -1.
</event>
<event>
 5   0  0.7712816E-03  0.1030502E+04  0.7818609E-02  0.9275709E-01
        2   -1    0    0  501    0  0.00000000000E+00  0.00000000000E+00  0.94007362981E+03  0.94007362981E+03  0.25500000920E-02 0. -1.
       -2   -1    0    0    0  501  0.00000000000E+00  0.00000000000E+00 -0.28240734469E+03  0.28240734470E+03  0.25500000920E-02 0.  1.
    10030    2    1    2    0    0  0.00000000000E+00  0.00000000000E+00  0.65766628512E+03  0.12224809745E+04  0.10305022030E+04 0.  0.
        2    1    3    3  502    0 -0.29162096228E+03  0.21339710349E+03 -0.10688267414E+03  0.37683552839E+03  0.25500000920E-02 0.  1.
       -2    1    3    3    0  502  0.29162096228E+03 -0.21339710349E+03  0.76454895927E+03  0.84564544612E+03  0.25500000920E-02 0. -1.
</event>
<event>
 5   0  0.7537480E-03  0.1159962E+04  0.7818609E-02  0.9148643E-01
        2   -1    0    0  501    0  0.00000000000E+00  0.00000000000E+00  0.91011169789E+03  0.91011169789E+03  0.25500000920E-02 0.  1.
       -2   -1    0    0    0  501  0.00000000000E+00  0.00000000000E+00 -0.36960042981E+03  0.36960042982E+03  0.25500000920E-02 0. -1.
    10030    2    1    2    0    0  0.00000000000E+00  0.00000000000E+00  0.54051126808E+03  0.12797121277E+04  0.11599615075E+04 0.  0.
        1    1    3    3  502    0  0.19547664984E+03 -0.27877354532E+03  0.78825066799E+03  0.85864132547E+03  0.50400001928E-02 0.  1.
       -1    1    3    3    0  502 -0.19547664984E+03  0.27877354532E+03 -0.24773939991E+03  0.42107080223E+03  0.50400001928E-02 0. -1.
</event>
<event>
 5   0  0.4298101E-03  0.1101153E+04  0.7818609E-02  0.9204069E-01
       -1   -1    0    0    0  501  0.00000000000E+00  0.00000000000E+00  0.31334999480E+03  0.31334999484E+03  0.50400001928E-02 0. -1.
        1   -1    0    0  501    0  0.00000000000E+00  0.00000000000E+00 -0.96739849456E+03  0.96739849457E+03  0.50400001928E-02 0.  1.
    10030    2    1    2    0    0  0.00000000000E+00  0.00000000000E+00 -0.65404849975E+03  0.12807484894E+04  0.11011526929E+04 0.  0.
        3    1    3    3  502    0 -0.30128035367E+03 -0.43956722890E+03 -0.48795726907E+03  0.72255899888E+03  0.10100000352E+00 0.  1.
       -3    1    3    3    0  502  0.30128035367E+03  0.43956722890E+03 -0.16609123068E+03  0.55818949053E+03  0.10100000352E+00 0. -1.
</event>
<event>
 5   0  0.7537480E-03  0.1180795E+04  0.7818609E-02  0.9129835E-01
       -2   -1    0    0    0  501  0.00000000000E+00  0.00000000000E+00  0.37348526762E+03  0.37348526763E+03  0.25500000920E-02 0.  1.
        2   -1    0    0  501    0  0.00000000000E+00  0.00000000000E+00 -0.93328731868E+03  0.93328731868E+03  0.25500000920E-02 0. -1.
    10030    2    1    2    0    0  0.00000000000E+00  0.00000000000E+00 -0.55980205106E+03  0.13067725863E+04  0.11807947561E+04 0.  0.
        1    1    3    3  502    0 -0.28413420396E+03  0.46408880466E+03 -0.53337484992E+03  0.76197073108E+03  0.50400001928E-02 0. -1.
       -1    1    3    3    0  502  0.28413420396E+03 -0.46408880466E+03 -0.26427201135E+02  0.54480185523E+03  0.50400001928E-02 0.  1.
</event>
<event>
 5   0  0.7537480E-03  0.1112435E+04  0.7818609E-02  0.9193156E-01
       -2   -1    0    0    0  501  0.00000000000E+00  0.00000000000E+00  0.21326809804E+03  0.21326809805E+03  0.25500000920E-02 0.  1.
        2   -1    0    0  501    0  0.00000000000E+00  0.00000000000E+00 -0.14506520287E+04  0.14506520287E+04  0.25500000920E-02 0. -1.
    10030    2    1    2    0    0  0.00000000000E+00  0.00000000000E+00 -0.12373839306E+04  0.16639201267E+04  0.11124348054E+04 0.  0.
        1    1    3    3  502    0  0.23170900651E+02 -0.35657777075E+03  0.18877112622E+02  0.35782809089E+03  0.50400001928E-02 0.  1.
       -1    1    3    3    0  502 -0.23170900651E+02  0.35657777075E+03 -0.12562610432E+04  0.13060920358E+04  0.50400001928E-02 0. -1.
</event>
<event>
 5   0  0.7766551E-03  0.1070963E+04  0.7818609E-02  0.9233964E-01
       -2   -1    0    0    0  501  0.00000000000E+00  0.00000000000E+00  0.74025649583E+03  0.74025649583E+03  0.25500000920E-02 0. -1.
        2   -1    0    0  501    0  0.00000000000E+00  0.00000000000E+00 -0.38735308708E+03  0.38735308709E+03  0.25500000920E-02 0.  1.
    10030    2    1    2    0    0  0.00000000000E+00  0.00000000000E+00  0.35290340875E+03  0.11276095829E+04  0.10709633773E+04 0.  0.
        5    1    3    3  502    0 -0.11498127012E+03 -0.29861690862E+03 -0.27558864284E+03  0.42233155299E+03  0.46999998093E+01 0.  1.
       -5    1    3    3    0  502  0.11498127012E+03  0.29861690862E+03  0.62849205159E+03  0.70527802993E+03  0.46999998093E+01 0. -1.
</event>
<event>
 5   0  0.7952121E-03  0.1093207E+04  0.7818609E-02  0.9211838E-01
        2   -1    0    0  501    0  0.00000000000E+00  0.00000000000E+00  0.18072125570E+04  0.18072125570E+04  0.25500000920E-02 0. -1.
       -2   -1    0    0    0  501  0.00000000000E+00  0.00000000000E+00 -0.16532388870E+03  0.16532388872E+03  0.25500000920E-02 0.  1.
    10030    2    1    2    0    0  0.00000000000E+00  0.00000000000E+00  0.16418886683E+04  0.19725364458E+04  0.10932070392E+04 0.  0.
        3    1    3    3  502    0  0.31171416529E+03 -0.27857646480E+03  0.18555207855E+03  0.45738403081E+03  0.10100000352E+00 0.  1.
       -3    1    3    3    0  502 -0.31171416529E+03  0.27857646480E+03  0.14563365898E+04  0.15151524150E+04  0.10100000352E+00 0. -1.
</event>
<event>
 5   0  0.4641021E-03  0.1122247E+04  0.7818609E-02  0.9183776E-01
        1   -1    0    0  501    0  0.00000000000E+00  0.00000000000E+00  0.38029373076E+03  0.38029373079E+03  0.50400001928E-02 0.  1.
       -1   -1    0    0    0  501  0.00000000000E+00  0.00000000000E+00 -0.82793814946E+03  0.82793814947E+03  0.50400001928E-02 0. -1.
    10030    2    1    2    0    0  0.00000000000E+00  0.00000000000E+00 -0.44764441870E+03  0.12082318803E+04  0.11222471880E+04 0.  0.
        1    1    3    3  502    0 -0.25391655620E+03  0.43155110453E+03  0.48861459377E+02  0.50308788056E+03  0.50400001928E-02 0. -1.
       -1    1    3    3    0  502  0.25391655620E+03 -0.43155110453E+03 -0.49650587807E+03  0.70514399970E+03  0.50400001928E-02 0.  1.
</event>
<event>
 5   0  0.4641021E-03  0.9293773E+03  0.7818609E-02  0.9389586E-01
       -1   -1    0    0    0  501  0.00000000000E+00  0.00000000000E+00  0.56776757953E+03  0.56776757956E+03  0.50400001928E-02 0. -1.
        1   -1    0    0  501    0  0.00000000000E+00  0.00000000000E+00 -0.38032382508E+03  0.38032382511E+03  0.50400001928E-02 0.  1.
    10030    2    1    2    0    0  0.00000000000E+00  0.00000000000E+00  0.18744375446E+03  0.94809140467E+03  0.92937729180E+03 0.  0.
        1    1    3    3  502    0 -0.12038797721E+03  0.39906294740E+03  0.30326250958E+03  0.51547322994E+03  0.50400001928E-02 0. -1.
       -1    1    3    3    0  502  0.12038797721E+03 -0.39906294740E+03 -0.11581875512E+03  0.43261817473E+03  0.50400001928E-02 0.  1.
</event>
<event>
 5   0  0.4641021E-03  0.1111303E+04  0.7818609E-02  0.9194245E-01
        1   -1    0    0  501    0  0.00000000000E+00  0.00000000000E+00  0.66344779207E+03  0.66344779209E+03  0.50400001928E-02 0. -1.
       -1   -1    0    0    0  501  0.00000000000E+00  0.00000000000E+00 -0.46536971646E+03  0.46536971648E+03  0.50400001928E-02 0.  1.
    10030    2    1    2    0    0  0.00000000000E+00  0.00000000000E+00  0.19807807561E+03  0.11288175086E+04  0.11113028586E+04 0.  0.
        1    1    3    3  502    0 -0.36632465675E+03  0.32684866839E+03  0.36338024286E+03  0.61079375169E+03  0.50400001928E-02 0. -1.
       -1    1    3    3    0  502  0.36632465675E+03 -0.32684866839E+03 -0.16530216725E+03  0.51802375688E+03  0.50400001928E-02 0.  1.
</event>
<event>
 5   0  0.7766551E-03  0.1096429E+04  0.7818609E-02  0.9208679E-01
        2   -1    0    0  501    0  0.00000000000E+00  0.00000000000E+00  0.36801982464E+03  0.36801982464E+03  0.25500000920E-02 0. -1.
       -2   -1    0    0    0  501  0.00000000000E+00  0.00000000000E+00 -0.81663881048E+03  0.81663881049E+03  0.25500000920E-02 0.  1.
    10030    2    1    2    0    0  0.00000000000E+00  0.00000000000E+00 -0.44861898585E+03  0.11846586351E+04  0.10964292441E+04 0.  0.
        5    1    3    3  502    0  0.23237545757E+02  0.22805898317E+03 -0.76234252969E+03  0.79607732408E+03  0.46999998093E+01 0.  1.
       -5    1    3    3    0  502 -0.23237545757E+02 -0.22805898317E+03  0.31372354385E+03  0.38858131105E+03  0.46999998093E+01 0. -1.
</event>
<event>
 5   0  0.7537480E-03  0.1123679E+04  0.7818609E-02  0.9182415E-01
        2   -1    0    0  501    0  0.00000000000E+00  0.00000000000E+00  0.15792496780E+04  0.15792496780E+04  0.25500000920E-02 0. -1.
       -2   -1    0    0    0  501  0.00000000000E+00  0.00000000000E+00 -0.19988208405E+03  0.19988208407E+03  0.25500000920E-02 0.  1.
    10030    2    1    2    0    0  0.00000000000E+00  0.00000000000E+00  0.13793675939E+04  0.17791317621E+04  0.11236791658E+04 0.  0.
        1    1    3    3  502    0 -0.21852939652E+03 -0.51709535165E+03  0.65354349804E+03  0.86154617038E+03  0.50400001928E-02 0. -1.
       -1    1    3    3    0  502  0.21852939652E+03  0.51709535165E+03  0.72582409590E+03  0.91758559168E+03  0.50400001928E-02 0.  1.
</event>
<event>
 5   0  0.4504740E-03  0.1117248E+04  0.7818609E-02  0.9188542E-01
        1   -1    0    0  501    0  0.00000000000E+00  0.00000000000E+00  0.28194900437E+03  0.28194900441E+03  0.50400001928E-02 0.  1.
       -1   -1    0    0    0  501  0.00000000000E+00  0.00000000000E+00 -0.11067987531E+04  0.11067987531E+04  0.50400001928E-02 0. -1.
    10030    2    1    2    0    0  0.00000000000E+00  0.00000000000E+00 -0.82484974873E+03  0.13887477575E+04  0.11172480593E+04 0.  0.
        5    1    3    3  502    0  0.37707995474E+03 -0.24545822023E+03 -0.82393300208E+03  0.93879002555E+03  0.46999998093E+01 0. -1.
       -5    1    3    3    0  502 -0.37707995474E+03  0.24545822023E+03 -0.91674664381E+00  0.44995773198E+03  0.46999998093E+01 0.  1.
</event>
<event>
 5   0  0.4298101E-03  0.1102919E+04  0.7818609E-02  0.9202352E-01
        1   -1    0    0  501    0  0.00000000000E+00  0.00000000000E+00  0.12303568548E+04  0.12303568548E+04  0.50400001928E-02 0. -1.
       -1   -1    0    0    0  501  0.00000000000E+00  0.00000000000E+00 -0.24717006465E+03  0.24717006470E+03  0.50400001928E-02 0.  1.
    10030    2    1    2    0    0  0.00000000000E+00  0.00000000000E+00  0.98318679016E+03  0.14775269195E+04  0.11029186432E+04 0.  0.
        3    1    3    3  502    0  0.35303525168E+03  0.41683093099E+03  0.59296051049E+03  0.80621590852E+03  0.10100000352E+00 0. -1.
       -3    1    3    3    0  502 -0.35303525168E+03 -0.41683093099E+03  0.39022627968E+03  0.67131101101E+03  0.10100000352E+00 0.  1.
</event>
<event>
 5   0  0.7537480E-03  0.1077759E+04  0.7818609E-02  0.9227145E-01
        2   -1    0    0  501    0  0.00000000000E+00  0.00000000000E+00  0.84909840742E+03  0.84909840743E+03  0.25500000920E-02 0.  1.
       -2   -1    0    0    0  501  0.00000000000E+00  0.00000000000E+00 -0.34199916856E+03  0.34199916857E+03  0.25500000920E-02 0. -1.
    10030    2    1    2    0    0  0.00000000000E+00  0.00000000000E+00  0.50709923886E+03  0.11910975760E+04  0.10777586917E+04 0.  0.
        1    1    3    3  502    0  0.38107583783E+03 -0.37587458955E+03  0.32248237192E+03  0.62489629657E+03  0.50400001928E-02 0.  1.
       -1    1    3    3    0  502 -0.38107583783E+03  0.37587458955E+03  0.18461686695E+03  0.56620127943E+03  0.50400001928E-02 0. -1.
</event>
<event>
 5   0  0.4641021E-03  0.1096788E+04  0.7818609E-02  0.9208328E-01
        1   -1    0    0  501    0  0.00000000000E+00  0.00000000000E+00  0.67878793494E+03  0.67878793496E+03  0.50400001928E-02 0.  1.
       -1   -1    0    0    0  501  0.00000000000E+00  0.00000000000E+00 -0.44304850796E+03  0.44304850799E+03  0.50400001928E-02 0. -1.
    10030    2    1    2    0    0  0.00000000000E+00  0.00000000000E+00  0.23573942698E+03  0.11218364429E+04  0.10967880047E+04 0.  0.
        1    1    3    3  502    0 -0.84653497055E+02 -0.46372091300E+03 -0.16876716581E+03  0.50068518652E+03  0.50400001928E-02 0. -1.
       -1    1    3    3    0  502  0.84653497055E+02  0.46372091300E+03  0.40450659279E+03  0.62115125642E+03  0.50400001928E-02 0.  1.
</event>
<event>
 5   0  0.4598561E-03  0.1147348E+04  0.7818609E-02  0.9160234E-01
        1   -1    0    0  501    0  0.00000000000E+00  0.00000000000E+00  0.51651525524E+03  0.51651525526E+03  0.50400001928E-02 0.  1.
       -1   -1    0    0    0  501  0.00000000000E+00  0.00000000000E+00 -0.63715814327E+03  0.63715814329E+03  0.50400001928E-02 0. -1.
    10030    2    1    2    0    0  0.00000000000E+00  0.00000000000E+00 -0.12064288803E+03  0.11536733986E+04  0.11473480745E+04 0.  0.
        2    1    3    3  502    0  0.53478253501E+03 -0.20534212077E+03 -0.29424945127E+02  0.57360576506E+03  0.25500000920E-02 0. -1.
       -2    1    3    3    0  502 -0.53478253501E+03  0.20534212077E+03 -0.91217942908E+02  0.58006763349E+03  0.25500000920E-02 0.  1.
</event>
<event>
 5   0  0.4428114E-03  0.1206755E+04  0.7818609E-02  0.9106964E-01
       -1   -1    0    0    0  501  0.00000000000E+00  0.00000000000E+00  0.45302890202E+03  0.45302890205E+03  0.50400001928E-02 0. -1.
        1   -1    0    0  501    0  0.00000000000E+00  0.00000000000E+00 -0.80362303644E+03  0.80362303645E+03  0.50400001928E-02 0.  1.
    10030    2    1    2    0    0  0.00000000000E+00  0.00000000000E+00 -0.35059413441E+03  0.12566519385E+04  0.12067550901E+04 0.  0.
        4    1    3    3  502    0 -0.54382243310E+03  0.11975615208E+03 -0.41723622726E+03  0.69582473148E+03  0.12699999809E+01 0.  1.
       -4    1    3    3    0  502  0.54382243310E+03 -0.11975615208E+03  0.66642092843E+02  0.56082720703E+03  0.12699999809E+01 0. -1.
</event>
<event>
 5   0  0.4598561E-03  0.1095603E+04  0.7818609E-02  0.9209488E-01
       -1   -1    0    0    0  501  0.00000000000E+00  0.00000000000E+00  0.60063174579E+03  0.60063174581E+03  0.50400001928E-02 0.  1.
        1   -1    0    0  501    0  0.00000000000E+00  0.00000000000E+00 -0.49961804716E+03  0.49961804719E+03  0.50400001928E-02 0. -1.
    10030    2    1    2    0    0  0.00000000000E+00  0.00000000000E+00  0.10101369862E+03  0.11002497930E+04  0.10956029571E+04 0.  0.
        2    1    3    3  502    0  0.37912745563E+02 -0.25199964078E+03 -0.43646764856E+03  0.50541587181E+03  0.25500000920E-02 0. -1.
       -2    1    3    3    0  502 -0.37912745563E+02  0.25199964078E+03  0.53748134718E+03  0.59483392119E+03  0.25500000920E-02 0.  1.
</event>
<event>
 5   0  0.4641021E-03  0.1101870E+04  0.7818609E-02  0.9203371E-01
       -1   -1    0    0    0  501  0.00000000000E+00  0.00000000000E+00  0.20416365838E+03  0.20416365844E+03  0.50400001928E-02 0. -1.
        1   -1    0    0  501    0  0.00000000000E+00  0.00000000000E+00 -0.14866973762E+04  0.14866973763E+04  0.50400001928E-02 0.  1.
    10030    2    1    2    0    0  0.00000000000E+00  0.00000000000E+00 -0.12825337179E+04  0.16908610347E+04  0.11018703650E+04 0.  0.
        1    1    3    3  502    0  0.16441729185E+03  0.19364651271E+03 -0.13914618232E+04  0.14144603294E+04  0.50400001928E-02 0.  1.
       -1    1    3    3    0  502 -0.16441729185E+03 -0.19364651271E+03  0.10892810538E+03  0.27640070534E+03  0.50400001928E-02 0. -1.
</event>
<event>
 5   0  0.4298101E-03  0.1113247E+04  0.7818609E-02  0.9192376E-01
       -1   -1    0    0    0  501  0.00000000000E+00  0.00000000000E+00  0.16335244988E+03  0.16335244996E+03  0.50400001928E-02 0. -1.
        1   -1    0    0  501    0  0.00000000000E+00  0.00000000000E+00 -0.18966939746E+04  0.18966939746E+04  0.50400001928E-02 0.  1.
    10030    2    1    2    0    0  0.00000000000E+00  0.00000000000E+00 -0.17333415247E+04  0.20600464246E+04  0.11132467966E+04 0.  0.
        3    1    3    3  502    0  0.37874173059E+03  0.38771526942E+03 -0.11011876518E+04  0.12273478249E+04  0.10100000352E+00 0.  1.
       -3    1    3    3    0  502 -0.37874173059E+03 -0.38771526942E+03 -0.63215387292E+03  0.83269859966E+03  0.10100000352E+00 0. -1.
</event>
<event>
 5   0  0.4428114E-03  0.1135385E+04  0.7818609E-02  0.9171374E-01
        1   -1    0    0  501    0  0.00000000000E+00  0.00000000000E+00  0.14236148505E+04  0.14236148505E+04  0.50400001928E-02 0. -1.
       -1   -1    0    0    0  501  0.00000000000E+00  0.00000000000E+00 -0.22637764419E+03  0.22637764425E+03  0.50400001928E-02 0.  1.
    10030    2    1    2    0    0  0.00000000000E+00  0.00000000000E+00  0.11972372063E+04  0.16499924948E+04  0.11353846505E+04 0.  0.
        4    1    3    3  502    0 -0.27228844580E+03  0.30042465408E+03  0.11760473124E+04  0.12439794469E+04  0.12699999809E+01 0. -1.
       -4    1    3    3    0  502  0.27228844580E+03 -0.30042465408E+03  0.21189893901E+02  0.40601304781E+03  0.12699999809E+01 0.  1.
</event>
<event>
 5   0  0.7952121E-03  0.1112839E+04  0.7818609E-02  0.9192768E-01
        2   -1    0    0  501    0  0.00000000000E+00  0.00000000000E+00  0.26907009647E+04  0.26907009647E+04  0.25500000920E-02 0.  1.
       -2   -1    0    0    0  501  0.00000000000E+00  0.00000000000E+00 -0.11506389131E+03  0.11506389134E+03  0.25500000920E-02 0. -1.
    10030    2    1    2    0    0  0.00000000000E+00  0.00000000000E+00  0.25756370734E+04  0.28057648561E+04  0.11128387545E+04 0.  0.
        3    1    3    3  502    0  0.19135988435E+03  0.33206000111E+03  0.27077491116E+03  0.46925633974E+03  0.10100000352E+00 0. -1.
       -3    1    3    3    0  502 -0.19135988435E+03 -0.33206000111E+03  0.23048621622E+04  0.23365085163E+04  0.10100000352E+00 0.  1.
</event>
<event>
 5   0  0.4598561E-03  0.1093403E+04  0.7818609E-02  0.9211646E-01
       -1   -1    0    0    0  501  0.00000000000E+00  0.00000000000E+00  0.57096505943E+03  0.57096505945E+03  0.50400001928E-02 0.  1.
        1   -1    0    0  501    0  0.00000000000E+00  0.00000000000E+00 -0.52346867416E+03  0.52346867418E+03  0.50400001928E-02 0. -1.
    10030    2    1    2    0    0  0.00000000000E+00  0.00000000000E+00  0.47496385271E+02  0.10944337336E+04  0.10934026206E+04 0.  0.
        2    1    3    3  502    0  0.10827049477E+03 -0.28873470408E+03  0.47560728487E+03  0.56682670967E+03  0.25500000920E-02 0.  1.
       -2    1    3    3    0  502 -0.10827049477E+03  0.28873470408E+03 -0.42811089959E+03  0.52760702396E+03  0.25500000920E-02 0. -1.
</event>
<event>
 5   0  0.4298101E-03  0.1088598E+04  0.7818609E-02  0.9216377E-01
        1   -1    0    0  501    0  0.00000000000E+00  0.00000000000E+00  0.50755365179E+03  0.50755365181E+03  0.50400001928E-02 0.  1.
       -1   -1    0    0    0  501  0.00000000000E+00  0.00000000000E+00 -0.58370471738E+03  0.58370471740E+03  0.50400001928E-02 0. -1.
    10030    2    1    2    0    0  0.00000000000E+00  0.00000000000E+00 -0.76151065594E+02  0.10912583692E+04  0.10885981093E+04 0.  0.
        3    1    3    3  502    0 -0.10139137029E+03  0.34440961985E+03 -0.44817581485E+03  0.57424713097E+03  0.10100000352E+00 0. -1.
       -3    1    3    3    0  502  0.10139137029E+03 -0.34440961985E+03  0.37202474926E+03  0.51701123825E+03  0.10100000352E+00 0.  1.
</event>
<event>
 5   0  0.4598561E-03  0.1096942E+04  0.7818609E-02  0.9208177E-01
        1   -1    0    0  501    0  0.00000000000E+00  0.00000000000E+00  0.10433116735E+04  0.10433116735E+04  0.50400001928E-02 0.  1.
       -1   -1    0    0    0  501  0.00000000000E+00  0.00000000000E+00 -0.28833234953E+03  0.28833234958E+03  0.50400001928E-02 0. -1.
    10030    2    1    2    0    0  0.00000000000E+00  0.00000000000E+00  0.75497932392E+03  0.13316440230E+04  0.10969421245E+04 0.  0.
        2    1    3    3  502    0 -0.24313847402E+03  0.48547698582E+03  0.47165013332E+03  0.71920655557E+03  0.25500000920E-02 0. -1.
       -2    1    3    3    0  502  0.24313847402E+03 -0.48547698582E+03  0.28332919060E+03  0.61243746747E+03  0.25500000920E-02 0.  1.
</event>
<event>
 5   0  0.7537480E-03  0.1117103E+04  0.7818609E-02  0.9188680E-01
       -2   -1    0    0    0  501  0.00000000000E+00  0.00000000000E+00  0.27543722840E+03  0.27543722842E+03  0.25500000920E-02 0. -1.
        2   -1    0    0  501    0  0.00000000000E+00  0.00000000000E+00 -0.11326717437E+04  0.11326717437E+04  0.25500000920E-02 0.  1.
    10030    2    1    2    0    0  0.00000000000E+00  0.00000000000E+00 -0.85723451528E+03  0.14081089721E+04  0.11171033359E+04 0.  0.
        1    1    3    3  502    0  0.50190667438E+03 -0.14168105280E+03 -0.17652939785E+03  0.55058737621E+03  0.50400001928E-02 0. -1.
       -1    1    3    3    0  502 -0.50190667438E+03  0.14168105280E+03 -0.68070511743E+03  0.85752159590E+03  0.50400001928E-02 0.  1.
</event>
<event>
 5   0  0.4641021E-03  0.1088714E+04  0.7818609E-02  0.9216263E-01
       -1   -1    0    0    0  501  0.00000000000E+00  0.00000000000E+00  0.37028316141E+03  0.37028316145E+03  0.50400001928E-02 0.  1.
        1   -1    0    0  501    0  0.00000000000E+00  0.00000000000E+00 -0.80026415186E+03  0.80026415188E+03  0.50400001928E-02 0. -1.
    10030    2    1    2    0    0  0.00000000000E+00  0.00000000000E+00 -0.42998099045E+03  0.11705473133E+04  0.10887136265E+04 0.  0.
        1    1    3    3  502    0 -0.19119639993E+03  0.49013601812E+03 -0.36526371186E+03  0.64047401105E+03  0.50400001928E-02 0. -1.
       -1    1    3    3    0  502  0.19119639993E+03 -0.49013601812E+03 -0.64717278591E+02  0.53007330227E+03  0.50400001928E-02 0.  1.
</event>
<event>
 5   0  0.7712816E-03  0.1140593E+04  0.7818609E-02  0.9166506E-01
        2   -1    0    0  501    0  0.00000000000E+00  0.00000000000E+00  0.11077679854E+04  0.11077679854E+04  0.25500000920E-02 0. -1.
       -2   -1    0    0    0  501  0.00000000000E+00  0.00000000000E+00 -0.29359787259E+03  0.29359787260E+03  0.25500000920E-02 0.  1.
    10030    2    1    2    0    0  0.00000000000E+00  0.00000000000E+00  0.81417011279E+03  0.14013658580E+04  0.11405933962E+04 0.  0.
        2    1    3    3  502    0  0.43982109314E+03  0.34824414961E+03  0.53311231998E+03  0.77390266018E+03  0.25500000920E-02 0. -1.
       -2    1    3    3    0  502 -0.43982109314E+03 -0.34824414961E+03  0.28105779281E+03  0.62746319781E+03  0.25500000920E-02 0.  1.
</event>
<event>
 5   0  0.4504740E-03  0.1089088E+04  0.7818609E-02  0.9215893E-01
       -1   -1    0    0    0  501  0.00000000000E+00  0.00000000000E+00  0.72864176478E+03  0.72864176480E+03  0.50400001928E-02 0.  1.
        1   -1    0    0  501    0  0.00000000000E+00  0.00000000000E+00 -0.40696043320E+03  0.40696043323E+03  0.50400001928E-02 0. -1.
    10030    2    1    2    0    0  0.00000000000E+00  0.00000000000E+00  0.32168133158E+03  0.11356021980E+04  0.10890883679E+04 0.  0.
        5    1    3    3  502    0  0.12910573580E+03  0.45774554809E+03 -0.11563848690E+03  0.48948302060E+03  0.46999998093E+01 0. -1.
       -5    1    3    3    0  502 -0.12910573580E+03 -0.45774554809E+03  0.43731981847E+03  0.64611917743E+03  0.46999998093E+01 0.  1.
</event>
<event>
 5   0  0.4428114E-03  0.1099890E+04  0.7818609E-02  0.9205299E-01
       -1   -1    0    0    0  501  0.00000000000E+00  0.00000000000E+00  0.74451337653E+03  0.74451337654E+03  0.50400001928E-02 0.  1.
        1   -1    0    0  501    0  0.00000000000E+00  0.00000000000E+00 -0.40622428913E+03  0.40622428917E+03  0.50400001928E-02 0. -1.
    10030    2    1    2    0    0  0.00000000000E+00  0.00000000000E+00  0.33828908739E+03  0.11507376657E+04  0.10998898439E+04 0.  0.
        4    1    3    3  502    0  0.27434055050E+03  0.43160897401E+03 -0.42413288232E+02  0.51317593866E+03  0.12699999809E+01 0. -1.
       -4    1    3    3    0  502 -0.27434055050E+03 -0.43160897401E+03  0.38070237562E+03  0.63756172705E+03  0.12699999809E+01 0.  1.
</event>
<event>
 5   0  0.4298101E-03  0.1109816E+04  0.7818609E-02  0.9195677E-01
        1   -1    0    0  501    0  0.00000000000E+00  0.00000000000E+00  0.56867507174E+03  0.56867507176E+03  0.50400001928E-02 0.  1.
       -1   -1    0    0    0  501  0.00000000000E+00  0.00000000000E+00 -0.54147434232E+03  0.54147434235E+03  0.50400001928E-02 0. -1.
    10030    2    1    2    0    0  0.00000000000E+00  0.00000000000E+00  0.27200729418E+02  0.11101494141E+04  0.11098161298E+04 0.  0.
        3    1    3    3  502    0 -0.52099639728E+03  0.85961597762E+02  0.18422798917E+03  0.55925540182E+03  0.10100000352E+00 0.  1.
       -3    1    3    3    0  502  0.52099639728E+03 -0.85961597762E+02 -0.15702725975E+03  0.55089401229E+03  0.10100000352E+00 0. -1.
</event>
<event>
 5   0  0.2992375E-03  0.1112636E+04  0.7818609E-02  0.9192963E-01
       -3   -1    0    0    0  501  0.00000000000E+00  0.00000000000E+00  0.84632954477E+03  0.84632955080E+03  0.10100000352E+00 0.  1.
        3   -1    0    0  501    0  0.00000000000E+00  0.00000000000E+00 -0.36568470491E+03  0.36568471885E+03  0.10100000352E+00 0. -1.
    10030    2    1    2    0    0  0.00000000000E+00  0.00000000000E+00  0.48064483986E+03  0.12120142697E+04  0.11126361165E+04 0.  0.
        1    1    3    3  502    0  0.43793923609E+03 -0.33766467481E+03  0.17422699587E+03  0.57979587205E+03  0.50400001928E-02 0. -1.
       -1    1    3    3    0  502 -0.43793923609E+03  0.33766467481E+03  0.30641784400E+03  0.63221839761E+03  0.50400001928E-02 0.  1.
</event>
<event>
 5   0  0.7952121E-03  0.1109521E+04  0.7818609E-02  0.9195961E-01
        2   -1    0    0  501    0  0.00000000000E+00  0.00000000000E+00  0.18738368983E+04  0.18738368983E+04  0.25500000920E-02 0. -1.
       -2   -1    0    0    0  501  0.00000000000E+00  0.00000000000E+00 -0.16424013760E+03  0.16424013762E+03  0.25500000920E-02 0.  1.
    10030    2    1    2    0    0  0.00000000000E+00  0.00000000000E+00  0.17095967607E+04  0.20380770359E+04  0.11095210319E+04 0.  0.
        3    1    3    3  502    0  0.16422574648E+03 -0.24329226535E+02  0.18271357159E+04  0.18346626233E+04  0.10100000352E+00 0. -1.
       -3    1    3    3    0  502 -0.16422574648E+03  0.24329226535E+02 -0.11753895515E+03  0.20341441259E+03  0.10100000352E+00 0.  1.
</event>
<event>
 5   0  0.7738497E-03  0.1098017E+04  0.7818609E-02  0.9207126E-01
        2   -1    0    0  501    0  0.00000000000E+00  0.00000000000E+00  0.48257282140E+03  0.48257282141E+03  0.25500000920E-02 0. -1.
       -2   -1    0    0    0  501  0.00000000000E+00  0.00000000000E+00 -0.62459081483E+03  0.62459081484E+03  0.25500000920E-02 0.  1.
    10030    2    1    2    0    0  0.00000000000E+00  0.00000000000E+00 -0.14201799343E+03  0.11071636362E+04  0.10980173983E+04 0.  0.
        4    1    3    3  502    0 -0.21766069715E+03 -0.99035302803E+02  0.42729852772E+03  0.48966296059E+03  0.12699999809E+01 0. -1.
       -4    1    3    3    0  502  0.21766069715E+03  0.99035302803E+02 -0.56931652114E+03  0.61750067565E+03  0.12699999809E+01 0.  1.
</event>
<event>
 5   0  0.4428114E-03  0.1189844E+04  0.7818609E-02  0.9121793E-01
       -1   -1    0    0    0  501  0.00000000000E+00  0.00000000000E+00  0.68004702139E+03  0.68004702141E+03  0.50400001928E-02 0. -1.
        1   -1    0    0  501    0  0.00000000000E+00  0.00000000000E+00 -0.52045257173E+03  0.52045257175E+03  0.50400001928E-02 0.  1.
    10030    2    1    2    0    0  0.00000000000E+00  0.00000000000E+00  0.15959444967E+03  0.12004995932E+04  0.11898440590E+04 0.  0.
        4    1    3    3  502    0  0.33983278950E+03 -0.25740754500E+03  0.49846586745E+03  0.65590761770E+03  0.12699999809E+01 0. -1.
       -4    1    3    3    0  502 -0.33983278950E+03  0.25740754500E+03 -0.33887141779E+03  0.54459197546E+03  0.12699999809E+01 0.  1.
</event>
<event>
 5   0  0.4504740E-03  0.1095953E+04  0.7818609E-02  0.9209145E-01
       -1   -1    0    0    0  501  0.00000000000E+00  0.00000000000E+00  0.11642637583E+04  0.11642637584E+04  0.50400001928E-02 0.  1.
        1   -1    0    0  501    0  0.00000000000E+00  0.00000000000E+00 -0.25791249246E+03  0.25791249251E+03  0.50400001928E-02 0. -1.
    10030    2    1    2    0    0  0.00000000000E+00  0.00000000000E+00  0.90635126589E+03  0.14221762509E+04  0.10959528600E+04 0.  0.
        5    1    3    3  502    0 -0.45424067499E+03  0.76107728452E+02  0.67944642844E+02  0.46558086476E+03  0.46999998093E+01 0. -1.
       -5    1    3    3    0  502  0.45424067499E+03 -0.76107728452E+02  0.83840662304E+03  0.95659538610E+03  0.46999998093E+01 0.  1.
</event>
<event>
 5   0  0.7952121E-03  0.1086568E+04  0.7818609E-02  0.9218384E-01
        2   -1    0    0  501    0  0.00000000000E+00  0.00000000000E+00  0.43745739505E+03  0.43745739506E+03  0.25500000920E-02 0.  1.
       -2   -1    0    0    0  501  0.00000000000E+00  0.00000000000E+00 -0.67471105004E+03  0.67471105004E+03  0.25500000920E-02 0. -1.
    10030    2    1    2    0    0  0.00000000000E+00  0.00000000000E+00 -0.23725365499E+03  0.11121684451E+04  0.10865676939E+04 0.  0.
        3    1    3    3  502    0  0.22231023709E+03  0.78668579679E+02  0.38233993655E+03  0.44921534282E+03  0.10100000352E+00 0.  1.
       -3    1    3    3    0  502 -0.22231023709E+03 -0.78668579679E+02 -0.61959359154E+03  0.66295310228E+03  0.10100000352E+00 0. -1.
</event>
<event>
 5   0  0.4428114E-03  0.1080278E+04  0.7818609E-02  0.9224630E-01
        1   -1    0    0  501    0  0.00000000000E+00  0.00000000000E+00  0.29043977003E+03  0.29043977008E+03  0.50400001928E-02 0.  1.
       -1   -1    0    0    0  501  0.00000000000E+00  0.00000000000E+00 -0.10045118672E+04  0.10045118672E+04  0.50400001928E-02 0. -1.
    10030    2    1    2    0    0  0.00000000000E+00  0.00000000000E+00 -0.71407209717E+03  0.12949516373E+04  0.10802781045E+04 0.  0.
        4    1    3    3  502    0  0.31746113300E+03  0.42249807164E+03 -0.49085532208E+03  0.72126746191E+03  0.12699999809E+01 0. -1.
       -4    1    3    3    0  502 -0.31746113300E+03 -0.42249807164E+03 -0.22321677509E+03  0.57368417538E+03  0.12699999809E+01 0.  1.
</event>
<event>
 5   0  0.7952121E-03  0.1150249E+04  0.7818609E-02  0.9157554E-01
        2   -1    0    0  501    0  0.00000000000E+00  0.00000000000E+00  0.64859665187E+03  0.64859665187E+03  0.25500000920E-02 0. -1.
       -2   -1    0    0    0  501  0.00000000000E+00  0.00000000000E+00 -0.50997474555E+03  0.50997474555E+03  0.25500000920E-02 0.  1.
    10030    2    1    2    0    0  0.00000000000E+00  0.00000000000E+00  0.13862190632E+03  0.11585713974E+04  0.11502485166E+04 0.  0.
        3    1    3    3  502    0 -0.30858097457E+03 -0.21822643633E+03  0.50594840270E+03  0.63152893185E+03  0.10100000352E+00 0. -1.
       -3    1    3    3    0  502  0.30858097457E+03  0.21822643633E+03 -0.36732649638E+03  0.52704246557E+03  0.10100000352E+00 0.  1.
</event>
<event>
 5   0  0.4504740E-03  0.1096124E+04  0.7818609E-02  0.9208978E-01
       -1   -1    0    0    0  501  0.00000000000E+00  0.00000000000E+00  0.25605376367E+03  0.25605376372E+03  0.50400001928E-02 0. -1.
        1   -1    0    0  501    0  0.00000000000E+00  0.00000000000E+00 -0.11730819400E+04  0.11730819400E+04  0.50400001928E-02 0.  1.
    10030    2    1    2    0    0  0.00000000000E+00  0.00000000000E+00 -0.91702817631E+03  0.14291357037E+04  0.10961241643E+04 0.  0.
        5    1    3    3  502    0  0.34700284844E+03  0.22046199922E+03 -0.93101729451E+03  0.10177572218E+04  0.46999998093E+01 0.  1.
       -5    1    3    3    0  502 -0.34700284844E+03 -0.22046199922E+03  0.13989118200E+02  0.41137848188E+03  0.46999998093E+01 0. -1.
</event>
<event>
 5   0  0.4598561E-03  0.1100797E+04  0.7818609E-02  0.9204415E-01
       -1   -1    0    0    0  501  0.00000000000E+00  0.00000000000E+00  0.28474459736E+03  0.28474459740E+03  0.50400001928E-02 0. -1.
        1   -1    0    0  501    0  0.00000000000E+00  0.00000000000E+00 -0.10638958007E+04  0.10638958007E+04  0.50400001928E-02 0.  1.
    10030    2    1    2    0    0  0.00000000000E+00  0.00000000000E+00 -0.77915120334E+03  0.13486403981E+04  0.11007971320E+04 0.  0.
        2    1    3    3  502    0  0.28502986143E+03  0.32150541158E+03  0.31866414004E+02  0.43084013268E+03  0.25500000920E-02 0. -1.
       -2    1    3    3    0  502 -0.28502986143E+03 -0.32150541158E+03 -0.81101761734E+03  0.91780026543E+03  0.25500000920E-02 0.  1.
</event>
<event>
 5   0  0.7766551E-03  0.1099729E+04  0.7818609E-02  0.9205456E-01
        2   -1    0    0  501    0  0.00000000000E+00  0.00000000000E+00  0.24727786620E+04  0.24727786620E+04  0.25500000920E-02 0.  1.
       -2   -1    0    0    0  501  0.00000000000E+00  0.00000000000E+00 -0.12227179725E+03  0.12227179728E+03  0.25500000920E-02 0. -1.
    10030    2    1    2    0    0  0.00000000000E+00  0.00000000000E+00  0.23505068648E+04  0.25950504593E+04  0.10997292235E+04 0.  0.
        5    1    3    3  502    0  0.13843671497E+03  0.15501537065E+03  0.23764737506E+04  0.23855490074E+04  0.46999998093E+01 0.  1.
       -5    1    3    3    0  502 -0.13843671497E+03 -0.15501537065E+03 -0.25966885877E+02  0.20950145190E+03  0.46999998093E+01 0. -1.
</event>
<event>
 5   0  0.4641021E-03  0.1100797E+04  0.7818609E-02  0.9204416E-01
        1   -1    0    0  501    0  0.00000000000E+00  0.00000000000E+00  0.56076382941E+03  0.56076382943E+03  0.50400001928E-02 0.  1.
       -1   -1    0    0    0  501  0.00000000000E+00  0.00000000000E+00 -0.54022453634E+03  0.54022453637E+03  0.50400001928E-02 0. -1.
    10030    2    1    2    0    0  0.00000000000E+00  0.00000000000E+00  0.20539293063E+02  0.11009883658E+04  0.11007967656E+04 0.  0.
        1    1    3    3  502    0 -0.41217168118E+03 -0.27476301367E+03 -0.22968495275E+03  0.54601775246E+03  0.50400001928E-02 0. -1.
       -1    1    3    3    0  502  0.41217168118E+03  0.27476301367E+03  0.25022424582E+03  0.55497061334E+03  0.50400001928E-02 0.  1.
</event>
<event>
 5   0  0.4641021E-03  0.1085462E+04  0.7818609E-02  0.9219479E-01
        1   -1    0    0  501    0  0.00000000000E+00  0.00000000000E+00  0.62386849745E+03  0.62386849747E+03  0.50400001928E-02 0. -1.
       -1   -1    0    0    0  501  0.00000000000E+00  0.00000000000E+00 -0.47214546357E+03  0.47214546360E+03  0.50400001928E-02 0.  1.
    10030    2    1    2    0    0  0.00000000000E+00  0.00000000000E+00  0.15172303388E+03  0.10960139611E+04  0.10854615257E+04 0.  0.
        1    1    3    3  502    0  0.29289339147E+03 -0.35402584874E+03 -0.21579922392E+03  0.50763189952E+03  0.50400001928E-02 0.  1.
       -1    1    3    3    0  502 -0.29289339147E+03  0.35402584874E+03  0.36752225780E+03  0.58838206154E+03  0.50400001928E-02 0. -1.
</event>
<event>
 5   0  0.7952121E-03  0.1057893E+04  0.7818609E-02  0.9247233E-01
        2   -1    0    0  501    0  0.00000000000E+00  0.00000000000E+00  0.11320177458E+04  0.11320177458E+04  0.25500000920E-02 0. -1.
       -2   -1    0    0    0  501  0.00000000000E+00  0.00000000000E+00 -0.24715529885E+03  0.24715529886E+03  0.25500000920E-02 0.  1.
    10030    2    1    2    0    0  0.00000000000E+00  0.00000000000E+00  0.88486244691E+03  0.13791730446E+04  0.10578925924E+04 0.  0.
        3    1    3    3  502    0  0.35463926498E+03  0.22815507126E+03  0.85871837987E+03  0.95667184078E+03  0.10100000352E+00 0. -1.
       -3    1    3    3    0  502 -0.35463926498E+03 -0.22815507126E+03  0.26144067038E+02  0.42250120385E+03  0.10100000352E+00 0.  1.
</event>
<event>
 5   0  0.4428114E-03  0.1087233E+04  0.7818609E-02  0.9217726E-01
        1   -1    0    0  501    0  0.00000000000E+00  0.00000000000E+00  0.82530079163E+03  0.82530079164E+03  0.50400001928E-02 0. -1.
       -1   -1    0    0    0  501  0.00000000000E+00  0.00000000000E+00 -0.35807387822E+03  0.35807387825E+03  0.50400001928E-02 0.  1.
    10030    2    1    2    0    0  0.00000000000E+00  0.00000000000E+00  0.46722691341E+03  0.11833746699E+04  0.10872325514E+04 0.  0.
        4    1    3    3  502    0 -0.49444420860E+03  0.15500944572E+03  0.41250696476E+03  0.66231911685E+03  0.12699999809E+01 0. -1.
       -4    1    3    3    0  502  0.49444420860E+03 -0.15500944572E+03  0.54719948656E+02  0.52105555304E+03  0.12699999809E+01 0.  1.
</event>
<event>
 5   0  0.4641021E-03  0.1092399E+04  0.7818609E-02  0.9212632E-01
       -1   -1    0    0    0  501  0.00000000000E+00  0.00000000000E+00  0.16883765146E+03  0.16883765154E+03  0.50400001928E-02 0.  1.
        1   -1    0    0  501    0  0.00000000000E+00  0.00000000000E+00 -0.17669859636E+04  0.17669859636E+04  0.50400001928E-02 0. -1.
    10030    2    1    2    0    0  0.00000000000E+00  0.00000000000E+00 -0.15981483121E+04  0.19358236152E+04  0.10923987557E+04 0.  0.
        1    1    3    3  502    0  0.76818425869E+02  0.53455888486E+03 -0.94390337425E+03  0.10874777478E+04  0.50400001928E-02 0. -1.
       -1    1    3    3    0  502 -0.76818425869E+02 -0.53455888486E+03 -0.65424493790E+03  0.84834586739E+03  0.50400001928E-02 0.  1.
</event>
<event>
 5   0  0.7766551E-03  0.1092574E+04  0.7818609E-02  0.9212461E-01
        2   -1    0    0  501    0  0.00000000000E+00  0.00000000000E+00  0.67183345611E+03  0.67183345611E+03  0.25500000920E-02 0. -1.
       -2   -1    0    0    0  501  0.00000000000E+00  0.00000000000E+00 -0.44420123913E+03  0.44420123914E+03  0.25500000920E-02 0.  1.
    10030    2    1    2    0    0  0.00000000000E+00  0.00000000000E+00  0.22763221697E+03  0.11160346953E+04  0.10925735741E+04 0.  0.
        5    1    3    3  502    0 -0.32253175554E+03 -0.28222326871E+03 -0.23217613733E+03  0.48744697709E+03  0.46999998093E+01 0.  1.
       -5    1    3    3    0  502  0.32253175554E+03  0.28222326871E+03  0.45980835430E+03  0.62858771816E+03  0.46999998093E+01 0. -1.
</event>
<event>
 5   0  0.4504740E-03  0.1110670E+04  0.7818609E-02  0.9194855E-01
       -1   -1    0    0    0  501  0.00000000000E+00  0.00000000000E+00  0.24609409628E+03  0.24609409634E+03  0.50400001928E-02 0.  1.
        1   -1    0    0  501    0  0.00000000000E+00  0.00000000000E+00 -0.12531658381E+04  0.12531658381E+04  0.50400001928E-02 0. -1.
    10030    2    1    2    0    0  0.00000000000E+00  0.00000000000E+00 -0.10070717418E+04  0.14992599345E+04  0.11106695539E+04 0.  0.
        5    1    3    3  502    0 -0.10157559618E+03 -0.95400618767E+01 -0.12403796665E+04  0.12445772059E+04  0.46999998093E+01 0. -1.
       -5    1    3    3    0  502  0.10157559618E+03  0.95400618767E+01  0.23330792464E+03  0.25468272854E+03  0.46999998093E+01 0.  1.
</event>
<event>
 5   0  0.7952121E-03  0.1103411E+04  0.7818609E-02  0.9201874E-01
        2   -1    0    0  501    0  0.00000000000E+00  0.00000000000E+00  0.32784435647E+03  0.32784435648E+03  0.25500000920E-02 0. -1.
       -2   -1    0    0    0  501  0.00000000000E+00  0.00000000000E+00 -0.92842527597E+03  0.92842527597E+03  0.25500000920E-02 0.  1.
    10030    2    1    2    0    0  0.00000000000E+00  0.00000000000E+00 -0.60058091949E+03  0.12562696325E+04  0.11034110515E+04 0.  0.
        3    1    3    3  502    0  0.41388450992E+02 -0.40680605868E+03  0.12138925171E+03  0.42654370688E+03  0.10100000352E+00 0. -1.
       -3    1    3    3    0  502 -0.41388450992E+02  0.40680605868E+03 -0.72197017121E+03  0.82972592557E+03  0.10100000352E+00 0.  1.
</event>
<event>
 5   0  0.4598561E-03  0.1082705E+04  0.7818609E-02  0.9222215E-01
        1   -1    0    0  501    0  0.00000000000E+00  0.00000000000E+00  0.10000181104E+04  0.10000181104E+04  0.50400001928E-02 0.  1.
       -1   -1    0    0    0  501  0.00000000000E+00  0.00000000000E+00 -0.29305715555E+03  0.29305715559E+03  0.50400001928E-02 0. -1.
    10030    2    1    2    0    0  0.00000000000E+00  0.00000000000E+00  0.70696095486E+03  0.12930752660E+04  0.10827048776E+04 0.  0.
        2    1    3    3  502    0 -0.24864378896E+03  0.35735151278E+03 -0.30814677417E+02  0.43643256275E+03  0.25500000920E-02 0. -1.
       -2    1    3    3    0  502  0.24864378896E+03 -0.35735151278E+03  0.73777563227E+03  0.85664270327E+03  0.25500000920E-02 0.  1.
</event>
<event>
 5   0  0.4428114E-03  0.8928688E+03  0.7818609E-02  0.9434540E-01
       -1   -1    0    0    0  501  0.00000000000E+00  0.00000000000E+00  0.32739901086E+03  0.32739901090E+03  0.50400001928E-02 0.  1.
        1   -1    0    0  501    0  0.00000000000E+00  0.00000000000E+00 -0.60874855986E+03  0.60874855988E+03  0.50400001928E-02 0. -1.
    10030    2    1    2    0    0  0.00000000000E+00  0.00000000000E+00 -0.28134954900E+03  0.93614757078E+03  0.89286880646E+03 0.  0.
        4    1    3    3  502    0 -0.81725137341E+02 -0.41703558548E+03  0.27183706771E+01  0.42497844659E+03  0.12699999809E+01 0.  1.
       -4    1    3    3    0  502  0.81725137341E+02  0.41703558548E+03 -0.28406791968E+03  0.51116912419E+03  0.12699999809E+01 0. -1.
</event>
<event>
 5   0  0.4641021E-03  0.1092376E+04  0.7818609E-02  0.9212655E-01
        1   -1    0    0  501    0  0.00000000000E+00  0.00000000000E+00  0.37182614173E+03  0.37182614176E+03  0.50400001928E-02 0.  1.
       -1   -1    0    0    0  501  0.00000000000E+00  0.00000000000E+00 -0.80231418000E+03  0.80231418002E+03  0.50400001928E-02 0. -1.
    10030    2    1    2    0    0  0.00000000000E+00  0.00000000000E+00 -0.43048803828E+03  0.11741403218E+04  0.10923761001E+04 0.  0.
        1    1    3    3  502    0 -0.19039915751E+03  0.47688552029E+02 -0.76309633105E+03  0.78793530677E+03  0.50400001928E-02 0. -1.
       -1    1    3    3    0  502  0.19039915751E+03 -0.47688552029E+02  0.33260829277E+03  0.38620501501E+03  0.50400001928E-02 0.  1.
</event>
<event>
 5   0  0.4428114E-03  0.1059467E+04  0.7818609E-02  0.9245624E-01
        1   -1    0    0  501    0  0.00000000000E+00  0.00000000000E+00  0.51648086933E+03  0.51648086935E+03  0.50400001928E-02 0.  1.
       -1   -1    0    0    0  501  0.00000000000E+00  0.00000000000E+00 -0.54332668009E+03  0.54332668011E+03  0.50400001928E-02 0. -1.
    10030    2    1    2    0    0  0.00000000000E+00  0.00000000000E+00 -0.26845810760E+02  0.10598075495E+04  0.10594674815E+04 0.  0.
        4    1    3    3  502    0 -0.48422894952E+03 -0.99451860834E+02 -0.20387276345E+03  0.53472802877E+03  0.12699999809E+01 0.  1.
       -4    1    3    3    0  502  0.48422894952E+03  0.99451860834E+02  0.17702695269E+03  0.52507952070E+03  0.12699999809E+01 0. -1.
</event>
<event>
 5   0  0.7712816E-03  0.1099447E+04  0.7818609E-02  0.9205731E-01
       -2   -1    0    0    0  501  0.00000000000E+00  0.00000000000E+00  0.17670261454E+03  0.17670261455E+03  0.25500000920E-02 0.  1.
        2   -1    0    0  501    0  0.00000000000E+00  0.00000000000E+00 -0.17101947447E+04  0.17101947447E+04  0.25500000920E-02 0. -1.
    10030    2    1    2    0    0  0.00000000000E+00  0.00000000000E+00 -0.15334921302E+04  0.18868973593E+04  0.10994469206E+04 0.  0.
        2    1    3    3  502    0 -0.20351155502E+03  0.51020145283E+03 -0.72940458952E+03  0.91310105175E+03  0.25500000920E-02 0.  1.
       -2    1    3    3    0  502  0.20351155502E+03 -0.51020145283E+03 -0.80408754069E+03  0.97379630754E+03  0.25500000920E-02 0. -1.
</event>
<event>
 5   0  0.7537480E-03  0.1072588E+04  0.7818609E-02  0.9232329E-01
        2   -1    0    0  501    0  0.00000000000E+00  0.00000000000E+00  0.48993135863E+03  0.48993135864E+03  0.25500000920E-02 0.  1.
       -2   -1    0    0    0  501  0.00000000000E+00  0.00000000000E+00 -0.58704409423E+03  0.58704409423E+03  0.25500000920E-02 0. -1.
    10030    2    1    2    0    0  0.00000000000E+00  0.00000000000E+00 -0.97112735594E+02  0.10769754529E+04  0.10725881049E+04 0.  0.
        1    1    3    3  502    0  0.17362806145E+03  0.34090193491E+03 -0.42592673205E+03  0.57251586357E+03  0.50400001928E-02 0. -1.
       -1    1    3    3    0  502 -0.17362806145E+03 -0.34090193491E+03  0.32881399645E+03  0.50445958930E+03  0.50400001928E-02 0.  1.
</event>
<event>
 5   0  0.7952121E-03  0.1108602E+04  0.7818609E-02  0.9196848E-01
       -2   -1    0    0    0  501  0.00000000000E+00  0.00000000000E+00  0.19779639417E+03  0.19779639419E+03  0.25500000920E-02 0. -1.
        2   -1    0    0  501    0  0.00000000000E+00  0.00000000000E+00 -0.15533642365E+04  0.15533642365E+04  0.25500000920E-02 0.  1.
    10030    2    1    2    0    0  0.00000000000E+00  0.00000000000E+00 -0.13555678423E+04  0.17511606306E+04  0.11086024442E+04 0.  0.
        3    1    3    3  502    0  0.33519326150E+03  0.22750164863E+03 -0.12754080157E+04  0.13381992152E+04  0.10100000352E+00 0.  1.
       -3    1    3    3    0  502 -0.33519326150E+03 -0.22750164863E+03 -0.80159826561E+02  0.41296141549E+03  0.10100000352E+00 0. -1.
</event>
<event>
 5   0  0.7537480E-03  0.1009395E+04  0.7818609E-02  0.9298300E-01
        2   -1    0    0  501    0  0.00000000000E+00  0.00000000000E+00  0.11147301842E+04  0.11147301842E+04  0.25500000920E-02 0. -1.
       -2   -1    0    0    0  501  0.00000000000E+00  0.00000000000E+00 -0.22850323228E+03  0.22850323229E+03  0.25500000920E-02 0.  1.
    10030    2    1    2    0    0  0.00000000000E+00  0.00000000000E+00  0.88622695191E+03  0.13432334165E+04  0.10093947696E+04 0.  0.
        1    1    3    3  502    0 -0.24602560401E+03 -0.42407526468E+03  0.60252945706E+03  0.77679480856E+03  0.50400001928E-02 0.  1.
       -1    1    3    3    0  502  0.24602560401E+03  0.42407526468E+03  0.28369749484E+03  0.56643860793E+03  0.50400001928E-02 0. -1.
</event>
<event>
 5   0  0.7738497E-03  0.1106772E+04  0.7818609E-02  0.9198617E-01
       -2   -1    0    0    0  501  0.00000000000E+00  0.00000000000E+00  0.19791997266E+03  0.19791997267E+03  0.25500000920E-02 0. -1.
        2   -1    0    0  501    0  0.00000000000E+00  0.00000000000E+00 -0.15472713601E+04  0.15472713601E+04  0.25500000920E-02 0.  1.
    10030    2    1    2    0    0  0.00000000000E+00  0.00000000000E+00 -0.13493513875E+04  0.17451913328E+04  0.11067717114E+04 0.  0.
        4    1    3    3  502    0 -0.30529055152E+02 -0.47501500809E+03 -0.11197303577E+04  0.12167041416E+04  0.12699999809E+01 0.  1.
       -4    1    3    3    0  502  0.30529055152E+02  0.47501500809E+03 -0.22962102972E+03  0.52848719125E+03  0.12699999809E+01 0. -1.
</event>
<event>
 5   0  0.4298101E-03  0.1107920E+04  0.7818609E-02  0.9197507E-01
        1   -1    0    0  501    0  0.00000000000E+00  0.00000000000E+00  0.58789070823E+03  0.58789070826E+03  0.50400001928E-02 0. -1.
       -1   -1    0    0    0  501  0.00000000000E+00  0.00000000000E+00 -0.52198736152E+03  0.52198736155E+03  0.50400001928E-02 0.  1.
    10030    2    1    2    0    0  0.00000000000E+00  0.00000000000E+00  0.65903346711E+02  0.11098780698E+04  0.11079197077E+04 0.  0.
        3    1    3    3  502    0  0.11761562336E+03  0.15359927531E+03  0.55295044627E+03  0.58581599369E+03  0.10100000352E+00 0. -1.
       -3    1    3    3    0  502 -0.11761562336E+03 -0.15359927531E+03 -0.48704709956E+03  0.52406207611E+03  0.10100000352E+00 0.  1.
</event>
<event>
 5   0  0.4641021E-03  0.1090913E+04  0.7818609E-02  0.9214094E-01
       -1   -1    0    0    0  501  0.00000000000E+00  0.00000000000E+00  0.75523317209E+03  0.75523317211E+03  0.50400001928E-02 0.  1.
        1   -1    0    0  501    0  0.00000000000E+00  0.00000000000E+00 -0.39394841501E+03  0.39394841505E+03  0.50400001928E-02 0. -1.
    10030    2    1    2    0    0  0.00000000000E+00  0.00000000000E+00  0.36128475708E+03  0.11491815872E+04  0.10909132159E+04 0.  0.
        1    1    3    3  502    0 -0.12336756094E+03  0.42805832284E+03 -0.15092231911E+03  0.47035202698E+03  0.50400001928E-02 0. -1.
       -1    1    3    3    0  502  0.12336756094E+03 -0.42805832284E+03  0.51220707619E+03  0.67882956018E+03  0.50400001928E-02 0.  1.
</event>
<event>
 5   0  0.4504740E-03  0.1097240E+04  0.7818609E-02  0.9207886E-01
        1   -1    0    0  501    0  0.00000000000E+00  0.00000000000E+00  0.14309690600E+04  0.14309690600E+04  0.50400001928E-02 0. -1.
       -1   -1    0    0    0  501  0.00000000000E+00  0.00000000000E+00 -0.21033557955E+03  0.21033557961E+03  0.50400001928E-02 0.  1.
    10030    2    1    2    0    0  0.00000000000E+00  0.00000000000E+00  0.12206334805E+04  0.16413046396E+04  0.10972396395E+04 0.  0.
        5    1    3    3  502    0  0.40658720290E+03 -0.62446161185E+02  0.11532685353E+04  0.12244439885E+04  0.46999998093E+01 0. -1.
       -5    1    3    3    0  502 -0.40658720290E+03  0.62446161185E+02  0.67364945212E+02  0.41686065112E+03  0.46999998093E+01 0.  1.
</event>
<event>
 5   0  0.4641021E-03  0.1098881E+04  0.7818609E-02  0.9206283E-01
       -1   -1    0    0    0  501  0.00000000000E+00  0.00000000000E+00  0.11857558922E+04  0.11857558922E+04  0.50400001928E-02 0.  1.
        1   -1    0    0  501    0  0.00000000000E+00  0.00000000000E+00 -0.25459296953E+03  0.25459296958E+03  0.50400001928E-02 0. -1.
    10030    2    1    2    0    0  0.00000000000E+00  0.00000000000E+00  0.93116292269E+03  0.14403488618E+04  0.10988814564E+04 0.  0.
        1    1    3    3  502    0 -0.44221866124E+03  0.21864630901E+03  0.78266580575E+03  0.92516448068E+03  0.50400001928E-02 0. -1.
       -1    1    3    3    0  502  0.44221866124E+03 -0.21864630901E+03  0.14849711694E+03  0.51518438113E+03  0.50400001928E-02 0.  1.
</event>
<event>
 5   0  0.4428114E-03  0.1104382E+04  0.7818609E-02  0.9200932E-01
        1   -1    0    0  501    0  0.00000000000E+00  0.00000000000E+00  0.37385652459E+03  0.37385652463E+03  0.50400001928E-02 0.  1.
       -1   -1    0    0    0  501  0.00000000000E+00  0.00000000000E+00 -0.81559302266E+03  0.81559302268E+03  0.50400001928E-02 0. -1.
    10030    2    1    2    0    0  0.00000000000E+00  0.00000000000E+00 -0.44173649807E+03  0.11894495473E+04  0.11043817691E+04 0.  0.
        4    1    3    3  502    0  0.47579662218E+03 -0.49170424705E+02  0.76268404058E+02  0.48437448189E+03  0.12699999809E+01 0.  1.
       -4    1    3    3    0  502 -0.47579662218E+03  0.49170424705E+02 -0.51800490212E+03  0.70507506542E+03  0.12699999809E+01 0. -1.
</event>
<event>
 5   0  0.4298101E-03  0.1076547E+04  0.7818609E-02  0.9228358E-01
        1   -1    0    0  501    0  0.00000000000E+00  0.00000000000E+00  0.61811887465E+03  0.61811887467E+03  0.50400001928E-02 0.  1.
       -1   -1    0    0    0  501  0.00000000000E+00  0.00000000000E+00 -0.46874170792E+03  0.46874170795E+03  0.50400001928E-02 0. -1.
    10030    2    1    2    0    0  0.00000000000E+00  0.00000000000E+00  0.14937716673E+03  0.10868605826E+04  0.10765465100E+04 0.  0.
        3    1    3    3  502    0 -0.11084314404E+03 -0.42885361309E+03 -0.23407886743E+03  0.50099356325E+03  0.10100000352E+00 0. -1.
       -3    1    3    3    0  502  0.11084314404E+03  0.42885361309E+03  0.38345603416E+03  0.58586701936E+03  0.10100000352E+00 0.  1.
</event>
<event>
 5   0  0.7738497E-03  0.1121285E+04  0.7818609E-02  0.9184690E-01
       -2   -1    0    0    0  501  0.00000000000E+00  0.00000000000E+00  0.41203948439E+03  0.41203948440E+03  0.25500000920E-02 0.  1.
        2   -1    0    0  501    0  0.00000000000E+00  0.00000000000E+00 -0.76284016641E+03  0.76284016641E+03  0.25500000920E-02 0. -1.
    10030    2    1    2    0    0  0.00000000000E+00  0.00000000000E+00 -0.35080068202E+03  0.11748796508E+04  0.11212854567E+04 0.  0.
        4    1    3    3  502    0  0.26267038257E+03  0.43383064286E+03  0.75007600763E+02  0.51267193178E+03  0.12699999809E+01 0. -1.
       -4    1    3    3    0  502 -0.26267038257E+03 -0.43383064286E+03 -0.42580828278E+03  0.66220771903E+03  0.12699999809E+01 0.  1.
</event>
<event>
 5   0  0.4598561E-03  0.1111281E+04  0.7818609E-02  0.9194266E-01
        1   -1    0    0  501    0  0.00000000000E+00  0.00000000000E+00  0.87840091155E+03  0.87840091157E+03  0.50400001928E-02 0. -1.
       -1   -1    0    0    0  501  0.00000000000E+00  0.00000000000E+00 -0.35147539656E+03  0.35147539660E+03  0.50400001928E-02 0.  1.
    10030    2    1    2    0    0  0.00000000000E+00  0.00000000000E+00  0.52692551499E+03  0.12298763082E+04  0.11112808984E+04 0.  0.
        2    1    3    3  502    0  0.16514755268E+03 -0.50918935691E+03  0.42831863274E+03  0.68556864463E+03  0.25500000920E-02 0. -1.
       -2    1    3    3    0  502 -0.16514755268E+03  0.50918935691E+03  0.98606882247E+02  0.54430766353E+03  0.25500000920E-02 0.  1.
</event>
<event>
 5   0  0.4298101E-03  0.1112923E+04  0.7818609E-02  0.9192687E-01
        1   -1    0    0  501    0  0.00000000000E+00  0.00000000000E+00  0.49010138793E+03  0.49010138795E+03  0.50400001928E-02 0.  1.
       -1   -1    0    0    0  501  0.00000000000E+00  0.00000000000E+00 -0.63180658756E+03  0.63180658758E+03  0.50400001928E-02 0. -1.
    10030    2    1    2    0    0  0.00000000000E+00  0.00000000000E+00 -0.14170519963E+03  0.11219079755E+04  0.11129227925E+04 0.  0.
        3    1    3    3  502    0  0.16327772359E+01  0.39945673342E+03 -0.46138309404E+03  0.61028085134E+03  0.10100000352E+00 0. -1.
       -3    1    3    3    0  502 -0.16327772359E+01 -0.39945673342E+03  0.31967789441E+03  0.51162712420E+03  0.10100000352E+00 0.  1.
</event>
<event>
 5   0  0.7766551E-03  0.9604256E+03  0.7818609E-02  0.9353047E-01
       -2   -1    0    0    0  501  0.00000000000E+00  0.00000000000E+00  0.41048288160E+03  0.41048288161E+03  0.25500000920E-02 0.  1.
        2   -1    0    0  501    0  0.00000000000E+00  0.00000000000E+00 -0.56178792251E+03  0.56178792252E+03  0.25500000920E-02 0. -1.
    10030    2    1    2    0    0  0.00000000000E+00  0.00000000000E+00 -0.15130504091E+03  0.97227080413E+03  0.96042558335E+03 0.  0.
        5    1    3    3  502    0  0.36655483486E+03  0.37891439128E+02  0.23601468230E+03  0.43763366915E+03  0.46999998093E+01 0.  1.
       -5    1    3    3    0  502 -0.36655483486E+03 -0.37891439128E+02 -0.38731972320E+03  0.53463713498E+03  0.46999998093E+01 0. -1.
</event>
<event>
 5   0  0.4598561E-03  0.1194873E+04  0.7818609E-02  0.9117356E-01
        1   -1    0    0  501    0  0.00000000000E+00  0.00000000000E+00  0.84210781901E+03  0.84210781903E+03  0.50400001928E-02 0.  1.
       -1   -1    0    0    0  501  0.00000000000E+00  0.00000000000E+00 -0.42385383104E+03  0.42385383107E+03  0.50400001928E-02 0. -1.
    10030    2    1    2    0    0  0.00000000000E+00  0.00000000000E+00  0.41825398797E+03  0.12659616501E+04  0.11948734247E+04 0.  0.
        2    1    3    3  502    0 -0.34371561912E+03  0.46393559319E+03  0.46523209462E+02  0.57925907026E+03  0.25500000920E-02 0.  1.
       -2    1    3    3    0  502  0.34371561912E+03 -0.46393559319E+03  0.37173077851E+03  0.68670257984E+03  0.25500000920E-02 0. -1.
</event>
<event>
 5   0  0.4298101E-03  0.1084413E+04  0.7818609E-02  0.9220518E-01
       -1   -1    0    0    0  501  0.00000000000E+00  0.00000000000E+00  0.43611380096E+03  0.43611380099E+03  0.50400001928E-02 0. -1.
        1   -1    0    0  501    0  0.00000000000E+00  0.00000000000E+00 -0.67410849732E+03  0.67410849734E+03  0.50400001928E-02 0.  1.
    10030    2    1    2    0    0  0.00000000000E+00  0.00000000000E+00 -0.23799469636E+03  0.11102222983E+04  0.10844132405E+04 0.  0.
        3    1    3    3  502    0  0.50136699177E+03  0.13037979443E+03  0.44875454087E+02  0.51998227644E+03  0.10100000352E+00 0. -1.
       -3    1    3    3    0  502 -0.50136699177E+03 -0.13037979443E+03 -0.28287015044E+03  0.59024002189E+03  0.10100000352E+00 0.  1.
</event>
<event>
 5   0  0.4504740E-03  0.8040013E+03  0.7818609E-02  0.9554243E-01
       -1   -1    0    0    0  501  0.00000000000E+00  0.00000000000E+00  0.41372583174E+03  0.41372583177E+03  0.50400001928E-02 0. -1.
        1   -1    0    0  501    0  0.00000000000E+00  0.00000000000E+00 -0.39060780324E+03  0.39060780328E+03  0.50400001928E-02 0.  1.
    10030    2    1    2    0    0  0.00000000000E+00  0.00000000000E+00  0.23118028494E+02  0.80433363504E+03  0.80400133907E+03 0.  0.
        5    1    3    3  502    0  0.28204370203E+03 -0.18059636480E+03 -0.21083615146E+03  0.39577477129E+03  0.46999998093E+01 0. -1.
       -5    1    3    3    0  502 -0.28204370203E+03  0.18059636480E+03  0.23395417995E+03  0.40855886375E+03  0.46999998093E+01 0.  1.
</event>
<event>
 5   0  0.7712816E-03  0.1101674E+04  0.7818609E-02  0.9203562E-01
       -2   -1    0    0    0  501  0.00000000000E+00  0.00000000000E+00  0.17049743993E+03  0.17049743995E+03  0.25500000920E-02 0.  1.
        2   -1    0    0  501    0  0.00000000000E+00  0.00000000000E+00 -0.17796245018E+04  0.17796245018E+04  0.25500000920E-02 0. -1.
    10030    2    1    2    0    0  0.00000000000E+00  0.00000000000E+00 -0.16091270619E+04  0.19501219418E+04  0.11016740382E+04 0.  0.
        2    1    3    3  502    0  0.39046698867E+03 -0.16011195100E+03 -0.17791968390E+03  0.45799096063E+03  0.25500000920E-02 0.  1.
       -2    1    3    3    0  502 -0.39046698867E+03  0.16011195100E+03 -0.14312073780E+04  0.14921309812E+04  0.25500000920E-02 0. -1.
</event>
<event>
 5   0  0.7712816E-03  0.1106784E+04  0.7818609E-02  0.9198605E-01
        2   -1    0    0  501    0  0.00000000000E+00  0.00000000000E+00  0.64514852465E+03  0.64514852465E+03  0.25500000920E-02 0. -1.
       -2   -1    0    0    0  501  0.00000000000E+00  0.00000000000E+00 -0.47468527679E+03  0.47468527680E+03  0.25500000920E-02 0.  1.
    10030    2    1    2    0    0  0.00000000000E+00  0.00000000000E+00  0.17046324785E+03  0.11198338015E+04  0.11067836392E+04 0.  0.
        2    1    3    3  502    0  0.20769827865E+03 -0.10102627113E+03  0.59405050174E+03  0.63737028566E+03  0.25500000920E-02 0. -1.
       -2    1    3    3    0  502 -0.20769827865E+03  0.10102627113E+03 -0.42358725389E+03  0.48246351580E+03  0.25500000920E-02 0.  1.
</event>
<event>
 5   0  0.7766551E-03  0.1044743E+04  0.7818609E-02  0.9260789E-01
        2   -1    0    0  501    0  0.00000000000E+00  0.00000000000E+00  0.79726119651E+03  0.79726119652E+03  0.25500000920E-02 0.  1.
       -2   -1    0    0    0  501  0.00000000000E+00  0.00000000000E+00 -0.34226160814E+03  0.34226160815E+03  0.25500000920E-02 0. -1.
    10030    2    1    2    0    0  0.00000000000E+00  0.00000000000E+00  0.45499958838E+03  0.11395228047E+04  0.10447428377E+04 0.  0.
        5    1    3    3  502    0  0.21500904281E+02 -0.12975125211E+03  0.77888279603E+03  0.78992289261E+03  0.46999998093E+01 0.  1.
       -5    1    3    3    0  502 -0.21500904281E+02  0.12975125211E+03 -0.32388320766E+03  0.34959991206E+03  0.46999998093E+01 0. -1.
</event>
<event>
 5   0  0.7738497E-03  0.1098804E+04  0.7818609E-02  0.9206358E-01
       -2   -1    0    0    0  501  0.00000000000E+00  0.00000000000E+00  0.35375407236E+03  0.35375407237E+03  0.25500000920E-02 0.  1.
        2   -1    0    0  501    0  0.00000000000E+00  0.00000000000E+00 -0.85325609876E+03  0.85325609876E+03  0.25500000920E-02 0. -1.
    10030    2    1    2    0    0  0.00000000000E+00  0.00000000000E+00 -0.49950202640E+03  0.12070101711E+04  0.10988044771E+04 0.  0.
        4    1    3    3  502    0 -0.49212422803E+03 -0.23307678831E+03 -0.32994848978E+03  0.63669354000E+03  0.12699999809E+01 0.  1.
       -4    1    3    3    0  502  0.49212422803E+03  0.23307678831E+03 -0.16955353662E+03  0.57031663113E+03  0.12699999809E+01 0. -1.
</event>
<event>
 5   0  0.4641021E-03  0.1250399E+04  0.7818609E-02  0.9069851E-01
        1   -1    0    0  501    0  0.00000000000E+00  0.00000000000E+00  0.36023570071E+03  0.36023570075E+03  0.50400001928E-02 0.  1.
       -1   -1    0    0    0  501  0.00000000000E+00  0.00000000000E+00 -0.10850521019E+04  0.10850521019E+04  0.50400001928E-02 0. -1.
    10030    2    1    2    0    0  0.00000000000E+00  0.00000000000E+00 -0.72481640119E+03  0.14452878027E+04  0.12503991431E+04 0.  0.
        1    1    3    3  502    0  0.45367636672E+03  0.36327179128E+03 -0.62872288632E+03  0.85620155797E+03  0.50400001928E-02 0. -1.
       -1    1    3    3    0  502 -0.45367636672E+03 -0.36327179128E+03 -0.96093514867E+02  0.58908624469E+03  0.50400001928E-02 0.  1.
</event>
<event>
 5   0  0.7738497E-03  0.1183560E+04  0.7818609E-02  0.9127369E-01
        2   -1    0    0  501    0  0.00000000000E+00  0.00000000000E+00  0.58041026890E+03  0.58041026891E+03  0.25500000920E-02 0.  1.
       -2   -1    0    0    0  501  0.00000000000E+00  0.00000000000E+00 -0.60337230321E+03  0.60337230321E+03  0.25500000920E-02 0. -1.
    10030    2    1    2    0    0  0.00000000000E+00  0.00000000000E+00 -0.22962034307E+02  0.11837825721E+04  0.11835598519E+04 0.  0.
        4    1    3    3  502    0 -0.23710872470E+03  0.16514152758E+03  0.50505550985E+03  0.58187193814E+03  0.12699999809E+01 0.  1.
       -4    1    3    3    0  502  0.23710872470E+03 -0.16514152758E+03 -0.52801754416E+03  0.60191063398E+03  0.12699999809E+01 0. -1.
</event>
<event>
 5   0  0.4428114E-03  0.1029155E+04  0.7818609E-02  0.9277134E-01
       -1   -1    0    0    0  501  0.00000000000E+00  0.00000000000E+00  0.42672422696E+03  0.42672422699E+03  0.50400001928E-02 0. -1.
        1   -1    0    0  501    0  0.00000000000E+00  0.00000000000E+00 -0.62051732552E+03  0.62051732554E+03  0.50400001928E-02 0.  1.
    10030    2    1    2    0    0  0.00000000000E+00  0.00000000000E+00 -0.19379309856E+03  0.10472415525E+04  0.10291545580E+04 0.  0.
        4    1    3    3  502    0  0.18166690333E+03 -0.12622244982E+03  0.37586865223E+03  0.43613510205E+03  0.12699999809E+01 0. -1.
       -4    1    3    3    0  502 -0.18166690333E+03  0.12622244982E+03 -0.56966175080E+03  0.61110645049E+03  0.12699999809E+01 0.  1.
</event>
<event>
 5   0  0.7537480E-03  0.1109182E+04  0.7818609E-02  0.9196289E-01
       -2   -1    0    0    0  501  0.00000000000E+00  0.00000000000E+00  0.35796173444E+03  0.35796173445E+03  0.25500000920E-02 0.  1.
        2   -1    0    0  501    0  0.00000000000E+00  0.00000000000E+00 -0.85922861643E+03  0.85922861643E+03  0.25500000920E-02 0. -1.
    10030    2    1    2    0    0  0.00000000000E+00  0.00000000000E+00 -0.50126688199E+03  0.12171903509E+04  0.11091816187E+04 0.  0.
        1    1    3    3  502    0  0.46446586656E+03  0.27837052932E+03 -0.38210026773E+03  0.66273622764E+03  0.50400001928E-02 0. -1.
       -1    1    3    3    0  502 -0.46446586656E+03 -0.27837052932E+03 -0.11916661426E+03  0.55445412324E+03  0.50400001928E-02 0.  1.
</event>
<event>
 5   0  0.4298101E-03  0.1094802E+04  0.7818609E-02  0.9210273E-01
       -1   -1    0    0    0  501  0.00000000000E+00  0.00000000000E+00  0.22813846704E+03  0.22813846709E+03  0.50400001928E-02 0.  1.
        1   -1    0    0  501    0  0.00000000000E+00  0.00000000000E+00 -0.13134482969E+04  0.13134482969E+04  0.50400001928E-02 0. -1.
    10030    2    1    2    0    0  0.00000000000E+00  0.00000000000E+00 -0.10853098298E+04  0.15415867640E+04  0.10948024133E+04 0.  0.
        3    1    3    3  502    0 -0.56089694173E+01  0.20759742350E+03 -0.12558244366E+04  0.12728798751E+04  0.10100000352E+00 0. -1.
       -3    1    3    3    0  502  0.56089694173E+01 -0.20759742350E+03  0.17051460676E+03  0.26870688883E+03  0.10100000352E+00 0.  1.
</event>
<event>
 5   0  0.7952121E-03  0.1086563E+04  0.7818609E-02  0.9218388E-01
        2   -1    0    0  501    0  0.00000000000E+00  0.00000000000E+00  0.44714192208E+03  0.44714192208E+03  0.25500000920E-02 0.  1.
       -2   -1    0    0    0  501  0.00000000000E+00  0.00000000000E+00 -0.66009214478E+03  0.66009214479E+03  0.25500000920E-02 0. -1.
    10030    2    1    2    0    0  0.00000000000E+00  0.00000000000E+00 -0.21295022271E+03  0.11072340669E+04  0.10865631512E+04 0.  0.
        3    1    3    3  502    0  0.23207282757E+03 -0.15761519522E+03  0.36762252436E+03  0.46243559301E+03  0.10100000352E+00 0.  1.
       -3    1    3    3    0  502 -0.23207282757E+03  0.15761519522E+03 -0.58057274707E+03  0.64479847386E+03  0.10100000352E+00 0. -1.
</event>
<event>
 5   0  0.4504740E-03  0.1055697E+04  0.7818609E-02  0.9249482E-01
        1   -1    0    0  501    0  0.00000000000E+00  0.00000000000E+00  0.14608716288E+04  0.14608716289E+04  0.50400001928E-02 0. -1.
       -1   -1    0    0    0  501  0.00000000000E+00  0.00000000000E+00 -0.19072453138E+03  0.19072453145E+03  0.50400001928E-02 0.  1.
    10030    2    1    2    0    0  0.00000000000E+00  0.00000000000E+00  0.12701470975E+04  0.16515961603E+04  0.10556970340E+04 0.  0.
        5    1    3    3  502    0 -0.77348089286E+02  0.43985940785E+03  0.19495400262E+03  0.48732758872E+03  0.46999998093E+01 0.  1.
       -5    1    3    3    0  502  0.77348089286E+02 -0.43985940785E+03  0.10751930948E+04  0.11642685716E+04  0.46999998093E+01 0. -1.
</event>
<event>
 5   0  0.7537480E-03  0.1109874E+04  0.7818609E-02  0.9195622E-01
        2   -1    0    0  501    0  0.00000000000E+00  0.00000000000E+00  0.46484245110E+03  0.46484245110E+03  0.25500000920E-02 0. -1.
       -2   -1    0    0    0  501  0.00000000000E+00  0.00000000000E+00 -0.66249291338E+03  0.66249291339E+03  0.25500000920E-02 0.  1.
    10030    2    1    2    0    0  0.00000000000E+00  0.00000000000E+00 -0.19765046229E+03  0.11273353645E+04  0.11098735598E+04 0.  0.
        1    1    3    3  502    0  0.41324415200E+03 -0.12255297235E+03  0.25619474725E+03  0.50142368187E+03  0.50400001928E-02 0. -1.
       -1    1    3    3    0  502 -0.41324415200E+03  0.12255297235E+03 -0.45384520954E+03  0.62591168262E+03  0.50400001928E-02 0.  1.
</event>
<event>
 5   0  0.7952121E-03  0.7554173E+03  0.7818609E-02  0.9626890E-01
       -2   -1    0    0    0  501  0.00000000000E+00  0.00000000000E+00  0.54217484460E+03  0.54217484460E+03  0.25500000920E-02 0.  1.
        2   -1    0    0  501    0  0.00000000000E+00  0.00000000000E+00 -0.26313252956E+03  0.26313252958E+03  0.25500000920E-02 0. -1.
    10030    2    1    2    0    0  0.00000000000E+00  0.00000000000E+00  0.27904231503E+03  0.80530737418E+03  0.75541733719E+03 0.  0.
        3    1    3    3  502    0  0.10858888979E+03  0.28159440605E+03  0.38162530333E+03  0.48654376868E+03  0.10100000352E+00 0.  1.
       -3    1    3    3    0  502 -0.10858888979E+03 -0.28159440605E+03 -0.10258298830E+03  0.31876360550E+03  0.10100000352E+00 0. -1.
</event>
<event>
 5   0  0.4504740E-03  0.1103349E+04  0.7818609E-02  0.9201934E-01
       -1   -1    0    0    0  501  0.00000000000E+00  0.00000000000E+00  0.49414120226E+03  0.49414120228E+03  0.50400001928E-02 0. -1.
        1   -1    0    0  501    0  0.00000000000E+00  0.00000000000E+00 -0.61590641629E+03  0.61590641631E+03  0.50400001928E-02 0.  1.
    10030    2    1    2    0    0  0.00000000000E+00  0.00000000000E+00 -0.12176521403E+03  0.11100476186E+04  0.11033489694E+04 0.  0.
        5    1    3    3  502    0  0.25371287907E+03 -0.18073333891E+03 -0.51893554501E+03  0.60526932408E+03  0.46999998093E+01 0.  1.
       -5    1    3    3    0  502 -0.25371287907E+03  0.18073333891E+03  0.39717033098E+03  0.50477829451E+03  0.46999998093E+01 0. -1.
</event>
<event>
 5   0  0.4428114E-03  0.1167881E+04  0.7818609E-02  0.9141444E-01
        1   -1    0    0  501    0  0.00000000000E+00  0.00000000000E+00  0.11859866318E+04  0.11859866318E+04  0.50400001928E-02 0.  1.
       -1   -1    0    0    0  501  0.00000000000E+00  0.00000000000E+00 -0.28751280770E+03  0.28751280775E+03  0.50400001928E-02 0. -1.
    10030    2    1    2    0    0  0.00000000000E+00  0.00000000000E+00  0.89847382411E+03  0.14734994396E+04  0.11678807241E+04 0.  0.
        4    1    3    3  502    0  0.35726834880E+03  0.39774224401E+03  0.15295494733E+03  0.55609027553E+03  0.12699999809E+01 0. -1.
       -4    1    3    3    0  502 -0.35726834880E+03 -0.39774224401E+03  0.74551887678E+03  0.91740916404E+03  0.12699999809E+01 0.  1.
</event>
<event>
 5   0  0.4598561E-03  0.9980183E+03  0.7818609E-02  0.9310721E-01
       -1   -1    0    0    0  501  0.00000000000E+00  0.00000000000E+00  0.60121158306E+03  0.60121158308E+03  0.50400001928E-02 0. -1.
        1   -1    0    0  501    0  0.00000000000E+00  0.00000000000E+00 -0.41418051241E+03  0.41418051244E+03  0.50400001928E-02 0.  1.
    10030    2    1    2    0    0  0.00000000000E+00  0.00000000000E+00  0.18703107065E+03  0.10153920955E+04  0.99801827952E+03 0.  0.
        2    1    3    3  502    0 -0.18605350371E+03 -0.36495703031E+03 -0.19640224549E+03  0.45429437841E+03  0.25500000920E-02 0.  1.
       -2    1    3    3    0  502  0.18605350371E+03  0.36495703031E+03  0.38343331614E+03  0.56109771711E+03  0.25500000920E-02 0. -1.
</event>
<event>
 5   0  0.7738497E-03  0.1072244E+04  0.7818609E-02  0.9232675E-01
       -2   -1    0    0    0  501  0.00000000000E+00  0.00000000000E+00  0.20083823078E+03  0.20083823080E+03  0.25500000920E-02 0.  1.
        2   -1    0    0  501    0  0.00000000000E+00  0.00000000000E+00 -0.14311366683E+04  0.14311366683E+04  0.25500000920E-02 0. -1.
    10030    2    1    2    0    0  0.00000000000E+00  0.00000000000E+00 -0.12302984375E+04  0.16319748991E+04  0.10722442940E+04 0.  0.
        4    1    3    3  502    0 -0.82671996840E+02  0.15879300444E+03 -0.13842961599E+04  0.13958249706E+04  0.12699999809E+01 0. -1.
       -4    1    3    3    0  502  0.82671996840E+02 -0.15879300444E+03  0.15399772240E+03  0.23614992849E+03  0.12699999809E+01 0.  1.
</event>
<event>
 5   0  0.7537480E-03  0.1116112E+04  0.7818609E-02  0.9189629E-01
        2   -1    0    0  501    0  0.00000000000E+00  0.00000000000E+00  0.82993663502E+03  0.82993663502E+03  0.25500000920E-02 0.  1.
       -2   -1    0    0    0  501  0.00000000000E+00  0.00000000000E+00 -0.37524109835E+03  0.37524109836E+03  0.25500000920E-02 0. -1.
    10030    2    1    2    0    0  0.00000000000E+00  0.00000000000E+00  0.45469553667E+03  0.12051777334E+04  0.11161117050E+04 0.  0.
        1    1    3    3  502    0  0.49003964001E+03  0.93712210924E+02  0.49730973187E+03  0.70444147854E+03  0.50400001928E-02 0.  1.
       -1    1    3    3    0  502 -0.49003964001E+03 -0.93712210924E+02 -0.42614195202E+02  0.50073625484E+03  0.50400001928E-02 0. -1.
</event>
<event>
 5   0  0.4641021E-03  0.1128421E+04  0.7818609E-02  0.9177925E-01
       -1   -1    0    0    0  501  0.00000000000E+00  0.00000000000E+00  0.92143123686E+03  0.92143123687E+03  0.50400001928E-02 0. -1.
        1   -1    0    0  501    0  0.00000000000E+00  0.00000000000E+00 -0.34547720968E+03  0.34547720972E+03  0.50400001928E-02 0.  1.
    10030    2    1    2    0    0  0.00000000000E+00  0.00000000000E+00  0.57595402718E+03  0.12669084466E+04  0.11284210077E+04 0.  0.
        1    1    3    3  502    0 -0.38592884895E+03 -0.36348105533E+02 -0.17230156140E+03  0.42420524433E+03  0.50400001928E-02 0.  1.
       -1    1    3    3    0  502  0.38592884895E+03  0.36348105533E+02  0.74825558858E+03  0.84270320226E+03  0.50400001928E-02 0. -1.
</event>
<event>
 5   0  0.7766551E-03  0.1092213E+04  0.7818609E-02  0.9212815E-01
       -2   -1    0    0    0  501  0.00000000000E+00  0.00000000000E+00  0.20332853907E+03  0.20332853908E+03  0.25500000920E-02 0. -1.
        2   -1    0    0  501    0  0.00000000000E+00  0.00000000000E+00 -0.14667514235E+04  0.14667514235E+04  0.25500000920E-02 0.  1.
    10030    2    1    2    0    0  0.00000000000E+00  0.00000000000E+00 -0.12634228844E+04  0.16700799626E+04  0.10922132102E+04 0.  0.
        5    1    3    3  502    0  0.38840349449E+03  0.22562029288E+03 -0.15683822486E+03  0.47579629030E+03  0.46999998093E+01 0. -1.
       -5    1    3    3    0  502 -0.38840349449E+03 -0.22562029288E+03 -0.11065846596E+04  0.11942836723E+04  0.46999998093E+01 0.  1.
</event>
<event>
 5   0  0.4428114E-03  0.1088424E+04  0.7818609E-02  0.9216549E-01
        1   -1    0    0  501    0  0.00000000000E+00  0.00000000000E+00  0.73729743930E+03  0.73729743932E+03  0.50400001928E-02 0.  1.
       -1   -1    0    0    0  501  0.00000000000E+00  0.00000000000E+00 -0.40169193382E+03  0.40169193385E+03  0.50400001928E-02 0. -1.
    10030    2    1    2    0    0  0.00000000000E+00  0.00000000000E+00  0.33560550548E+03  0.11389893732E+04  0.10884235099E+04 0.  0.
        4    1    3    3  502    0  0.51986387085E+03  0.11834226934E+03  0.28196495129E+03  0.60313280758E+03  0.12699999809E+01 0. -1.
       -4    1    3    3    0  502 -0.51986387085E+03 -0.11834226934E+03  0.53640554184E+02  0.53585656559E+03  0.12699999809E+01 0.  1.
</event>
<event>
 5   0  0.4298101E-03  0.1100503E+04  0.7818609E-02  0.9204702E-01
       -1   -1    0    0    0  501  0.00000000000E+00  0.00000000000E+00  0.19313163460E+03  0.19313163467E+03  0.50400001928E-02 0.  1.
        1   -1    0    0  501    0  0.00000000000E+00  0.00000000000E+00 -0.15677217240E+04  0.15677217240E+04  0.50400001928E-02 0. -1.
    10030    2    1    2    0    0  0.00000000000E+00  0.00000000000E+00 -0.13745900894E+04  0.17608533587E+04  0.11005029018E+04 0.  0.
        3    1    3    3  502    0 -0.26651150249E+03  0.47735255495E+03 -0.78699727272E+03  0.95825808640E+03  0.10100000352E+00 0. -1.
       -3    1    3    3    0  502  0.26651150249E+03 -0.47735255495E+03 -0.58759281669E+03  0.80259527229E+03  0.10100000352E+00 0.  1.
</event>
<event>
 5   0  0.2992375E-03  0.1102350E+04  0.7818609E-02  0.9202905E-01
       -3   -1    0    0    0  501  0.00000000000E+00  0.00000000000E+00  0.45571330328E+03  0.45571331447E+03  0.10100000352E+00 0. -1.
        3   -1    0    0  501    0  0.00000000000E+00  0.00000000000E+00 -0.66663344765E+03  0.66663345531E+03  0.10100000352E+00 0.  1.
    10030    2    1    2    0    0  0.00000000000E+00  0.00000000000E+00 -0.21092014438E+03  0.11223467698E+04  0.11023497468E+04 0.  0.
        1    1    3    3  502    0 -0.46534566185E+03 -0.11404803561E+03 -0.38287333836E+03  0.61330704601E+03  0.50400001928E-02 0.  1.
       -1    1    3    3    0  502  0.46534566185E+03  0.11404803561E+03  0.17195319398E+03  0.50903972377E+03  0.50400001928E-02 0. -1.
</event>
<event>
 5   0  0.4598561E-03  0.1084361E+04  0.7818609E-02  0.9220570E-01
       -1   -1    0    0    0  501  0.00000000000E+00  0.00000000000E+00  0.23904589724E+03  0.23904589729E+03  0.50400001928E-02 0. -1.
        1   -1    0    0  501    0  0.00000000000E+00  0.00000000000E+00 -0.12297211659E+04  0.12297211659E+04  0.50400001928E-02 0.  1.
    10030    2    1    2    0    0  0.00000000000E+00  0.00000000000E+00 -0.99067526866E+03  0.14687670632E+04  0.10843611935E+04 0.  0.
        2    1    3    3  502    0  0.23808269425E+03 -0.17326680667E+03 -0.11119773779E+04  0.11503036315E+04  0.25500000920E-02 0.  1.
       -2    1    3    3    0  502 -0.23808269425E+03  0.17326680667E+03  0.12130210929E+03  0.31846343169E+03  0.25500000920E-02 0. -1.
</event>
<event>
 5   0  0.2992375E-03  0.1094276E+04  0.7818609E-02  0.9210789E-01
        3   -1    0    0  501    0  0.00000000000E+00  0.00000000000E+00  0.17076010678E+03  0.17076013665E+03  0.10100000352E+00 0. -1.
       -3   -1    0    0    0  501  0.00000000000E+00  0.00000000000E+00 -0.17531028313E+04  0.17531028342E+04  0.10100000352E+00 0.  1.
    10030    2    1    2    0    0  0.00000000000E+00  0.00000000000E+00 -0.15823427245E+04  0.19238629709E+04  0.10942761228E+04 0.  0.
        5    1    3    3  502    0 -0.44789035106E+03 -0.23154515272E+03 -0.41772592573E+03  0.65477932416E+03  0.46999998093E+01 0. -1.
       -5    1    3    3    0  502  0.44789035106E+03  0.23154515272E+03 -0.11646167988E+04  0.12690836467E+04  0.46999998093E+01 0.  1.
</event>
<event>
 5   0  0.7738497E-03  0.1113924E+04  0.7818609E-02  0.9191726E-01
        2   -1    0    0  501    0  0.00000000000E+00  0.00000000000E+00  0.10559662809E+04  0.10559662809E+04  0.25500000920E-02 0. -1.
       -2   -1    0    0    0  501  0.00000000000E+00  0.00000000000E+00 -0.29376570734E+03  0.29376570735E+03  0.25500000920E-02 0.  1.
    10030    2    1    2    0    0  0.00000000000E+00  0.00000000000E+00  0.76220057354E+03  0.13497319882E+04  0.11139240215E+04 0.  0.
        4    1    3    3  502    0 -0.50301052196E+03 -0.19822169563E+03  0.54318473687E+03  0.76639591406E+03  0.12699999809E+01 0.  1.
       -4    1    3    3    0  502  0.50301052196E+03  0.19822169563E+03  0.21901583667E+03  0.58333607417E+03  0.12699999809E+01 0. -1.
</event>
<event>
 5   0  0.4641021E-03  0.1207384E+04  0.7818609E-02  0.9106418E-01
       -1   -1    0    0    0  501  0.00000000000E+00  0.00000000000E+00  0.16544696126E+04  0.16544696127E+04  0.50400001928E-02 0.  1.
        1   -1    0    0  501    0  0.00000000000E+00  0.00000000000E+00 -0.22027856926E+03  0.22027856932E+03  0.50400001928E-02 0. -1.
    10030    2    1    2    0    0  0.00000000000E+00  0.00000000000E+00  0.14341910434E+04  0.18747481820E+04  0.12073842789E+04 0.  0.
        1    1    3    3  502    0  0.44565003949E+03  0.37811816235E+02  0.87499159346E+02  0.45572995738E+03  0.50400001928E-02 0. -1.
       -1    1    3    3    0  502 -0.44565003949E+03 -0.37811816235E+02  0.13466918840E+04  0.14190182246E+04  0.50400001928E-02 0.  1.
</event>
<event>
 5   0  0.4298101E-03  0.1063068E+04  0.7818609E-02  0.9241955E-01
       -1   -1    0    0    0  501  0.00000000000E+00  0.00000000000E+00  0.36593634608E+03  0.36593634612E+03  0.50400001928E-02 0.  1.
        1   -1    0    0  501    0  0.00000000000E+00  0.00000000000E+00 -0.77206968845E+03  0.77206968847E+03  0.50400001928E-02 0. -1.
    10030    2    1    2    0    0  0.00000000000E+00  0.00000000000E+00 -0.40613334237E+03  0.11380060346E+04  0.10630679390E+04 0.  0.
        3    1    3    3  502    0 -0.96211042587E+02 -0.48259273648E+03  0.12035793584E+02  0.49223691912E+03  0.10100000352E+00 0.  1.
       -3    1    3    3    0  502  0.96211042587E+02  0.48259273648E+03 -0.41816913596E+03  0.64576911546E+03  0.10100000352E+00 0. -1.
</event>
<event>
 5   0  0.7712816E-03  0.8843508E+03  0.7818609E-02  0.9445358E-01
        2   -1    0    0  501    0  0.00000000000E+00  0.00000000000E+00  0.74283090758E+03  0.74283090759E+03  0.25500000920E-02 0.  1.
       -2   -1    0    0    0  501  0.00000000000E+00  0.00000000000E+00 -0.26320806831E+03  0.26320806832E+03  0.25500000920E-02 0. -1.
    10030    2    1    2    0    0  0.00000000000E+00  0.00000000000E+00  0.47962283927E+03  0.10060389759E+04  0.88435080884E+03 0.  0.
        2    1    3    3  502    0 -0.35498280668E+03 -0.81279337718E+02  0.52512039181E+03  0.63903877009E+03  0.25500000920E-02 0.  1.
       -2    1    3    3    0  502  0.35498280668E+03  0.81279337718E+02 -0.45497552537E+02  0.36700020582E+03  0.25500000920E-02 0. -1.
</event>
<event>
 5   0  0.7738497E-03  0.1008860E+04  0.7818609E-02  0.9298880E-01
       -2   -1    0    0    0  501  0.00000000000E+00  0.00000000000E+00  0.45465566774E+03  0.45465566775E+03  0.25500000920E-02 0.  1.
        2   -1    0    0  501    0  0.00000000000E+00  0.00000000000E+00 -0.55965385979E+03  0.55965385980E+03  0.25500000920E-02 0. -1.
    10030    2    1    2    0    0  0.00000000000E+00  0.00000000000E+00 -0.10499819205E+03  0.10143095275E+04  0.10088603458E+04 0.  0.
        4    1    3    3  502    0  0.22287881369E+03  0.37872927303E+03 -0.30150061004E+03  0.53293063206E+03  0.12699999809E+01 0. -1.
       -4    1    3    3    0  502 -0.22287881369E+03 -0.37872927303E+03  0.19650241799E+03  0.48137889548E+03  0.12699999809E+01 0.  1.
</event>
<event>
 5   0  0.4504740E-03  0.1095842E+04  0.7818609E-02  0.9209254E-01
       -1   -1    0    0    0  501  0.00000000000E+00  0.00000000000E+00  0.35786867708E+03  0.35786867712E+03  0.50400001928E-02 0.  1.
        1   -1    0    0  501    0  0.00000000000E+00  0.00000000000E+00 -0.83890401175E+03  0.83890401177E+03  0.50400001928E-02 0. -1.
    10030    2    1    2    0    0  0.00000000000E+00  0.00000000000E+00 -0.48103533467E+03  0.11967726889E+04  0.10958420852E+04 0.  0.
        5    1    3    3  502    0  0.27003126434E+03 -0.45383635282E+03 -0.39994626314E+03  0.66246767639E+03  0.46999998093E+01 0. -1.
       -5    1    3    3    0  502 -0.27003126434E+03  0.45383635282E+03 -0.81089071530E+02  0.53430501250E+03  0.46999998093E+01 0.  1.
</event>
<event>
 5   0  0.7738497E-03  0.1105025E+04  0.7818609E-02  0.9200308E-01
        2   -1    0    0  501    0  0.00000000000E+00  0.00000000000E+00  0.18656768558E+04  0.18656768558E+04  0.25500000920E-02 0. -1.
       -2   -1    0    0    0  501  0.00000000000E+00  0.00000000000E+00 -0.16362428756E+03  0.16362428758E+03  0.25500000920E-02 0.  1.
    10030    2    1    2    0    0  0.00000000000E+00  0.00000000000E+00  0.17020525683E+04  0.20293011434E+04  0.11050249705E+04 0.  0.
        4    1    3    3  502    0  0.11450012404E+03 -0.20766137593E+03  0.17674673083E+04  0.17833047480E+04  0.12699999809E+01 0. -1.
       -4    1    3    3    0  502 -0.11450012404E+03  0.20766137593E+03 -0.65414740004E+02  0.24599639543E+03  0.12699999809E+01 0.  1.
</event>
<event>
 5   0  0.4598561E-03  0.1097777E+04  0.7818609E-02  0.9207361E-01
       -1   -1    0    0    0  501  0.00000000000E+00  0.00000000000E+00  0.49408705184E+03  0.49408705187E+03  0.50400001928E-02 0. -1.
        1   -1    0    0  501    0  0.00000000000E+00  0.00000000000E+00 -0.60976823721E+03  0.60976823723E+03  0.50400001928E-02 0.  1.
    10030    2    1    2    0    0  0.00000000000E+00  0.00000000000E+00 -0.11568118537E+03  0.11038552891E+04  0.10977770095E+04 0.  0.
        2    1    3    3  502    0  0.52545957415E+03  0.14010343970E+03  0.17015215484E+02  0.54408294905E+03  0.25500000920E-02 0. -1.
       -2    1    3    3    0  502 -0.52545957415E+03 -0.14010343970E+03 -0.13269640086E+03  0.55977234005E+03  0.25500000920E-02 0.  1.
</event>
<event>
 5   0  0.7766551E-03  0.1145138E+04  0.7818609E-02  0.9162280E-01
       -2   -1    0    0    0  501  0.00000000000E+00  0.00000000000E+00  0.43143887238E+03  0.43143887239E+03  0.25500000920E-02 0. -1.
        2   -1    0    0  501    0  0.00000000000E+00  0.00000000000E+00 -0.75986537679E+03  0.75986537679E+03  0.25500000920E-02 0.  1.
    10030    2    1    2    0    0  0.00000000000E+00  0.00000000000E+00 -0.32842650441E+03  0.11913042492E+04  0.11451383520E+04 0.  0.
        5    1    3    3  502    0 -0.28091382006E+03  0.30346495665E+03 -0.57616974779E+03  0.70922297092E+03  0.46999998093E+01 0.  1.
       -5    1    3    3    0  502  0.28091382006E+03 -0.30346495665E+03  0.24774324338E+03  0.48208127826E+03  0.46999998093E+01 0. -1.
</event>
<event>
 5   0  0.4598561E-03  0.1078545E+04  0.7818609E-02  0.9226360E-01
       -1   -1    0    0    0  501  0.00000000000E+00  0.00000000000E+00  0.11552203178E+03  0.11552203189E+03  0.50400001928E-02 0. -1.
        1   -1    0    0  501    0  0.00000000000E+00  0.00000000000E+00 -0.25173963707E+04  0.25173963707E+04  0.50400001928E-02 0.  1.
    10030    2    1    2    0    0  0.00000000000E+00  0.00000000000E+00 -0.24018743390E+04  0.26329184026E+04  0.10785448413E+04 0.  0.
        2    1    3    3  502    0 -0.50702350417E+03 -0.64548688547E+02 -0.16207583414E+04  0.16994401926E+04  0.25500000920E-02 0. -1.
       -2    1    3    3    0  502  0.50702350417E+03  0.64548688547E+02 -0.78111599755E+03  0.93347821004E+03  0.25500000920E-02 0.  1.
</event>
<event>
 5   0  0.7952121E-03  0.1136441E+04  0.7818609E-02  0.9170384E-01
        2   -1    0    0  501    0  0.00000000000E+00  0.00000000000E+00  0.12708571168E+04  0.12708571168E+04  0.25500000920E-02 0.  1.
       -2   -1    0    0    0  501  0.00000000000E+00  0.00000000000E+00 -0.25406061271E+03  0.25406061272E+03  0.25500000920E-02 0. -1.
    10030    2    1    2    0    0  0.00000000000E+00  0.00000000000E+00  0.10167965041E+04  0.15249177296E+04  0.11364413540E+04 0.  0.
        3    1    3    3  502    0  0.42528716489E+03  0.30171348349E+03  0.20544473757E+03  0.56045316409E+03  0.10100000352E+00 0. -1.
       -3    1    3    3    0  502 -0.42528716489E+03 -0.30171348349E+03  0.81135176656E+03  0.96446456547E+03  0.10100000352E+00 0.  1.
</event>
<event>
 5   0  0.2992375E-03  0.1085291E+04  0.7818609E-02  0.9219648E-01
       -4   -1    0    0    0  501  0.00000000000E+00  0.00000000000E+00  0.25720521828E+03  0.25720835369E+03  0.12699999809E+01 0.  1.
        4   -1    0    0  501    0  0.00000000000E+00  0.00000000000E+00 -0.11448509835E+04  0.11448516879E+04  0.12699999809E+01 0. -1.
    10030    2    1    2    0    0  0.00000000000E+00  0.00000000000E+00 -0.88764576525E+03  0.14020600416E+04  0.10852913691E+04 0.  0.
        4    1    3    3  502    0 -0.31655280921E+03  0.27738676245E+03 -0.13420142082E+01  0.42089489294E+03  0.12699999809E+01 0.  1.
       -4    1    3    3    0  502  0.31655280921E+03 -0.27738676245E+03 -0.88630375105E+03  0.98116514870E+03  0.12699999809E+01 0. -1.
</event>
<event>
 5   0  0.7712816E-03  0.1016510E+04  0.7818609E-02  0.9290620E-01
       -2   -1    0    0    0  501  0.00000000000E+00  0.00000000000E+00  0.13239885285E+03  0.13239885288E+03  0.25500000920E-02 0.  1.
        2   -1    0    0  501    0  0.00000000000E+00  0.00000000000E+00 -0.19510983164E+04  0.19510983164E+04  0.25500000920E-02 0. -1.
    10030    2    1    2    0    0  0.00000000000E+00  0.00000000000E+00 -0.18186994636E+04  0.20834971693E+04  0.10165100667E+04 0.  0.
        2    1    3    3  502    0 -0.10819480610E+03 -0.16169668250E+03 -0.18717532653E+04  0.18818374582E+04  0.25500000920E-02 0. -1.
       -2    1    3    3    0  502  0.10819480610E+03  0.16169668250E+03  0.53053801666E+02  0.20165971109E+03  0.25500000920E-02 0.  1.
</event>
<event>
 5   0  0.2992375E-03  0.1076582E+04  0.7818609E-02  0.9228322E-01
       -3   -1    0    0    0  501  0.00000000000E+00  0.00000000000E+00  0.13458939295E+03  0.13458943085E+03  0.10100000352E+00 0.  1.
        3   -1    0    0  501    0  0.00000000000E+00  0.00000000000E+00 -0.21528988670E+04  0.21528988694E+04  0.10100000352E+00 0. -1.
    10030    2    1    2    0    0  0.00000000000E+00  0.00000000000E+00 -0.20183094741E+04  0.22874883002E+04  0.10765823659E+04 0.  0.
        2    1    3    3  502    0 -0.12659430314E+03  0.20273134031E+03  0.15660745982E+02  0.23952321997E+03  0.25500000920E-02 0.  1.
       -2    1    3    3    0  502  0.12659430314E+03 -0.20273134031E+03 -0.20339702201E+04  0.20479650803E+04  0.25500000920E-02 0. -1.
</event>
<event>
 5   0  0.7738497E-03  0.1036516E+04  0.7818609E-02  0.9269377E-01
        2   -1    0    0  501    0  0.00000000000E+00  0.00000000000E+00  0.13583603190E+04  0.13583603190E+04  0.25500000920E-02 0.  1.
       -2   -1    0    0    0  501  0.00000000000E+00  0.00000000000E+00 -0.19773201449E+03  0.19773201451E+03  0.25500000920E-02 0. -1.
    10030    2    1    2    0    0  0.00000000000E+00  0.00000000000E+00  0.11606283045E+04  0.15560923335E+04  0.10365159377E+04 0.  0.
        4    1    3    3  502    0  0.48282585013E+03  0.42055270345E+02  0.30471617998E+03  0.57248843705E+03  0.12699999809E+01 0. -1.
       -4    1    3    3    0  502 -0.48282585013E+03 -0.42055270345E+02  0.85591212450E+03  0.98360389643E+03  0.12699999809E+01 0.  1.
</event>
<event>
 5   0  0.7766551E-03  0.1104271E+04  0.7818609E-02  0.9201039E-01
       -2   -1    0    0    0  501  0.00000000000E+00  0.00000000000E+00  0.11337415013E+04  0.11337415013E+04  0.25500000920E-02 0.  1.
        2   -1    0    0  501    0  0.00000000000E+00  0.00000000000E+00 -0.26889167998E+03  0.26889167999E+03  0.25500000920E-02 0. -1.
    10030    2    1    2    0    0  0.00000000000E+00  0.00000000000E+00  0.86484982135E+03  0.14026331813E+04  0.11042710844E+04 0.  0.
        5    1    3    3  502    0 -0.29278712472E+03  0.11654374181E+02 -0.16195229737E+03  0.33482945130E+03  0.46999998093E+01 0. -1.
       -5    1    3    3    0  502  0.29278712472E+03 -0.11654374181E+02  0.10268021187E+04  0.10678037300E+04  0.46999998093E+01 0.  1.
</event>
<event>
 5   0  0.4428114E-03  0.7299322E+03  0.7818609E-02  0.9667370E-01
        1   -1    0    0  501    0  0.00000000000E+00  0.00000000000E+00  0.54302394264E+03  0.54302394267E+03  0.50400001928E-02 0. -1.
       -1   -1    0    0    0  501  0.00000000000E+00  0.00000000000E+00 -0.24529353206E+03  0.24529353211E+03  0.50400001928E-02 0.  1.
    10030    2    1    2    0    0  0.00000000000E+00  0.00000000000E+00  0.29773041059E+03  0.78831747478E+03  0.72993221853E+03 0.  0.
        4    1    3    3  502    0 -0.17362433896E+03  0.28248714573E+03 -0.15825763229E+02  0.33195853094E+03  0.12699999809E+01 0.  1.
       -4    1    3    3    0  502  0.17362433896E+03 -0.28248714573E+03  0.31355617382E+03  0.45635894384E+03  0.12699999809E+01 0. -1.
</event>
<event>
 5   0  0.2992375E-03  0.1118656E+04  0.7818609E-02  0.9187197E-01
       -4   -1    0    0    0  501  0.00000000000E+00  0.00000000000E+00  0.95314892158E+03  0.95314976767E+03  0.12699999809E+01 0. -1.
        4   -1    0    0  501    0  0.00000000000E+00  0.00000000000E+00 -0.32822306962E+03  0.32822552663E+03  0.12699999809E+01 0.  1.
    10030    2    1    2    0    0  0.00000000000E+00  0.00000000000E+00  0.62492585196E+03  0.12813752943E+04  0.11186555879E+04 0.  0.
        1    1    3    3  502    0  0.51399834952E+03 -0.21878705190E+03  0.28035930180E+03  0.62503073166E+03  0.50400001928E-02 0. -1.
       -1    1    3    3    0  502 -0.51399834952E+03  0.21878705190E+03  0.34456655015E+03  0.65634456264E+03  0.50400001928E-02 0.  1.
</event>
<event>
 5   0  0.7766551E-03  0.1106592E+04  0.7818609E-02  0.9198791E-01
        2   -1    0    0  501    0  0.00000000000E+00  0.00000000000E+00  0.12084389347E+04  0.12084389347E+04  0.25500000920E-02 0. -1.
       -2   -1    0    0    0  501  0.00000000000E+00  0.00000000000E+00 -0.25333195356E+03  0.25333195357E+03  0.25500000920E-02 0.  1.
    10030    2    1    2    0    0  0.00000000000E+00  0.00000000000E+00  0.95510698113E+03  0.14617708883E+04  0.11065915165E+04 0.  0.
        5    1    3    3  502    0  0.54084231102E+03  0.10630070277E+03  0.54095799846E+03  0.77231333725E+03  0.46999998093E+01 0.  1.
       -5    1    3    3    0  502 -0.54084231102E+03 -0.10630070277E+03  0.41414898268E+03  0.68945755102E+03  0.46999998093E+01 0. -1.
</event>
<event>
 5   0  0.4298101E-03  0.1115356E+04  0.7818609E-02  0.9190353E-01
        1   -1    0    0  501    0  0.00000000000E+00  0.00000000000E+00  0.69299067322E+03  0.69299067324E+03  0.50400001928E-02 0. -1.
       -1   -1    0    0    0  501  0.00000000000E+00  0.00000000000E+00 -0.44878645077E+03  0.44878645080E+03  0.50400001928E-02 0.  1.
    10030    2    1    2    0    0  0.00000000000E+00  0.00000000000E+00  0.24420422245E+03  0.11417771240E+04  0.11153561309E+04 0.  0.
        3    1    3    3  502    0 -0.22717692555E+03  0.46475554078E+03 -0.91153941784E+02  0.52527718348E+03  0.10100000352E+00 0.  1.
       -3    1    3    3    0  502  0.22717692555E+03 -0.46475554078E+03  0.33535816423E+03  0.61649994055E+03  0.10100000352E+00 0. -1.
</event>
<event>
 5   0  0.7537480E-03  0.1189501E+04  0.7818609E-02  0.9122096E-01
        2   -1    0    0  501    0  0.00000000000E+00  0.00000000000E+00  0.33716119105E+03  0.33716119105E+03  0.25500000920E-02 0.  1.
       -2   -1    0    0    0  501  0.00000000000E+00  0.00000000000E+00 -0.10491374872E+04  0.10491374872E+04  0.25500000920E-02 0. -1.
    10030    2    1    2    0    0  0.00000000000E+00  0.00000000000E+00 -0.71197629614E+03  0.13862986782E+04  0.11895014834E+04 0.  0.
        1    1    3    3  502    0 -0.92559788483E+02 -0.16099482751E+03  0.30250565725E+03  0.35495960562E+03  0.50400001928E-02 0.  1.
       -1    1    3    3    0  502  0.92559788483E+02  0.16099482751E+03 -0.10144819534E+04  0.10313390726E+04  0.50400001928E-02 0. -1.
</event>
<event>
 5   0  0.4641021E-03  0.1107594E+04  0.7818609E-02  0.9197822E-01
       -1   -1    0    0    0  501  0.00000000000E+00  0.00000000000E+00  0.24701233782E+03  0.24701233787E+03  0.50400001928E-02 0. -1.
        1   -1    0    0  501    0  0.00000000000E+00  0.00000000000E+00 -0.12416025244E+04  0.12416025245E+04  0.50400001928E-02 0.  1.
    10030    2    1    2    0    0  0.00000000000E+00  0.00000000000E+00 -0.99459018662E+03  0.14886148623E+04  0.11075940452E+04 0.  0.
        1    1    3    3  502    0  0.30284331358E+03  0.41915164766E+03 -0.76369682138E+03  0.92229876468E+03  0.50400001928E-02 0. -1.
       -1    1    3    3    0  502 -0.30284331358E+03 -0.41915164766E+03 -0.23089336524E+03  0.56631609765E+03  0.50400001928E-02 0.  1.
</event>
<event>
 5   0  0.7537480E-03  0.1091652E+04  0.7818609E-02  0.9213367E-01
        2   -1    0    0  501    0  0.00000000000E+00  0.00000000000E+00  0.78014027907E+03  0.78014027907E+03  0.25500000920E-02 0. -1.
       -2   -1    0    0    0  501  0.00000000000E+00  0.00000000000E+00 -0.38188785571E+03  0.38188785572E+03  0.25500000920E-02 0.  1.
    10030    2    1    2    0    0  0.00000000000E+00  0.00000000000E+00  0.39825242336E+03  0.11620281348E+04  0.10916521393E+04 0.  0.
        1    1    3    3  502    0  0.17765218492E+03  0.48414994097E+03  0.88137433163E+01  0.51578982759E+03  0.50400001928E-02 0.  1.
       -1    1    3    3    0  502 -0.17765218492E+03 -0.48414994097E+03  0.38943868005E+03  0.64623830720E+03  0.50400001928E-02 0. -1.
</event>
<event>
 5   0  0.7537480E-03  0.9944062E+03  0.7818609E-02  0.9314701E-01
        2   -1    0    0  501    0  0.00000000000E+00  0.00000000000E+00  0.62683566239E+03  0.62683566239E+03  0.25500000920E-02 0. -1.
       -2   -1    0    0    0  501  0.00000000000E+00  0.00000000000E+00 -0.39437914388E+03  0.39437914389E+03  0.25500000920E-02 0.  1.
    10030    2    1    2    0    0  0.00000000000E+00  0.00000000000E+00  0.23245651850E+03  0.10212148063E+04  0.99440617837E+03 0.  0.
        1    1    3    3  502    0  0.67583873063E+02 -0.13208765996E+03 -0.37111369506E+03  0.39967499859E+03  0.50400001928E-02 0.  1.
       -1    1    3    3    0  502 -0.67583873063E+02  0.13208765996E+03  0.60357021357E+03  0.62153980769E+03  0.50400001928E-02 0. -1.
</event>
<event>
 5   0  0.7766551E-03  0.1106975E+04  0.7818609E-02  0.9198420E-01
        2   -1    0    0  501    0  0.00000000000E+00  0.00000000000E+00  0.78483807626E+03  0.78483807627E+03  0.25500000920E-02 0. -1.
       -2   -1    0    0    0  501  0.00000000000E+00  0.00000000000E+00 -0.39033355339E+03  0.39033355340E+03  0.25500000920E-02 0.  1.
    10030    2    1    2    0    0  0.00000000000E+00  0.00000000000E+00  0.39450452287E+03  0.11751716297E+04  0.11069754020E+04 0.  0.
        5    1    3    3  502    0 -0.17762881116E+03 -0.44899149035E+03 -0.89933608487E+02  0.49117766327E+03  0.46999998093E+01 0.  1.
       -5    1    3    3    0  502  0.17762881116E+03  0.44899149035E+03  0.48443813136E+03  0.68399396640E+03  0.46999998093E+01 0. -1.
</event>
<event>
 5   0  0.7952121E-03  0.1147171E+04  0.7818609E-02  0.9160397E-01
       -2   -1    0    0    0  501  0.00000000000E+00  0.00000000000E+00  0.20325341962E+03  0.20325341963E+03  0.25500000920E-02 0. -1.
        2   -1    0    0  501    0  0.00000000000E+00  0.00000000000E+00 -0.16186718462E+04  0.16186718462E+04  0.25500000920E-02 0.  1.
    10030    2    1    2    0    0  0.00000000000E+00  0.00000000000E+00 -0.14154184266E+04  0.18219252658E+04  0.11471714571E+04 0.  0.
        3    1    3    3  502    0  0.31920718828E+03  0.36960278815E+02  0.46875015041E+02  0.32474077123E+03  0.10100000352E+00 0. -1.
       -3    1    3    3    0  502 -0.31920718828E+03 -0.36960278815E+02 -0.14622934416E+04  0.14971844946E+04  0.10100000352E+00 0.  1.
</event>
<event>
 5   0  0.4598561E-03  0.1104959E+04  0.7818609E-02  0.9200372E-01
        1   -1    0    0  501    0  0.00000000000E+00  0.00000000000E+00  0.82348222202E+03  0.82348222203E+03  0.50400001928E-02 0. -1.
       -1   -1    0    0    0  501  0.00000000000E+00  0.00000000000E+00 -0.37066173708E+03  0.37066173711E+03  0.50400001928E-02 0.  1.
    10030    2    1    2    0    0  0.00000000000E+00  0.00000000000E+00  0.45282048494E+03  0.11941439591E+04  0.11049585529E+04 0.  0.
        2    1    3    3  502    0  0.18151343545E+03  0.25218735597E+02 -0.33685861971E+03  0.38347991023E+03  0.25500000920E-02 0.  1.
       -2    1    3    3    0  502 -0.18151343545E+03 -0.25218735597E+02  0.78967910465E+03  0.81066404891E+03  0.25500000920E-02 0. -1.
</event>
<event>
 5   0  0.4298101E-03  0.8977685E+03  0.7818609E-02  0.9428375E-01
        1   -1    0    0  501    0  0.00000000000E+00  0.00000000000E+00  0.71114315532E+03  0.71114315534E+03  0.50400001928E-02 0.  1.
       -1   -1    0    0    0  501  0.00000000000E+00  0.00000000000E+00 -0.28334247224E+03  0.28334247228E+03  0.50400001928E-02 0. -1.
    10030    2    1    2    0    0  0.00000000000E+00  0.00000000000E+00  0.42780068308E+03  0.99448562762E+03  0.89776847744E+03 0.  0.
        3    1    3    3  502    0  0.11465155487E+03  0.24369110044E+03  0.61170785625E+03  0.66836879271E+03  0.10100000352E+00 0.  1.
       -3    1    3    3    0  502 -0.11465155487E+03 -0.24369110044E+03 -0.18390717317E+03  0.32611683491E+03  0.10100000352E+00 0. -1.
</event>
<event>
 5   0  0.2992375E-03  0.1117919E+04  0.7818609E-02  0.9187900E-01
        3   -1    0    0  501    0  0.00000000000E+00  0.00000000000E+00  0.30602030114E+03  0.30602031781E+03  0.10100000352E+00 0. -1.
       -3   -1    0    0    0  501  0.00000000000E+00  0.00000000000E+00 -0.10209644493E+04  0.10209644543E+04  0.10100000352E+00 0.  1.
    10030    2    1    2    0    0  0.00000000000E+00  0.00000000000E+00 -0.71494414813E+03  0.13269847721E+04  0.11179192504E+04 0.  0.
        4    1    3    3  502    0 -0.52443213613E+03 -0.30505833695E+02 -0.58417161714E+03  0.78563207831E+03  0.12699999809E+01 0.  1.
       -4    1    3    3    0  502  0.52443213613E+03  0.30505833695E+02 -0.13077253099E+03  0.54135269377E+03  0.12699999809E+01 0. -1.
</event>
<event>
 5   0  0.4598561E-03  0.1102788E+04  0.7818609E-02  0.9202479E-01
        1   -1    0    0  501    0  0.00000000000E+00  0.00000000000E+00  0.14598982484E+04  0.14598982484E+04  0.50400001928E-02 0.  1.
       -1   -1    0    0    0  501  0.00000000000E+00  0.00000000000E+00 -0.20825781935E+03  0.20825781941E+03  0.50400001928E-02 0. -1.
    10030    2    1    2    0    0  0.00000000000E+00  0.00000000000E+00  0.12516404290E+04  0.16681560678E+04  0.11027877869E+04 0.  0.
        2    1    3    3  502    0  0.10052641662E+03  0.21441621270E+03 -0.12741649248E+03  0.26891417826E+03  0.25500000920E-02 0. -1.
       -2    1    3    3    0  502 -0.10052641662E+03 -0.21441621270E+03  0.13790569215E+04  0.13992418895E+04  0.25500000920E-02 0.  1.
</event>
<event>
 5   0  0.4641021E-03  0.1110118E+04  0.7818609E-02  0.9195386E-01
       -1   -1    0    0    0  501  0.00000000000E+00  0.00000000000E+00  0.59416561455E+03  0.59416561458E+03  0.50400001928E-02 0. -1.
        1   -1    0    0  501    0  0.00000000000E+00  0.00000000000E+00 -0.51852656119E+03  0.51852656121E+03  0.50400001928E-02 0.  1.
    10030    2    1    2    0    0  0.00000000000E+00  0.00000000000E+00  0.75639053366E+02  0.11126921758E+04  0.11101182872E+04 0.  0.
        1    1    3    3  502    0 -0.36076214677E+03 -0.12414714131E+03  0.44190288033E+03  0.58381503485E+03  0.50400001928E-02 0. -1.
       -1    1    3    3    0  502  0.36076214677E+03  0.12414714131E+03 -0.36626382697E+03  0.52887714094E+03  0.50400001928E-02 0.  1.
</event>
<event>
 5   0  0.7537480E-03  0.1124707E+04  0.7818609E-02  0.9181440E-01
       -2   -1    0    0    0  501  0.00000000000E+00  0.00000000000E+00  0.22956629084E+03  0.22956629085E+03  0.25500000920E-02 0. -1.
        2   -1    0    0  501    0  0.00000000000E+00  0.00000000000E+00 -0.13775601213E+04  0.13775601213E+04  0.25500000920E-02 0.  1.
    10030    2    1    2    0    0  0.00000000000E+00  0.00000000000E+00 -0.11479938305E+04  0.16071264122E+04  0.11247068373E+04 0.  0.
        1    1    3    3  502    0 -0.40478802306E+03 -0.32625268439E+03 -0.88029217433E+03  0.10223543759E+04  0.50400001928E-02 0.  1.
       -1    1    3    3    0  502  0.40478802306E+03  0.32625268439E+03 -0.26770165614E+03  0.58477203628E+03  0.50400001928E-02 0. -1.
</event>
<event>
 5   0  0.4298101E-03  0.1048378E+04  0.7818609E-02  0.9257020E-01
        1   -1    0    0  501    0  0.00000000000E+00  0.00000000000E+00  0.41901958164E+03  0.41901958167E+03  0.50400001928E-02 0. -1.
       -1   -1    0    0    0  501  0.00000000000E+00  0.00000000000E+00 -0.65575509657E+03  0.65575509659E+03  0.50400001928E-02 0.  1.
    10030    2    1    2    0    0  0.00000000000E+00  0.00000000000E+00 -0.23673551493E+03  0.10747746783E+04  0.10483782261E+04 0.  0.
        3    1    3    3  502    0 -0.38237149615E+03 -0.68309235837E+02  0.24248935334E+03  0.45790305682E+03  0.10100000352E+00 0. -1.
       -3    1    3    3    0  502  0.38237149615E+03  0.68309235837E+02 -0.47922486827E+03  0.61687162144E+03  0.10100000352E+00 0.  1.
</event>
<event>
 5   0  0.7712816E-03  0.1103314E+04  0.7818609E-02  0.9201968E-01
       -2   -1    0    0    0  501  0.00000000000E+00  0.00000000000E+00  0.34421978876E+03  0.34421978877E+03  0.25500000920E-02 0. -1.
        2   -1    0    0  501    0  0.00000000000E+00  0.00000000000E+00 -0.88410239033E+03  0.88410239033E+03  0.25500000920E-02 0.  1.
    10030    2    1    2    0    0  0.00000000000E+00  0.00000000000E+00 -0.53988260157E+03  0.12283221791E+04  0.11033141675E+04 0.  0.
        2    1    3    3  502    0  0.11129436325E+03 -0.36659393020E+03  0.17195415595E+03  0.41993544349E+03  0.25500000920E-02 0. -1.
       -2    1    3    3    0  502 -0.11129436325E+03  0.36659393020E+03 -0.71183675752E+03  0.80838673561E+03  0.25500000920E-02 0.  1.
</event>
<event>
 5   0  0.4504740E-03  0.1081470E+04  0.7818609E-02  0.9223443E-01
       -1   -1    0    0    0  501  0.00000000000E+00  0.00000000000E+00  0.61982940937E+03  0.61982940939E+03  0.50400001928E-02 0.  1.
        1   -1    0    0  501    0  0.00000000000E+00  0.00000000000E+00 -0.47173378690E+03  0.47173378693E+03  0.50400001928E-02 0. -1.
    10030    2    1    2    0    0  0.00000000000E+00  0.00000000000E+00  0.14809562247E+03  0.10915631963E+04  0.10814702484E+04 0.  0.
        5    1    3    3  502    0 -0.90839003787E+02  0.61687319047E+02 -0.46034146720E+03  0.47327941680E+03  0.46999998093E+01 0. -1.
       -5    1    3    3    0  502  0.90839003787E+02 -0.61687319047E+02  0.60843708967E+03  0.61828377952E+03  0.46999998093E+01 0.  1.
</event>
<event>
 5   0  0.7738497E-03  0.1093689E+04  0.7818609E-02  0.9211365E-01
       -2   -1    0    0    0  501  0.00000000000E+00  0.00000000000E+00  0.20346072678E+03  0.20346072680E+03  0.25500000920E-02 0. -1.
        2   -1    0    0  501    0  0.00000000000E+00  0.00000000000E+00 -0.14697630570E+04  0.14697630570E+04  0.25500000920E-02 0.  1.
    10030    2    1    2    0    0  0.00000000000E+00  0.00000000000E+00 -0.12663023302E+04  0.16732237838E+04  0.10936892791E+04 0.  0.
        4    1    3    3  502    0  0.11123552052E+03 -0.50510128162E+03 -0.36146414260E+03  0.63099808637E+03  0.12699999809E+01 0. -1.
       -4    1    3    3    0  502 -0.11123552052E+03  0.50510128162E+03 -0.90483818760E+03  0.10422256974E+04  0.12699999809E+01 0.  1.
</event>
<event>
 5   0  0.7537480E-03  0.1086208E+04  0.7818609E-02  0.9218739E-01
       -2   -1    0    0    0  501  0.00000000000E+00  0.00000000000E+00  0.63174220802E+03  0.63174220803E+03  0.25500000920E-02 0.  1.
        2   -1    0    0  501    0  0.00000000000E+00  0.00000000000E+00 -0.46690260774E+03  0.46690260775E+03  0.25500000920E-02 0. -1.
    10030    2    1    2    0    0  0.00000000000E+00  0.00000000000E+00  0.16483960028E+03  0.10986448158E+04  0.10862082385E+04 0.  0.
        1    1    3    3  502    0  0.12504632280E+03  0.67003244912E+02 -0.44783069231E+03  0.46976413941E+03  0.50400001928E-02 0. -1.
       -1    1    3    3    0  502 -0.12504632280E+03 -0.67003244912E+02  0.61267029258E+03  0.62888067637E+03  0.50400001928E-02 0.  1.
</event>
<event>
 5   0  0.7537480E-03  0.1097845E+04  0.7818609E-02  0.9207295E-01
        2   -1    0    0  501    0  0.00000000000E+00  0.00000000000E+00  0.14372346079E+04  0.14372346079E+04  0.25500000920E-02 0.  1.
       -2   -1    0    0    0  501  0.00000000000E+00  0.00000000000E+00 -0.20964987557E+03  0.20964987559E+03  0.25500000920E-02 0. -1.
    10030    2    1    2    0    0  0.00000000000E+00  0.00000000000E+00  0.12275847323E+04  0.16468844834E+04  0.10978452654E+04 0.  0.
        1    1    3    3  502    0  0.51523552899E+03  0.18922932639E+03  0.62335880898E+03  0.83057305101E+03  0.50400001928E-02 0.  1.
       -1    1    3    3    0  502 -0.51523552899E+03 -0.18922932639E+03  0.60422592331E+03  0.81631143244E+03  0.50400001928E-02 0. -1.
</event>
<event>
 5   0  0.4428114E-03  0.1124962E+04  0.7818609E-02  0.9181198E-01
       -1   -1    0    0    0  501  0.00000000000E+00  0.00000000000E+00  0.38460793652E+03  0.38460793655E+03  0.50400001928E-02 0.  1.
        1   -1    0    0  501    0  0.00000000000E+00  0.00000000000E+00 -0.82261651236E+03  0.82261651238E+03  0.50400001928E-02 0. -1.
    10030    2    1    2    0    0  0.00000000000E+00  0.00000000000E+00 -0.43800857584E+03  0.12072244489E+04  0.11249619361E+04 0.  0.
        4    1    3    3  502    0  0.16534514513E+02  0.81967053054E+02  0.37789931425E+03  0.38704197779E+03  0.12699999809E+01 0.  1.
       -4    1    3    3    0  502 -0.16534514513E+02 -0.81967053054E+02 -0.81590789009E+03  0.82018247114E+03  0.12699999809E+01 0. -1.
</event>
<event>
 5   0  0.7738497E-03  0.1096707E+04  0.7818609E-02  0.9208408E-01
        2   -1    0    0  501    0  0.00000000000E+00  0.00000000000E+00  0.12639143308E+04  0.12639143308E+04  0.25500000920E-02 0.  1.
       -2   -1    0    0    0  501  0.00000000000E+00  0.00000000000E+00 -0.23790481478E+03  0.23790481480E+03  0.25500000920E-02 0. -1.
    10030    2    1    2    0    0  0.00000000000E+00  0.00000000000E+00  0.10260095160E+04  0.15018191456E+04  0.10967065328E+04 0.  0.
        4    1    3    3  502    0 -0.48098945493E+03  0.20341794182E+03  0.74198373546E+03  0.90734292932E+03  0.12699999809E+01 0.  1.
       -4    1    3    3    0  502  0.48098945493E+03 -0.20341794182E+03  0.28402578058E+03  0.59447621629E+03  0.12699999809E+01 0. -1.
</event>
<event>
 5   0  0.7738497E-03  0.1173427E+04  0.7818609E-02  0.9136439E-01
        2   -1    0    0  501    0  0.00000000000E+00  0.00000000000E+00  0.69112086610E+03  0.69112086610E+03  0.25500000920E-02 0.  1.
       -2   -1    0    0    0  501  0.00000000000E+00  0.00000000000E+00 -0.49807914870E+03  0.49807914871E+03  0.25500000920E-02 0. -1.
    10030    2    1    2    0    0  0.00000000000E+00  0.00000000000E+00  0.19304171740E+03  0.11892000148E+04  0.11734272754E+04 0.  0.
        4    1    3    3  502    0 -0.76572589377E+02  0.51199483352E+03 -0.18328669403E+03  0.54917911113E+03  0.12699999809E+01 0. -1.
       -4    1    3    3    0  502  0.76572589377E+02 -0.51199483352E+03  0.37632841143E+03  0.64002090368E+03  0.12699999809E+01 0.  1.
</event>
<event>
 5   0  0.2992375E-03  0.1096054E+04  0.7818609E-02  0.9209046E-01
       -4   -1    0    0    0  501  0.00000000000E+00  0.00000000000E+00  0.64463622875E+03  0.64463747976E+03  0.12699999809E+01 0. -1.
        4   -1    0    0  501    0  0.00000000000E+00  0.00000000000E+00 -0.46589393399E+03  0.46589566496E+03  0.12699999809E+01 0.  1.
    10030    2    1    2    0    0  0.00000000000E+00  0.00000000000E+00  0.17874229476E+03  0.11105331447E+04  0.10960543132E+04 0.  0.
        3    1    3    3  502    0  0.36285478595E+03  0.12910453720E+03 -0.30565364497E+03  0.49168662591E+03  0.10100000352E+00 0.  1.
       -3    1    3    3    0  502 -0.36285478595E+03 -0.12910453720E+03  0.48439593973E+03  0.61884651881E+03  0.10100000352E+00 0. -1.
</event>
<event>
 5   0  0.7537480E-03  0.1019536E+04  0.7818609E-02  0.9287374E-01
        2   -1    0    0  501    0  0.00000000000E+00  0.00000000000E+00  0.65814635536E+03  0.65814635537E+03  0.25500000920E-02 0.  1.
       -2   -1    0    0    0  501  0.00000000000E+00  0.00000000000E+00 -0.39484140348E+03  0.39484140349E+03  0.25500000920E-02 0. -1.
    10030    2    1    2    0    0  0.00000000000E+00  0.00000000000E+00  0.26330495189E+03  0.10529877589E+04  0.10195360330E+04 0.  0.
        1    1    3    3  502    0 -0.78716901423E+02  0.88937152150E+02  0.64365714789E+03  0.65452325525E+03  0.50400001928E-02 0.  1.
       -1    1    3    3    0  502  0.78716901423E+02 -0.88937152150E+02 -0.38035219601E+03  0.39846450361E+03  0.50400001928E-02 0. -1.
</event>
<event>
 5   0  0.4298101E-03  0.8722126E+03  0.7818609E-02  0.9461000E-01
        1   -1    0    0  501    0  0.00000000000E+00  0.00000000000E+00  0.78559278026E+03  0.78559278027E+03  0.50400001928E-02 0. -1.
       -1   -1    0    0    0  501  0.00000000000E+00  0.00000000000E+00 -0.24209576296E+03  0.24209576301E+03  0.50400001928E-02 0.  1.
    10030    2    1    2    0    0  0.00000000000E+00  0.00000000000E+00  0.54349701730E+03  0.10276885433E+04  0.87221255104E+03 0.  0.
        3    1    3    3  502    0 -0.10938832600E+03  0.41926176539E+03  0.21351793129E+03  0.48304880806E+03  0.10100000352E+00 0.  1.
       -3    1    3    3    0  502  0.10938832600E+03 -0.41926176539E+03  0.32997908601E+03  0.54463973523E+03  0.10100000352E+00 0. -1.
</event>
<event>
 5   0  0.4504740E-03  0.1077706E+04  0.7818609E-02  0.9227198E-01
       -1   -1    0    0    0  501  0.00000000000E+00  0.00000000000E+00  0.10251438114E+04  0.10251438114E+04  0.50400001928E-02 0.  1.
        1   -1    0    0  501    0  0.00000000000E+00  0.00000000000E+00 -0.28324056466E+03  0.28324056471E+03  0.50400001928E-02 0. -1.
    10030    2    1    2    0    0  0.00000000000E+00  0.00000000000E+00  0.74190324676E+03  0.13083843761E+04  0.10777055480E+04 0.  0.
        5    1    3    3  502    0  0.14914716969E+03  0.51327386942E+03  0.28820674492E+03  0.60727272380E+03  0.46999998093E+01 0. -1.
       -5    1    3    3    0  502 -0.14914716969E+03 -0.51327386942E+03  0.45369650184E+03  0.70111165233E+03  0.46999998093E+01 0.  1.
</event>
<event>
 5   0  0.4504740E-03  0.1076814E+04  0.7818609E-02  0.9228090E-01
        1   -1    0    0  501    0  0.00000000000E+00  0.00000000000E+00  0.43218809211E+03  0.43218809214E+03  0.50400001928E-02 0.  1.
       -1   -1    0    0    0  501  0.00000000000E+00  0.00000000000E+00 -0.67073115740E+03  0.67073115741E+03  0.50400001928E-02 0. -1.
    10030    2    1    2    0    0  0.00000000000E+00  0.00000000000E+00 -0.23854306528E+03  0.11029192496E+04  0.10768138544E+04 0.  0.
        5    1    3    3  502    0 -0.20795598519E+03 -0.66223494185E+02 -0.62337057102E+03  0.66048785134E+03  0.46999998093E+01 0. -1.
       -5    1    3    3    0  502  0.20795598519E+03  0.66223494185E+02  0.38482750574E+03  0.44243139822E+03  0.46999998093E+01 0.  1.
</event>
<event>
 5   0  0.4598561E-03  0.1128128E+04  0.7818609E-02  0.9178202E-01
       -1   -1    0    0    0  501  0.00000000000E+00  0.00000000000E+00  0.57724234381E+03  0.57724234383E+03  0.50400001928E-02 0. -1.
        1   -1    0    0  501    0  0.00000000000E+00  0.00000000000E+00 -0.55118607668E+03  0.55118607671E+03  0.50400001928E-02 0.  1.
    10030    2    1    2    0    0  0.00000000000E+00  0.00000000000E+00  0.26056267121E+02  0.11284284205E+04  0.11281275510E+04 0.  0.
        2    1    3    3  502    0  0.38546379775E+03 -0.11496662408E+03 -0.38251161940E+03  0.55508089771E+03  0.25500000920E-02 0.  1.
       -2    1    3    3    0  502 -0.38546379775E+03  0.11496662408E+03  0.40856788652E+03  0.57334752282E+03  0.25500000920E-02 0. -1.
</event>
<event>
 5   0  0.7952121E-03  0.1082546E+04  0.7818609E-02  0.9222373E-01
        2   -1    0    0  501    0  0.00000000000E+00  0.00000000000E+00  0.10327628647E+04  0.10327628648E+04  0.25500000920E-02 0.  1.
       -2   -1    0    0    0  501  0.00000000000E+00  0.00000000000E+00 -0.28368229183E+03  0.28368229185E+03  0.25500000920E-02 0. -1.
    10030    2    1    2    0    0  0.00000000000E+00  0.00000000000E+00  0.74908057291E+03  0.13164451566E+04  0.10825461402E+04 0.  0.
        3    1    3    3  502    0  0.44386359766E+03  0.29626089967E+03  0.48459985162E+03  0.72084841707E+03  0.10100000352E+00 0. -1.
       -3    1    3    3    0  502 -0.44386359766E+03 -0.29626089967E+03  0.26448072130E+03  0.59559673953E+03  0.10100000352E+00 0.  1.
</event>
<event>
 5   0  0.7766551E-03  0.1111171E+04  0.7818609E-02  0.9194372E-01
       -2   -1    0    0    0  501  0.00000000000E+00  0.00000000000E+00  0.81134828922E+03  0.81134828923E+03  0.25500000920E-02 0.  1.
        2   -1    0    0  501    0  0.00000000000E+00  0.00000000000E+00 -0.38044694671E+03  0.38044694672E+03  0.25500000920E-02 0. -1.
    10030    2    1    2    0    0  0.00000000000E+00  0.00000000000E+00  0.43090134251E+03  0.11917952359E+04  0.11111705168E+04 0.  0.
        5    1    3    3  502    0 -0.42880605181E+03  0.35214042961E+03  0.18558464597E+03  0.58509936169E+03  0.46999998093E+01 0. -1.
       -5    1    3    3    0  502  0.42880605181E+03 -0.35214042961E+03  0.24531669655E+03  0.60669587425E+03  0.46999998093E+01 0.  1.
</event>
<event>
 5   0  0.7712816E-03  0.1083440E+04  0.7818609E-02  0.9221484E-01
        2   -1    0    0  501    0  0.00000000000E+00  0.00000000000E+00  0.63238346030E+03  0.63238346031E+03  0.25500000920E-02 0.  1.
       -2   -1    0    0    0  501  0.00000000000E+00  0.00000000000E+00 -0.46405479475E+03  0.46405479476E+03  0.25500000920E-02 0. -1.
    10030    2    1    2    0    0  0.00000000000E+00  0.00000000000E+00  0.16832866555E+03  0.10964382551E+04  0.10834400341E+04 0.  0.
        2    1    3    3  502    0 -0.10572077278E+03 -0.46720793103E+02 -0.45143067924E+03  0.46599288886E+03  0.25500000920E-02 0. -1.
       -2    1    3    3    0  502  0.10572077278E+03  0.46720793103E+02  0.61975934479E+03  0.63044536620E+03  0.25500000920E-02 0.  1.
</event>
<event>
 5   0  0.4598561E-03  0.1172462E+04  0.7818609E-02  0.9137308E-01
        1   -1    0    0  501    0  0.00000000000E+00  0.00000000000E+00  0.90066224323E+03  0.90066224324E+03  0.50400001928E-02 0.  1.
       -1   -1    0    0    0  501  0.00000000000E+00  0.00000000000E+00 -0.38157090858E+03  0.38157090862E+03  0.50400001928E-02 0. -1.
    10030    2    1    2    0    0  0.00000000000E+00  0.00000000000E+00  0.51909133465E+03  0.12822331519E+04  0.11724615311E+04 0.  0.
        2    1    3    3  502    0 -0.46857503970E+03 -0.23834401791E+03  0.54324822829E+03  0.75596896514E+03  0.25500000920E-02 0.  1.
       -2    1    3    3    0  502  0.46857503970E+03  0.23834401791E+03 -0.24156893647E+02  0.52626418672E+03  0.25500000920E-02 0. -1.
</event>
<event>
 5   0  0.7537480E-03  0.1105986E+04  0.7818609E-02  0.9199377E-01
        2   -1    0    0  501    0  0.00000000000E+00  0.00000000000E+00  0.47204066724E+03  0.47204066725E+03  0.25500000920E-02 0. -1.
       -2   -1    0    0    0  501  0.00000000000E+00  0.00000000000E+00 -0.64782863528E+03  0.64782863528E+03  0.25500000920E-02 0.  1.
    10030    2    1    2    0    0  0.00000000000E+00  0.00000000000E+00 -0.17578796804E+03  0.11198693025E+04  0.11059863675E+04 0.  0.
        1    1    3    3  502    0  0.15668002400E+03  0.10438715082E+03 -0.61437861288E+03  0.64257792303E+03  0.50400001928E-02 0.  1.
       -1    1    3    3    0  502 -0.15668002400E+03 -0.10438715082E+03  0.43859064484E+03  0.47729137950E+03  0.50400001928E-02 0. -1.
</event>
<event>
 5   0  0.2992375E-03  0.1101998E+04  0.7818609E-02  0.9203246E-01
        3   -1    0    0  501    0  0.00000000000E+00  0.00000000000E+00  0.22727188336E+03  0.22727190580E+03  0.10100000352E+00 0.  1.
       -3   -1    0    0    0  501  0.00000000000E+00  0.00000000000E+00 -0.13358450588E+04  0.13358450626E+04  0.10100000352E+00 0. -1.
    10030    2    1    2    0    0  0.00000000000E+00  0.00000000000E+00 -0.11085731755E+04  0.15631169684E+04  0.11019982630E+04 0.  0.
        4    1    3    3  502    0 -0.34227865064E+03 -0.24690088299E+03 -0.51823408842E+02  0.42520818350E+03  0.12699999809E+01 0.  1.
       -4    1    3    3    0  502  0.34227865064E+03  0.24690088299E+03 -0.10567497666E+04  0.11379087849E+04  0.12699999809E+01 0. -1.
</event>
<event>
 5   0  0.2992375E-03  0.1114983E+04  0.7818609E-02  0.9190710E-01
       -4   -1    0    0    0  501  0.00000000000E+00  0.00000000000E+00  0.13789777925E+04  0.13789783773E+04  0.12699999809E+01 0. -1.
        4   -1    0    0  501    0  0.00000000000E+00  0.00000000000E+00 -0.22537954225E+03  0.22538312041E+03  0.12699999809E+01 0.  1.
    10030    2    1    2    0    0  0.00000000000E+00  0.00000000000E+00  0.11535982502E+04  0.16043614977E+04  0.11149829113E+04 0.  0.
        1    1    3    3  502    0  0.30558454406E+03 -0.45494221518E+03  0.72383861308E+03  0.90790785354E+03  0.50400001928E-02 0. -1.
       -1    1    3    3    0  502 -0.30558454406E+03  0.45494221518E+03  0.42975963715E+03  0.69645364416E+03  0.50400001928E-02 0.  1.
</event>
<event>
 5   0  0.4641021E-03  0.1126749E+04  0.7818609E-02  0.9179505E-01
        1   -1    0    0  501    0  0.00000000000E+00  0.00000000000E+00  0.65417319770E+03  0.65417319772E+03  0.50400001928E-02 0. -1.
       -1   -1    0    0    0  501  0.00000000000E+00  0.00000000000E+00 -0.48517880901E+03  0.48517880904E+03  0.50400001928E-02 0.  1.
    10030    2    1    2    0    0  0.00000000000E+00  0.00000000000E+00  0.16899438869E+03  0.11393520068E+04  0.11267492587E+04 0.  0.
        1    1    3    3  502    0 -0.98929024249E+02 -0.66803749929E+02 -0.47224377429E+03  0.48709739809E+03  0.50400001928E-02 0.  1.
       -1    1    3    3    0  502  0.98929024249E+02  0.66803749929E+02  0.64123816298E+03  0.65225460867E+03  0.50400001928E-02 0. -1.
</event>
<event>
 5   0  0.4298101E-03  0.1073779E+04  0.7818609E-02  0.9231132E-01
       -1   -1    0    0    0  501  0.00000000000E+00  0.00000000000E+00  0.30863560891E+03  0.30863560895E+03  0.50400001928E-02 0. -1.
        1   -1    0    0  501    0  0.00000000000E+00  0.00000000000E+00 -0.93395073604E+03  0.93395073606E+03  0.50400001928E-02 0.  1.
    10030    2    1    2    0    0  0.00000000000E+00  0.00000000000E+00 -0.62531512713E+03  0.12425863450E+04  0.10737792215E+04 0.  0.
        3    1    3    3  502    0 -0.53470475847E+03 -0.29572120099E+02 -0.26833852203E+03  0.59899020160E+03  0.10100000352E+00 0.  1.
       -3    1    3    3    0  502  0.53470475847E+03  0.29572120099E+02 -0.35697660511E+03  0.64359614341E+03  0.10100000352E+00 0. -1.
</event>
<event>
 5   0  0.4598561E-03  0.1154460E+04  0.7818609E-02  0.9153679E-01
        1   -1    0    0  501    0  0.00000000000E+00  0.00000000000E+00  0.47731095195E+03  0.47731095198E+03  0.50400001928E-02 0. -1.
       -1   -1    0    0    0  501  0.00000000000E+00  0.00000000000E+00 -0.69806552398E+03  0.69806552400E+03  0.50400001928E-02 0.  1.
    10030    2    1    2    0    0  0.00000000000E+00  0.00000000000E+00 -0.22075457203E+03  0.11753764760E+04  0.11544597348E+04 0.  0.
        2    1    3    3  502    0  0.45497993319E+03 -0.34143574063E+03 -0.21017995698E+03  0.60643278186E+03  0.25500000920E-02 0.  1.
       -2    1    3    3    0  502 -0.45497993319E+03  0.34143574063E+03 -0.10574615051E+02  0.56894369412E+03  0.25500000920E-02 0. -1.
</event>
<event>
 5   0  0.4298101E-03  0.1080442E+04  0.7818609E-02  0.9224467E-01
       -1   -1    0    0    0  501  0.00000000000E+00  0.00000000000E+00  0.22733075206E+03  0.22733075211E+03  0.50400001928E-02 0. -1.
        1   -1    0    0  501    0  0.00000000000E+00  0.00000000000E+00 -0.12837625235E+04  0.12837625235E+04  0.50400001928E-02 0.  1.
    10030    2    1    2    0    0  0.00000000000E+00  0.00000000000E+00 -0.10564317715E+04  0.15110932756E+04  0.10804419466E+04 0.  0.
        3    1    3    3  502    0 -0.50826641848E+03  0.94805125335E+01 -0.78387097596E+03  0.93427958846E+03  0.10100000352E+00 0. -1.
       -3    1    3    3    0  502  0.50826641848E+03 -0.94805125335E+01 -0.27256079551E+03  0.57681368718E+03  0.10100000352E+00 0.  1.
</event>
<event>
 5   0  0.4428114E-03  0.1094281E+04  0.7818609E-02  0.9210784E-01
        1   -1    0    0  501    0  0.00000000000E+00  0.00000000000E+00  0.86433198034E+03  0.86433198035E+03  0.50400001928E-02 0.  1.
       -1   -1    0    0    0  501  0.00000000000E+00  0.00000000000E+00 -0.34635151797E+03  0.34635151800E+03  0.50400001928E-02 0. -1.
    10030    2    1    2    0    0  0.00000000000E+00  0.00000000000E+00  0.51798046237E+03  0.12106834984E+04  0.10942809392E+04 0.  0.
        4    1    3    3  502    0 -0.44196840267E+02  0.32039565262E+03 -0.22926327094E+03  0.39644671168E+03  0.12699999809E+01 0. -1.
       -4    1    3    3    0  502  0.44196840267E+02 -0.32039565262E+03  0.74724373331E+03  0.81423678667E+03  0.12699999809E+01 0.  1.
</event>
<event>
 5   0  0.4598561E-03  0.1069535E+04  0.7818609E-02  0.9235404E-01
        1   -1    0    0  501    0  0.00000000000E+00  0.00000000000E+00  0.11375331070E+04  0.11375331070E+04  0.50400001928E-02 0.  1.
       -1   -1    0    0    0  501  0.00000000000E+00  0.00000000000E+00 -0.25140062122E+03  0.25140062127E+03  0.50400001928E-02 0. -1.
    10030    2    1    2    0    0  0.00000000000E+00  0.00000000000E+00  0.88613248574E+03  0.13889337282E+04  0.10695354689E+04 0.  0.
        2    1    3    3  502    0 -0.27004390353E+03  0.51458234802E+02 -0.15261541355E+03  0.31442506933E+03  0.25500000920E-02 0. -1.
       -2    1    3    3    0  502  0.27004390353E+03 -0.51458234802E+02  0.10387478993E+04  0.10745086589E+04  0.25500000920E-02 0.  1.
</event>
<event>
 5   0  0.7712816E-03  0.1106605E+04  0.7818609E-02  0.9198778E-01
       -2   -1    0    0    0  501  0.00000000000E+00  0.00000000000E+00  0.29713990239E+03  0.29713990240E+03  0.25500000920E-02 0.  1.
        2   -1    0    0  501    0  0.00000000000E+00  0.00000000000E+00 -0.10303016594E+04  0.10303016594E+04  0.25500000920E-02 0. -1.
    10030    2    1    2    0    0  0.00000000000E+00  0.00000000000E+00 -0.73316175703E+03  0.13274415618E+04  0.11066051410E+04 0.  0.
        2    1    3    3  502    0 -0.24488716384E+03  0.49513404381E+03 -0.32833967180E+03  0.64259970778E+03  0.25500000920E-02 0. -1.
       -2    1    3    3    0  502  0.24488716384E+03 -0.49513404381E+03 -0.40482208523E+03  0.68484185404E+03  0.25500000920E-02 0.  1.
</event>
<event>
 5   0  0.4598561E-03  0.1065614E+04  0.7818609E-02  0.9239371E-01
        1   -1    0    0  501    0  0.00000000000E+00  0.00000000000E+00  0.29599982853E+03  0.29599982857E+03  0.50400001928E-02 0.  1.
       -1   -1    0    0    0  501  0.00000000000E+00  0.00000000000E+00 -0.95906519483E+03  0.95906519484E+03  0.50400001928E-02 0. -1.
    10030    2    1    2    0    0  0.00000000000E+00  0.00000000000E+00 -0.66306536630E+03  0.12550650234E+04  0.10656136885E+04 0.  0.
        2    1    3    3  502    0  0.11216965176E+03  0.41384407547E+03  0.40979646831E+02  0.43072993979E+03  0.25500000920E-02 0.  1.
       -2    1    3    3    0  502 -0.11216965176E+03 -0.41384407547E+03 -0.70404501313E+03  0.82433508362E+03  0.25500000920E-02 0. -1.
</event>
<event>
 5   0  0.4504740E-03  0.1108044E+04  0.7818609E-02  0.9197387E-01
       -1   -1    0    0    0  501  0.00000000000E+00  0.00000000000E+00  0.64694359979E+03  0.64694359980E+03  0.50400001928E-02 0.  1.
        1   -1    0    0  501    0  0.00000000000E+00  0.00000000000E+00 -0.47444670026E+03  0.47444670029E+03  0.50400001928E-02 0. -1.
    10030    2    1    2    0    0  0.00000000000E+00  0.00000000000E+00  0.17249689952E+03  0.11213903001E+04  0.11080437829E+04 0.  0.
        5    1    3    3  502    0  0.43565555954E+03 -0.73957160208E+02  0.42441804900E+03  0.61271379813E+03  0.46999998093E+01 0.  1.
       -5    1    3    3    0  502 -0.43565555954E+03  0.73957160208E+02 -0.25192114948E+03  0.50867650197E+03  0.46999998093E+01 0. -1.
</event>
<event>
 5   0  0.2992375E-03  0.1110016E+04  0.7818609E-02  0.9195484E-01
        3   -1    0    0  501    0  0.00000000000E+00  0.00000000000E+00  0.21356849282E+03  0.21356851671E+03  0.10100000352E+00 0.  1.
       -3   -1    0    0    0  501  0.00000000000E+00  0.00000000000E+00 -0.14423199479E+04  0.14423199514E+04  0.10100000352E+00 0. -1.
    10030    2    1    2    0    0  0.00000000000E+00  0.00000000000E+00 -0.12287514550E+04  0.16558884681E+04  0.11100164326E+04 0.  0.
        2    1    3    3  502    0 -0.22637618273E+03 -0.34191242922E+03 -0.11723130814E+04  0.12419614511E+04  0.25500000920E-02 0. -1.
       -2    1    3    3    0  502  0.22637618273E+03  0.34191242922E+03 -0.56438373692E+02  0.41392701699E+03  0.25500000920E-02 0.  1.
</event>
<event>
 5   0  0.7952121E-03  0.1093498E+04  0.7818609E-02  0.9211552E-01
        2   -1    0    0  501    0  0.00000000000E+00  0.00000000000E+00  0.91203313193E+03  0.91203313194E+03  0.25500000920E-02 0. -1.
       -2   -1    0    0    0  501  0.00000000000E+00  0.00000000000E+00 -0.32776722686E+03  0.32776722687E+03  0.25500000920E-02 0.  1.
    10030    2    1    2    0    0  0.00000000000E+00  0.00000000000E+00  0.58426590507E+03  0.12398003588E+04  0.10934981856E+04 0.  0.
        3    1    3    3  502    0 -0.46424150149E+03 -0.14017359352E+03  0.57843696505E+03  0.75482325134E+03  0.10100000352E+00 0. -1.
       -3    1    3    3    0  502  0.46424150149E+03  0.14017359352E+03  0.58289400193E+01  0.48497710747E+03  0.10100000352E+00 0.  1.
</event>
<event>
 5   0  0.7952121E-03  0.1084870E+04  0.7818609E-02  0.9220066E-01
       -2   -1    0    0    0  501  0.00000000000E+00  0.00000000000E+00  0.14231742125E+03  0.14231742127E+03  0.25500000920E-02 0.  1.
        2   -1    0    0  501    0  0.00000000000E+00  0.00000000000E+00 -0.20674596925E+04  0.20674596925E+04  0.25500000920E-02 0. -1.
    10030    2    1    2    0    0  0.00000000000E+00  0.00000000000E+00 -0.19251422713E+04  0.22097771138E+04  0.10848696364E+04 0.  0.
        3    1    3    3  502    0  0.46244485441E+03  0.15156953721E+03 -0.47453366414E+03  0.67971374606E+03  0.10100000352E+00 0.  1.
       -3    1    3    3    0  502 -0.46244485441E+03 -0.15156953721E+03 -0.14506086071E+04  0.15300633677E+04  0.10100000352E+00 0. -1.
</event>
<event>
 5   0  0.7738497E-03  0.1119532E+04  0.7818609E-02  0.9186361E-01
        2   -1    0    0  501    0  0.00000000000E+00  0.00000000000E+00  0.10128411437E+04  0.10128411437E+04  0.25500000920E-02 0.  1.
       -2   -1    0    0    0  501  0.00000000000E+00  0.00000000000E+00 -0.30936529965E+03  0.30936529966E+03  0.25500000920E-02 0. -1.
    10030    2    1    2    0    0  0.00000000000E+00  0.00000000000E+00  0.70347584404E+03  0.13222064434E+04  0.11195318735E+04 0.  0.
        4    1    3    3  502    0 -0.11193248224E+03  0.47173397341E+03  0.21312943026E+02  0.48530163475E+03  0.12699999809E+01 0. -1.
       -4    1    3    3    0  502  0.11193248224E+03 -0.47173397341E+03  0.68216290101E+03  0.83690480861E+03  0.12699999809E+01 0.  1.
</event>
<event>
 5   0  0.7952121E-03  0.1082416E+04  0.7818609E-02  0.9222502E-01
       -2   -1    0    0    0  501  0.00000000000E+00  0.00000000000E+00  0.54845827507E+03  0.54845827508E+03  0.25500000920E-02 0.  1.
        2   -1    0    0  501    0  0.00000000000E+00  0.00000000000E+00 -0.53405358722E+03  0.53405358722E+03  0.25500000920E-02 0. -1.
    10030    2    1    2    0    0  0.00000000000E+00  0.00000000000E+00  0.14404687852E+02  0.10825118623E+04  0.10824160184E+04 0.  0.
        3    1    3    3  502    0 -0.18011813950E+03  0.13141105358E+03  0.50039374665E+03  0.54781869361E+03  0.10100000352E+00 0.  1.
       -3    1    3    3    0  502  0.18011813950E+03 -0.13141105358E+03 -0.48598905879E+03  0.53469316869E+03  0.10100000352E+00 0. -1.
</event>
<event>
 5   0  0.7537480E-03  0.1106522E+04  0.7818609E-02  0.9198858E-01
       -2   -1    0    0    0  501  0.00000000000E+00  0.00000000000E+00  0.24157185897E+03  0.24157185898E+03  0.25500000920E-02 0.  1.
        2   -1    0    0  501    0  0.00000000000E+00  0.00000000000E+00 -0.12671092003E+04  0.12671092003E+04  0.25500000920E-02 0. -1.
    10030    2    1    2    0    0  0.00000000000E+00  0.00000000000E+00 -0.10255373413E+04  0.15086810593E+04  0.11065223451E+04 0.  0.
        1    1    3    3  502    0  0.29682879195E+03  0.24497292231E+03 -0.10546906159E+04  0.11227160637E+04  0.50400001928E-02 0. -1.
       -1    1    3    3    0  502 -0.29682879195E+03 -0.24497292231E+03  0.29153274529E+02  0.38596499561E+03  0.50400001928E-02 0.  1.
</event>
<event>
 5   0  0.7952121E-03  0.1088261E+04  0.7818609E-02  0.9216710E-01
        2   -1    0    0  501    0  0.00000000000E+00  0.00000000000E+00  0.13653361297E+04  0.13653361297E+04  0.25500000920E-02 0. -1.
       -2   -1    0    0    0  501  0.00000000000E+00  0.00000000000E+00 -0.21685341967E+03  0.21685341968E+03  0.25500000920E-02 0.  1.
    10030    2    1    2    0    0  0.00000000000E+00  0.00000000000E+00  0.11484827101E+04  0.15821895494E+04  0.10882606466E+04 0.  0.
        3    1    3    3  502    0 -0.47353334365E+03  0.60071671209E+02  0.19446287898E+03  0.51542046402E+03  0.10100000352E+00 0.  1.
       -3    1    3    3    0  502  0.47353334365E+03 -0.60071671209E+02  0.95401983109E+03  0.10667690854E+04  0.10100000352E+00 0. -1.
</event>
<event>
 5   0  0.7766551E-03  0.9833145E+03  0.7818609E-02  0.9327037E-01
        2   -1    0    0  501    0  0.00000000000E+00  0.00000000000E+00  0.11072367396E+04  0.11072367396E+04  0.25500000920E-02 0. -1.
       -2   -1    0    0    0  501  0.00000000000E+00  0.00000000000E+00 -0.21831542286E+03  0.21831542288E+03  0.25500000920E-02 0.  1.
    10030    2    1    2    0    0  0.00000000000E+00  0.00000000000E+00  0.88892131669E+03  0.13255521624E+04  0.98331451127E+03 0.  0.
        5    1    3    3  502    0 -0.16515091244E+03  0.37048353313E+03  0.69976064169E+02  0.41164500696E+03  0.46999998093E+01 0.  1.
       -5    1    3    3    0  502  0.16515091244E+03 -0.37048353313E+03  0.81894525252E+03  0.91390715547E+03  0.46999998093E+01 0. -1.
</event>
<event>
 5   0  0.4298101E-03  0.1132108E+04  0.7818609E-02  0.9174450E-01
        1   -1    0    0  501    0  0.00000000000E+00  0.00000000000E+00  0.11031518964E+04  0.11031518964E+04  0.50400001928E-02 0. -1.
       -1   -1    0    0    0  501  0.00000000000E+00  0.00000000000E+00 -0.29045622669E+03  0.29045622674E+03  0.50400001928E-02 0.  1.
    10030    2    1    2    0    0  0.00000000000E+00  0.00000000000E+00  0.81269566974E+03  0.13936081232E+04  0.11321083647E+04 0.  0.
        3    1    3    3  502    0  0.36176134281E+03 -0.18450823799E+03  0.89177237970E+03  0.97988394539E+03  0.10100000352E+00 0. -1.
       -3    1    3    3    0  502 -0.36176134281E+03  0.18450823799E+03 -0.79076709957E+02  0.41372417780E+03  0.10100000352E+00 0.  1.
</event>
<event>
 5   0  0.4641021E-03  0.1082563E+04  0.7818609E-02  0.9222355E-01
        1   -1    0    0  501    0  0.00000000000E+00  0.00000000000E+00  0.36317699361E+03  0.36317699364E+03  0.50400001928E-02 0. -1.
       -1   -1    0    0    0  501  0.00000000000E+00  0.00000000000E+00 -0.80673019624E+03  0.80673019625E+03  0.50400001928E-02 0.  1.
    10030    2    1    2    0    0  0.00000000000E+00  0.00000000000E+00 -0.44355320263E+03  0.11699071899E+04  0.10825633420E+04 0.  0.
        1    1    3    3  502    0  0.83215372645E+02  0.24524743890E+03 -0.73543025277E+03  0.77969786536E+03  0.50400001928E-02 0.  1.
       -1    1    3    3    0  502 -0.83215372645E+02 -0.24524743890E+03  0.29187705014E+03  0.39020932453E+03  0.50400001928E-02 0. -1.
</event>
<event>
 5   0  0.4298101E-03  0.1110944E+04  0.7818609E-02  0.9194590E-01
        1   -1    0    0  501    0  0.00000000000E+00  0.00000000000E+00  0.33180474259E+03  0.33180474263E+03  0.50400001928E-02 0.  1.
       -1   -1    0    0    0  501  0.00000000000E+00  0.00000000000E+00 -0.92991196848E+03  0.92991196849E+03  0.50400001928E-02 0. -1.
    10030    2    1    2    0    0  0.00000000000E+00  0.00000000000E+00 -0.59810722589E+03  0.12617167111E+04  0.11109441055E+04 0.  0.
        3    1    3    3  502    0 -0.12670185840E+03  0.39359315842E+03 -0.72031116785E+03  0.83055230059E+03  0.10100000352E+00 0. -1.
       -3    1    3    3    0  502  0.12670185840E+03 -0.39359315842E+03  0.12220394196E+03  0.43116441053E+03  0.10100000352E+00 0.  1.
</event>
<event>
 5   0  0.4641021E-03  0.1121484E+04  0.7818609E-02  0.9184501E-01
       -1   -1    0    0    0  501  0.00000000000E+00  0.00000000000E+00  0.21360635787E+04  0.21360635787E+04  0.50400001928E-02 0. -1.
        1   -1    0    0  501    0  0.00000000000E+00  0.00000000000E+00 -0.14720149004E+03  0.14720149013E+03  0.50400001928E-02 0.  1.
    10030    2    1    2    0    0  0.00000000000E+00  0.00000000000E+00  0.19888620887E+04  0.22832650688E+04  0.11214842696E+04 0.  0.
        1    1    3    3  502    0 -0.55463778838E+03 -0.47100175586E+02  0.11323680481E+04  0.12617840145E+04  0.50400001928E-02 0.  1.
       -1    1    3    3    0  502  0.55463778838E+03  0.47100175586E+02  0.85649404053E+03  0.10214810543E+04  0.50400001928E-02 0. -1.
</event>
<event>
 5   0  0.4428114E-03  0.1096142E+04  0.7818609E-02  0.9208961E-01
       -1   -1    0    0    0  501  0.00000000000E+00  0.00000000000E+00  0.25608438289E+03  0.25608438294E+03  0.50400001928E-02 0.  1.
        1   -1    0    0  501    0  0.00000000000E+00  0.00000000000E+00 -0.11729789048E+04  0.11729789048E+04  0.50400001928E-02 0. -1.
    10030    2    1    2    0    0  0.00000000000E+00  0.00000000000E+00 -0.91689452191E+03  0.14290632877E+04  0.10961415584E+04 0.  0.
        4    1    3    3  502    0 -0.88895820278E+02  0.85554050300E+02  0.23774245190E+03  0.26785266233E+03  0.12699999809E+01 0.  1.
       -4    1    3    3    0  502  0.88895820278E+02 -0.85554050300E+02 -0.11546369738E+04  0.11612106254E+04  0.12699999809E+01 0. -1.
</event>
<event>
 5   0  0.7738497E-03  0.1105659E+04  0.7818609E-02  0.9199694E-01
       -2   -1    0    0    0  501  0.00000000000E+00  0.00000000000E+00  0.31086795612E+03  0.31086795613E+03  0.25500000920E-02 0.  1.
        2   -1    0    0  501    0  0.00000000000E+00  0.00000000000E+00 -0.98311928636E+03  0.98311928637E+03  0.25500000920E-02 0. -1.
    10030    2    1    2    0    0  0.00000000000E+00  0.00000000000E+00 -0.67225133024E+03  0.12939872425E+04  0.11056586873E+04 0.  0.
        4    1    3    3  502    0 -0.23849559426E+03  0.49540961568E+03 -0.26881547797E+03  0.61202468078E+03  0.12699999809E+01 0.  1.
       -4    1    3    3    0  502  0.23849559426E+03 -0.49540961568E+03 -0.40343585227E+03  0.68196256172E+03  0.12699999809E+01 0. -1.
</event>
<event>
 5   0  0.7766551E-03  0.1125178E+04  0.7818609E-02  0.9180994E-01
        2   -1    0    0  501    0  0.00000000000E+00  0.00000000000E+00  0.14314708862E+04  0.14314708862E+04  0.25500000920E-02 0.  1.
       -2   -1    0    0    0  501  0.00000000000E+00  0.00000000000E+00 -0.22110562066E+03  0.22110562068E+03  0.25500000920E-02 0. -1.
    10030    2    1    2    0    0  0.00000000000E+00  0.00000000000E+00  0.12103652656E+04  0.16525765069E+04  0.11251777793E+04 0.  0.
        5    1    3    3  502    0 -0.25448559887E+03 -0.24247866212E+03 -0.39929296490E+02  0.35380115932E+03  0.46999998093E+01 0. -1.
       -5    1    3    3    0  502  0.25448559887E+03  0.24247866212E+03  0.12502945620E+04  0.12987753476E+04  0.46999998093E+01 0.  1.
</event>
<event>
 5   0  0.4641021E-03  0.1093881E+04  0.7818609E-02  0.9211177E-01
        1   -1    0    0  501    0  0.00000000000E+00  0.00000000000E+00  0.10918104741E+04  0.10918104741E+04  0.50400001928E-02 0.  1.
       -1   -1    0    0    0  501  0.00000000000E+00  0.00000000000E+00 -0.27398877470E+03  0.27398877474E+03  0.50400001928E-02 0. -1.
    10030    2    1    2    0    0  0.00000000000E+00  0.00000000000E+00  0.81782169941E+03  0.13657992489E+04  0.10938808236E+04 0.  0.
        1    1    3    3  502    0  0.17248482919E+03  0.48175310061E+03  0.65007378213E+03  0.82730465277E+03  0.50400001928E-02 0.  1.
       -1    1    3    3    0  502 -0.17248482919E+03 -0.48175310061E+03  0.16774791728E+03  0.53849459610E+03  0.50400001928E-02 0. -1.
</event>
<event>
 5   0  0.7952121E-03  0.1117123E+04  0.7818609E-02  0.9188662E-01
        2   -1    0    0  501    0  0.00000000000E+00  0.00000000000E+00  0.15715322402E+04  0.15715322402E+04  0.25500000920E-02 0. -1.
       -2   -1    0    0    0  501  0.00000000000E+00  0.00000000000E+00 -0.19852642169E+03  0.19852642171E+03  0.25500000920E-02 0.  1.
    10030    2    1    2    0    0  0.00000000000E+00  0.00000000000E+00  0.13730058185E+04  0.17700586619E+04  0.11171225040E+04 0.  0.
        3    1    3    3  502    0 -0.30774815410E+03 -0.40513356719E+03  0.32121736895E+03  0.60168325715E+03  0.10100000352E+00 0.  1.
       -3    1    3    3    0  502  0.30774815410E+03  0.40513356719E+03  0.10517884495E+04  0.11683754047E+04  0.10100000352E+00 0. -1.
</event>
<event>
 5   0  0.7537480E-03  0.1090235E+04  0.7818609E-02  0.9214762E-01
       -2   -1    0    0    0  501  0.00000000000E+00  0.00000000000E+00  0.17061349555E+03  0.17061349557E+03  0.25500000920E-02 0. -1.
        2   -1    0    0  501    0  0.00000000000E+00  0.00000000000E+00 -0.17416737754E+04  0.17416737754E+04  0.25500000920E-02 0.  1.
    10030    2    1    2    0    0  0.00000000000E+00  0.00000000000E+00 -0.15710602799E+04  0.19122872710E+04  0.10902349306E+04 0.  0.
        1    1    3    3  502    0  0.11354410913E+02  0.50722696576E+03 -0.11352126645E+04  0.12434290937E+04  0.50400001928E-02 0. -1.
       -1    1    3    3    0  502 -0.11354410913E+02 -0.50722696576E+03 -0.43584761535E+03  0.66885817725E+03  0.50400001928E-02 0.  1.
</event>
<event>
 5   0  0.7712816E-03  0.1089396E+04  0.7818609E-02  0.9215590E-01
       -2   -1    0    0    0  501  0.00000000000E+00  0.00000000000E+00  0.23310072161E+03  0.23310072163E+03  0.25500000920E-02 0.  1.
        2   -1    0    0  501    0  0.00000000000E+00  0.00000000000E+00 -0.12728218326E+04  0.12728218326E+04  0.25500000920E-02 0. -1.
    10030    2    1    2    0    0  0.00000000000E+00  0.00000000000E+00 -0.10397211110E+04  0.15059225543E+04  0.10893955896E+04 0.  0.
        2    1    3    3  502    0 -0.44932807814E+03 -0.15953316263E+03 -0.88389087099E+03  0.10042955858E+04  0.25500000920E-02 0.  1.
       -2    1    3    3    0  502  0.44932807814E+03  0.15953316263E+03 -0.15583024002E+03  0.50162696847E+03  0.25500000920E-02 0. -1.
</event>
<event>
 5   0  0.2992375E-03  0.1108574E+04  0.7818609E-02  0.9196875E-01
       -4   -1    0    0    0  501  0.00000000000E+00  0.00000000000E+00  0.97661496609E+03  0.97661579185E+03  0.12699999809E+01 0. -1.
        4   -1    0    0  501    0  0.00000000000E+00  0.00000000000E+00 -0.31458854840E+03  0.31459111190E+03  0.12699999809E+01 0.  1.
    10030    2    1    2    0    0  0.00000000000E+00  0.00000000000E+00  0.66202641769E+03  0.12912069037E+04  0.11085739897E+04 0.  0.
        3    1    3    3  502    0 -0.37717424888E+03 -0.19223288567E+03  0.74775816089E+03  0.85927654089E+03  0.10100000352E+00 0. -1.
       -3    1    3    3    0  502  0.37717424888E+03  0.19223288567E+03 -0.85731743201E+02  0.43193036285E+03  0.10100000352E+00 0.  1.
</event>
<event>
 5   0  0.4428114E-03  0.1095668E+04  0.7818609E-02  0.9209424E-01
        1   -1    0    0  501    0  0.00000000000E+00  0.00000000000E+00  0.34426859723E+03  0.34426859727E+03  0.50400001928E-02 0. -1.
       -1   -1    0    0    0  501  0.00000000000E+00  0.00000000000E+00 -0.87176715259E+03  0.87176715260E+03  0.50400001928E-02 0.  1.
    10030    2    1    2    0    0  0.00000000000E+00  0.00000000000E+00 -0.52749855536E+03  0.12160357499E+04  0.10956679328E+04 0.  0.
        4    1    3    3  502    0  0.40365646220E+03  0.36235558808E+03 -0.34885685886E+03  0.64493630117E+03  0.12699999809E+01 0.  1.
       -4    1    3    3    0  502 -0.40365646220E+03 -0.36235558808E+03 -0.17864169650E+03  0.57109944871E+03  0.12699999809E+01 0. -1.
</event>
<event>
 5   0  0.7766551E-03  0.1074943E+04  0.7818609E-02  0.9229964E-01
       -2   -1    0    0    0  501  0.00000000000E+00  0.00000000000E+00  0.10721845762E+03  0.10721845765E+03  0.25500000920E-02 0.  1.
        2   -1    0    0  501    0  0.00000000000E+00  0.00000000000E+00 -0.26942734097E+04  0.26942734097E+04  0.25500000920E-02 0. -1.
    10030    2    1    2    0    0  0.00000000000E+00  0.00000000000E+00 -0.25870549521E+04  0.28014918673E+04  0.10749434207E+04 0.  0.
        5    1    3    3  502    0 -0.99454191683E+02  0.23030563573E+03 -0.54779515923E+02  0.25681648595E+03  0.46999998093E+01 0.  1.
       -5    1    3    3    0  502  0.99454191683E+02 -0.23030563573E+03 -0.25322754362E+04  0.25446753814E+04  0.46999998093E+01 0. -1.
</event>
<event>
 5   0  0.2992375E-03  0.1174528E+04  0.7818609E-02  0.9135449E-01
       -4   -1    0    0    0  501  0.00000000000E+00  0.00000000000E+00  0.53139392015E+03  0.53139543776E+03  0.12699999809E+01 0.  1.
        4   -1    0    0  501    0  0.00000000000E+00  0.00000000000E+00 -0.64900546349E+03  0.64900670608E+03  0.12699999809E+01 0. -1.
    10030    2    1    2    0    0  0.00000000000E+00  0.00000000000E+00 -0.11761154334E+03  0.11804021438E+04  0.11745283079E+04 0.  0.
        4    1    3    3  502    0  0.91335083398E+02  0.29412806731E+03 -0.56133055652E+03  0.64027105512E+03  0.12699999809E+01 0. -1.
       -4    1    3    3    0  502 -0.91335083398E+02 -0.29412806731E+03  0.44371901319E+03  0.54013108872E+03  0.12699999809E+01 0.  1.
</event>
<event>
 5   0  0.4504740E-03  0.9332313E+03  0.7818609E-02  0.9384968E-01
       -1   -1    0    0    0  501  0.00000000000E+00  0.00000000000E+00  0.41460550329E+03  0.41460550332E+03  0.50400001928E-02 0.  1.
        1   -1    0    0  501    0  0.00000000000E+00  0.00000000000E+00 -0.52515024489E+03  0.52515024492E+03  0.50400001928E-02 0. -1.
    10030    2    1    2    0    0  0.00000000000E+00  0.00000000000E+00 -0.11054474161E+03  0.93975574823E+03  0.93323133597E+03 0.  0.
        5    1    3    3  502    0  0.57596455469E+02  0.46040560345E+03 -0.57613642929E+01  0.46405382736E+03  0.46999998093E+01 0.  1.
       -5    1    3    3    0  502 -0.57596455469E+02 -0.46040560345E+03 -0.10478337731E+03  0.47570192088E+03  0.46999998093E+01 0. -1.
</event>
<event>
 5   0  0.4428114E-03  0.1112634E+04  0.7818609E-02  0.9192965E-01
        1   -1    0    0  501    0  0.00000000000E+00  0.00000000000E+00  0.73596126261E+03  0.73596126263E+03  0.50400001928E-02 0.  1.
       -1   -1    0    0    0  501  0.00000000000E+00  0.00000000000E+00 -0.42052295878E+03  0.42052295881E+03  0.50400001928E-02 0. -1.
    10030    2    1    2    0    0  0.00000000000E+00  0.00000000000E+00  0.31543830383E+03  0.11564842214E+04  0.11126340058E+04 0.  0.
        4    1    3    3  502    0  0.14769507751E+03  0.47978695274E+03  0.40691272786E+03  0.64621121697E+03  0.12699999809E+01 0.  1.
       -4    1    3    3    0  502 -0.14769507751E+03 -0.47978695274E+03 -0.91474424034E+02  0.51027300447E+03  0.12699999809E+01 0. -1.
</event>
<event>
 5   0  0.4298101E-03  0.1103040E+04  0.7818609E-02  0.9202234E-01
        1   -1    0    0  501    0  0.00000000000E+00  0.00000000000E+00  0.13722075920E+04  0.13722075920E+04  0.50400001928E-02 0.  1.
       -1   -1    0    0    0  501  0.00000000000E+00  0.00000000000E+00 -0.22166771466E+03  0.22166771472E+03  0.50400001928E-02 0. -1.
    10030    2    1    2    0    0  0.00000000000E+00  0.00000000000E+00  0.11505398773E+04  0.15938753067E+04  0.11030396566E+04 0.  0.
        3    1    3    3  502    0  0.19954458890E+03  0.32811628201E+03  0.32754334133E+01  0.38404306548E+03  0.10100000352E+00 0. -1.
       -3    1    3    3    0  502 -0.19954458890E+03 -0.32811628201E+03  0.11472644439E+04  0.12098322412E+04  0.10100000352E+00 0.  1.
</event>
<event>
 5   0  0.2992375E-03  0.1069926E+04  0.7818609E-02  0.9235011E-01
       -3   -1    0    0    0  501  0.00000000000E+00  0.00000000000E+00  0.20635663942E+03  0.20635666413E+03  0.10100000352E+00 0. -1.
        3   -1    0    0  501    0  0.00000000000E+00  0.00000000000E+00 -0.13868472198E+04  0.13868472235E+04  0.10100000352E+00 0.  1.
    10030    2    1    2    0    0  0.00000000000E+00  0.00000000000E+00 -0.11804905804E+04  0.15932038876E+04  0.10699255194E+04 0.  0.
        3    1    3    3  502    0 -0.44617863980E+03  0.29424376193E+03 -0.62453856305E+03  0.82201167692E+03  0.10100000352E+00 0.  1.
       -3    1    3    3    0  502  0.44617863980E+03 -0.29424376193E+03 -0.55595201731E+03  0.77119221067E+03  0.10100000352E+00 0. -1.
</event>
<event>
 5   0  0.4504740E-03  0.1118130E+04  0.7818609E-02  0.9187699E-01
        1   -1    0    0  501    0  0.00000000000E+00  0.00000000000E+00  0.55870275887E+03  0.55870275890E+03  0.50400001928E-02 0. -1.
       -1   -1    0    0    0  501  0.00000000000E+00  0.00000000000E+00 -0.55942720833E+03  0.55942720836E+03  0.50400001928E-02 0.  1.
    10030    2    1    2    0    0  0.00000000000E+00  0.00000000000E+00 -0.72444945956E+00  0.11181299673E+04  0.11181297326E+04 0.  0.
        5    1    3    3  502    0 -0.53898616192E+03 -0.14704525903E+03 -0.20438179074E+02  0.55907799107E+03  0.46999998093E+01 0. -1.
       -5    1    3    3    0  502  0.53898616192E+03  0.14704525903E+03  0.19713729614E+02  0.55905197618E+03  0.46999998093E+01 0.  1.
</event>
<event>
 5   0  0.4641021E-03  0.1097836E+04  0.7818609E-02  0.9207303E-01
        1   -1    0    0  501    0  0.00000000000E+00  0.00000000000E+00  0.10770997207E+04  0.10770997207E+04  0.50400001928E-02 0.  1.
       -1   -1    0    0    0  501  0.00000000000E+00  0.00000000000E+00 -0.27974295092E+03  0.27974295096E+03  0.50400001928E-02 0. -1.
    10030    2    1    2    0    0  0.00000000000E+00  0.00000000000E+00  0.79735676973E+03  0.13568426716E+04  0.10978361523E+04 0.  0.
        1    1    3    3  502    0  0.30289334018E+03  0.97429563011E+02 -0.15414634856E+03  0.35355055095E+03  0.50400001928E-02 0. -1.
       -1    1    3    3    0  502 -0.30289334018E+03 -0.97429563011E+02  0.95150311829E+03  0.10032921207E+04  0.50400001928E-02 0.  1.
</event>
<event>
 5   0  0.2992375E-03  0.1190639E+04  0.7818609E-02  0.9121090E-01
        3   -1    0    0  501    0  0.00000000000E+00  0.00000000000E+00  0.51029841103E+03  0.51029842103E+03  0.10100000352E+00 0. -1.
       -3   -1    0    0    0  501  0.00000000000E+00  0.00000000000E+00 -0.69450622896E+03  0.69450623631E+03  0.10100000352E+00 0.  1.
    10030    2    1    2    0    0  0.00000000000E+00  0.00000000000E+00 -0.18420781793E+03  0.12048046573E+04  0.11906392158E+04 0.  0.
        4    1    3    3  502    0 -0.47141217690E+03  0.35863475129E+03 -0.31766503674E+02  0.59317708066E+03  0.12699999809E+01 0. -1.
       -4    1    3    3    0  502  0.47141217690E+03 -0.35863475129E+03 -0.15244131425E+03  0.61162757668E+03  0.12699999809E+01 0.  1.
</event>
<event>
 5   0  0.7537480E-03  0.1097393E+04  0.7818609E-02  0.9207737E-01
       -2   -1    0    0    0  501  0.00000000000E+00  0.00000000000E+00  0.17757035455E+03  0.17757035457E+03  0.25500000920E-02 0. -1.
        2   -1    0    0  501    0  0.00000000000E+00  0.00000000000E+00 -0.16954837148E+04  0.16954837148E+04  0.25500000920E-02 0.  1.
    10030    2    1    2    0    0  0.00000000000E+00  0.00000000000E+00 -0.15179133603E+04  0.18730540694E+04  0.10973926269E+04 0.  0.
        1    1    3    3  502    0  0.10288160345E+03 -0.48673015357E+03 -0.36388438887E+03  0.61636248687E+03  0.50400001928E-02 0. -1.
       -1    1    3    3    0  502 -0.10288160345E+03  0.48673015357E+03 -0.11540289714E+04  0.12566915825E+04  0.50400001928E-02 0.  1.
</event>
<event>
 5   0  0.4641021E-03  0.1093992E+04  0.7818609E-02  0.9211068E-01
        1   -1    0    0  501    0  0.00000000000E+00  0.00000000000E+00  0.59620097243E+03  0.59620097245E+03  0.50400001928E-02 0. -1.
       -1   -1    0    0    0  501  0.00000000000E+00  0.00000000000E+00 -0.50185176145E+03  0.50185176148E+03  0.50400001928E-02 0.  1.
    10030    2    1    2    0    0  0.00000000000E+00  0.00000000000E+00  0.94349210975E+02  0.10980527339E+04  0.10939917883E+04 0.  0.
        1    1    3    3  502    0 -0.18731544460E+03 -0.50255032461E+03  0.15509397296E+03  0.55829924326E+03  0.50400001928E-02 0. -1.
       -1    1    3    3    0  502  0.18731544460E+03  0.50255032461E+03 -0.60744761989E+02  0.53975349067E+03  0.50400001928E-02 0.  1.
</event>
<event>
 5   0  0.7738497E-03  0.1122230E+04  0.7818609E-02  0.9183792E-01
        2   -1    0    0  501    0  0.00000000000E+00  0.00000000000E+00  0.85429882967E+03  0.85429882968E+03  0.25500000920E-02 0. -1.
       -2   -1    0    0    0  501  0.00000000000E+00  0.00000000000E+00 -0.36854813070E+03  0.36854813071E+03  0.25500000920E-02 0.  1.
    10030    2    1    2    0    0  0.00000000000E+00  0.00000000000E+00  0.48575069897E+03  0.12228469604E+04  0.11222303449E+04 0.  0.
        4    1    3    3  502    0 -0.10543477553E+03 -0.51724237016E+03  0.45017528498E+03  0.69376909810E+03  0.12699999809E+01 0.  1.
       -4    1    3    3    0  502  0.10543477553E+03  0.51724237016E+03  0.35575413992E+02  0.52907786229E+03  0.12699999809E+01 0. -1.
</event>
<event>
 5   0  0.7766551E-03  0.1082352E+04  0.7818609E-02  0.9222566E-01
       -2   -1    0    0    0  501  0.00000000000E+00  0.00000000000E+00  0.32521282916E+03  0.32521282917E+03  0.25500000920E-02 0.  1.
        2   -1    0    0  501    0  0.00000000000E+00  0.00000000000E+00 -0.90055284879E+03  0.90055284879E+03  0.25500000920E-02 0. -1.
    10030    2    1    2    0    0  0.00000000000E+00  0.00000000000E+00 -0.57534001963E+03  0.12257656780E+04  0.10823517723E+04 0.  0.
        5    1    3    3  502    0  0.18231865332E+03 -0.43606227793E+03  0.10801452084E+02  0.47278870857E+03  0.46999998093E+01 0.  1.
       -5    1    3    3    0  502 -0.18231865332E+03  0.43606227793E+03 -0.58614147171E+03  0.75297696940E+03  0.46999998093E+01 0. -1.
</event>
<event>
 5   0  0.4598561E-03  0.7484613E+03  0.7818609E-02  0.9637767E-01
        1   -1    0    0  501    0  0.00000000000E+00  0.00000000000E+00  0.21139233962E+03  0.21139233968E+03  0.50400001928E-02 0.  1.
       -1   -1    0    0    0  501  0.00000000000E+00  0.00000000000E+00 -0.66250549819E+03  0.66250549820E+03  0.50400001928E-02 0. -1.
    10030    2    1    2    0    0  0.00000000000E+00  0.00000000000E+00 -0.45111315856E+03  0.87389783789E+03  0.74846132114E+03 0.  0.
        2    1    3    3  502    0 -0.79516676772E+02  0.35716812288E+03 -0.13394246518E+03  0.38965696949E+03  0.25500000920E-02 0.  1.
       -2    1    3    3    0  502  0.79516676772E+02 -0.35716812288E+03 -0.31717069338E+03  0.48424086840E+03  0.25500000920E-02 0. -1.
</event>
<event>
 5   0  0.4641021E-03  0.1072996E+04  0.7818609E-02  0.9231919E-01
       -1   -1    0    0    0  501  0.00000000000E+00  0.00000000000E+00  0.47166315084E+03  0.47166315086E+03  0.50400001928E-02 0.  1.
        1   -1    0    0  501    0  0.00000000000E+00  0.00000000000E+00 -0.61024524237E+03  0.61024524239E+03  0.50400001928E-02 0. -1.
    10030    2    1    2    0    0  0.00000000000E+00  0.00000000000E+00 -0.13858209153E+03  0.10819083933E+04  0.10729961674E+04 0.  0.
        1    1    3    3  502    0  0.19057387934E+03  0.31625688400E+03  0.32316329573E+03  0.49068455844E+03  0.50400001928E-02 0.  1.
       -1    1    3    3    0  502 -0.19057387934E+03 -0.31625688400E+03 -0.46174538726E+03  0.59122383481E+03  0.50400001928E-02 0. -1.
</event>
<event>
 5   0  0.7712816E-03  0.1101460E+04  0.7818609E-02  0.9203770E-01
       -2   -1    0    0    0  501  0.00000000000E+00  0.00000000000E+00  0.58817612528E+03  0.58817612529E+03  0.25500000920E-02 0.  1.
        2   -1    0    0  501    0  0.00000000000E+00  0.00000000000E+00 -0.51566776352E+03  0.51566776353E+03  0.25500000920E-02 0. -1.
    10030    2    1    2    0    0  0.00000000000E+00  0.00000000000E+00  0.72508361756E+02  0.11038438888E+04  0.11014598805E+04 0.  0.
        2    1    3    3  502    0  0.36662004010E+03  0.30347243202E+03  0.31397796292E+03  0.57016482881E+03  0.25500000920E-02 0.  1.
       -2    1    3    3    0  502 -0.36662004010E+03 -0.30347243202E+03 -0.24146960117E+03  0.53367906001E+03  0.25500000920E-02 0. -1.
</event>
<event>
 5   0  0.4298101E-03  0.1077235E+04  0.7818609E-02  0.9227669E-01
       -1   -1    0    0    0  501  0.00000000000E+00  0.00000000000E+00  0.83826065576E+03  0.83826065578E+03  0.50400001928E-02 0.  1.
        1   -1    0    0  501    0  0.00000000000E+00  0.00000000000E+00 -0.34608398832E+03  0.34608398836E+03  0.50400001928E-02 0. -1.
    10030    2    1    2    0    0  0.00000000000E+00  0.00000000000E+00  0.49217666744E+03  0.11843446441E+04  0.10772345910E+04 0.  0.
        3    1    3    3  502    0 -0.10572004669E+03  0.45405928135E+03 -0.50476866399E+02  0.46892908152E+03  0.10100000352E+00 0.  1.
       -3    1    3    3    0  502  0.10572004669E+03 -0.45405928135E+03  0.54265353384E+03  0.71541556262E+03  0.10100000352E+00 0. -1.
</event>
<event>
 5   0  0.4298101E-03  0.1105228E+04  0.7818609E-02  0.9200111E-01
       -1   -1    0    0    0  501  0.00000000000E+00  0.00000000000E+00  0.88719858984E+03  0.88719858986E+03  0.50400001928E-02 0. -1.
        1   -1    0    0  501    0  0.00000000000E+00  0.00000000000E+00 -0.34420979823E+03  0.34420979827E+03  0.50400001928E-02 0.  1.
    10030    2    1    2    0    0  0.00000000000E+00  0.00000000000E+00  0.54298879161E+03  0.12314083881E+04  0.11052283884E+04 0.  0.
        3    1    3    3  502    0  0.25744519093E+03  0.47374547041E+03  0.13654845995E+03  0.55619986443E+03  0.10100000352E+00 0.  1.
       -3    1    3    3    0  502 -0.25744519093E+03 -0.47374547041E+03  0.40644033166E+03  0.67520852370E+03  0.10100000352E+00 0. -1.
</event>
<event>
 5   0  0.7712816E-03  0.1086674E+04  0.7818609E-02  0.9218279E-01
        2   -1    0    0  501    0  0.00000000000E+00  0.00000000000E+00  0.83682603540E+03  0.83682603541E+03  0.25500000920E-02 0.  1.
       -2   -1    0    0    0  501  0.00000000000E+00  0.00000000000E+00 -0.35277927525E+03  0.35277927526E+03  0.25500000920E-02 0. -1.
    10030    2    1    2    0    0  0.00000000000E+00  0.00000000000E+00  0.48404676016E+03  0.11896053107E+04  0.10866736075E+04 0.  0.
        2    1    3    3  502    0  0.15776636131E+03 -0.43668515104E+03 -0.66895278940E+02  0.46910459841E+03  0.25500000920E-02 0.  1.
       -2    1    3    3    0  502 -0.15776636131E+03  0.43668515104E+03  0.55094203910E+03  0.72050071225E+03  0.25500000920E-02 0. -1.
</event>
<event>
 5   0  0.4504740E-03  0.1095524E+04  0.7818609E-02  0.9209566E-01
       -1   -1    0    0    0  501  0.00000000000E+00  0.00000000000E+00  0.30313141262E+03  0.30313141266E+03  0.50400001928E-02 0. -1.
        1   -1    0    0  501    0  0.00000000000E+00  0.00000000000E+00 -0.98981155027E+03  0.98981155028E+03  0.50400001928E-02 0.  1.
    10030    2    1    2    0    0  0.00000000000E+00  0.00000000000E+00 -0.68668013765E+03  0.12929429629E+04  0.10955235707E+04 0.  0.
        5    1    3    3  502    0  0.27398511479E+03 -0.31577701445E+03 -0.76100264168E+03  0.86829146986E+03  0.46999998093E+01 0.  1.
       -5    1    3    3    0  502 -0.27398511479E+03  0.31577701445E+03  0.74322504030E+02  0.42465149309E+03  0.46999998093E+01 0. -1.
</event>
<event>
 5   0  0.7952121E-03  0.1069585E+04  0.7818609E-02  0.9235354E-01
       -2   -1    0    0    0  501  0.00000000000E+00  0.00000000000E+00  0.42125719944E+03  0.42125719945E+03  0.25500000920E-02 0.  1.
        2   -1    0    0  501    0  0.00000000000E+00  0.00000000000E+00 -0.67892714486E+03  0.67892714486E+03  0.25500000920E-02 0. -1.
    10030    2    1    2    0    0  0.00000000000E+00  0.00000000000E+00 -0.25766994542E+03  0.11001843443E+04  0.10695848684E+04 0.  0.
        3    1    3    3  502    0 -0.39156253768E+02  0.29129062819E+03 -0.58840498961E+03  0.65772629891E+03  0.10100000352E+00 0. -1.
       -3    1    3    3    0  502  0.39156253768E+02 -0.29129062819E+03  0.33073504420E+03  0.44245804540E+03  0.10100000352E+00 0.  1.
</event>
<event>
 5   0  0.7952121E-03  0.1077713E+04  0.7818609E-02  0.9227191E-01
       -2   -1    0    0    0  501  0.00000000000E+00  0.00000000000E+00  0.42727217000E+03  0.42727217000E+03  0.25500000920E-02 0.  1.
        2   -1    0    0  501    0  0.00000000000E+00  0.00000000000E+00 -0.67958137697E+03  0.67958137698E+03  0.25500000920E-02 0. -1.
    10030    2    1    2    0    0  0.00000000000E+00  0.00000000000E+00 -0.25230920698E+03  0.11068535470E+04  0.10777127811E+04 0.  0.
        3    1    3    3  502    0 -0.12517027625E+03 -0.12822689747E+03 -0.64808516558E+03  0.67240176036E+03  0.10100000352E+00 0. -1.
       -3    1    3    3    0  502  0.12517027625E+03  0.12822689747E+03  0.39577595860E+03  0.43445178662E+03  0.10100000352E+00 0.  1.
</event>
<event>
 5   0  0.7712816E-03  0.1119181E+04  0.7818609E-02  0.9186695E-01
        2   -1    0    0  501    0  0.00000000000E+00  0.00000000000E+00  0.17459399295E+04  0.17459399295E+04  0.25500000920E-02 0.  1.
       -2   -1    0    0    0  501  0.00000000000E+00  0.00000000000E+00 -0.17935428479E+03  0.17935428481E+03  0.25500000920E-02 0. -1.
    10030    2    1    2    0    0  0.00000000000E+00  0.00000000000E+00  0.15665856447E+04  0.19252942143E+04  0.11191814998E+04 0.  0.
        2    1    3    3  502    0 -0.52717720083E+03 -0.55461534232E+02  0.10917445714E+04  0.12136300886E+04  0.25500000920E-02 0.  1.
       -2    1    3    3    0  502  0.52717720083E+03  0.55461534232E+02  0.47484107332E+03  0.71166412568E+03  0.25500000920E-02 0. -1.
</event>
<event>
 5   0  0.4428114E-03  0.1109512E+04  0.7818609E-02  0.9195970E-01
       -1   -1    0    0    0  501  0.00000000000E+00  0.00000000000E+00  0.34230677815E+03  0.34230677818E+03  0.50400001928E-02 0.  1.
        1   -1    0    0  501    0  0.00000000000E+00  0.00000000000E+00 -0.89905903995E+03  0.89905903996E+03  0.50400001928E-02 0. -1.
    10030    2    1    2    0    0  0.00000000000E+00  0.00000000000E+00 -0.55675226180E+03  0.12413658181E+04  0.11095116103E+04 0.  0.
        4    1    3    3  502    0  0.70586803095E+02  0.44692329506E+03  0.80751356863E+02  0.45961431981E+03  0.12699999809E+01 0.  1.
       -4    1    3    3    0  502 -0.70586803095E+02 -0.44692329506E+03 -0.63750361866E+03  0.78175149833E+03  0.12699999809E+01 0. -1.
</event>
<event>
 5   0  0.7537480E-03  0.1142035E+04  0.7818609E-02  0.9165163E-01
        2   -1    0    0  501    0  0.00000000000E+00  0.00000000000E+00  0.76137904494E+03  0.76137904494E+03  0.25500000920E-02 0.  1.
       -2   -1    0    0    0  501  0.00000000000E+00  0.00000000000E+00 -0.42825076100E+03  0.42825076101E+03  0.25500000920E-02 0. -1.
    10030    2    1    2    0    0  0.00000000000E+00  0.00000000000E+00  0.33312828394E+03  0.11896298060E+04  0.11420352979E+04 0.  0.
        1    1    3    3  502    0 -0.30740367499E+03  0.30193530472E+02 -0.33371382946E+03  0.45472363990E+03  0.50400001928E-02 0. -1.
       -1    1    3    3    0  502  0.30740367499E+03 -0.30193530472E+02  0.66684211340E+03  0.73490616606E+03  0.50400001928E-02 0.  1.
</event>
<event>
 5   0  0.7712816E-03  0.8256913E+03  0.7818609E-02  0.9523557E-01
       -2   -1    0    0    0  501  0.00000000000E+00  0.00000000000E+00  0.31582330398E+03  0.31582330399E+03  0.25500000920E-02 0. -1.
        2   -1    0    0  501    0  0.00000000000E+00  0.00000000000E+00 -0.53967374011E+03  0.53967374012E+03  0.25500000920E-02 0.  1.
    10030    2    1    2    0    0  0.00000000000E+00  0.00000000000E+00 -0.22385043614E+03  0.85549704410E+03  0.82569133138E+03 0.  0.
        2    1    3    3  502    0  0.12835563693E+03  0.24435446541E+03  0.20617078727E+03  0.34451511988E+03  0.25500000920E-02 0. -1.
       -2    1    3    3    0  502 -0.12835563693E+03 -0.24435446541E+03 -0.43002122340E+03  0.51098192422E+03  0.25500000920E-02 0.  1.
</event>
<event>
 5   0  0.7537480E-03  0.1107870E+04  0.7818609E-02  0.9197555E-01
       -2   -1    0    0    0  501  0.00000000000E+00  0.00000000000E+00  0.75558376030E+03  0.75558376030E+03  0.25500000920E-02 0. -1.
        2   -1    0    0  501    0  0.00000000000E+00  0.00000000000E+00 -0.40610215518E+03  0.40610215519E+03  0.25500000920E-02 0.  1.
    10030    2    1    2    0    0  0.00000000000E+00  0.00000000000E+00  0.34948160512E+03  0.11616859155E+04  0.11078703778E+04 0.  0.
        1    1    3    3  502    0 -0.47821432998E+03  0.17252139487E+03 -0.55925863119E+02  0.51144919520E+03  0.50400001928E-02 0.  1.
       -1    1    3    3    0  502  0.47821432998E+03 -0.17252139487E+03  0.40540746824E+03  0.65023672029E+03  0.50400001928E-02 0. -1.
</event>
<event>
 5   0  0.7952121E-03  0.1108718E+04  0.7818609E-02  0.9196736E-01
        2   -1    0    0  501    0  0.00000000000E+00  0.00000000000E+00  0.64639671580E+03  0.64639671580E+03  0.25500000920E-02 0. -1.
       -2   -1    0    0    0  501  0.00000000000E+00  0.00000000000E+00 -0.47542598391E+03  0.47542598392E+03  0.25500000920E-02 0.  1.
    10030    2    1    2    0    0  0.00000000000E+00  0.00000000000E+00  0.17097073189E+03  0.11218226997E+04  0.11087178083E+04 0.  0.
        3    1    3    3  502    0 -0.28112149968E+03  0.34790069479E+03 -0.24587535579E+03  0.51041051303E+03  0.10100000352E+00 0.  1.
       -3    1    3    3    0  502  0.28112149968E+03 -0.34790069479E+03  0.41684608768E+03  0.61141218669E+03  0.10100000352E+00 0. -1.
</event>
<event>
 5   0  0.4598561E-03  0.1214154E+04  0.7818609E-02  0.9100557E-01
        1   -1    0    0  501    0  0.00000000000E+00  0.00000000000E+00  0.57227275387E+03  0.57227275389E+03  0.50400001928E-02 0. -1.
       -1   -1    0    0    0  501  0.00000000000E+00  0.00000000000E+00 -0.64399745616E+03  0.64399745618E+03  0.50400001928E-02 0.  1.
    10030    2    1    2    0    0  0.00000000000E+00  0.00000000000E+00 -0.71724702289E+02  0.12162702101E+04  0.12141535286E+04 0.  0.
        2    1    3    3  502    0 -0.38019544132E+03 -0.33444395930E+03 -0.37132054851E+03  0.62791741914E+03  0.25500000920E-02 0.  1.
       -2    1    3    3    0  502  0.38019544132E+03  0.33444395930E+03  0.29959584622E+03  0.58835279092E+03  0.25500000920E-02 0. -1.
</event>
<event>
 5   0  0.7537480E-03  0.9231205E+03  0.7818609E-02  0.9397132E-01
        2   -1    0    0  501    0  0.00000000000E+00  0.00000000000E+00  0.50757491671E+03  0.50757491672E+03  0.25500000920E-02 0.  1.
       -2   -1    0    0    0  501  0.00000000000E+00  0.00000000000E+00 -0.41971709575E+03  0.41971709576E+03  0.25500000920E-02 0. -1.
    10030    2    1    2    0    0  0.00000000000E+00  0.00000000000E+00  0.87857820961E+02  0.92729201248E+03  0.92312051202E+03 0.  0.
        1    1    3    3  502    0  0.43812666977E+02  0.43730565615E+03  0.18556993556E+03  0.47706602028E+03  0.50400001928E-02 0.  1.
       -1    1    3    3    0  502 -0.43812666977E+02 -0.43730565615E+03 -0.97712114603E+02  0.45022599220E+03  0.50400001928E-02 0. -1.
</event>
<event>
 5   0  0.7738497E-03  0.1045883E+04  0.7818609E-02  0.9259604E-01
        2   -1    0    0  501    0  0.00000000000E+00  0.00000000000E+00  0.12657063893E+04  0.12657063893E+04  0.25500000920E-02 0. -1.
       -2   -1    0    0    0  501  0.00000000000E+00  0.00000000000E+00 -0.21605961540E+03  0.21605961541E+03  0.25500000920E-02 0.  1.
    10030    2    1    2    0    0  0.00000000000E+00  0.00000000000E+00  0.10496467739E+04  0.14817660047E+04  0.10458834270E+04 0.  0.
        4    1    3    3  502    0 -0.37752378054E+03  0.35339468279E+03  0.63506167958E+03  0.81897311096E+03  0.12699999809E+01 0. -1.
       -4    1    3    3    0  502  0.37752378054E+03 -0.35339468279E+03  0.41458509434E+03  0.66279289378E+03  0.12699999809E+01 0.  1.
</event>
<event>
 5   0  0.4641021E-03  0.1087507E+04  0.7818609E-02  0.9217455E-01
       -1   -1    0    0    0  501  0.00000000000E+00  0.00000000000E+00  0.27519036155E+03  0.27519036160E+03  0.50400001928E-02 0.  1.
        1   -1    0    0  501    0  0.00000000000E+00  0.00000000000E+00 -0.10744120642E+04  0.10744120642E+04  0.50400001928E-02 0. -1.
    10030    2    1    2    0    0  0.00000000000E+00  0.00000000000E+00 -0.79922170268E+03  0.13496024258E+04  0.10875069553E+04 0.  0.
        1    1    3    3  502    0  0.32528440075E+03  0.12528245043E+03  0.11829494462E+03  0.36810233320E+03  0.50400001928E-02 0.  1.
       -1    1    3    3    0  502 -0.32528440075E+03 -0.12528245043E+03 -0.91751664730E+03  0.98150009265E+03  0.50400001928E-02 0. -1.
</event>
<event>
 5   0  0.4598561E-03  0.1097052E+04  0.7818609E-02  0.9208070E-01
       -1   -1    0    0    0  501  0.00000000000E+00  0.00000000000E+00  0.19770131141E+03  0.19770131147E+03  0.50400001928E-02 0.  1.
        1   -1    0    0  501    0  0.00000000000E+00  0.00000000000E+00 -0.15218955588E+04  0.15218955588E+04  0.50400001928E-02 0. -1.
    10030    2    1    2    0    0  0.00000000000E+00  0.00000000000E+00 -0.13241942474E+04  0.17195968703E+04  0.10970519548E+04 0.  0.
        2    1    3    3  502    0 -0.19171177910E+03 -0.47263660886E+03 -0.97848548791E+03  0.11034367315E+04  0.25500000920E-02 0. -1.
       -2    1    3    3    0  502  0.19171177910E+03  0.47263660886E+03 -0.34570875948E+03  0.61616013882E+03  0.25500000920E-02 0.  1.
</event>
<event>
 5   0  0.4504740E-03  0.1083093E+04  0.7818609E-02  0.9221829E-01
       -1   -1    0    0    0  501  0.00000000000E+00  0.00000000000E+00  0.27425372253E+03  0.27425372257E+03  0.50400001928E-02 0.  1.
        1   -1    0    0  501    0  0.00000000000E+00  0.00000000000E+00 -0.10693474937E+04  0.10693474937E+04  0.50400001928E-02 0. -1.
    10030    2    1    2    0    0  0.00000000000E+00  0.00000000000E+00 -0.79509377115E+03  0.13436012163E+04  0.10830928508E+04 0.  0.
        5    1    3    3  502    0  0.30595749806E+03  0.11831921415E+03 -0.93203944625E+03  0.98809364253E+03  0.46999998093E+01 0. -1.
       -5    1    3    3    0  502 -0.30595749806E+03 -0.11831921415E+03  0.13694567509E+03  0.35550757373E+03  0.46999998093E+01 0.  1.
</event>
<event>
 5   0  0.2992375E-03  0.1130904E+04  0.7818609E-02  0.9175584E-01
        3   -1    0    0  501    0  0.00000000000E+00  0.00000000000E+00  0.50735272764E+03  0.50735273769E+03  0.10100000352E+00 0. -1.
       -3   -1    0    0    0  501  0.00000000000E+00  0.00000000000E+00 -0.63020435056E+03  0.63020435866E+03  0.10100000352E+00 0.  1.
    10030    2    1    2    0    0  0.00000000000E+00  0.00000000000E+00 -0.12285162293E+03  0.11375570963E+04  0.11309038979E+04 0.  0.
        2    1    3    3  502    0 -0.28672965592E+03  0.10289037155E+03 -0.54060594180E+03  0.62052808837E+03  0.25500000920E-02 0.  1.
       -2    1    3    3    0  502  0.28672965592E+03 -0.10289037155E+03  0.41775431887E+03  0.51702900797E+03  0.25500000920E-02 0. -1.
</event>
<event>
 5   0  0.4298101E-03  0.1197166E+04  0.7818609E-02  0.9115341E-01
       -1   -1    0    0    0  501  0.00000000000E+00  0.00000000000E+00  0.31311490943E+03  0.31311490947E+03  0.50400001928E-02 0. -1.
        1   -1    0    0  501    0  0.00000000000E+00  0.00000000000E+00 -0.11443132754E+04  0.11443132754E+04  0.50400001928E-02 0.  1.
    10030    2    1    2    0    0  0.00000000000E+00  0.00000000000E+00 -0.83119836601E+03  0.14574281849E+04  0.11971658993E+04 0.  0.
        3    1    3    3  502    0 -0.31512379293E+03  0.18586796081E+03  0.16115959331E+03  0.39977784886E+03  0.10100000352E+00 0. -1.
       -3    1    3    3    0  502  0.31512379293E+03 -0.18586796081E+03 -0.99235795932E+03  0.10576503361E+04  0.10100000352E+00 0.  1.
</event>
<event>
 5   0  0.7738497E-03  0.1151507E+04  0.7818609E-02  0.9156395E-01
        2   -1    0    0  501    0  0.00000000000E+00  0.00000000000E+00  0.23045346430E+03  0.23045346432E+03  0.25500000920E-02 0. -1.
       -2   -1    0    0    0  501  0.00000000000E+00  0.00000000000E+00 -0.14384330114E+04  0.14384330114E+04  0.25500000920E-02 0.  1.
    10030    2    1    2    0    0  0.00000000000E+00  0.00000000000E+00 -0.12079795471E+04  0.16688864757E+04  0.11515066142E+04 0.  0.
        4    1    3    3  502    0 -0.50572230556E+03 -0.27518432844E+03 -0.60828735610E+03  0.83755392987E+03  0.12699999809E+01 0.  1.
       -4    1    3    3    0  502  0.50572230556E+03  0.27518432844E+03 -0.59969219103E+03  0.83133254588E+03  0.12699999809E+01 0. -1.
</event>
<event>
 5   0  0.4641021E-03  0.1105661E+04  0.7818609E-02  0.9199692E-01
       -1   -1    0    0    0  501  0.00000000000E+00  0.00000000000E+00  0.73946780984E+03  0.73946780986E+03  0.50400001928E-02 0.  1.
        1   -1    0    0  501    0  0.00000000000E+00  0.00000000000E+00 -0.41329906345E+03  0.41329906348E+03  0.50400001928E-02 0. -1.
    10030    2    1    2    0    0  0.00000000000E+00  0.00000000000E+00  0.32616874639E+03  0.11527668733E+04  0.11056606230E+04 0.  0.
        1    1    3    3  502    0 -0.89452936874E+02 -0.22828984298E+03  0.67967710085E+03  0.72255037317E+03  0.50400001928E-02 0.  1.
       -1    1    3    3    0  502  0.89452936874E+02  0.22828984298E+03 -0.35350835446E+03  0.43021650017E+03  0.50400001928E-02 0. -1.
</event>
<event>
 5   0  0.7766551E-03  0.1046734E+04  0.7818609E-02  0.9258723E-01
        2   -1    0    0  501    0  0.00000000000E+00  0.00000000000E+00  0.43354022605E+03  0.43354022606E+03  0.25500000920E-02 0.  1.
       -2   -1    0    0    0  501  0.00000000000E+00  0.00000000000E+00 -0.63180487860E+03  0.63180487861E+03  0.25500000920E-02 0. -1.
    10030    2    1    2    0    0  0.00000000000E+00  0.00000000000E+00 -0.19826465255E+03  0.10653451047E+04  0.10467336431E+04 0.  0.
        5    1    3    3  502    0  0.46070139504E+03 -0.15103924289E+02  0.15309831907E+03  0.48573149911E+03  0.46999998093E+01 0.  1.
       -5    1    3    3    0  502 -0.46070139504E+03  0.15103924289E+02 -0.35136297162E+03  0.57961360556E+03  0.46999998093E+01 0. -1.
</event>
<event>
 5   0  0.7766551E-03  0.1094172E+04  0.7818609E-02  0.9210891E-01
        2   -1    0    0  501    0  0.00000000000E+00  0.00000000000E+00  0.21843416429E+04  0.21843416429E+04  0.25500000920E-02 0.  1.
       -2   -1    0    0    0  501  0.00000000000E+00  0.00000000000E+00 -0.13702203869E+03  0.13702203872E+03  0.25500000920E-02 0. -1.
    10030    2    1    2    0    0  0.00000000000E+00  0.00000000000E+00  0.20473196042E+04  0.23213636816E+04  0.10941717327E+04 0.  0.
        5    1    3    3  502    0 -0.54313902039E+03  0.91759187554E+01  0.11610987115E+04  0.12818956669E+04  0.46999998093E+01 0.  1.
       -5    1    3    3    0  502  0.54313902039E+03 -0.91759187554E+01  0.88622089272E+03  0.10394680147E+04  0.46999998093E+01 0. -1.
</event>
<event>
 5   0  0.7766551E-03  0.1013448E+04  0.7818609E-02  0.9293917E-01
        2   -1    0    0  501    0  0.00000000000E+00  0.00000000000E+00  0.11488808275E+04  0.11488808275E+04  0.25500000920E-02 0.  1.
       -2   -1    0    0    0  501  0.00000000000E+00  0.00000000000E+00 -0.22349496346E+03  0.22349496347E+03  0.25500000920E-02 0. -1.
    10030    2    1    2    0    0  0.00000000000E+00  0.00000000000E+00  0.92538586404E+03  0.13723757910E+04  0.10134477363E+04 0.  0.
        5    1    3    3  502    0 -0.26576237176E+01 -0.42303080059E+03  0.84036881145E+03  0.94085277832E+03  0.46999998093E+01 0.  1.
       -5    1    3    3    0  502  0.26576237176E+01  0.42303080059E+03  0.85017052586E+02  0.43152301265E+03  0.46999998093E+01 0. -1.
</event>
<event>
 5   0  0.7712816E-03  0.1190130E+04  0.7818609E-02  0.9121540E-01
       -2   -1    0    0    0  501  0.00000000000E+00  0.00000000000E+00  0.51771123935E+03  0.51771123936E+03  0.25500000920E-02 0.  1.
        2   -1    0    0  501    0  0.00000000000E+00  0.00000000000E+00 -0.68397664127E+03  0.68397664128E+03  0.25500000920E-02 0. -1.
    10030    2    1    2    0    0  0.00000000000E+00  0.00000000000E+00 -0.16626540192E+03  0.12016878806E+04  0.11901300679E+04 0.  0.
        2    1    3    3  502    0  0.58801013057E+03  0.45467487879E+02 -0.31218268561E+01  0.58977364465E+03  0.25500000920E-02 0. -1.
       -2    1    3    3    0  502 -0.58801013057E+03 -0.45467487879E+02 -0.16314357507E+03  0.61191423599E+03  0.25500000920E-02 0.  1.
</event>
<event>
 5   0  0.4428114E-03  0.1104639E+04  0.7818609E-02  0.9200682E-01
        1   -1    0    0  501    0  0.00000000000E+00  0.00000000000E+00  0.11969532812E+04  0.11969532812E+04  0.50400001928E-02 0.  1.
       -1   -1    0    0    0  501  0.00000000000E+00  0.00000000000E+00 -0.25486101378E+03  0.25486101383E+03  0.50400001928E-02 0. -1.
    10030    2    1    2    0    0  0.00000000000E+00  0.00000000000E+00  0.94209226738E+03  0.14518142950E+04  0.11046388129E+04 0.  0.
        4    1    3    3  502    0 -0.48535732837E+02  0.36259787446E+01 -0.25203514140E+03  0.25669474183E+03  0.12699999809E+01 0. -1.
       -4    1    3    3    0  502  0.48535732837E+02 -0.36259787446E+01  0.11941274088E+04  0.11951195532E+04  0.12699999809E+01 0.  1.
</event>
<event>
 5   0  0.7537480E-03  0.1119064E+04  0.7818609E-02  0.9186808E-01
        2   -1    0    0  501    0  0.00000000000E+00  0.00000000000E+00  0.39230616910E+03  0.39230616911E+03  0.25500000920E-02 0.  1.
       -2   -1    0    0    0  501  0.00000000000E+00  0.00000000000E+00 -0.79803957235E+03  0.79803957235E+03  0.25500000920E-02 0. -1.
    10030    2    1    2    0    0  0.00000000000E+00  0.00000000000E+00 -0.40573340325E+03  0.11903457415E+04  0.11190636218E+04 0.  0.
        1    1    3    3  502    0  0.48966811879E+03 -0.91144759652E+02 -0.47404422287E+03  0.68760465315E+03  0.50400001928E-02 0. -1.
       -1    1    3    3    0  502 -0.48966811879E+03  0.91144759652E+02  0.68310819618E+02  0.50274108831E+03  0.50400001928E-02 0.  1.
</event>
<event>
 5   0  0.7766551E-03  0.1029754E+04  0.7818609E-02  0.9276500E-01
        2   -1    0    0  501    0  0.00000000000E+00  0.00000000000E+00  0.12877223390E+04  0.12877223390E+04  0.25500000920E-02 0. -1.
       -2   -1    0    0    0  501  0.00000000000E+00  0.00000000000E+00 -0.20586601803E+03  0.20586601805E+03  0.25500000920E-02 0.  1.
    10030    2    1    2    0    0  0.00000000000E+00  0.00000000000E+00  0.10818563210E+04  0.14935883571E+04  0.10297538935E+04 0.  0.
        5    1    3    3  502    0 -0.40007160339E+03 -0.14814425249E+02  0.71383477317E+02  0.40668715971E+03  0.46999998093E+01 0.  1.
       -5    1    3    3    0  502  0.40007160339E+03  0.14814425249E+02  0.10104728437E+04  0.10869011974E+04  0.46999998093E+01 0. -1.
</event>
<event>
 5   0  0.7738497E-03  0.1077965E+04  0.7818609E-02  0.9226938E-01
        2   -1    0    0  501    0  0.00000000000E+00  0.00000000000E+00  0.13145558530E+04  0.13145558530E+04  0.25500000920E-02 0.  1.
       -2   -1    0    0    0  501  0.00000000000E+00  0.00000000000E+00 -0.22098896527E+03  0.22098896529E+03  0.25500000920E-02 0. -1.
    10030    2    1    2    0    0  0.00000000000E+00  0.00000000000E+00  0.10935668877E+04  0.15355448183E+04  0.10779653756E+04 0.  0.
        4    1    3    3  502    0  0.19926614135E+03  0.14024377656E+03 -0.13804459820E+03  0.28005934361E+03  0.12699999809E+01 0. -1.
       -4    1    3    3    0  502 -0.19926614135E+03 -0.14024377656E+03  0.12316114859E+04  0.12554854746E+04  0.12699999809E+01 0.  1.
</event>
<event>
 5   0  0.7952121E-03  0.1095727E+04  0.7818609E-02  0.9209367E-01
        2   -1    0    0  501    0  0.00000000000E+00  0.00000000000E+00  0.58357357868E+03  0.58357357868E+03  0.25500000920E-02 0.  1.
       -2   -1    0    0    0  501  0.00000000000E+00  0.00000000000E+00 -0.51433821240E+03  0.51433821241E+03  0.25500000920E-02 0. -1.
    10030    2    1    2    0    0  0.00000000000E+00  0.00000000000E+00  0.69235366274E+02  0.10979117911E+04  0.10957265923E+04 0.  0.
        3    1    3    3  502    0 -0.13472775704E+03 -0.37111761448E+03  0.41520979139E+03  0.57295639743E+03  0.10100000352E+00 0.  1.
       -3    1    3    3    0  502  0.13472775704E+03  0.37111761448E+03 -0.34597442512E+03  0.52495539366E+03  0.10100000352E+00 0. -1.
</event>
<event>
 5   0  0.7766551E-03  0.1077553E+04  0.7818609E-02  0.9227350E-01
        2   -1    0    0  501    0  0.00000000000E+00  0.00000000000E+00  0.66740682157E+03  0.66740682157E+03  0.25500000920E-02 0. -1.
       -2   -1    0    0    0  501  0.00000000000E+00  0.00000000000E+00 -0.43493752972E+03  0.43493752973E+03  0.25500000920E-02 0.  1.
    10030    2    1    2    0    0  0.00000000000E+00  0.00000000000E+00  0.23246929185E+03  0.11023443513E+04  0.10775532920E+04 0.  0.
        5    1    3    3  502    0 -0.94373101178E+01  0.14459766843E+02  0.66710271065E+03  0.66734268876E+03  0.46999998093E+01 0. -1.
       -5    1    3    3    0  502  0.94373101178E+01 -0.14459766843E+02 -0.43463341880E+03  0.43500166254E+03  0.46999998093E+01 0.  1.
</event>
<event>
 5   0  0.4428114E-03  0.1106294E+04  0.7818609E-02  0.9199079E-01
       -1   -1    0    0    0  501  0.00000000000E+00  0.00000000000E+00  0.34756047082E+03  0.34756047085E+03  0.50400001928E-02 0.  1.
        1   -1    0    0  501    0  0.00000000000E+00  0.00000000000E+00 -0.88034107544E+03  0.88034107545E+03  0.50400001928E-02 0. -1.
    10030    2    1    2    0    0  0.00000000000E+00  0.00000000000E+00 -0.53278060462E+03  0.12279015463E+04  0.11062942804E+04 0.  0.
        4    1    3    3  502    0 -0.44330818453E+03 -0.31078493537E+03 -0.39226127141E+03  0.66856558427E+03  0.12699999809E+01 0. -1.
       -4    1    3    3    0  502  0.44330818453E+03  0.31078493537E+03 -0.14051933321E+03  0.55933596204E+03  0.12699999809E+01 0.  1.
</event>
<event>
 5   0  0.4298101E-03  0.1098960E+04  0.7818609E-02  0.9206206E-01
       -1   -1    0    0    0  501  0.00000000000E+00  0.00000000000E+00  0.34411423804E+03  0.34411423808E+03  0.50400001928E-02 0. -1.
        1   -1    0    0  501    0  0.00000000000E+00  0.00000000000E+00 -0.87740759018E+03  0.87740759020E+03  0.50400001928E-02 0.  1.
    10030    2    1    2    0    0  0.00000000000E+00  0.00000000000E+00 -0.53329335214E+03  0.12215218283E+04  0.10989603166E+04 0.  0.
        3    1    3    3  502    0  0.29253759284E+03 -0.36295512414E+03  0.56678662880E+02  0.46960317970E+03  0.10100000352E+00 0. -1.
       -3    1    3    3    0  502 -0.29253759284E+03  0.36295512414E+03 -0.58997201502E+03  0.75191864857E+03  0.10100000352E+00 0.  1.
</event>
<event>
 5   0  0.4504740E-03  0.8551557E+03  0.7818609E-02  0.9483443E-01
        1   -1    0    0  501    0  0.00000000000E+00  0.00000000000E+00  0.18708981400E+04  0.18708981400E+04  0.50400001928E-02 0. -1.
       -1   -1    0    0    0  501  0.00000000000E+00  0.00000000000E+00 -0.97719282775E+02  0.97719282905E+02  0.50400001928E-02 0.  1.
    10030    2    1    2    0    0  0.00000000000E+00  0.00000000000E+00  0.17731788572E+04  0.19686174229E+04  0.85515571570E+03 0.  0.
        5    1    3    3  502    0 -0.36423203604E+03 -0.11419422568E+03  0.44320915300E+03  0.58494592960E+03  0.46999998093E+01 0.  1.
       -5    1    3    3    0  502  0.36423203604E+03  0.11419422568E+03  0.13299697042E+04  0.13836714933E+04  0.46999998093E+01 0. -1.
</event>
<event>
 5   0  0.7537480E-03  0.1105760E+04  0.7818609E-02  0.9199596E-01
       -2   -1    0    0    0  501  0.00000000000E+00  0.00000000000E+00  0.40475424497E+03  0.40475424497E+03  0.25500000920E-02 0. -1.
        2   -1    0    0  501    0  0.00000000000E+00  0.00000000000E+00 -0.75521439330E+03  0.75521439330E+03  0.25500000920E-02 0.  1.
    10030    2    1    2    0    0  0.00000000000E+00  0.00000000000E+00 -0.35046014833E+03  0.11599686383E+04  0.11057598863E+04 0.  0.
        1    1    3    3  502    0 -0.13606303589E+03  0.50807117333E+03 -0.35395483811E+03  0.63398225082E+03  0.50400001928E-02 0.  1.
       -1    1    3    3    0  502  0.13606303589E+03 -0.50807117333E+03  0.34946897794E+01  0.52598638746E+03  0.50400001928E-02 0. -1.
</event>
<event>
 5   0  0.7766551E-03  0.1093600E+04  0.7818609E-02  0.9211452E-01
       -2   -1    0    0    0  501  0.00000000000E+00  0.00000000000E+00  0.80864423539E+03  0.80864423539E+03  0.25500000920E-02 0.  1.
        2   -1    0    0  501    0  0.00000000000E+00  0.00000000000E+00 -0.36974280405E+03  0.36974280406E+03  0.25500000920E-02 0. -1.
    10030    2    1    2    0    0  0.00000000000E+00  0.00000000000E+00  0.43890143134E+03  0.11783870395E+04  0.10936002690E+04 0.  0.
        5    1    3    3  502    0  0.44713360477E+03 -0.29700752854E+02 -0.11814081269E+03  0.46345435251E+03  0.46999998093E+01 0. -1.
       -5    1    3    3    0  502 -0.44713360477E+03  0.29700752854E+02  0.55704224402E+03  0.71493268694E+03  0.46999998093E+01 0.  1.
</event>
<event>
 5   0  0.4504740E-03  0.1099271E+04  0.7818609E-02  0.9205903E-01
       -1   -1    0    0    0  501  0.00000000000E+00  0.00000000000E+00  0.40335907451E+03  0.40335907454E+03  0.50400001928E-02 0.  1.
        1   -1    0    0  501    0  0.00000000000E+00  0.00000000000E+00 -0.74895824670E+03  0.74895824672E+03  0.50400001928E-02 0. -1.
    10030    2    1    2    0    0  0.00000000000E+00  0.00000000000E+00 -0.34559917219E+03  0.11523173213E+04  0.10992708588E+04 0.  0.
        5    1    3    3  502    0  0.41042711482E+03 -0.12295043388E+03 -0.53366435847E+03  0.68438802098E+03  0.46999998093E+01 0. -1.
       -5    1    3    3    0  502 -0.41042711482E+03  0.12295043388E+03  0.18806518628E+03  0.46792930027E+03  0.46999998093E+01 0.  1.
</event>
<event>
 5   0  0.4641021E-03  0.1142742E+04  0.7818609E-02  0.9164506E-01
       -1   -1    0    0    0  501  0.00000000000E+00  0.00000000000E+00  0.40080607222E+03  0.40080607225E+03  0.50400001928E-02 0. -1.
        1   -1    0    0  501    0  0.00000000000E+00  0.00000000000E+00 -0.81452037567E+03  0.81452037568E+03  0.50400001928E-02 0.  1.
    10030    2    1    2    0    0  0.00000000000E+00  0.00000000000E+00 -0.41371430345E+03  0.12153264479E+04  0.11427418126E+04 0.  0.
        1    1    3    3  502    0  0.44974908692E+03  0.31580127562E+03 -0.40526118682E+02  0.55104178897E+03  0.50400001928E-02 0. -1.
       -1    1    3    3    0  502 -0.44974908692E+03 -0.31580127562E+03 -0.37318818476E+03  0.66428465897E+03  0.50400001928E-02 0.  1.
</event>
<event>
 5   0  0.7738497E-03  0.1050897E+04  0.7818609E-02  0.9254418E-01
        2   -1    0    0  501    0  0.00000000000E+00  0.00000000000E+00  0.12755332913E+04  0.12755332913E+04  0.25500000920E-02 0.  1.
       -2   -1    0    0    0  501  0.00000000000E+00  0.00000000000E+00 -0.21645553946E+03  0.21645553947E+03  0.25500000920E-02 0. -1.
    10030    2    1    2    0    0  0.00000000000E+00  0.00000000000E+00  0.10590777518E+04  0.14919888308E+04  0.10508972294E+04 0.  0.
        4    1    3    3  502    0 -0.32865407749E+03  0.30231017285E+03  0.92270294166E+03  0.10250791553E+04  0.12699999809E+01 0.  1.
       -4    1    3    3    0  502  0.32865407749E+03 -0.30231017285E+03  0.13637481017E+03  0.46690967543E+03  0.12699999809E+01 0. -1.
</event>
<event>
 5   0  0.4641021E-03  0.1106295E+04  0.7818609E-02  0.9199078E-01
       -1   -1    0    0    0  501  0.00000000000E+00  0.00000000000E+00  0.19663740975E+03  0.19663740982E+03  0.50400001928E-02 0. -1.
        1   -1    0    0  501    0  0.00000000000E+00  0.00000000000E+00 -0.15560208621E+04  0.15560208621E+04  0.50400001928E-02 0.  1.
    10030    2    1    2    0    0  0.00000000000E+00  0.00000000000E+00 -0.13593834523E+04  0.17526582719E+04  0.11062945574E+04 0.  0.
        1    1    3    3  502    0 -0.61465851431E+01  0.44459684698E+03 -0.15840570739E+03  0.47201324665E+03  0.50400001928E-02 0. -1.
       -1    1    3    3    0  502  0.61465851431E+01 -0.44459684698E+03 -0.12009777449E+04  0.12806450253E+04  0.50400001928E-02 0.  1.
</event>
<event>
 5   0  0.7738497E-03  0.1176280E+04  0.7818609E-02  0.9133876E-01
        2   -1    0    0  501    0  0.00000000000E+00  0.00000000000E+00  0.17313289461E+04  0.17313289461E+04  0.25500000920E-02 0.  1.
       -2   -1    0    0    0  501  0.00000000000E+00  0.00000000000E+00 -0.19979359025E+03  0.19979359027E+03  0.25500000920E-02 0. -1.
    10030    2    1    2    0    0  0.00000000000E+00  0.00000000000E+00  0.15315353558E+04  0.19311225364E+04  0.11762796029E+04 0.  0.
        4    1    3    3  502    0  0.39327046849E+03  0.16764144114E+03  0.10266391859E+03  0.43966670019E+03  0.12699999809E+01 0. -1.
       -4    1    3    3    0  502 -0.39327046849E+03 -0.16764144114E+03  0.14288714373E+04  0.14914558362E+04  0.12699999809E+01 0.  1.
</event>
<event>
 5   0  0.7537480E-03  0.1099617E+04  0.7818609E-02  0.9205566E-01
        2   -1    0    0  501    0  0.00000000000E+00  0.00000000000E+00  0.40399568920E+03  0.40399568921E+03  0.25500000920E-02 0. -1.
       -2   -1    0    0    0  501  0.00000000000E+00  0.00000000000E+00 -0.74824862119E+03  0.74824862120E+03  0.25500000920E-02 0.  1.
    10030    2    1    2    0    0  0.00000000000E+00  0.00000000000E+00 -0.34425293199E+03  0.11522443104E+04  0.10996166922E+04 0.  0.
        1    1    3    3  502    0  0.41835671979E+03  0.15952485174E+03  0.16223560750E+03  0.47622569825E+03  0.50400001928E-02 0. -1.
       -1    1    3    3    0  502 -0.41835671979E+03 -0.15952485174E+03 -0.50648853949E+03  0.67601861215E+03  0.50400001928E-02 0.  1.
</event>
<event>
 5   0  0.2992375E-03  0.1105342E+04  0.7818609E-02  0.9200001E-01
        4   -1    0    0  501    0  0.00000000000E+00  0.00000000000E+00  0.56645016520E+03  0.56645158889E+03  0.12699999809E+01 0. -1.
       -4   -1    0    0    0  501  0.00000000000E+00  0.00000000000E+00 -0.53922421903E+03  0.53922571460E+03  0.12699999809E+01 0.  1.
    10030    2    1    2    0    0  0.00000000000E+00  0.00000000000E+00  0.27225946175E+02  0.11056773035E+04  0.11053420499E+04 0.  0.
        4    1    3    3  502    0  0.53564357974E+03  0.62853748470E+02  0.13439316921E+03  0.55581271580E+03  0.12699999809E+01 0. -1.
       -4    1    3    3    0  502 -0.53564357974E+03 -0.62853748470E+02 -0.10716722304E+03  0.54986458770E+03  0.12699999809E+01 0.  1.
</event>
<event>
 5   0  0.4641021E-03  0.1092242E+04  0.7818609E-02  0.9212786E-01
        1   -1    0    0  501    0  0.00000000000E+00  0.00000000000E+00  0.59685851811E+03  0.59685851813E+03  0.50400001928E-02 0. -1.
       -1   -1    0    0    0  501  0.00000000000E+00  0.00000000000E+00 -0.49969700456E+03  0.49969700458E+03  0.50400001928E-02 0.  1.
    10030    2    1    2    0    0  0.00000000000E+00  0.00000000000E+00  0.97161513546E+02  0.10965555227E+04  0.10922424890E+04 0.  0.
        1    1    3    3  502    0  0.16096324977E+03  0.34324578592E+03 -0.34606380682E+03  0.51330984380E+03  0.50400001928E-02 0.  1.
       -1    1    3    3    0  502 -0.16096324977E+03 -0.34324578592E+03  0.44322532037E+03  0.58324567891E+03  0.50400001928E-02 0. -1.
</event>
<event>
 5   0  0.4504740E-03  0.1100137E+04  0.7818609E-02  0.9205058E-01
        1   -1    0    0  501    0  0.00000000000E+00  0.00000000000E+00  0.33204654260E+03  0.33204654264E+03  0.50400001928E-02 0. -1.
       -1   -1    0    0    0  501  0.00000000000E+00  0.00000000000E+00 -0.91124377697E+03  0.91124377699E+03  0.50400001928E-02 0.  1.
    10030    2    1    2    0    0  0.00000000000E+00  0.00000000000E+00 -0.57919723437E+03  0.12432903196E+04  0.11001369836E+04 0.  0.
        5    1    3    3  502    0 -0.49761098848E+03 -0.21668712954E+03 -0.39057401884E+03  0.66868539849E+03  0.46999998093E+01 0. -1.
       -5    1    3    3    0  502  0.49761098848E+03  0.21668712954E+03 -0.18862321553E+03  0.57460492114E+03  0.46999998093E+01 0.  1.
</event>
<event>
 5   0  0.7738497E-03  0.1135746E+04  0.7818609E-02  0.9171035E-01
       -2   -1    0    0    0  501  0.00000000000E+00  0.00000000000E+00  0.18795884055E+03  0.18795884056E+03  0.25500000920E-02 0. -1.
        2   -1    0    0  501    0  0.00000000000E+00  0.00000000000E+00 -0.17156923655E+04  0.17156923655E+04  0.25500000920E-02 0.  1.
    10030    2    1    2    0    0  0.00000000000E+00  0.00000000000E+00 -0.15277335249E+04  0.19036512060E+04  0.11357456542E+04 0.  0.
        4    1    3    3  502    0  0.22227990173E+03 -0.23107079106E+03  0.21725996525E+02  0.32136536375E+03  0.12699999809E+01 0. -1.
       -4    1    3    3    0  502 -0.22227990173E+03  0.23107079106E+03 -0.15494595214E+04  0.15822858423E+04  0.12699999809E+01 0.  1.
</event>
<event>
 5   0  0.4428114E-03  0.1194365E+04  0.7818609E-02  0.9117803E-01
       -1   -1    0    0    0  501  0.00000000000E+00  0.00000000000E+00  0.24839785439E+03  0.24839785444E+03  0.50400001928E-02 0.  1.
        1   -1    0    0  501    0  0.00000000000E+00  0.00000000000E+00 -0.14357090082E+04  0.14357090082E+04  0.50400001928E-02 0. -1.
    10030    2    1    2    0    0  0.00000000000E+00  0.00000000000E+00 -0.11873111538E+04  0.16841068626E+04  0.11943651656E+04 0.  0.
        4    1    3    3  502    0 -0.54298018570E+03 -0.23854998427E+03 -0.49503467699E+03  0.77252477072E+03  0.12699999809E+01 0. -1.
       -4    1    3    3    0  502  0.54298018570E+03  0.23854998427E+03 -0.69227647680E+03  0.91158209191E+03  0.12699999809E+01 0.  1.
</event>
<event>
 5   0  0.7738497E-03  0.1095046E+04  0.7818609E-02  0.9210034E-01
        2   -1    0    0  501    0  0.00000000000E+00  0.00000000000E+00  0.24338131005E+03  0.24338131006E+03  0.25500000920E-02 0. -1.
       -2   -1    0    0    0  501  0.00000000000E+00  0.00000000000E+00 -0.12317355084E+04  0.12317355084E+04  0.25500000920E-02 0.  1.
    10030    2    1    2    0    0  0.00000000000E+00  0.00000000000E+00 -0.98835419837E+03  0.14751168185E+04  0.10950459382E+04 0.  0.
        4    1    3    3  502    0  0.50925976811E+03  0.19154710859E+03 -0.41175171416E+03  0.68233195238E+03  0.12699999809E+01 0. -1.
       -4    1    3    3    0  502 -0.50925976811E+03 -0.19154710859E+03 -0.57660248421E+03  0.79278486610E+03  0.12699999809E+01 0.  1.
</event>
<event>
 5   0  0.4598561E-03  0.7960734E+03  0.7818609E-02  0.9565718E-01
       -1   -1    0    0    0  501  0.00000000000E+00  0.00000000000E+00  0.38730871829E+03  0.38730871832E+03  0.50400001928E-02 0. -1.
        1   -1    0    0  501    0  0.00000000000E+00  0.00000000000E+00 -0.40906181006E+03  0.40906181009E+03  0.50400001928E-02 0.  1.
    10030    2    1    2    0    0  0.00000000000E+00  0.00000000000E+00 -0.21753091766E+02  0.79637052841E+03  0.79607337697E+03 0.  0.
        2    1    3    3  502    0 -0.17610924854E+03  0.24799905848E+03 -0.26771194581E+03  0.40520079758E+03  0.25500000920E-02 0.  1.
       -2    1    3    3    0  502  0.17610924854E+03 -0.24799905848E+03  0.24595885405E+03  0.39116973083E+03  0.25500000920E-02 0. -1.
</event>
<event>
 5   0  0.7537480E-03  0.1128932E+04  0.7818609E-02  0.9177442E-01
       -2   -1    0    0    0  501  0.00000000000E+00  0.00000000000E+00  0.49872450830E+03  0.49872450830E+03  0.25500000920E-02 0. -1.
        2   -1    0    0  501    0  0.00000000000E+00  0.00000000000E+00 -0.63887394208E+03  0.63887394208E+03  0.25500000920E-02 0.  1.
    10030    2    1    2    0    0  0.00000000000E+00  0.00000000000E+00 -0.14014943378E+03  0.11375984504E+04  0.11289324030E+04 0.  0.
        1    1    3    3  502    0  0.55706809766E+03 -0.69611032334E+02 -0.10874000091E+02  0.56150583715E+03  0.50400001928E-02 0. -1.
       -1    1    3    3    0  502 -0.55706809766E+03  0.69611032334E+02 -0.12927543369E+03  0.57609261324E+03  0.50400001928E-02 0.  1.
</event>
<event>
 5   0  0.4298101E-03  0.1095557E+04  0.7818609E-02  0.9209533E-01
       -1   -1    0    0    0  501  0.00000000000E+00  0.00000000000E+00  0.98711215819E+03  0.98711215820E+03  0.50400001928E-02 0.  1.
        1   -1    0    0  501    0  0.00000000000E+00  0.00000000000E+00 -0.30397889285E+03  0.30397889289E+03  0.50400001928E-02 0. -1.
    10030    2    1    2    0    0  0.00000000000E+00  0.00000000000E+00  0.68313326534E+03  0.12910910511E+04  0.10955569561E+04 0.  0.
        3    1    3    3  502    0 -0.44207973551E+03  0.23933479861E+03  0.59799246836E+03  0.78122380966E+03  0.10100000352E+00 0.  1.
       -3    1    3    3    0  502  0.44207973551E+03 -0.23933479861E+03  0.85140796984E+02  0.50986724143E+03  0.10100000352E+00 0. -1.
</event>
<event>
 5   0  0.4641021E-03  0.1088559E+04  0.7818609E-02  0.9216415E-01
        1   -1    0    0  501    0  0.00000000000E+00  0.00000000000E+00  0.63397915085E+03  0.63397915087E+03  0.50400001928E-02 0.  1.
       -1   -1    0    0    0  501  0.00000000000E+00  0.00000000000E+00 -0.46727152031E+03  0.46727152034E+03  0.50400001928E-02 0. -1.
    10030    2    1    2    0    0  0.00000000000E+00  0.00000000000E+00  0.16670763054E+03  0.11012506712E+04  0.10885594181E+04 0.  0.
        1    1    3    3  502    0 -0.17063503664E+03 -0.31884673529E+03  0.49486502104E+03  0.61292001551E+03  0.50400001928E-02 0.  1.
       -1    1    3    3    0  502  0.17063503664E+03  0.31884673529E+03 -0.32815739050E+03  0.48833065570E+03  0.50400001928E-02 0. -1.
</event>
<event>
 5   0  0.4298101E-03  0.1043717E+04  0.7818609E-02  0.9261854E-01
        1   -1    0    0  501    0  0.00000000000E+00  0.00000000000E+00  0.12539448295E+04  0.12539448295E+04  0.50400001928E-02 0.  1.
       -1   -1    0    0    0  501  0.00000000000E+00  0.00000000000E+00 -0.21718383743E+03  0.21718383749E+03  0.50400001928E-02 0. -1.
    10030    2    1    2    0    0  0.00000000000E+00  0.00000000000E+00  0.10367609921E+04  0.14711286670E+04  0.10437174906E+04 0.  0.
        3    1    3    3  502    0  0.74802518722E+02  0.38723442078E+03  0.36685992391E+02  0.39609567744E+03  0.10100000352E+00 0. -1.
       -3    1    3    3    0  502 -0.74802518722E+02 -0.38723442078E+03  0.10000749997E+04  0.10750329896E+04  0.10100000352E+00 0.  1.
</event>
<event>
 5   0  0.7952121E-03  0.1125490E+04  0.7818609E-02  0.9180698E-01
        2   -1    0    0  501    0  0.00000000000E+00  0.00000000000E+00  0.14792526212E+04  0.14792526212E+04  0.25500000920E-02 0.  1.
       -2   -1    0    0    0  501  0.00000000000E+00  0.00000000000E+00 -0.21408243492E+03  0.21408243494E+03  0.25500000920E-02 0. -1.
    10030    2    1    2    0    0  0.00000000000E+00  0.00000000000E+00  0.12651701863E+04  0.16933350561E+04  0.11254901208E+04 0.  0.
        3    1    3    3  502    0 -0.40104856906E+03  0.34239395180E+03  0.92821081992E+03  0.10675433993E+04  0.10100000352E+00 0.  1.
       -3    1    3    3    0  502  0.40104856906E+03 -0.34239395180E+03  0.33695936634E+03  0.62579165682E+03  0.10100000352E+00 0. -1.
</event>
<event>
 5   0  0.7712816E-03  0.1076103E+04  0.7818609E-02  0.9228802E-01
       -2   -1    0    0    0  501  0.00000000000E+00  0.00000000000E+00  0.33786341221E+03  0.33786341222E+03  0.25500000920E-02 0.  1.
        2   -1    0    0  501    0  0.00000000000E+00  0.00000000000E+00 -0.85685310807E+03  0.85685310808E+03  0.25500000920E-02 0. -1.
    10030    2    1    2    0    0  0.00000000000E+00  0.00000000000E+00 -0.51898969587E+03  0.11947165203E+04  0.10761028108E+04 0.  0.
        2    1    3    3  502    0  0.23784899054E+03  0.47001612671E+03 -0.38117479259E+03  0.65021652100E+03  0.25500000920E-02 0. -1.
       -2    1    3    3    0  502 -0.23784899054E+03 -0.47001612671E+03 -0.13781490327E+03  0.54449999930E+03  0.25500000920E-02 0.  1.
</event>
<event>
 5   0  0.4598561E-03  0.1101520E+04  0.7818609E-02  0.9203712E-01
        1   -1    0    0  501    0  0.00000000000E+00  0.00000000000E+00  0.51580051636E+03  0.51580051639E+03  0.50400001928E-02 0. -1.
       -1   -1    0    0    0  501  0.00000000000E+00  0.00000000000E+00 -0.58808844223E+03  0.58808844225E+03  0.50400001928E-02 0.  1.
    10030    2    1    2    0    0  0.00000000000E+00  0.00000000000E+00 -0.72287925862E+02  0.11038889586E+04  0.11015195363E+04 0.  0.
        2    1    3    3  502    0 -0.20940127089E+03 -0.15585348921E+03 -0.52215841653E+03  0.58377102900E+03  0.25500000920E-02 0.  1.
       -2    1    3    3    0  502  0.20940127089E+03  0.15585348921E+03  0.44987049066E+03  0.52011792963E+03  0.25500000920E-02 0. -1.
</event>
<event>
 5   0  0.7537480E-03  0.1112921E+04  0.7818609E-02  0.9192689E-01
        2   -1    0    0  501    0  0.00000000000E+00  0.00000000000E+00  0.35345585440E+03  0.35345585441E+03  0.25500000920E-02 0. -1.
       -2   -1    0    0    0  501  0.00000000000E+00  0.00000000000E+00 -0.87605941868E+03  0.87605941868E+03  0.25500000920E-02 0.  1.
    10030    2    1    2    0    0  0.00000000000E+00  0.00000000000E+00 -0.52260356428E+03  0.12295152731E+04  0.11129210760E+04 0.  0.
        1    1    3    3  502    0 -0.23176661126E+03 -0.27751571833E+02 -0.81935795436E+03  0.85195854902E+03  0.50400001928E-02 0.  1.
       -1    1    3    3    0  502  0.23176661126E+03  0.27751571833E+02  0.29675439009E+03  0.37755672408E+03  0.50400001928E-02 0. -1.
</event>
<event>
 5   0  0.7766551E-03  0.1101136E+04  0.7818609E-02  0.9204085E-01
        2   -1    0    0  501    0  0.00000000000E+00  0.00000000000E+00  0.66306966679E+03  0.66306966679E+03  0.25500000920E-02 0. -1.
       -2   -1    0    0    0  501  0.00000000000E+00  0.00000000000E+00 -0.45715450030E+03  0.45715450030E+03  0.25500000920E-02 0.  1.
    10030    2    1    2    0    0  0.00000000000E+00  0.00000000000E+00  0.20591516649E+03  0.11202241671E+04  0.11011362898E+04 0.  0.
        5    1    3    3  502    0 -0.54921395523E+03 -0.82706830668E+01  0.64908457676E+02  0.55311804409E+03  0.46999998093E+01 0. -1.
       -5    1    3    3    0  502  0.54921395523E+03  0.82706830668E+01  0.14100670882E+03  0.56710612301E+03  0.46999998093E+01 0.  1.
</event>
<event>
 5   0  0.4428114E-03  0.1122122E+04  0.7818609E-02  0.9183894E-01
       -1   -1    0    0    0  501  0.00000000000E+00  0.00000000000E+00  0.22488241110E+03  0.22488241115E+03  0.50400001928E-02 0. -1.
        1   -1    0    0  501    0  0.00000000000E+00  0.00000000000E+00 -0.13997965757E+04  0.13997965757E+04  0.50400001928E-02 0.  1.
    10030    2    1    2    0    0  0.00000000000E+00  0.00000000000E+00 -0.11749141646E+04  0.16246789869E+04  0.11221223267E+04 0.  0.
        4    1    3    3  502    0 -0.32457040428E+03 -0.34376877012E+03 -0.15005612372E+03  0.49602557173E+03  0.12699999809E+01 0. -1.
       -4    1    3    3    0  502  0.32457040428E+03  0.34376877012E+03 -0.10248580409E+04  0.11286534151E+04  0.12699999809E+01 0.  1.
</event>
<event>
 5   0  0.7537480E-03  0.1090554E+04  0.7818609E-02  0.9214448E-01
        2   -1    0    0  501    0  0.00000000000E+00  0.00000000000E+00  0.46421016807E+03  0.46421016808E+03  0.25500000920E-02 0. -1.
       -2   -1    0    0    0  501  0.00000000000E+00  0.00000000000E+00 -0.64050085943E+03  0.64050085944E+03  0.25500000920E-02 0.  1.
    10030    2    1    2    0    0  0.00000000000E+00  0.00000000000E+00 -0.17629069136E+03  0.11047110275E+04  0.10905540090E+04 0.  0.
        1    1    3    3  502    0  0.42956299232E+03 -0.44227319374E+01 -0.42833687751E+03  0.60664355728E+03  0.50400001928E-02 0.  1.
       -1    1    3    3    0  502 -0.42956299232E+03  0.44227319374E+01  0.25204618615E+03  0.49806747024E+03  0.50400001928E-02 0. -1.
</event>
<event>
 5   0  0.4641021E-03  0.1107097E+04  0.7818609E-02  0.9198302E-01
       -1   -1    0    0    0  501  0.00000000000E+00  0.00000000000E+00  0.59178121245E+03  0.59178121247E+03  0.50400001928E-02 0. -1.
        1   -1    0    0  501    0  0.00000000000E+00  0.00000000000E+00 -0.51778590616E+03  0.51778590618E+03  0.50400001928E-02 0.  1.
    10030    2    1    2    0    0  0.00000000000E+00  0.00000000000E+00  0.73995306292E+02  0.11095671187E+04  0.11070970533E+04 0.  0.
        1    1    3    3  502    0  0.36933262843E+03  0.32010841845E+03 -0.22346673413E+03  0.53741359424E+03  0.50400001928E-02 0.  1.
       -1    1    3    3    0  502 -0.36933262843E+03 -0.32010841845E+03  0.29746204042E+03  0.57215352442E+03  0.50400001928E-02 0. -1.
</event>
<event>
 5   0  0.7537480E-03  0.1089982E+04  0.7818609E-02  0.9215012E-01
       -2   -1    0    0    0  501  0.00000000000E+00  0.00000000000E+00  0.70934302918E+03  0.70934302919E+03  0.25500000920E-02 0.  1.
        2   -1    0    0  501    0  0.00000000000E+00  0.00000000000E+00 -0.41871841505E+03  0.41871841506E+03  0.25500000920E-02 0. -1.
    10030    2    1    2    0    0  0.00000000000E+00  0.00000000000E+00  0.29062461413E+03  0.11280614442E+04  0.10899816309E+04 0.  0.
        1    1    3    3  502    0  0.10118554059E+03  0.49803547761E+03  0.34900588839E+03  0.61650868667E+03  0.50400001928E-02 0.  1.
       -1    1    3    3    0  502 -0.10118554059E+03 -0.49803547761E+03 -0.58381274265E+02  0.51155275758E+03  0.50400001928E-02 0. -1.
</event>
<event>
 5   0  0.4428114E-03  0.1077131E+04  0.7818609E-02  0.9227773E-01
        1   -1    0    0  501    0  0.00000000000E+00  0.00000000000E+00  0.85502524871E+03  0.85502524872E+03  0.50400001928E-02 0.  1.
       -1   -1    0    0    0  501  0.00000000000E+00  0.00000000000E+00 -0.33923278811E+03  0.33923278814E+03  0.50400001928E-02 0. -1.
    10030    2    1    2    0    0  0.00000000000E+00  0.00000000000E+00  0.51579246060E+03  0.11942580369E+04  0.10771306310E+04 0.  0.
        4    1    3    3  502    0  0.24005003248E+03 -0.38973505025E+03 -0.56746890826E+02  0.46123665292E+03  0.12699999809E+01 0. -1.
       -4    1    3    3    0  502 -0.24005003248E+03  0.38973505025E+03  0.57253935143E+03  0.73302138394E+03  0.12699999809E+01 0.  1.
</event>
<event>
 5   0  0.7712816E-03  0.1075199E+04  0.7818609E-02  0.9229707E-01
        2   -1    0    0  501    0  0.00000000000E+00  0.00000000000E+00  0.12856292356E+04  0.12856292356E+04  0.25500000920E-02 0. -1.
       -2   -1    0    0    0  501  0.00000000000E+00  0.00000000000E+00 -0.22480298791E+03  0.22480298792E+03  0.25500000920E-02 0.  1.
    10030    2    1    2    0    0  0.00000000000E+00  0.00000000000E+00  0.10608262477E+04  0.15104322235E+04  0.10751991323E+04 0.  0.
        2    1    3    3  502    0 -0.30509580631E+03  0.42918409617E+03  0.68256494438E+03  0.86207734151E+03  0.25500000920E-02 0. -1.
       -2    1    3    3    0  502  0.30509580631E+03 -0.42918409617E+03  0.37826130329E+03  0.64835488200E+03  0.25500000920E-02 0.  1.
</event>
<event>
 5   0  0.7712816E-03  0.1114884E+04  0.7818609E-02  0.9190805E-01
       -2   -1    0    0    0  501  0.00000000000E+00  0.00000000000E+00  0.29515782107E+03  0.29515782108E+03  0.25500000920E-02 0. -1.
        2   -1    0    0  501    0  0.00000000000E+00  0.00000000000E+00 -0.10527982296E+04  0.10527982296E+04  0.25500000920E-02 0.  1.
    10030    2    1    2    0    0  0.00000000000E+00  0.00000000000E+00 -0.75764040850E+03  0.13479560506E+04  0.11148840863E+04 0.  0.
        2    1    3    3  502    0 -0.32575705050E+03  0.11951033973E+03  0.14866766849E+03  0.37749497071E+03  0.25500000920E-02 0. -1.
       -2    1    3    3    0  502  0.32575705050E+03 -0.11951033973E+03 -0.90630807698E+03  0.97046107993E+03  0.25500000920E-02 0.  1.
</event>
<event>
 5   0  0.4428114E-03  0.1005979E+04  0.7818609E-02  0.9302011E-01
       -1   -1    0    0    0  501  0.00000000000E+00  0.00000000000E+00  0.34062445894E+03  0.34062445898E+03  0.50400001928E-02 0.  1.
        1   -1    0    0  501    0  0.00000000000E+00  0.00000000000E+00 -0.74274904270E+03  0.74274904272E+03  0.50400001928E-02 0. -1.
    10030    2    1    2    0    0  0.00000000000E+00  0.00000000000E+00 -0.40212458376E+03  0.10833735017E+04  0.10059791068E+04 0.  0.
        4    1    3    3  502    0 -0.25095654659E+03 -0.32820506228E+03  0.10788675628E+03  0.42701161139E+03  0.12699999809E+01 0.  1.
       -4    1    3    3    0  502  0.25095654659E+03  0.32820506228E+03 -0.51001134003E+03  0.65636189030E+03  0.12699999809E+01 0. -1.
</event>
<event>
 5   0  0.4504740E-03  0.1090757E+04  0.7818609E-02  0.9214248E-01
        1   -1    0    0  501    0  0.00000000000E+00  0.00000000000E+00  0.97973059862E+03  0.97973059864E+03  0.50400001928E-02 0.  1.
       -1   -1    0    0    0  501  0.00000000000E+00  0.00000000000E+00 -0.30359117206E+03  0.30359117210E+03  0.50400001928E-02 0. -1.
    10030    2    1    2    0    0  0.00000000000E+00  0.00000000000E+00  0.67613942657E+03  0.12833217707E+04  0.10907567296E+04 0.  0.
        5    1    3    3  502    0 -0.29273751093E+03 -0.37278070585E+03  0.20719799758E+02  0.47445980342E+03  0.46999998093E+01 0. -1.
       -5    1    3    3    0  502  0.29273751093E+03  0.37278070585E+03  0.65541962681E+03  0.80886196731E+03  0.46999998093E+01 0.  1.
</event>
<event>
 5   0  0.2992375E-03  0.1104413E+04  0.7818609E-02  0.9200901E-01
        4   -1    0    0  501    0  0.00000000000E+00  0.00000000000E+00  0.24185689710E+03  0.24186023148E+03  0.12699999809E+01 0. -1.
       -4   -1    0    0    0  501  0.00000000000E+00  0.00000000000E+00 -0.12607835078E+04  0.12607841474E+04  0.12699999809E+01 0.  1.
    10030    2    1    2    0    0  0.00000000000E+00  0.00000000000E+00 -0.10189266107E+04  0.15026443789E+04  0.11044132793E+04 0.  0.
        5    1    3    3  502    0 -0.94642366176E+02 -0.38981168113E+03 -0.10257672858E+04  0.11014222346E+04  0.46999998093E+01 0.  1.
       -5    1    3    3    0  502  0.94642366176E+02  0.38981168113E+03  0.68406751628E+01  0.40122214427E+03  0.46999998093E+01 0. -1.
</event>
<event>
 5   0  0.7952121E-03  0.1136176E+04  0.7818609E-02  0.9170632E-01
        2   -1    0    0  501    0  0.00000000000E+00  0.00000000000E+00  0.83865628582E+03  0.83865628583E+03  0.25500000920E-02 0.  1.
       -2   -1    0    0    0  501  0.00000000000E+00  0.00000000000E+00 -0.38481086194E+03  0.38481086195E+03  0.25500000920E-02 0. -1.
    10030    2    1    2    0    0  0.00000000000E+00  0.00000000000E+00  0.45384542389E+03  0.12234671478E+04  0.11361761276E+04 0.  0.
        3    1    3    3  502    0 -0.15003520732E+03 -0.54738727707E+03  0.25287056525E+03  0.62135893612E+03  0.10100000352E+00 0.  1.
       -3    1    3    3    0  502  0.15003520732E+03  0.54738727707E+03  0.20097485863E+03  0.60210821165E+03  0.10100000352E+00 0. -1.
</event>
<event>
 5   0  0.4598561E-03  0.1054587E+04  0.7818609E-02  0.9250621E-01
       -1   -1    0    0    0  501  0.00000000000E+00  0.00000000000E+00  0.16555326198E+03  0.16555326205E+03  0.50400001928E-02 0.  1.
        1   -1    0    0  501    0  0.00000000000E+00  0.00000000000E+00 -0.16794498213E+04  0.16794498214E+04  0.50400001928E-02 0. -1.
    10030    2    1    2    0    0  0.00000000000E+00  0.00000000000E+00 -0.15138965594E+04  0.18450030834E+04  0.10545869264E+04 0.  0.
        2    1    3    3  502    0  0.29850622604E+03  0.24615193993E+02  0.22766423619E+01  0.29952805856E+03  0.25500000920E-02 0.  1.
       -2    1    3    3    0  502 -0.29850622604E+03 -0.24615193993E+02 -0.15161732017E+04  0.15454750248E+04  0.25500000920E-02 0. -1.
</event>
<event>
 5   0  0.4641021E-03  0.1098118E+04  0.7818609E-02  0.9207029E-01
        1   -1    0    0  501    0  0.00000000000E+00  0.00000000000E+00  0.21014226049E+04  0.21014226049E+04  0.50400001928E-02 0.  1.
       -1   -1    0    0    0  501  0.00000000000E+00  0.00000000000E+00 -0.14345784708E+03  0.14345784717E+03  0.50400001928E-02 0. -1.
    10030    2    1    2    0    0  0.00000000000E+00  0.00000000000E+00  0.19579647578E+04  0.22448804521E+04  0.10981175945E+04 0.  0.
        1    1    3    3  502    0 -0.20623980067E+03  0.31047392330E+03  0.18031584873E+04  0.18412792952E+04  0.50400001928E-02 0.  1.
       -1    1    3    3    0  502  0.20623980067E+03 -0.31047392330E+03  0.15480627048E+03  0.40360115688E+03  0.50400001928E-02 0. -1.
</event>
<event>
 5   0  0.7537480E-03  0.1111123E+04  0.7818609E-02  0.9194418E-01
        2   -1    0    0  501    0  0.00000000000E+00  0.00000000000E+00  0.31498139594E+03  0.31498139595E+03  0.25500000920E-02 0.  1.
       -2   -1    0    0    0  501  0.00000000000E+00  0.00000000000E+00 -0.97989470223E+03  0.97989470223E+03  0.25500000920E-02 0. -1.
    10030    2    1    2    0    0  0.00000000000E+00  0.00000000000E+00 -0.66491330629E+03  0.12948760982E+04  0.11111230376E+04 0.  0.
        1    1    3    3  502    0 -0.10753139813E+03  0.47741117412E+03 -0.63893983536E+03  0.80481584477E+03  0.50400001928E-02 0. -1.
       -1    1    3    3    0  502  0.10753139813E+03 -0.47741117412E+03 -0.25973470923E+02  0.49006025341E+03  0.50400001928E-02 0.  1.
</event>
<event>
 5   0  0.4504740E-03  0.8234580E+03  0.7818609E-02  0.9526670E-01
        1   -1    0    0  501    0  0.00000000000E+00  0.00000000000E+00  0.59303629478E+03  0.59303629480E+03  0.50400001928E-02 0.  1.
       -1   -1    0    0    0  501  0.00000000000E+00  0.00000000000E+00 -0.28585228094E+03  0.28585228098E+03  0.50400001928E-02 0. -1.
    10030    2    1    2    0    0  0.00000000000E+00  0.00000000000E+00  0.30718401384E+03  0.87888857578E+03  0.82345801975E+03 0.  0.
        5    1    3    3  502    0  0.29731159060E+03  0.16591748214E+03  0.40063757792E+03  0.52579021636E+03  0.46999998093E+01 0.  1.
       -5    1    3    3    0  502 -0.29731159060E+03 -0.16591748214E+03 -0.93453564085E+02  0.35309835942E+03  0.46999998093E+01 0. -1.
</event>
<event>
 5   0  0.4504740E-03  0.1098654E+04  0.7818609E-02  0.9206505E-01
        1   -1    0    0  501    0  0.00000000000E+00  0.00000000000E+00  0.12430623789E+04  0.12430623789E+04  0.50400001928E-02 0. -1.
       -1   -1    0    0    0  501  0.00000000000E+00  0.00000000000E+00 -0.24275531224E+03  0.24275531230E+03  0.50400001928E-02 0.  1.
    10030    2    1    2    0    0  0.00000000000E+00  0.00000000000E+00  0.10003070667E+04  0.14858176912E+04  0.10986537143E+04 0.  0.
        5    1    3    3  502    0 -0.47138890671E+03 -0.54778569200E+02  0.12602594108E+03  0.49103240304E+03  0.46999998093E+01 0.  1.
       -5    1    3    3    0  502  0.47138890671E+03  0.54778569200E+02  0.87428112560E+03  0.99478528818E+03  0.46999998093E+01 0. -1.
</event>
<event>
 5   0  0.7712816E-03  0.1089974E+04  0.7818609E-02  0.9215020E-01
        2   -1    0    0  501    0  0.00000000000E+00  0.00000000000E+00  0.98093118651E+03  0.98093118651E+03  0.25500000920E-02 0.  1.
       -2   -1    0    0    0  501  0.00000000000E+00  0.00000000000E+00 -0.30278433407E+03  0.30278433408E+03  0.25500000920E-02 0. -1.
    10030    2    1    2    0    0  0.00000000000E+00  0.00000000000E+00  0.67814685244E+03  0.12837155206E+04  0.10899735705E+04 0.  0.
        2    1    3    3  502    0 -0.10794452925E+03 -0.53307878618E+03  0.37962602569E+03  0.66328043319E+03  0.25500000920E-02 0. -1.
       -2    1    3    3    0  502  0.10794452925E+03  0.53307878618E+03  0.29852082675E+03  0.62043508740E+03  0.25500000920E-02 0.  1.
</event>
<event>
 5   0  0.7712816E-03  0.1100420E+04  0.7818609E-02  0.9204783E-01
       -2   -1    0    0    0  501  0.00000000000E+00  0.00000000000E+00  0.24334868281E+03  0.24334868282E+03  0.25500000920E-02 0.  1.
        2   -1    0    0  501    0  0.00000000000E+00  0.00000000000E+00 -0.12440216882E+04  0.12440216882E+04  0.25500000920E-02 0. -1.
    10030    2    1    2    0    0  0.00000000000E+00  0.00000000000E+00 -0.10006730054E+04  0.14873703710E+04  0.11004199911E+04 0.  0.
        2    1    3    3  502    0  0.36840562538E+03  0.31348447296E+03 -0.85470263801E+03  0.98209562621E+03  0.25500000920E-02 0. -1.
       -2    1    3    3    0  502 -0.36840562538E+03 -0.31348447296E+03 -0.14597036739E+03  0.50527474483E+03  0.25500000920E-02 0.  1.
</event>
<event>
 5   0  0.4298101E-03  0.1107695E+04  0.7818609E-02  0.9197724E-01
       -1   -1    0    0    0  501  0.00000000000E+00  0.00000000000E+00  0.72095056423E+03  0.72095056424E+03  0.50400001928E-02 0.  1.
        1   -1    0    0  501    0  0.00000000000E+00  0.00000000000E+00 -0.42547584915E+03  0.42547584918E+03  0.50400001928E-02 0. -1.
    10030    2    1    2    0    0  0.00000000000E+00  0.00000000000E+00  0.29547471508E+03  0.11464264134E+04  0.11076950005E+04 0.  0.
        3    1    3    3  502    0 -0.20477164703E+03 -0.50817477513E+03  0.63822029875E+02  0.55158525289E+03  0.10100000352E+00 0. -1.
       -3    1    3    3    0  502  0.20477164703E+03  0.50817477513E+03  0.23165268520E+03  0.59484116053E+03  0.10100000352E+00 0.  1.
</event>
<event>
 5   0  0.7766551E-03  0.9254962E+03  0.7818609E-02  0.9394259E-01
       -2   -1    0    0    0  501  0.00000000000E+00  0.00000000000E+00  0.11748392052E+04  0.11748392052E+04  0.25500000920E-02 0.  1.
        2   -1    0    0  501    0  0.00000000000E+00  0.00000000000E+00 -0.18226819826E+03  0.18226819828E+03  0.25500000920E-02 0. -1.
    10030    2    1    2    0    0  0.00000000000E+00  0.00000000000E+00  0.99257100692E+03  0.13571074035E+04  0.92549624568E+03 0.  0.
        5    1    3    3  502    0  0.41931747609E+03  0.13944536852E+03  0.29500662586E+03  0.53134090361E+03  0.46999998093E+01 0.  1.
       -5    1    3    3    0  502 -0.41931747609E+03 -0.13944536852E+03  0.69756438106E+03  0.82576649985E+03  0.46999998093E+01 0. -1.
</event>
<event>
 5   0  0.4428114E-03  0.1060500E+04  0.7818609E-02  0.9244570E-01
        1   -1    0    0  501    0  0.00000000000E+00  0.00000000000E+00  0.33956176083E+03  0.33956176086E+03  0.50400001928E-02 0. -1.
       -1   -1    0    0    0  501  0.00000000000E+00  0.00000000000E+00 -0.82802303923E+03  0.82802303924E+03  0.50400001928E-02 0.  1.
    10030    2    1    2    0    0  0.00000000000E+00  0.00000000000E+00 -0.48846127840E+03  0.11675848001E+04  0.10604998090E+04 0.  0.
        4    1    3    3  502    0  0.33896574040E+03 -0.17542646390E+03  0.16102892388E+03  0.41425130613E+03  0.12699999809E+01 0. -1.
       -4    1    3    3    0  502 -0.33896574040E+03  0.17542646390E+03 -0.64949020228E+03  0.75333349398E+03  0.12699999809E+01 0.  1.
</event>
<event>
 5   0  0.7712816E-03  0.1091551E+04  0.7818609E-02  0.9213466E-01
       -2   -1    0    0    0  501  0.00000000000E+00  0.00000000000E+00  0.32879653355E+03  0.32879653356E+03  0.25500000920E-02 0.  1.
        2   -1    0    0  501    0  0.00000000000E+00  0.00000000000E+00 -0.90594290169E+03  0.90594290170E+03  0.25500000920E-02 0. -1.
    10030    2    1    2    0    0  0.00000000000E+00  0.00000000000E+00 -0.57714636814E+03  0.12347394353E+04  0.10915509804E+04 0.  0.
        2    1    3    3  502    0 -0.35790315400E+03 -0.61276030578E+02 -0.74948030426E+03  0.83280858908E+03  0.25500000920E-02 0. -1.
       -2    1    3    3    0  502  0.35790315400E+03  0.61276030578E+02  0.17233393612E+03  0.40193084618E+03  0.25500000920E-02 0.  1.
</event>
<event>
 5   0  0.4298101E-03  0.1095835E+04  0.7818609E-02  0.9209261E-01
        1   -1    0    0  501    0  0.00000000000E+00  0.00000000000E+00  0.50367730428E+03  0.50367730431E+03  0.50400001928E-02 0.  1.
       -1   -1    0    0    0  501  0.00000000000E+00  0.00000000000E+00 -0.59604372333E+03  0.59604372335E+03  0.50400001928E-02 0. -1.
    10030    2    1    2    0    0  0.00000000000E+00  0.00000000000E+00 -0.92366419052E+02  0.10997210277E+04  0.10958351990E+04 0.  0.
        3    1    3    3  502    0 -0.30794590323E+02  0.53034466078E+03 -0.18082273301E+03  0.56116899146E+03  0.10100000352E+00 0. -1.
       -3    1    3    3    0  502  0.30794590323E+02 -0.53034466078E+03  0.88456313957E+02  0.53855203619E+03  0.10100000352E+00 0.  1.
</event>
<event>
 5   0  0.4504740E-03  0.1097930E+04  0.7818609E-02  0.9207211E-01
       -1   -1    0    0    0  501  0.00000000000E+00  0.00000000000E+00  0.17463295074E+03  0.17463295081E+03  0.50400001928E-02 0.  1.
        1   -1    0    0  501    0  0.00000000000E+00  0.00000000000E+00 -0.17256926126E+04  0.17256926126E+04  0.50400001928E-02 0. -1.
    10030    2    1    2    0    0  0.00000000000E+00  0.00000000000E+00 -0.15510596618E+04  0.19003255634E+04  0.10979304041E+04 0.  0.
        5    1    3    3  502    0 -0.37748357605E+03 -0.39448536411E+03 -0.67718985927E+03  0.86989697562E+03  0.46999998093E+01 0. -1.
       -5    1    3    3    0  502  0.37748357605E+03  0.39448536411E+03 -0.87386980258E+03  0.10304285878E+04  0.46999998093E+01 0.  1.
</event>
<event>
 5   0  0.4598561E-03  0.1110280E+04  0.7818609E-02  0.9195230E-01
       -1   -1    0    0    0  501  0.00000000000E+00  0.00000000000E+00  0.51153929157E+03  0.51153929159E+03  0.50400001928E-02 0.  1.
        1   -1    0    0  501    0  0.00000000000E+00  0.00000000000E+00 -0.60245718256E+03  0.60245718258E+03  0.50400001928E-02 0. -1.
    10030    2    1    2    0    0  0.00000000000E+00  0.00000000000E+00 -0.90917890994E+02  0.11139964742E+04  0.11102801816E+04 0.  0.
        2    1    3    3  502    0 -0.38954132031E+03  0.64855796795E+01  0.35133411974E+03  0.52461430277E+03  0.25500000920E-02 0.  1.
       -2    1    3    3    0  502  0.38954132031E+03 -0.64855796795E+01 -0.44225201073E+03  0.58938217141E+03  0.25500000920E-02 0. -1.
</event>
<event>
 5   0  0.4504740E-03  0.1100511E+04  0.7818609E-02  0.9204694E-01
        1   -1    0    0  501    0  0.00000000000E+00  0.00000000000E+00  0.12241781472E+04  0.12241781472E+04  0.50400001928E-02 0. -1.
       -1   -1    0    0    0  501  0.00000000000E+00  0.00000000000E+00 -0.24733418405E+03  0.24733418410E+03  0.50400001928E-02 0.  1.
    10030    2    1    2    0    0  0.00000000000E+00  0.00000000000E+00  0.97684396319E+03  0.14715123313E+04  0.11005109781E+04 0.  0.
        5    1    3    3  502    0 -0.49454303996E+03  0.54157814131E+02  0.80272456708E+03  0.94440177245E+03  0.46999998093E+01 0. -1.
       -5    1    3    3    0  502  0.49454303996E+03 -0.54157814131E+02  0.17411939611E+03  0.52711055890E+03  0.46999998093E+01 0.  1.
</event>
<event>
 5   0  0.7712816E-03  0.1128224E+04  0.7818609E-02  0.9178111E-01
        2   -1    0    0  501    0  0.00000000000E+00  0.00000000000E+00  0.17610578027E+04  0.17610578027E+04  0.25500000920E-02 0.  1.
       -2   -1    0    0    0  501  0.00000000000E+00  0.00000000000E+00 -0.18069964456E+03  0.18069964458E+03  0.25500000920E-02 0. -1.
    10030    2    1    2    0    0  0.00000000000E+00  0.00000000000E+00  0.15803581581E+04  0.19417574472E+04  0.11282243022E+04 0.  0.
        2    1    3    3  502    0  0.11639218225E+03 -0.24645546406E+03 -0.59855635221E+02  0.27905220467E+03  0.25500000920E-02 0. -1.
       -2    1    3    3    0  502 -0.11639218225E+03  0.24645546406E+03  0.16402137933E+04  0.16627052426E+04  0.25500000920E-02 0.  1.
</event>
<event>
 5   0  0.7712816E-03  0.1101531E+04  0.7818609E-02  0.9203701E-01
       -2   -1    0    0    0  501  0.00000000000E+00  0.00000000000E+00  0.82231192160E+03  0.82231192160E+03  0.25500000920E-02 0.  1.
        2   -1    0    0  501    0  0.00000000000E+00  0.00000000000E+00 -0.36888978726E+03  0.36888978727E+03  0.25500000920E-02 0. -1.
    10030    2    1    2    0    0  0.00000000000E+00  0.00000000000E+00  0.45342213433E+03  0.11912017089E+04  0.11015306983E+04 0.  0.
        2    1    3    3  502    0 -0.50982080573E+03  0.18484083528E+03  0.12265374249E+03  0.55599220219E+03  0.25500000920E-02 0. -1.
       -2    1    3    3    0  502  0.50982080573E+03 -0.18484083528E+03  0.33076839184E+03  0.63520950669E+03  0.25500000920E-02 0.  1.
</event>
<event>
 5   0  0.4428114E-03  0.1102874E+04  0.7818609E-02  0.9202395E-01
       -1   -1    0    0    0  501  0.00000000000E+00  0.00000000000E+00  0.21653451349E+03  0.21653451355E+03  0.50400001928E-02 0. -1.
        1   -1    0    0  501    0  0.00000000000E+00  0.00000000000E+00 -0.14043166500E+04  0.14043166501E+04  0.50400001928E-02 0.  1.
    10030    2    1    2    0    0  0.00000000000E+00  0.00000000000E+00 -0.11877821366E+04  0.16208511636E+04  0.11028744673E+04 0.  0.
        4    1    3    3  502    0  0.85684429717E+02  0.41043508191E+03 -0.11202730142E+04  0.11961655476E+04  0.12699999809E+01 0.  1.
       -4    1    3    3    0  502 -0.85684429717E+02 -0.41043508191E+03 -0.67509122358E+02  0.42468561603E+03  0.12699999809E+01 0. -1.
</event>
<event>
 5   0  0.7738497E-03  0.1098915E+04  0.7818609E-02  0.9206250E-01
        2   -1    0    0  501    0  0.00000000000E+00  0.00000000000E+00  0.49702568617E+03  0.49702568618E+03  0.25500000920E-02 0. -1.
       -2   -1    0    0    0  501  0.00000000000E+00  0.00000000000E+00 -0.60742035890E+03  0.60742035890E+03  0.25500000920E-02 0.  1.
    10030    2    1    2    0    0  0.00000000000E+00  0.00000000000E+00 -0.11039467273E+03  0.11044460451E+04  0.10989149570E+04 0.  0.
        4    1    3    3  502    0  0.34134289686E+02 -0.35902603456E+03  0.36142144329E+03  0.51057997982E+03  0.12699999809E+01 0. -1.
       -4    1    3    3    0  502 -0.34134289686E+02  0.35902603456E+03 -0.47181611602E+03  0.59386606525E+03  0.12699999809E+01 0.  1.
</event>
<event>
 5   0  0.2992375E-03  0.8175498E+03  0.7818609E-02  0.9534956E-01
       -3   -1    0    0    0  501  0.00000000000E+00  0.00000000000E+00  0.43090407861E+03  0.43090409045E+03  0.10100000352E+00 0. -1.
        3   -1    0    0  501    0  0.00000000000E+00  0.00000000000E+00 -0.38778216536E+03  0.38778217851E+03  0.10100000352E+00 0.  1.
    10030    2    1    2    0    0  0.00000000000E+00  0.00000000000E+00  0.43121913252E+02  0.81868626896E+03  0.81754981963E+03 0.  0.
        2    1    3    3  502    0 -0.10265132117E+03 -0.30495343137E+03  0.27402852777E+03  0.42264112800E+03  0.25500000920E-02 0. -1.
       -2    1    3    3    0  502  0.10265132117E+03  0.30495343137E+03 -0.23090661451E+03  0.39604514096E+03  0.25500000920E-02 0.  1.
</event>
<event>
 5   0  0.4504740E-03  0.1040172E+04  0.7818609E-02  0.9265550E-01
       -1   -1    0    0    0  501  0.00000000000E+00  0.00000000000E+00  0.47712027880E+03  0.47712027883E+03  0.50400001928E-02 0.  1.
        1   -1    0    0  501    0  0.00000000000E+00  0.00000000000E+00 -0.56692048969E+03  0.56692048971E+03  0.50400001928E-02 0. -1.
    10030    2    1    2    0    0  0.00000000000E+00  0.00000000000E+00 -0.89800210890E+02  0.10440407685E+04  0.10401716438E+04 0.  0.
        5    1    3    3  502    0  0.82253441071E+02  0.47054282060E+03 -0.25131280417E+03  0.53977438817E+03  0.46999998093E+01 0.  1.
       -5    1    3    3    0  502 -0.82253441071E+02 -0.47054282060E+03  0.16151259328E+03  0.50426638037E+03  0.46999998093E+01 0. -1.
</event>
<event>
 5   0  0.4298101E-03  0.1097173E+04  0.7818609E-02  0.9207952E-01
        1   -1    0    0  501    0  0.00000000000E+00  0.00000000000E+00  0.71770197281E+03  0.71770197282E+03  0.50400001928E-02 0.  1.
       -1   -1    0    0    0  501  0.00000000000E+00  0.00000000000E+00 -0.41932047693E+03  0.41932047696E+03  0.50400001928E-02 0. -1.
    10030    2    1    2    0    0  0.00000000000E+00  0.00000000000E+00  0.29838149587E+03  0.11370224498E+04  0.10971729737E+04 0.  0.
        3    1    3    3  502    0  0.35122771809E+03  0.23250727235E+03 -0.21503794068E+03  0.47292903039E+03  0.10100000352E+00 0. -1.
       -3    1    3    3    0  502 -0.35122771809E+03 -0.23250727235E+03  0.51341943656E+03  0.66409341940E+03  0.10100000352E+00 0.  1.
</event>
<event>
 5   0  0.7712816E-03  0.1166776E+04  0.7818609E-02  0.9142445E-01
        2   -1    0    0  501    0  0.00000000000E+00  0.00000000000E+00  0.18565653118E+04  0.18565653118E+04  0.25500000920E-02 0.  1.
       -2   -1    0    0    0  501  0.00000000000E+00  0.00000000000E+00 -0.18331794931E+03  0.18331794932E+03  0.25500000920E-02 0. -1.
    10030    2    1    2    0    0  0.00000000000E+00  0.00000000000E+00  0.16732473625E+04  0.20398832611E+04  0.11667763209E+04 0.  0.
        2    1    3    3  502    0 -0.97853518188E+02 -0.96080244498E+02  0.18279847248E+04  0.18331216213E+04  0.25500000920E-02 0.  1.
       -2    1    3    3    0  502  0.97853518188E+02  0.96080244498E+02 -0.15473736230E+03  0.20676163982E+03  0.25500000920E-02 0. -1.
</event>
<event>
 5   0  0.4641021E-03  0.1111671E+04  0.7818609E-02  0.9193890E-01
       -1   -1    0    0    0  501  0.00000000000E+00  0.00000000000E+00  0.16629070214E+03  0.16629070221E+03  0.50400001928E-02 0.  1.
        1   -1    0    0  501    0  0.00000000000E+00  0.00000000000E+00 -0.18579102717E+04  0.18579102717E+04  0.50400001928E-02 0. -1.
    10030    2    1    2    0    0  0.00000000000E+00  0.00000000000E+00 -0.16916195696E+04  0.20242009739E+04  0.11116711810E+04 0.  0.
        1    1    3    3  502    0 -0.48484082727E+03  0.22880414759E+03 -0.57862496362E+03  0.78881481622E+03  0.50400001928E-02 0.  1.
       -1    1    3    3    0  502  0.48484082727E+03 -0.22880414759E+03 -0.11129946059E+04  0.12353861577E+04  0.50400001928E-02 0. -1.
</event>
<event>
 5   0  0.7712816E-03  0.1072480E+04  0.7818609E-02  0.9232437E-01
       -2   -1    0    0    0  501  0.00000000000E+00  0.00000000000E+00  0.53480869298E+03  0.53480869298E+03  0.25500000920E-02 0. -1.
        2   -1    0    0  501    0  0.00000000000E+00  0.00000000000E+00 -0.53767551372E+03  0.53767551373E+03  0.25500000920E-02 0.  1.
    10030    2    1    2    0    0  0.00000000000E+00  0.00000000000E+00 -0.28668207432E+01  0.10724842067E+04  0.10724803751E+04 0.  0.
        2    1    3    3  502    0  0.42972997979E+03 -0.26046074779E+02 -0.32113329386E+03  0.53709668215E+03  0.25500000920E-02 0.  1.
       -2    1    3    3    0  502 -0.42972997979E+03  0.26046074779E+02  0.31826647312E+03  0.53538752456E+03  0.25500000920E-02 0. -1.
</event>
<event>
 5   0  0.7712816E-03  0.1082322E+04  0.7818609E-02  0.9222595E-01
       -2   -1    0    0    0  501  0.00000000000E+00  0.00000000000E+00  0.15740209636E+03  0.15740209639E+03  0.25500000920E-02 0.  1.
        2   -1    0    0  501    0  0.00000000000E+00  0.00000000000E+00 -0.18605549768E+04  0.18605549768E+04  0.25500000920E-02 0. -1.
    10030    2    1    2    0    0  0.00000000000E+00  0.00000000000E+00 -0.17031528804E+04  0.20179570732E+04  0.10823220478E+04 0.  0.
        2    1    3    3  502    0 -0.42566141227E+03 -0.18316952305E+03 -0.13726834584E+04  0.14487921138E+04  0.25500000920E-02 0. -1.
       -2    1    3    3    0  502  0.42566141227E+03  0.18316952305E+03 -0.33046942202E+03  0.56916495936E+03  0.25500000920E-02 0.  1.
</event>
<event>
 5   0  0.4298101E-03  0.1028505E+04  0.7818609E-02  0.9277822E-01
        1   -1    0    0  501    0  0.00000000000E+00  0.00000000000E+00  0.53199215100E+03  0.53199215103E+03  0.50400001928E-02 0. -1.
       -1   -1    0    0    0  501  0.00000000000E+00  0.00000000000E+00 -0.49710437903E+03  0.49710437906E+03  0.50400001928E-02 0.  1.
    10030    2    1    2    0    0  0.00000000000E+00  0.00000000000E+00  0.34887771972E+02  0.10290965301E+04  0.10285049886E+04 0.  0.
        3    1    3    3  502    0  0.24098117349E+03  0.14999397158E+03 -0.41162147430E+03  0.50000236579E+03  0.10100000352E+00 0.  1.
       -3    1    3    3    0  502 -0.24098117349E+03 -0.14999397158E+03  0.44650924627E+03  0.52909416430E+03  0.10100000352E+00 0. -1.
</event>
<event>
 5   0  0.4641021E-03  0.1138659E+04  0.7818609E-02  0.9168310E-01
       -1   -1    0    0    0  501  0.00000000000E+00  0.00000000000E+00  0.17171881709E+03  0.17171881717E+03  0.50400001928E-02 0. -1.
        1   -1    0    0  501    0  0.00000000000E+00  0.00000000000E+00 -0.18875987163E+04  0.18875987163E+04  0.50400001928E-02 0.  1.
    10030    2    1    2    0    0  0.00000000000E+00  0.00000000000E+00 -0.17158798992E+04  0.20593175335E+04  0.11386592446E+04 0.  0.
        1    1    3    3  502    0  0.43566880979E+03  0.13991114825E+03 -0.14705907937E+04  0.15401362679E+04  0.50400001928E-02 0.  1.
       -1    1    3    3    0  502 -0.43566880979E+03 -0.13991114825E+03 -0.24528910557E+03  0.51918126562E+03  0.50400001928E-02 0. -1.
</event>
<event>
 5   0  0.4298101E-03  0.1070212E+04  0.7818609E-02  0.9234722E-01
        1   -1    0    0  501    0  0.00000000000E+00  0.00000000000E+00  0.18946131619E+04  0.18946131619E+04  0.50400001928E-02 0. -1.
       -1   -1    0    0    0  501  0.00000000000E+00  0.00000000000E+00 -0.15113292951E+03  0.15113292960E+03  0.50400001928E-02 0.  1.
    10030    2    1    2    0    0  0.00000000000E+00  0.00000000000E+00  0.17434802323E+04  0.20457460915E+04  0.10702120118E+04 0.  0.
        3    1    3    3  502    0  0.31837314289E+03 -0.19982720577E+03  0.15997459722E+04  0.16433135903E+04  0.10100000352E+00 0. -1.
       -3    1    3    3    0  502 -0.31837314289E+03  0.19982720577E+03  0.14373426018E+03  0.40243250121E+03  0.10100000352E+00 0.  1.
</event>
<event>
 5   0  0.4504740E-03  0.1118007E+04  0.7818609E-02  0.9187817E-01
       -1   -1    0    0    0  501  0.00000000000E+00  0.00000000000E+00  0.44893382657E+03  0.44893382659E+03  0.50400001928E-02 0. -1.
        1   -1    0    0  501    0  0.00000000000E+00  0.00000000000E+00 -0.69606016846E+03  0.69606016847E+03  0.50400001928E-02 0.  1.
    10030    2    1    2    0    0  0.00000000000E+00  0.00000000000E+00 -0.24712634189E+03  0.11449939951E+04  0.11180070751E+04 0.  0.
        5    1    3    3  502    0  0.41687025953E+03 -0.42874034547E+02  0.25529035119E+03  0.49072828483E+03  0.46999998093E+01 0. -1.
       -5    1    3    3    0  502 -0.41687025953E+03  0.42874034547E+02 -0.50241669308E+03  0.65426571024E+03  0.46999998093E+01 0.  1.
</event>
<event>
 5   0  0.4428114E-03  0.1082514E+04  0.7818609E-02  0.9222404E-01
        1   -1    0    0  501    0  0.00000000000E+00  0.00000000000E+00  0.12286892890E+04  0.12286892891E+04  0.50400001928E-02 0. -1.
       -1   -1    0    0    0  501  0.00000000000E+00  0.00000000000E+00 -0.23843235533E+03  0.23843235538E+03  0.50400001928E-02 0.  1.
    10030    2    1    2    0    0  0.00000000000E+00  0.00000000000E+00  0.99025693372E+03  0.14671216444E+04  0.10825142608E+04 0.  0.
        4    1    3    3  502    0  0.21665516684E+03 -0.36691677156E+03  0.42797662607E+02  0.42825299928E+03  0.12699999809E+01 0.  1.
       -4    1    3    3    0  502 -0.21665516684E+03  0.36691677156E+03  0.94745927111E+03  0.10388686452E+04  0.12699999809E+01 0. -1.
</event>
<event>
 5   0  0.4428114E-03  0.1035379E+04  0.7818609E-02  0.9270571E-01
        1   -1    0    0  501    0  0.00000000000E+00  0.00000000000E+00  0.48425776419E+03  0.48425776421E+03  0.50400001928E-02 0. -1.
       -1   -1    0    0    0  501  0.00000000000E+00  0.00000000000E+00 -0.55342918123E+03  0.55342918125E+03  0.50400001928E-02 0.  1.
    10030    2    1    2    0    0  0.00000000000E+00  0.00000000000E+00 -0.69171417040E+02  0.10376869455E+04  0.10353789219E+04 0.  0.
        4    1    3    3  502    0  0.25068681048E+03  0.13825746463E+01  0.41936433489E+03  0.48858351051E+03  0.12699999809E+01 0. -1.
       -4    1    3    3    0  502 -0.25068681048E+03 -0.13825746463E+01 -0.48853575193E+03  0.54910343495E+03  0.12699999809E+01 0.  1.
</event>
<event>
 5   0  0.7537480E-03  0.1088263E+04  0.7818609E-02  0.9216707E-01
       -2   -1    0    0    0  501  0.00000000000E+00  0.00000000000E+00  0.44926505804E+03  0.44926505805E+03  0.25500000920E-02 0. -1.
        2   -1    0    0  501    0  0.00000000000E+00  0.00000000000E+00 -0.65903017711E+03  0.65903017712E+03  0.25500000920E-02 0.  1.
    10030    2    1    2    0    0  0.00000000000E+00  0.00000000000E+00 -0.20976511907E+03  0.11082952352E+04  0.10882632600E+04 0.  0.
        1    1    3    3  502    0 -0.15743142210E+03  0.13505952847E+03  0.40742135502E+03  0.45718474323E+03  0.50400001928E-02 0. -1.
       -1    1    3    3    0  502  0.15743142210E+03 -0.13505952847E+03 -0.61718647408E+03  0.65111049194E+03  0.50400001928E-02 0.  1.
</event>
<event>
 5   0  0.7952121E-03  0.1079740E+04  0.7818609E-02  0.9225167E-01
       -2   -1    0    0    0  501  0.00000000000E+00  0.00000000000E+00  0.29207735647E+03  0.29207735648E+03  0.25500000920E-02 0.  1.
        2   -1    0    0  501    0  0.00000000000E+00  0.00000000000E+00 -0.99788536695E+03  0.99788536695E+03  0.25500000920E-02 0. -1.
    10030    2    1    2    0    0  0.00000000000E+00  0.00000000000E+00 -0.70580801048E+03  0.12899627234E+04  0.10797401911E+04 0.  0.
        3    1    3    3  502    0 -0.77831565576E+01 -0.28116413669E+03 -0.90343248769E+03  0.94620511482E+03  0.10100000352E+00 0. -1.
       -3    1    3    3    0  502  0.77831565576E+01  0.28116413669E+03  0.19762447721E+03  0.34375760862E+03  0.10100000352E+00 0.  1.
</event>
<event>
 5   0  0.4504740E-03  0.1099909E+04  0.7818609E-02  0.9205281E-01
        1   -1    0    0  501    0  0.00000000000E+00  0.00000000000E+00  0.54449270952E+03  0.54449270955E+03  0.50400001928E-02 0.  1.
       -1   -1    0    0    0  501  0.00000000000E+00  0.00000000000E+00 -0.55547091453E+03  0.55547091455E+03  0.50400001928E-02 0. -1.
    10030    2    1    2    0    0  0.00000000000E+00  0.00000000000E+00 -0.10978205005E+02  0.10999636241E+04  0.10999088387E+04 0.  0.
        5    1    3    3  502    0  0.16088373569E+03 -0.28760208562E+03  0.43479324630E+03  0.54558756684E+03  0.46999998093E+01 0.  1.
       -5    1    3    3    0  502 -0.16088373569E+03  0.28760208562E+03 -0.44577145131E+03  0.55437605726E+03  0.46999998093E+01 0. -1.
</event>
<event>
 5   0  0.7712816E-03  0.1388798E+04  0.7818609E-02  0.8961967E-01
       -2   -1    0    0    0  501  0.00000000000E+00  0.00000000000E+00  0.98805002585E+03  0.98805002586E+03  0.25500000920E-02 0.  1.
        2   -1    0    0  501    0  0.00000000000E+00  0.00000000000E+00 -0.48802211251E+03  0.48802211252E+03  0.25500000920E-02 0. -1.
    10030    2    1    2    0    0  0.00000000000E+00  0.00000000000E+00  0.50002791334E+03  0.14760721384E+04  0.13887984172E+04 0.  0.
        2    1    3    3  502    0 -0.81227795427E+02 -0.12712033571E+03  0.97042329503E+03  0.98207886957E+03  0.25500000920E-02 0.  1.
       -2    1    3    3    0  502  0.81227795427E+02  0.12712033571E+03 -0.47039538169E+03  0.49399326881E+03  0.25500000920E-02 0. -1.
</event>
<event>
 5   0  0.7738497E-03  0.1116360E+04  0.7818609E-02  0.9189392E-01
       -2   -1    0    0    0  501  0.00000000000E+00  0.00000000000E+00  0.18756044350E+03  0.18756044352E+03  0.25500000920E-02 0. -1.
        2   -1    0    0  501    0  0.00000000000E+00  0.00000000000E+00 -0.16611436705E+04  0.16611436705E+04  0.25500000920E-02 0.  1.
    10030    2    1    2    0    0  0.00000000000E+00  0.00000000000E+00 -0.14735832270E+04  0.18487041140E+04  0.11163598767E+04 0.  0.
        4    1    3    3  502    0  0.15022369289E+03 -0.14698481908E+03  0.11953021829E+03  0.24178664340E+03  0.12699999809E+01 0. -1.
       -4    1    3    3    0  502 -0.15022369289E+03  0.14698481908E+03 -0.15931134453E+04  0.16069174706E+04  0.12699999809E+01 0.  1.
</event>
<event>
 5   0  0.4428114E-03  0.1077578E+04  0.7818609E-02  0.9227326E-01
        1   -1    0    0  501    0  0.00000000000E+00  0.00000000000E+00  0.84642515931E+03  0.84642515932E+03  0.50400001928E-02 0. -1.
       -1   -1    0    0    0  501  0.00000000000E+00  0.00000000000E+00 -0.34296406772E+03  0.34296406776E+03  0.50400001928E-02 0.  1.
    10030    2    1    2    0    0  0.00000000000E+00  0.00000000000E+00  0.50346109159E+03  0.11893892271E+04  0.10775776829E+04 0.  0.
        4    1    3    3  502    0  0.51523494167E+03 -0.76698384547E+01  0.78029375837E+02  0.52116798437E+03  0.12699999809E+01 0.  1.
       -4    1    3    3    0  502 -0.51523494167E+03  0.76698384547E+01  0.42543171575E+03  0.66822124271E+03  0.12699999809E+01 0. -1.
</event>
<event>
 5   0  0.7766551E-03  0.1094367E+04  0.7818609E-02  0.9210699E-01
        2   -1    0    0  501    0  0.00000000000E+00  0.00000000000E+00  0.10107362377E+04  0.10107362377E+04  0.25500000920E-02 0. -1.
       -2   -1    0    0    0  501  0.00000000000E+00  0.00000000000E+00 -0.29622960504E+03  0.29622960505E+03  0.25500000920E-02 0.  1.
    10030    2    1    2    0    0  0.00000000000E+00  0.00000000000E+00  0.71450663265E+03  0.13069658427E+04  0.10943673908E+04 0.  0.
        5    1    3    3  502    0  0.44152144101E+03 -0.72036295021E+02 -0.19002091683E+02  0.44778742743E+03  0.46999998093E+01 0.  1.
       -5    1    3    3    0  502 -0.44152144101E+03  0.72036295021E+02  0.73350872433E+03  0.85917841532E+03  0.46999998093E+01 0. -1.
</event>
<event>
 5   0  0.7537480E-03  0.1096701E+04  0.7818609E-02  0.9208413E-01
       -2   -1    0    0    0  501  0.00000000000E+00  0.00000000000E+00  0.27643059279E+03  0.27643059280E+03  0.25500000920E-02 0.  1.
        2   -1    0    0  501    0  0.00000000000E+00  0.00000000000E+00 -0.10877534107E+04  0.10877534107E+04  0.25500000920E-02 0. -1.
    10030    2    1    2    0    0  0.00000000000E+00  0.00000000000E+00 -0.81132281787E+03  0.13641840035E+04  0.10967010899E+04 0.  0.
        1    1    3    3  502    0  0.21185948190E+03 -0.13379362724E+03 -0.10123764610E+04  0.10429243854E+04  0.50400001928E-02 0. -1.
       -1    1    3    3    0  502 -0.21185948190E+03  0.13379362724E+03  0.20105364316E+03  0.32125961808E+03  0.50400001928E-02 0.  1.
</event>
<event>
 5   0  0.4428114E-03  0.1101352E+04  0.7818609E-02  0.9203875E-01
       -1   -1    0    0    0  501  0.00000000000E+00  0.00000000000E+00  0.10479217893E+04  0.10479217893E+04  0.50400001928E-02 0. -1.
        1   -1    0    0  501    0  0.00000000000E+00  0.00000000000E+00 -0.28937642701E+03  0.28937642705E+03  0.50400001928E-02 0.  1.
    10030    2    1    2    0    0  0.00000000000E+00  0.00000000000E+00  0.75854536227E+03  0.13372982163E+04  0.11013516481E+04 0.  0.
        4    1    3    3  502    0 -0.36378498469E+03 -0.23336941998E+02  0.88044108335E+03  0.95292299904E+03  0.12699999809E+01 0. -1.
       -4    1    3    3    0  502  0.36378498469E+03  0.23336941998E+02 -0.12189572109E+03  0.38437521729E+03  0.12699999809E+01 0.  1.
</event>
<event>
 5   0  0.2992375E-03  0.1091605E+04  0.7818609E-02  0.9213413E-01
       -3   -1    0    0    0  501  0.00000000000E+00  0.00000000000E+00  0.24764816050E+03  0.24764818110E+03  0.10100000352E+00 0.  1.
        3   -1    0    0  501    0  0.00000000000E+00  0.00000000000E+00 -0.12029170782E+04  0.12029170824E+04  0.10100000352E+00 0. -1.
    10030    2    1    2    0    0  0.00000000000E+00  0.00000000000E+00 -0.95526891768E+03  0.14505652635E+04  0.10916047264E+04 0.  0.
        5    1    3    3  502    0 -0.75943762402E+02 -0.32768008788E+03  0.93512862957E+02  0.34915389240E+03  0.46999998093E+01 0.  1.
       -5    1    3    3    0  502  0.75943762402E+02  0.32768008788E+03 -0.10487817806E+04  0.11014113711E+04  0.46999998093E+01 0. -1.
</event>
<event>
 5   0  0.4298101E-03  0.1077171E+04  0.7818609E-02  0.9227732E-01
        1   -1    0    0  501    0  0.00000000000E+00  0.00000000000E+00  0.39919290302E+03  0.39919290305E+03  0.50400001928E-02 0. -1.
       -1   -1    0    0    0  501  0.00000000000E+00  0.00000000000E+00 -0.72665260287E+03  0.72665260289E+03  0.50400001928E-02 0.  1.
    10030    2    1    2    0    0  0.00000000000E+00  0.00000000000E+00 -0.32745969985E+03  0.11258455059E+04  0.10771714108E+04 0.  0.
        3    1    3    3  502    0  0.20820876844E+03  0.34486491348E+03  0.20990343866E+03  0.45424901053E+03  0.10100000352E+00 0. -1.
       -3    1    3    3    0  502 -0.20820876844E+03 -0.34486491348E+03 -0.53736313851E+03  0.67159649540E+03  0.10100000352E+00 0.  1.
</event>
<event>
 5   0  0.7738497E-03  0.1123544E+04  0.7818609E-02  0.9182543E-01
       -2   -1    0    0    0  501  0.00000000000E+00  0.00000000000E+00  0.26224429901E+03  0.26224429902E+03  0.25500000920E-02 0.  1.
        2   -1    0    0  501    0  0.00000000000E+00  0.00000000000E+00 -0.12034121862E+04  0.12034121862E+04  0.25500000920E-02 0. -1.
    10030    2    1    2    0    0  0.00000000000E+00  0.00000000000E+00 -0.94116788720E+03  0.14656564852E+04  0.11235443653E+04 0.  0.
        4    1    3    3  502    0  0.14243335041E+03 -0.52965904211E+03 -0.62907005487E+03  0.83459972863E+03  0.12699999809E+01 0.  1.
       -4    1    3    3    0  502 -0.14243335041E+03  0.52965904211E+03 -0.31209783233E+03  0.63105675660E+03  0.12699999809E+01 0. -1.
</event>
<event>
 5   0  0.7952121E-03  0.1091196E+04  0.7818609E-02  0.9213816E-01
       -2   -1    0    0    0  501  0.00000000000E+00  0.00000000000E+00  0.53467045147E+03  0.53467045148E+03  0.25500000920E-02 0. -1.
        2   -1    0    0  501    0  0.00000000000E+00  0.00000000000E+00 -0.55674855659E+03  0.55674855660E+03  0.25500000920E-02 0.  1.
    10030    2    1    2    0    0  0.00000000000E+00  0.00000000000E+00 -0.22078105123E+02  0.10914190081E+04  0.10911956784E+04 0.  0.
        3    1    3    3  502    0 -0.13292476608E+03 -0.25089296857E+03  0.45495405406E+03  0.53628301914E+03  0.10100000352E+00 0. -1.
       -3    1    3    3    0  502  0.13292476608E+03  0.25089296857E+03 -0.47703215918E+03  0.55513598893E+03  0.10100000352E+00 0.  1.
</event>
<event>
 5   0  0.7712816E-03  0.1082697E+04  0.7818609E-02  0.9222222E-01
       -2   -1    0    0    0  501  0.00000000000E+00  0.00000000000E+00  0.45275531802E+03  0.45275531803E+03  0.25500000920E-02 0.  1.
        2   -1    0    0  501    0  0.00000000000E+00  0.00000000000E+00 -0.64727772420E+03  0.64727772421E+03  0.25500000920E-02 0. -1.
    10030    2    1    2    0    0  0.00000000000E+00  0.00000000000E+00 -0.19452240618E+03  0.11000330422E+04  0.10826974312E+04 0.  0.
        2    1    3    3  502    0 -0.16162529355E+03  0.50721795295E+02  0.42513373071E+03  0.45763973279E+03  0.25500000920E-02 0.  1.
       -2    1    3    3    0  502  0.16162529355E+03 -0.50721795295E+02 -0.61965613689E+03  0.64239330945E+03  0.25500000920E-02 0. -1.
</event>
<event>
 5   0  0.7712816E-03  0.1107611E+04  0.7818609E-02  0.9197805E-01
        2   -1    0    0  501    0  0.00000000000E+00  0.00000000000E+00  0.64242264554E+03  0.64242264554E+03  0.25500000920E-02 0. -1.
       -2   -1    0    0    0  501  0.00000000000E+00  0.00000000000E+00 -0.47741225121E+03  0.47741225121E+03  0.25500000920E-02 0.  1.
    10030    2    1    2    0    0  0.00000000000E+00  0.00000000000E+00  0.16501039433E+03  0.11198348968E+04  0.11076108368E+04 0.  0.
        2    1    3    3  502    0  0.23683083444E+03 -0.49878272899E+03  0.39285470808E+02  0.55354891663E+03  0.25500000920E-02 0. -1.
       -2    1    3    3    0  502 -0.23683083444E+03  0.49878272899E+03  0.12572492352E+03  0.56628598012E+03  0.25500000920E-02 0.  1.
</event>
<event>
 5   0  0.7738497E-03  0.1099798E+04  0.7818609E-02  0.9205389E-01
       -2   -1    0    0    0  501  0.00000000000E+00  0.00000000000E+00  0.21234727414E+03  0.21234727415E+03  0.25500000920E-02 0.  1.
        2   -1    0    0  501    0  0.00000000000E+00  0.00000000000E+00 -0.14240306518E+04  0.14240306518E+04  0.25500000920E-02 0. -1.
    10030    2    1    2    0    0  0.00000000000E+00  0.00000000000E+00 -0.12116833777E+04  0.16363779260E+04  0.10997982128E+04 0.  0.
        4    1    3    3  502    0  0.33467330947E+02  0.11699174717E+03  0.19206141838E+03  0.22736827500E+03  0.12699999809E+01 0.  1.
       -4    1    3    3    0  502 -0.33467330947E+02 -0.11699174717E+03 -0.14037447961E+04  0.14090096510E+04  0.12699999809E+01 0. -1.
</event>
<event>
 5   0  0.7766551E-03  0.1110419E+04  0.7818609E-02  0.9195096E-01
        2   -1    0    0  501    0  0.00000000000E+00  0.00000000000E+00  0.13949103572E+04  0.13949103572E+04  0.25500000920E-02 0.  1.
       -2   -1    0    0    0  501  0.00000000000E+00  0.00000000000E+00 -0.22098746584E+03  0.22098746585E+03  0.25500000920E-02 0. -1.
    10030    2    1    2    0    0  0.00000000000E+00  0.00000000000E+00  0.11739228914E+04  0.16158978231E+04  0.11104192090E+04 0.  0.
        5    1    3    3  502    0  0.26567979212E+03  0.38170858792E+03  0.10282260152E+04  0.11285202818E+04  0.46999998093E+01 0.  1.
       -5    1    3    3    0  502 -0.26567979212E+03 -0.38170858792E+03  0.14569687617E+03  0.48737754129E+03  0.46999998093E+01 0. -1.
</event>
<event>
 5   0  0.7766551E-03  0.1095765E+04  0.7818609E-02  0.9209329E-01
        2   -1    0    0  501    0  0.00000000000E+00  0.00000000000E+00  0.31439727983E+03  0.31439727984E+03  0.25500000920E-02 0. -1.
       -2   -1    0    0    0  501  0.00000000000E+00  0.00000000000E+00 -0.95476425858E+03  0.95476425858E+03  0.25500000920E-02 0.  1.
    10030    2    1    2    0    0  0.00000000000E+00  0.00000000000E+00 -0.64036697875E+03  0.12691615384E+04  0.10957650949E+04 0.  0.
        5    1    3    3  502    0 -0.48081462731E+03 -0.95310853777E+02 -0.60362489560E+03  0.77759370449E+03  0.46999998093E+01 0.  1.
       -5    1    3    3    0  502  0.48081462731E+03  0.95310853777E+02 -0.36742083152E+02  0.49156783393E+03  0.46999998093E+01 0. -1.
</event>
<event>
 5   0  0.7952121E-03  0.1040537E+04  0.7818609E-02  0.9265169E-01
        2   -1    0    0  501    0  0.00000000000E+00  0.00000000000E+00  0.50186299098E+03  0.50186299098E+03  0.25500000920E-02 0.  1.
       -2   -1    0    0    0  501  0.00000000000E+00  0.00000000000E+00 -0.53934914958E+03  0.53934914959E+03  0.25500000920E-02 0. -1.
    10030    2    1    2    0    0  0.00000000000E+00  0.00000000000E+00 -0.37486158603E+02  0.10412121406E+04  0.10405371255E+04 0.  0.
        3    1    3    3  502    0  0.47979235671E+03 -0.11628468191E+02 -0.21973014448E+03  0.52784209137E+03  0.10100000352E+00 0. -1.
       -3    1    3    3    0  502 -0.47979235671E+03  0.11628468191E+02  0.18224398587E+03  0.51337004920E+03  0.10100000352E+00 0.  1.
</event>
<event>
 5   0  0.4641021E-03  0.1031029E+04  0.7818609E-02  0.9275153E-01
       -1   -1    0    0    0  501  0.00000000000E+00  0.00000000000E+00  0.55645032698E+03  0.55645032701E+03  0.50400001928E-02 0. -1.
        1   -1    0    0  501    0  0.00000000000E+00  0.00000000000E+00 -0.47759009038E+03  0.47759009041E+03  0.50400001928E-02 0.  1.
    10030    2    1    2    0    0  0.00000000000E+00  0.00000000000E+00  0.78860236602E+02  0.10340404174E+04  0.10310289268E+04 0.  0.
        1    1    3    3  502    0 -0.44119324765E+02  0.26592620455E+02  0.55386251347E+03  0.55625296955E+03  0.50400001928E-02 0. -1.
       -1    1    3    3    0  502  0.44119324765E+02 -0.26592620455E+02 -0.47500227687E+03  0.47778744786E+03  0.50400001928E-02 0.  1.
</event>
<event>
 5   0  0.4641021E-03  0.1101225E+04  0.7818609E-02  0.9203998E-01
       -1   -1    0    0    0  501  0.00000000000E+00  0.00000000000E+00  0.79261725454E+03  0.79261725456E+03  0.50400001928E-02 0. -1.
        1   -1    0    0  501    0  0.00000000000E+00  0.00000000000E+00 -0.38249778293E+03  0.38249778296E+03  0.50400001928E-02 0.  1.
    10030    2    1    2    0    0  0.00000000000E+00  0.00000000000E+00  0.41011947161E+03  0.11751150375E+04  0.11012253949E+04 0.  0.
        1    1    3    3  502    0  0.34026610968E+03  0.38249379707E+03 -0.11252862555E+02  0.51206362607E+03  0.50400001928E-02 0. -1.
       -1    1    3    3    0  502 -0.34026610968E+03 -0.38249379707E+03  0.42137233417E+03  0.66305141145E+03  0.50400001928E-02 0.  1.
</event>
<event>
 5   0  0.7712816E-03  0.1070384E+04  0.7818609E-02  0.9234548E-01
        2   -1    0    0  501    0  0.00000000000E+00  0.00000000000E+00  0.45019666523E+03  0.45019666523E+03  0.25500000920E-02 0. -1.
       -2   -1    0    0    0  501  0.00000000000E+00  0.00000000000E+00 -0.63623387122E+03  0.63623387123E+03  0.25500000920E-02 0.  1.
    10030    2    1    2    0    0  0.00000000000E+00  0.00000000000E+00 -0.18603720599E+03  0.10864305365E+04  0.10703837950E+04 0.  0.
        2    1    3    3  502    0 -0.19845574728E+03 -0.48894180659E+03 -0.18369771009E+03  0.55874289486E+03  0.25500000920E-02 0.  1.
       -2    1    3    3    0  502  0.19845574728E+03  0.48894180659E+03 -0.23394959037E+01  0.52768764160E+03  0.25500000920E-02 0. -1.
</event>
<event>
 5   0  0.7738497E-03  0.9387575E+03  0.7818609E-02  0.9378389E-01
       -2   -1    0    0    0  501  0.00000000000E+00  0.00000000000E+00  0.64379264273E+03  0.64379264273E+03  0.25500000920E-02 0.  1.
        2   -1    0    0  501    0  0.00000000000E+00  0.00000000000E+00 -0.34221639190E+03  0.34221639191E+03  0.25500000920E-02 0. -1.
    10030    2    1    2    0    0  0.00000000000E+00  0.00000000000E+00  0.30157625082E+03  0.98600903464E+03  0.93875746673E+03 0.  0.
        4    1    3    3  502    0  0.14523017814E+03 -0.24544258894E+02 -0.31731289505E+03  0.34983326250E+03  0.12699999809E+01 0. -1.
       -4    1    3    3    0  502 -0.14523017814E+03  0.24544258894E+02  0.61888914587E+03  0.63617577214E+03  0.12699999809E+01 0.  1.
</event>
<event>
 5   0  0.4504740E-03  0.1070104E+04  0.7818609E-02  0.9234830E-01
        1   -1    0    0  501    0  0.00000000000E+00  0.00000000000E+00  0.67990299260E+03  0.67990299261E+03  0.50400001928E-02 0.  1.
       -1   -1    0    0    0  501  0.00000000000E+00  0.00000000000E+00 -0.42106123638E+03  0.42106123641E+03  0.50400001928E-02 0. -1.
    10030    2    1    2    0    0  0.00000000000E+00  0.00000000000E+00  0.25884175621E+03  0.11009642290E+04  0.10701042841E+04 0.  0.
        5    1    3    3  502    0  0.51522843848E+03  0.12023222618E+03  0.47483920848E+02  0.53121835884E+03  0.46999998093E+01 0. -1.
       -5    1    3    3    0  502 -0.51522843848E+03 -0.12023222618E+03  0.21135783537E+03  0.56974587019E+03  0.46999998093E+01 0.  1.
</event>
<event>
 5   0  0.2992375E-03  0.1104018E+04  0.7818609E-02  0.9201285E-01
       -3   -1    0    0    0  501  0.00000000000E+00  0.00000000000E+00  0.18789394661E+03  0.18789397375E+03  0.10100000352E+00 0.  1.
        3   -1    0    0  501    0  0.00000000000E+00  0.00000000000E+00 -0.16217325411E+04  0.16217325443E+04  0.10100000352E+00 0. -1.
    10030    2    1    2    0    0  0.00000000000E+00  0.00000000000E+00 -0.14338385945E+04  0.18096265180E+04  0.11040176718E+04 0.  0.
        4    1    3    3  502    0  0.37391894707E+03  0.20875886146E+03 -0.12878361516E+04  0.13571732415E+04  0.12699999809E+01 0. -1.
       -4    1    3    3    0  502 -0.37391894707E+03 -0.20875886146E+03 -0.14600244298E+03  0.45245327656E+03  0.12699999809E+01 0.  1.
</event>
<event>
 5   0  0.7537480E-03  0.1097279E+04  0.7818609E-02  0.9207848E-01
        2   -1    0    0  501    0  0.00000000000E+00  0.00000000000E+00  0.56779380411E+03  0.56779380412E+03  0.25500000920E-02 0.  1.
       -2   -1    0    0    0  501  0.00000000000E+00  0.00000000000E+00 -0.53013161759E+03  0.53013161759E+03  0.25500000920E-02 0. -1.
    10030    2    1    2    0    0  0.00000000000E+00  0.00000000000E+00  0.37662186524E+02  0.10979254217E+04  0.10972792677E+04 0.  0.
        1    1    3    3  502    0 -0.13189424591E+03  0.88870853395E+02  0.54422250789E+03  0.56698523685E+03  0.50400001928E-02 0.  1.
       -1    1    3    3    0  502  0.13189424591E+03 -0.88870853395E+02 -0.50656032137E+03  0.53094018486E+03  0.50400001928E-02 0. -1.
</event>
<event>
 5   0  0.4504740E-03  0.1100474E+04  0.7818609E-02  0.9204730E-01
       -1   -1    0    0    0  501  0.00000000000E+00  0.00000000000E+00  0.66898640761E+03  0.66898640763E+03  0.50400001928E-02 0.  1.
        1   -1    0    0  501    0  0.00000000000E+00  0.00000000000E+00 -0.45256645598E+03  0.45256645601E+03  0.50400001928E-02 0. -1.
    10030    2    1    2    0    0  0.00000000000E+00  0.00000000000E+00  0.21641995164E+03  0.11215528636E+04  0.11004740935E+04 0.  0.
        5    1    3    3  502    0  0.77134279178E+02  0.53425894259E+03  0.21681760174E+03  0.58173385426E+03  0.46999998093E+01 0.  1.
       -5    1    3    3    0  502 -0.77134279178E+02 -0.53425894259E+03 -0.39765010958E+00  0.53981900938E+03  0.46999998093E+01 0. -1.
</event>
<event>
 5   0  0.4428114E-03  0.1100973E+04  0.7818609E-02  0.9204244E-01
       -1   -1    0    0    0  501  0.00000000000E+00  0.00000000000E+00  0.10415948472E+04  0.10415948472E+04  0.50400001928E-02 0.  1.
        1   -1    0    0  501    0  0.00000000000E+00  0.00000000000E+00 -0.29093390656E+03  0.29093390660E+03  0.50400001928E-02 0. -1.
    10030    2    1    2    0    0  0.00000000000E+00  0.00000000000E+00  0.75066094066E+03  0.13325287538E+04  0.11009727662E+04 0.  0.
        4    1    3    3  502    0  0.39243828020E+03  0.37250115468E+03  0.49797788647E+03  0.73535603780E+03  0.12699999809E+01 0.  1.
       -4    1    3    3    0  502 -0.39243828020E+03 -0.37250115468E+03  0.25268305418E+03  0.59717271603E+03  0.12699999809E+01 0. -1.
</event>
<event>
 5   0  0.4641021E-03  0.1079475E+04  0.7818609E-02  0.9225431E-01
        1   -1    0    0  501    0  0.00000000000E+00  0.00000000000E+00  0.24333679143E+03  0.24333679149E+03  0.50400001928E-02 0.  1.
       -1   -1    0    0    0  501  0.00000000000E+00  0.00000000000E+00 -0.11971736546E+04  0.11971736546E+04  0.50400001928E-02 0. -1.
    10030    2    1    2    0    0  0.00000000000E+00  0.00000000000E+00 -0.95383686318E+03  0.14405104461E+04  0.10794746795E+04 0.  0.
        1    1    3    3  502    0  0.34366447039E+03 -0.37138787773E+03 -0.72757645374E+03  0.88622893204E+03  0.50400001928E-02 0. -1.
       -1    1    3    3    0  502 -0.34366447039E+03  0.37138787773E+03 -0.22626040944E+03  0.55428151406E+03  0.50400001928E-02 0.  1.
</event>
<event>
 5   0  0.4641021E-03  0.1097289E+04  0.7818609E-02  0.9207838E-01
        1   -1    0    0  501    0  0.00000000000E+00  0.00000000000E+00  0.13375110266E+04  0.13375110266E+04  0.50400001928E-02 0.  1.
       -1   -1    0    0    0  501  0.00000000000E+00  0.00000000000E+00 -0.22505309846E+03  0.22505309852E+03  0.50400001928E-02 0. -1.
    10030    2    1    2    0    0  0.00000000000E+00  0.00000000000E+00  0.11124579281E+04  0.15625641251E+04  0.10972893890E+04 0.  0.
        1    1    3    3  502    0 -0.75749550589E+02  0.16878547659E+03  0.12917531220E+04  0.13049339676E+04  0.50400001928E-02 0.  1.
       -1    1    3    3    0  502  0.75749550589E+02 -0.16878547659E+03 -0.17929519385E+03  0.25763015756E+03  0.50400001928E-02 0. -1.
</event>
<event>
 5   0  0.4641021E-03  0.1074361E+04  0.7818609E-02  0.9230548E-01
       -1   -1    0    0    0  501  0.00000000000E+00  0.00000000000E+00  0.64167597830E+03  0.64167597832E+03  0.50400001928E-02 0.  1.
        1   -1    0    0  501    0  0.00000000000E+00  0.00000000000E+00 -0.44970157744E+03  0.44970157746E+03  0.50400001928E-02 0. -1.
    10030    2    1    2    0    0  0.00000000000E+00  0.00000000000E+00  0.19197440086E+03  0.10913775558E+04  0.10743606465E+04 0.  0.
        1    1    3    3  502    0  0.67414491799E+02 -0.47314565275E+03 -0.15315482575E+03  0.50186444693E+03  0.50400001928E-02 0. -1.
       -1    1    3    3    0  502 -0.67414491799E+02  0.47314565275E+03  0.34512922662E+03  0.58951310885E+03  0.50400001928E-02 0.  1.
</event>
<event>
 5   0  0.2992375E-03  0.1116355E+04  0.7818609E-02  0.9189396E-01
        4   -1    0    0  501    0  0.00000000000E+00  0.00000000000E+00  0.76001765854E+03  0.76001871964E+03  0.12699999809E+01 0.  1.
       -4   -1    0    0    0  501  0.00000000000E+00  0.00000000000E+00 -0.40993840720E+03  0.40994037444E+03  0.12699999809E+01 0. -1.
    10030    2    1    2    0    0  0.00000000000E+00  0.00000000000E+00  0.35007925134E+03  0.11699590941E+04  0.11163551404E+04 0.  0.
        5    1    3    3  502    0  0.47465072279E+03  0.12503759370E+03  0.45352910406E+03  0.66831014261E+03  0.46999998093E+01 0. -1.
       -5    1    3    3    0  502 -0.47465072279E+03 -0.12503759370E+03 -0.10344985272E+03  0.50164895147E+03  0.46999998093E+01 0.  1.
</event>
<event>
 5   0  0.4504740E-03  0.1083803E+04  0.7818609E-02  0.9221124E-01
        1   -1    0    0  501    0  0.00000000000E+00  0.00000000000E+00  0.36815093698E+03  0.36815093701E+03  0.50400001928E-02 0. -1.
       -1   -1    0    0    0  501  0.00000000000E+00  0.00000000000E+00 -0.79765478063E+03  0.79765478064E+03  0.50400001928E-02 0.  1.
    10030    2    1    2    0    0  0.00000000000E+00  0.00000000000E+00 -0.42950384365E+03  0.11658057177E+04  0.10838032200E+04 0.  0.
        5    1    3    3  502    0 -0.18833402348E+03  0.28318328479E+03 -0.66853943951E+03  0.75008636127E+03  0.46999998093E+01 0.  1.
       -5    1    3    3    0  502  0.18833402348E+03 -0.28318328479E+03  0.23903559587E+03  0.41571935638E+03  0.46999998093E+01 0. -1.
</event>
<event>
 5   0  0.7952121E-03  0.1076836E+04  0.7818609E-02  0.9228068E-01
       -2   -1    0    0    0  501  0.00000000000E+00  0.00000000000E+00  0.29571867108E+03  0.29571867109E+03  0.25500000920E-02 0.  1.
        2   -1    0    0  501    0  0.00000000000E+00  0.00000000000E+00 -0.98030324089E+03  0.98030324089E+03  0.25500000920E-02 0. -1.
    10030    2    1    2    0    0  0.00000000000E+00  0.00000000000E+00 -0.68458456981E+03  0.12760219120E+04  0.10768360537E+04 0.  0.
        3    1    3    3  502    0  0.40056672231E+03  0.25698033817E+03 -0.64066414345E+03  0.79808718079E+03  0.10100000352E+00 0. -1.
       -3    1    3    3    0  502 -0.40056672231E+03 -0.25698033817E+03 -0.43920426356E+02  0.47793473119E+03  0.10100000352E+00 0.  1.
</event>
<event>
 5   0  0.4298101E-03  0.1100976E+04  0.7818609E-02  0.9204242E-01
        1   -1    0    0  501    0  0.00000000000E+00  0.00000000000E+00  0.39627521448E+03  0.39627521452E+03  0.50400001928E-02 0.  1.
       -1   -1    0    0    0  501  0.00000000000E+00  0.00000000000E+00 -0.76471293561E+03  0.76471293563E+03  0.50400001928E-02 0. -1.
    10030    2    1    2    0    0  0.00000000000E+00  0.00000000000E+00 -0.36843772113E+03  0.11609881501E+04  0.11009755358E+04 0.  0.
        3    1    3    3  502    0 -0.65081467896E+02  0.45236447003E+03  0.13937537731E+03  0.47780196443E+03  0.10100000352E+00 0.  1.
       -3    1    3    3    0  502  0.65081467896E+02 -0.45236447003E+03 -0.50781309844E+03  0.68318618572E+03  0.10100000352E+00 0. -1.
</event>
<event>
 5   0  0.4598561E-03  0.1047354E+04  0.7818609E-02  0.9258080E-01
        1   -1    0    0  501    0  0.00000000000E+00  0.00000000000E+00  0.83095119512E+03  0.83095119513E+03  0.50400001928E-02 0. -1.
       -1   -1    0    0    0  501  0.00000000000E+00  0.00000000000E+00 -0.33002852569E+03  0.33002852573E+03  0.50400001928E-02 0.  1.
    10030    2    1    2    0    0  0.00000000000E+00  0.00000000000E+00  0.50092266943E+03  0.11609797209E+04  0.10473539953E+04 0.  0.
        2    1    3    3  502    0 -0.30843570594E+03  0.26898226916E+03 -0.11171686639E+03  0.42422247001E+03  0.25500000920E-02 0. -1.
       -2    1    3    3    0  502  0.30843570594E+03 -0.26898226916E+03  0.61263953582E+03  0.73675725085E+03  0.25500000920E-02 0.  1.
</event>
<event>
 5   0  0.7766551E-03  0.1125149E+04  0.7818609E-02  0.9181021E-01
       -2   -1    0    0    0  501  0.00000000000E+00  0.00000000000E+00  0.26157262801E+03  0.26157262802E+03  0.25500000920E-02 0. -1.
        2   -1    0    0  501    0  0.00000000000E+00  0.00000000000E+00 -0.12099500305E+04  0.12099500305E+04  0.25500000920E-02 0.  1.
    10030    2    1    2    0    0  0.00000000000E+00  0.00000000000E+00 -0.94837740245E+03  0.14715226585E+04  0.11251485400E+04 0.  0.
        5    1    3    3  502    0  0.29262755443E+03  0.26732592572E+03  0.47925369456E+02  0.39926553471E+03  0.46999998093E+01 0. -1.
       -5    1    3    3    0  502 -0.29262755443E+03 -0.26732592572E+03 -0.99630277190E+03  0.10722571238E+04  0.46999998093E+01 0.  1.
</event>
<event>
 5   0  0.7952121E-03  0.1120216E+04  0.7818609E-02  0.9185709E-01
       -2   -1    0    0    0  501  0.00000000000E+00  0.00000000000E+00  0.16812572660E+03  0.16812572662E+03  0.25500000920E-02 0. -1.
        2   -1    0    0  501    0  0.00000000000E+00  0.00000000000E+00 -0.18659894047E+04  0.18659894047E+04  0.25500000920E-02 0.  1.
    10030    2    1    2    0    0  0.00000000000E+00  0.00000000000E+00 -0.16978636781E+04  0.20341151313E+04  0.11202157373E+04 0.  0.
        3    1    3    3  502    0 -0.22476673648E+03 -0.44676558554E+03 -0.39099387120E+03  0.63481949542E+03  0.10100000352E+00 0.  1.
       -3    1    3    3    0  502  0.22476673648E+03  0.44676558554E+03 -0.13068698069E+04  0.13992956359E+04  0.10100000352E+00 0. -1.
</event>
<event>
 5   0  0.4641021E-03  0.1062926E+04  0.7818609E-02  0.9242100E-01
        1   -1    0    0  501    0  0.00000000000E+00  0.00000000000E+00  0.13781569007E+04  0.13781569007E+04  0.50400001928E-02 0.  1.
       -1   -1    0    0    0  501  0.00000000000E+00  0.00000000000E+00 -0.20494966327E+03  0.20494966334E+03  0.50400001928E-02 0. -1.
    10030    2    1    2    0    0  0.00000000000E+00  0.00000000000E+00  0.11732072375E+04  0.15831065641E+04  0.10629257600E+04 0.  0.
        1    1    3    3  502    0  0.44121702797E+03  0.14538890551E+02  0.10273434314E+04  0.11181763596E+04  0.50400001928E-02 0.  1.
       -1    1    3    3    0  502 -0.44121702797E+03 -0.14538890551E+02  0.14586380609E+03  0.46493020450E+03  0.50400001928E-02 0. -1.
</event>
<event>
 5   0  0.7738497E-03  0.1105778E+04  0.7818609E-02  0.9199579E-01
        2   -1    0    0  501    0  0.00000000000E+00  0.00000000000E+00  0.44292375287E+03  0.44292375287E+03  0.25500000920E-02 0.  1.
       -2   -1    0    0    0  501  0.00000000000E+00  0.00000000000E+00 -0.69015508562E+03  0.69015508563E+03  0.25500000920E-02 0. -1.
    10030    2    1    2    0    0  0.00000000000E+00  0.00000000000E+00 -0.24723133276E+03  0.11330788385E+04  0.11057777002E+04 0.  0.
        4    1    3    3  502    0  0.34102012728E+03  0.40958564687E+03  0.27084564811E+02  0.53365748929E+03  0.12699999809E+01 0.  1.
       -4    1    3    3    0  502 -0.34102012728E+03 -0.40958564687E+03 -0.27431589757E+03  0.59942134921E+03  0.12699999809E+01 0. -1.
</event>
<event>
 5   0  0.7537480E-03  0.1099523E+04  0.7818609E-02  0.9205657E-01
       -2   -1    0    0    0  501  0.00000000000E+00  0.00000000000E+00  0.38659262835E+03  0.38659262836E+03  0.25500000920E-02 0.  1.
        2   -1    0    0  501    0  0.00000000000E+00  0.00000000000E+00 -0.78179921619E+03  0.78179921620E+03  0.25500000920E-02 0. -1.
    10030    2    1    2    0    0  0.00000000000E+00  0.00000000000E+00 -0.39520658784E+03  0.11683918446E+04  0.10995231946E+04 0.  0.
        1    1    3    3  502    0 -0.17830900390E+03 -0.40790457597E+01 -0.75020116377E+03  0.77111122780E+03  0.50400001928E-02 0. -1.
       -1    1    3    3    0  502  0.17830900390E+03  0.40790457597E+01  0.35499457593E+03  0.39728061676E+03  0.50400001928E-02 0.  1.
</event>
<event>
 5   0  0.7952121E-03  0.1122890E+04  0.7818609E-02  0.9183164E-01
        2   -1    0    0  501    0  0.00000000000E+00  0.00000000000E+00  0.13641590916E+04  0.13641590916E+04  0.25500000920E-02 0. -1.
       -2   -1    0    0    0  501  0.00000000000E+00  0.00000000000E+00 -0.23107324336E+03  0.23107324337E+03  0.25500000920E-02 0.  1.
    10030    2    1    2    0    0  0.00000000000E+00  0.00000000000E+00  0.11330858482E+04  0.15952323349E+04  0.11228903166E+04 0.  0.
        3    1    3    3  502    0 -0.43166007719E+03  0.26031997236E+03  0.21531293828E+03  0.54813919933E+03  0.10100000352E+00 0.  1.
       -3    1    3    3    0  502  0.43166007719E+03 -0.26031997236E+03  0.91777290993E+03  0.10470931356E+04  0.10100000352E+00 0. -1.
</event>
<event>
 5   0  0.4504740E-03  0.1158572E+04  0.7818609E-02  0.9149911E-01
        1   -1    0    0  501    0  0.00000000000E+00  0.00000000000E+00  0.13427885174E+04  0.13427885174E+04  0.50400001928E-02 0. -1.
       -1   -1    0    0    0  501  0.00000000000E+00  0.00000000000E+00 -0.24990714215E+03  0.24990714220E+03  0.50400001928E-02 0.  1.
    10030    2    1    2    0    0  0.00000000000E+00  0.00000000000E+00  0.10928813752E+04  0.15926956596E+04  0.11585722954E+04 0.  0.
        5    1    3    3  502    0 -0.30762126653E+03  0.34222108386E+03  0.10301421624E+04  0.11282557682E+04  0.46999998093E+01 0. -1.
       -5    1    3    3    0  502  0.30762126653E+03 -0.34222108386E+03  0.62739212879E+02  0.46443989137E+03  0.46999998093E+01 0.  1.
</event>
<event>
 5   0  0.4598561E-03  0.1096449E+04  0.7818609E-02  0.9208660E-01
       -1   -1    0    0    0  501  0.00000000000E+00  0.00000000000E+00  0.28158532314E+03  0.28158532319E+03  0.50400001928E-02 0. -1.
        1   -1    0    0  501    0  0.00000000000E+00  0.00000000000E+00 -0.10673499688E+04  0.10673499688E+04  0.50400001928E-02 0.  1.
    10030    2    1    2    0    0  0.00000000000E+00  0.00000000000E+00 -0.78576464563E+03  0.13489352920E+04  0.10964489699E+04 0.  0.
        2    1    3    3  502    0  0.38681525345E+03  0.19230777843E+03  0.22400686142E+02  0.43256226453E+03  0.25500000920E-02 0. -1.
       -2    1    3    3    0  502 -0.38681525345E+03 -0.19230777843E+03 -0.80816533177E+03  0.91637302744E+03  0.25500000920E-02 0.  1.
</event>
<event>
 5   0  0.4641021E-03  0.1120803E+04  0.7818609E-02  0.9185150E-01
       -1   -1    0    0    0  501  0.00000000000E+00  0.00000000000E+00  0.16322107313E+03  0.16322107320E+03  0.50400001928E-02 0.  1.
        1   -1    0    0  501    0  0.00000000000E+00  0.00000000000E+00 -0.19240750590E+04  0.19240750590E+04  0.50400001928E-02 0. -1.
    10030    2    1    2    0    0  0.00000000000E+00  0.00000000000E+00 -0.17608539859E+04  0.20872961322E+04  0.11208025624E+04 0.  0.
        1    1    3    3  502    0  0.44721033664E+03  0.33624375913E+03 -0.82175214403E+03  0.99414965523E+03  0.50400001928E-02 0.  1.
       -1    1    3    3    0  502 -0.44721033664E+03 -0.33624375913E+03 -0.93910184185E+03  0.10931464770E+04  0.50400001928E-02 0. -1.
</event>
<event>
 5   0  0.7712816E-03  0.1093412E+04  0.7818609E-02  0.9211637E-01
        2   -1    0    0  501    0  0.00000000000E+00  0.00000000000E+00  0.53489875470E+03  0.53489875470E+03  0.25500000920E-02 0. -1.
       -2   -1    0    0    0  501  0.00000000000E+00  0.00000000000E+00 -0.55877424208E+03  0.55877424208E+03  0.25500000920E-02 0.  1.
    10030    2    1    2    0    0  0.00000000000E+00  0.00000000000E+00 -0.23875487383E+02  0.10936729968E+04  0.10934123582E+04 0.  0.
        2    1    3    3  502    0  0.40557086927E+03 -0.11971554941E+03 -0.35852878799E+03  0.55440277289E+03  0.25500000920E-02 0.  1.
       -2    1    3    3    0  502 -0.40557086927E+03  0.11971554941E+03  0.33465330060E+03  0.53927022389E+03  0.25500000920E-02 0. -1.
</event>
<event>
 5   0  0.7738497E-03  0.1085942E+04  0.7818609E-02  0.9219003E-01
       -2   -1    0    0    0  501  0.00000000000E+00  0.00000000000E+00  0.28356507475E+03  0.28356507476E+03  0.25500000920E-02 0.  1.
        2   -1    0    0  501    0  0.00000000000E+00  0.00000000000E+00 -0.10396812069E+04  0.10396812069E+04  0.25500000920E-02 0. -1.
    10030    2    1    2    0    0  0.00000000000E+00  0.00000000000E+00 -0.75611613219E+03  0.13232462817E+04  0.10859415807E+04 0.  0.
        4    1    3    3  502    0 -0.26279071881E+03  0.30379110748E+03 -0.82322434047E+03  0.91599559307E+03  0.12699999809E+01 0. -1.
       -4    1    3    3    0  502  0.26279071881E+03 -0.30379110748E+03  0.67108208282E+02  0.40725068864E+03  0.12699999809E+01 0.  1.
</event>
<event>
 5   0  0.4598561E-03  0.9997346E+03  0.7818609E-02  0.9308836E-01
        1   -1    0    0  501    0  0.00000000000E+00  0.00000000000E+00  0.98945292618E+03  0.98945292619E+03  0.50400001928E-02 0. -1.
       -1   -1    0    0    0  501  0.00000000000E+00  0.00000000000E+00 -0.25253079568E+03  0.25253079573E+03  0.50400001928E-02 0.  1.
    10030    2    1    2    0    0  0.00000000000E+00  0.00000000000E+00  0.73692213051E+03  0.12419837219E+04  0.99973463433E+03 0.  0.
        2    1    3    3  502    0 -0.25488461387E+03 -0.36613318870E+02  0.90071752328E+03  0.93680241153E+03  0.25500000920E-02 0. -1.
       -2    1    3    3    0  502  0.25488461387E+03  0.36613318870E+02 -0.16379539277E+03  0.30518131039E+03  0.25500000920E-02 0.  1.
</event>
<event>
 5   0  0.4504740E-03  0.1098035E+04  0.7818609E-02  0.9207109E-01
       -1   -1    0    0    0  501  0.00000000000E+00  0.00000000000E+00  0.58560835088E+03  0.58560835090E+03  0.50400001928E-02 0.  1.
        1   -1    0    0  501    0  0.00000000000E+00  0.00000000000E+00 -0.51471292830E+03  0.51471292833E+03  0.50400001928E-02 0. -1.
    10030    2    1    2    0    0  0.00000000000E+00  0.00000000000E+00  0.70895422573E+02  0.11003212792E+04  0.10980349523E+04 0.  0.
        5    1    3    3  502    0 -0.62786446381E+02  0.82007911227E+02 -0.50486945692E+03  0.51534715860E+03  0.46999998093E+01 0. -1.
       -5    1    3    3    0  502  0.62786446381E+02 -0.82007911227E+02  0.57576487949E+03  0.58497412063E+03  0.46999998093E+01 0.  1.
</event>
<event>
 5   0  0.4598561E-03  0.1022491E+04  0.7818609E-02  0.9284216E-01
       -1   -1    0    0    0  501  0.00000000000E+00  0.00000000000E+00  0.41297011342E+03  0.41297011345E+03  0.50400001928E-02 0. -1.
        1   -1    0    0  501    0  0.00000000000E+00  0.00000000000E+00 -0.63290718721E+03  0.63290718723E+03  0.50400001928E-02 0.  1.
    10030    2    1    2    0    0  0.00000000000E+00  0.00000000000E+00 -0.21993707379E+03  0.10458773007E+04  0.10224905924E+04 0.  0.
        2    1    3    3  502    0  0.89679926121E+00 -0.43775160063E+03  0.16016366068E+03  0.46613267029E+03  0.25500000920E-02 0. -1.
       -2    1    3    3    0  502 -0.89679926121E+00  0.43775160063E+03 -0.38010073447E+03  0.57974463039E+03  0.25500000920E-02 0.  1.
</event>
<event>
 5   0  0.2992375E-03  0.1104250E+04  0.7818609E-02  0.9201059E-01
        3   -1    0    0  501    0  0.00000000000E+00  0.00000000000E+00  0.43498862102E+03  0.43498863275E+03  0.10100000352E+00 0. -1.
       -3   -1    0    0    0  501  0.00000000000E+00  0.00000000000E+00 -0.70080498895E+03  0.70080499623E+03  0.10100000352E+00 0.  1.
    10030    2    1    2    0    0  0.00000000000E+00  0.00000000000E+00 -0.26581636792E+03  0.11357936290E+04  0.11042503458E+04 0.  0.
        4    1    3    3  502    0 -0.40650500045E+03 -0.13304531436E+02  0.25114393702E+03  0.47801487001E+03  0.12699999809E+01 0. -1.
       -4    1    3    3    0  502  0.40650500045E+03  0.13304531436E+02 -0.51696030495E+03  0.65777875896E+03  0.12699999809E+01 0.  1.
</event>
<event>
 5   0  0.7712816E-03  0.1104455E+04  0.7818609E-02  0.9200860E-01
        2   -1    0    0  501    0  0.00000000000E+00  0.00000000000E+00  0.15000868794E+04  0.15000868794E+04  0.25500000920E-02 0.  1.
       -2   -1    0    0    0  501  0.00000000000E+00  0.00000000000E+00 -0.20329184073E+03  0.20329184074E+03  0.25500000920E-02 0. -1.
    10030    2    1    2    0    0  0.00000000000E+00  0.00000000000E+00  0.12967950387E+04  0.17033787202E+04  0.11044553825E+04 0.  0.
        2    1    3    3  502    0  0.19465336986E+03 -0.44187055128E+03  0.23508995035E+03  0.53703519740E+03  0.25500000920E-02 0. -1.
       -2    1    3    3    0  502 -0.19465336986E+03  0.44187055128E+03  0.10617050883E+04  0.11663435228E+04  0.25500000920E-02 0.  1.
</event>
<event>
 5   0  0.7952121E-03  0.1108067E+04  0.7818609E-02  0.9197365E-01
        2   -1    0    0  501    0  0.00000000000E+00  0.00000000000E+00  0.73216659739E+03  0.73216659740E+03  0.25500000920E-02 0. -1.
       -2   -1    0    0    0  501  0.00000000000E+00  0.00000000000E+00 -0.41923934562E+03  0.41923934562E+03  0.25500000920E-02 0.  1.
    10030    2    1    2    0    0  0.00000000000E+00  0.00000000000E+00  0.31292725178E+03  0.11514059430E+04  0.11080668665E+04 0.  0.
        3    1    3    3  502    0  0.14436778349E+03  0.42699603922E+03 -0.17829405243E+03  0.48472306914E+03  0.10100000352E+00 0.  1.
       -3    1    3    3    0  502 -0.14436778349E+03 -0.42699603922E+03  0.49122130421E+03  0.66668287388E+03  0.10100000352E+00 0. -1.
</event>
<event>
 5   0  0.7712816E-03  0.1154626E+04  0.7818609E-02  0.9153526E-01
       -2   -1    0    0    0  501  0.00000000000E+00  0.00000000000E+00  0.56687480789E+03  0.56687480790E+03  0.25500000920E-02 0.  1.
        2   -1    0    0  501    0  0.00000000000E+00  0.00000000000E+00 -0.58794340904E+03  0.58794340904E+03  0.25500000920E-02 0. -1.
    10030    2    1    2    0    0  0.00000000000E+00  0.00000000000E+00 -0.21068601144E+02  0.11548182169E+04  0.11546260123E+04 0.  0.
        2    1    3    3  502    0 -0.22773733520E+03 -0.47170202763E+03 -0.25331574398E+03  0.58183843364E+03  0.25500000920E-02 0.  1.
       -2    1    3    3    0  502  0.22773733520E+03  0.47170202763E+03  0.23224714284E+03  0.57297978330E+03  0.25500000920E-02 0. -1.
</event>
<event>
 5   0  0.4298101E-03  0.1196789E+04  0.7818609E-02  0.9115671E-01
        1   -1    0    0  501    0  0.00000000000E+00  0.00000000000E+00  0.59823874712E+03  0.59823874714E+03  0.50400001928E-02 0. -1.
       -1   -1    0    0    0  501  0.00000000000E+00  0.00000000000E+00 -0.59855062034E+03  0.59855062036E+03  0.50400001928E-02 0.  1.
    10030    2    1    2    0    0  0.00000000000E+00  0.00000000000E+00 -0.31187321659E+00  0.11967893675E+04  0.11967893269E+04 0.  0.
        3    1    3    3  502    0  0.36173391191E+03  0.79308572364E+02 -0.47019306850E+03  0.59851717146E+03  0.10100000352E+00 0.  1.
       -3    1    3    3    0  502 -0.36173391191E+03 -0.79308572364E+02  0.46988119528E+03  0.59827219604E+03  0.10100000352E+00 0. -1.
</event>
<event>
 5   0  0.4504740E-03  0.1120060E+04  0.7818609E-02  0.9185858E-01
        1   -1    0    0  501    0  0.00000000000E+00  0.00000000000E+00  0.11077502058E+04  0.11077502058E+04  0.50400001928E-02 0. -1.
       -1   -1    0    0    0  501  0.00000000000E+00  0.00000000000E+00 -0.28312659225E+03  0.28312659229E+03  0.50400001928E-02 0.  1.
    10030    2    1    2    0    0  0.00000000000E+00  0.00000000000E+00  0.82462361356E+03  0.13908767981E+04  0.11200598928E+04 0.  0.
        5    1    3    3  502    0 -0.40344759710E+03  0.18458493709E+03  0.83665070905E+03  0.94702062362E+03  0.46999998093E+01 0. -1.
       -5    1    3    3    0  502  0.40344759710E+03 -0.18458493709E+03 -0.12027095491E+02  0.44385617449E+03  0.46999998093E+01 0.  1.
</event>
<event>
 5   0  0.7766551E-03  0.1108430E+04  0.7818609E-02  0.9197014E-01
       -2   -1    0    0    0  501  0.00000000000E+00  0.00000000000E+00  0.14943996177E+03  0.14943996179E+03  0.25500000920E-02 0.  1.
        2   -1    0    0  501    0  0.00000000000E+00  0.00000000000E+00 -0.20553703382E+04  0.20553703382E+04  0.25500000920E-02 0. -1.
    10030    2    1    2    0    0  0.00000000000E+00  0.00000000000E+00 -0.19059303764E+04  0.22048103000E+04  0.11084303583E+04 0.  0.
        5    1    3    3  502    0 -0.38742503500E+03  0.39577596128E+03 -0.99252862317E+03  0.11366054404E+04  0.46999998093E+01 0. -1.
       -5    1    3    3    0  502  0.38742503500E+03 -0.39577596128E+03 -0.91340175327E+03  0.10682048596E+04  0.46999998093E+01 0.  1.
</event>
<event>
 5   0  0.4504740E-03  0.1071824E+04  0.7818609E-02  0.9233098E-01
       -1   -1    0    0    0  501  0.00000000000E+00  0.00000000000E+00  0.32108332395E+03  0.32108332399E+03  0.50400001928E-02 0.  1.
        1   -1    0    0  501    0  0.00000000000E+00  0.00000000000E+00 -0.89447634160E+03  0.89447634162E+03  0.50400001928E-02 0. -1.
    10030    2    1    2    0    0  0.00000000000E+00  0.00000000000E+00 -0.57339301765E+03  0.12155596656E+04  0.10718235620E+04 0.  0.
        5    1    3    3  502    0 -0.24213146742E+03 -0.39392059206E+03 -0.59390746872E+03  0.75269466038E+03  0.46999998093E+01 0. -1.
       -5    1    3    3    0  502  0.24213146742E+03  0.39392059206E+03  0.20514451074E+02  0.46286500523E+03  0.46999998093E+01 0.  1.
</event>
<event>
 5   0  0.4598561E-03  0.1087904E+04  0.7818609E-02  0.9217063E-01
        1   -1    0    0  501    0  0.00000000000E+00  0.00000000000E+00  0.53681470468E+03  0.53681470470E+03  0.50400001928E-02 0.  1.
       -1   -1    0    0    0  501  0.00000000000E+00  0.00000000000E+00 -0.55118368538E+03  0.55118368540E+03  0.50400001928E-02 0. -1.
    10030    2    1    2    0    0  0.00000000000E+00  0.00000000000E+00 -0.14368980704E+02  0.10879983901E+04  0.10879035018E+04 0.  0.
        2    1    3    3  502    0  0.52985095091E+03  0.12300064567E+03 -0.10694538912E+02  0.54404555157E+03  0.25500000920E-02 0. -1.
       -2    1    3    3    0  502 -0.52985095091E+03 -0.12300064567E+03 -0.36744417917E+01  0.54395283853E+03  0.25500000920E-02 0.  1.
</event>
<event>
 5   0  0.7766551E-03  0.7193314E+03  0.7818609E-02  0.9684732E-01
        2   -1    0    0  501    0  0.00000000000E+00  0.00000000000E+00  0.27378891271E+03  0.27378891272E+03  0.25500000920E-02 0. -1.
       -2   -1    0    0    0  501  0.00000000000E+00  0.00000000000E+00 -0.47247864324E+03  0.47247864325E+03  0.25500000920E-02 0.  1.
    10030    2    1    2    0    0  0.00000000000E+00  0.00000000000E+00 -0.19868973053E+03  0.74626755597E+03  0.71933139517E+03 0.  0.
        5    1    3    3  502    0 -0.19937689780E+03  0.10621641334E+03 -0.38965233677E+03  0.45042658379E+03  0.46999998093E+01 0.  1.
       -5    1    3    3    0  502  0.19937689780E+03 -0.10621641334E+03  0.19096260623E+03  0.29584097218E+03  0.46999998093E+01 0. -1.
</event>
<event>
 5   0  0.4641021E-03  0.1099343E+04  0.7818609E-02  0.9205832E-01
        1   -1    0    0  501    0  0.00000000000E+00  0.00000000000E+00  0.64868524920E+03  0.64868524922E+03  0.50400001928E-02 0.  1.
       -1   -1    0    0    0  501  0.00000000000E+00  0.00000000000E+00 -0.46577133129E+03  0.46577133131E+03  0.50400001928E-02 0. -1.
    10030    2    1    2    0    0  0.00000000000E+00  0.00000000000E+00  0.18291391791E+03  0.11144565805E+04  0.10993434261E+04 0.  0.
        1    1    3    3  502    0 -0.39225603221E+03  0.36185918111E+03 -0.42004461391E+02  0.53532348777E+03  0.50400001928E-02 0. -1.
       -1    1    3    3    0  502  0.39225603221E+03 -0.36185918111E+03  0.22491837930E+03  0.57913309276E+03  0.50400001928E-02 0.  1.
</event>
<event>
 5   0  0.7952121E-03  0.1121523E+04  0.7818609E-02  0.9184464E-01
       -2   -1    0    0    0  501  0.00000000000E+00  0.00000000000E+00  0.27533608134E+03  0.27533608135E+03  0.25500000920E-02 0.  1.
        2   -1    0    0  501    0  0.00000000000E+00  0.00000000000E+00 -0.11420715124E+04  0.11420715124E+04  0.25500000920E-02 0. -1.
    10030    2    1    2    0    0  0.00000000000E+00  0.00000000000E+00 -0.86673543105E+03  0.14174075937E+04  0.11215230623E+04 0.  0.
        3    1    3    3  502    0 -0.54245516801E+03  0.80539958803E+02 -0.28539131798E+03  0.61821720199E+03  0.10100000352E+00 0. -1.
       -3    1    3    3    0  502  0.54245516801E+03 -0.80539958803E+02 -0.58134411307E+03  0.79919039175E+03  0.10100000352E+00 0.  1.
</event>
<event>
 5   0  0.7537480E-03  0.8324335E+03  0.7818609E-02  0.9514222E-01
       -2   -1    0    0    0  501  0.00000000000E+00  0.00000000000E+00  0.11565889315E+03  0.11565889318E+03  0.25500000920E-02 0.  1.
        2   -1    0    0  501    0  0.00000000000E+00  0.00000000000E+00 -0.14978214592E+04  0.14978214592E+04  0.25500000920E-02 0. -1.
    10030    2    1    2    0    0  0.00000000000E+00  0.00000000000E+00 -0.13821625660E+04  0.16134803524E+04  0.83243347394E+03 0.  0.
        1    1    3    3  502    0 -0.38039683411E+03  0.16753194061E+03 -0.73299765725E+03  0.84264717888E+03  0.50400001928E-02 0. -1.
       -1    1    3    3    0  502  0.38039683411E+03 -0.16753194061E+03 -0.64916490878E+03  0.77083317349E+03  0.50400001928E-02 0.  1.
</event>
<event>
 5   0  0.7952121E-03  0.1089069E+04  0.7818609E-02  0.9215911E-01
       -2   -1    0    0    0  501  0.00000000000E+00  0.00000000000E+00  0.29570412840E+03  0.29570412841E+03  0.25500000920E-02 0.  1.
        2   -1    0    0  501    0  0.00000000000E+00  0.00000000000E+00 -0.10027525590E+04  0.10027525590E+04  0.25500000920E-02 0. -1.
    10030    2    1    2    0    0  0.00000000000E+00  0.00000000000E+00 -0.70704843062E+03  0.12984566874E+04  0.10890694587E+04 0.  0.
        3    1    3    3  502    0 -0.15063550004E+03 -0.52325263905E+03 -0.36044376895E+03  0.65299624725E+03  0.10100000352E+00 0.  1.
       -3    1    3    3    0  502  0.15063550004E+03  0.52325263905E+03 -0.34660466167E+03  0.64546044018E+03  0.10100000352E+00 0. -1.
</event>
<event>
 5   0  0.2992375E-03  0.9856823E+03  0.7818609E-02  0.9324389E-01
       -4   -1    0    0    0  501  0.00000000000E+00  0.00000000000E+00  0.22965267928E+03  0.22965619086E+03  0.12699999809E+01 0. -1.
        4   -1    0    0  501    0  0.00000000000E+00  0.00000000000E+00 -0.10576390315E+04  0.10576397940E+04  0.12699999809E+01 0.  1.
    10030    2    1    2    0    0  0.00000000000E+00  0.00000000000E+00 -0.82798635223E+03  0.12872959849E+04  0.98568227801E+03 0.  0.
        5    1    3    3  502    0 -0.28374537052E+03 -0.40283093517E+03 -0.42611156101E+03  0.65144251477E+03  0.46999998093E+01 0. -1.
       -5    1    3    3    0  502  0.28374537052E+03  0.40283093517E+03 -0.40187479122E+03  0.63585347010E+03  0.46999998093E+01 0.  1.
</event>
<event>
 5   0  0.7738497E-03  0.1108030E+04  0.7818609E-02  0.9197401E-01
       -2   -1    0    0    0  501  0.00000000000E+00  0.00000000000E+00  0.28913647053E+03  0.28913647054E+03  0.25500000920E-02 0.  1.
        2   -1    0    0  501    0  0.00000000000E+00  0.00000000000E+00 -0.10615491613E+04  0.10615491613E+04  0.25500000920E-02 0. -1.
    10030    2    1    2    0    0  0.00000000000E+00  0.00000000000E+00 -0.77241269080E+03  0.13506856319E+04  0.11080299234E+04 0.  0.
        4    1    3    3  502    0  0.33325522425E+03  0.39671131073E+03 -0.62536623675E+03  0.81211049218E+03  0.12699999809E+01 0.  1.
       -4    1    3    3    0  502 -0.33325522425E+03 -0.39671131073E+03 -0.14704645405E+03  0.53857513969E+03  0.12699999809E+01 0. -1.
</event>
<event>
 5   0  0.4504740E-03  0.1084081E+04  0.7818609E-02  0.9220848E-01
       -1   -1    0    0    0  501  0.00000000000E+00  0.00000000000E+00  0.42972480992E+03  0.42972480995E+03  0.50400001928E-02 0.  1.
        1   -1    0    0  501    0  0.00000000000E+00  0.00000000000E+00 -0.68371169663E+03  0.68371169665E+03  0.50400001928E-02 0. -1.
    10030    2    1    2    0    0  0.00000000000E+00  0.00000000000E+00 -0.25398688671E+03  0.11134365066E+04  0.10840809544E+04 0.  0.
        5    1    3    3  502    0  0.42331530555E+03  0.32841962184E+03 -0.21125455407E+03  0.57593912225E+03  0.46999998093E+01 0. -1.
       -5    1    3    3    0  502 -0.42331530555E+03 -0.32841962184E+03 -0.42732332643E+02  0.53749738434E+03  0.46999998093E+01 0.  1.
</event>
<event>
 5   0  0.2992375E-03  0.1096267E+04  0.7818609E-02  0.9208838E-01
        4   -1    0    0  501    0  0.00000000000E+00  0.00000000000E+00  0.11792693064E+04  0.11792699902E+04  0.12699999809E+01 0.  1.
       -4   -1    0    0    0  501  0.00000000000E+00  0.00000000000E+00 -0.25477451040E+03  0.25477767573E+03  0.12699999809E+01 0. -1.
    10030    2    1    2    0    0  0.00000000000E+00  0.00000000000E+00  0.92449479598E+03  0.14340476660E+04  0.10962673399E+04 0.  0.
        4    1    3    3  502    0  0.41504878130E+03 -0.34791468010E+03  0.35172266679E+03  0.64577129289E+03  0.12699999809E+01 0. -1.
       -4    1    3    3    0  502 -0.41504878130E+03  0.34791468010E+03  0.57277212920E+03  0.78827637309E+03  0.12699999809E+01 0.  1.
</event>
<event>
 5   0  0.2992375E-03  0.1088526E+04  0.7818609E-02  0.9216448E-01
        3   -1    0    0  501    0  0.00000000000E+00  0.00000000000E+00  0.57790365376E+03  0.57790366259E+03  0.10100000352E+00 0. -1.
       -3   -1    0    0    0  501  0.00000000000E+00  0.00000000000E+00 -0.51258026618E+03  0.51258027613E+03  0.10100000352E+00 0.  1.
    10030    2    1    2    0    0  0.00000000000E+00  0.00000000000E+00  0.65323387578E+02  0.10904839387E+04  0.10885256431E+04 0.  0.
        5    1    3    3  502    0 -0.24044016534E+03  0.34847382209E+03  0.37526297798E+03  0.56576485436E+03  0.46999998093E+01 0. -1.
       -5    1    3    3    0  502  0.24044016534E+03 -0.34847382209E+03 -0.30993959040E+03  0.52471908436E+03  0.46999998093E+01 0.  1.
</event>
<event>
 5   0  0.2992375E-03  0.9776166E+03  0.7818609E-02  0.9333441E-01
       -3   -1    0    0    0  501  0.00000000000E+00  0.00000000000E+00  0.32963792956E+03  0.32963794503E+03  0.10100000352E+00 0.  1.
        3   -1    0    0  501    0  0.00000000000E+00  0.00000000000E+00 -0.72483632443E+03  0.72483633146E+03  0.10100000352E+00 0. -1.
    10030    2    1    2    0    0  0.00000000000E+00  0.00000000000E+00 -0.39519839487E+03  0.10544742765E+04  0.97761660608E+03 0.  0.
        5    1    3    3  502    0 -0.22527524419E+03 -0.46125380826E+02 -0.66282599922E+03  0.70159595326E+03  0.46999998093E+01 0. -1.
       -5    1    3    3    0  502  0.22527524419E+03  0.46125380826E+02  0.26762760435E+03  0.35287832323E+03  0.46999998093E+01 0.  1.
</event>
<event>
 5   0  0.2992375E-03  0.9356052E+03  0.7818609E-02  0.9382136E-01
        3   -1    0    0  501    0  0.00000000000E+00  0.00000000000E+00  0.12002085526E+04  0.12002085568E+04  0.10100000352E+00 0. -1.
       -3   -1    0    0    0  501  0.00000000000E+00  0.00000000000E+00 -0.18233434643E+03  0.18233437441E+03  0.10100000352E+00 0.  1.
    10030    2    1    2    0    0  0.00000000000E+00  0.00000000000E+00  0.10178742061E+04  0.13825429312E+04  0.93560518232E+03 0.  0.
        2    1    3    3  502    0  0.70549241154E+02 -0.35430664662E+03  0.69762373844E+02  0.36793638591E+03  0.25500000920E-02 0.  1.
       -2    1    3    3    0  502 -0.70549241154E+02  0.35430664662E+03  0.94811183230E+03  0.10146065453E+04  0.25500000920E-02 0. -1.
</event>
<event>
 5   0  0.4598561E-03  0.1108478E+04  0.7818609E-02  0.9196968E-01
        1   -1    0    0  501    0  0.00000000000E+00  0.00000000000E+00  0.10781477783E+04  0.10781477783E+04  0.50400001928E-02 0.  1.
       -1   -1    0    0    0  501  0.00000000000E+00  0.00000000000E+00 -0.28491546701E+03  0.28491546705E+03  0.50400001928E-02 0. -1.
    10030    2    1    2    0    0  0.00000000000E+00  0.00000000000E+00  0.79323231125E+03  0.13630632453E+04  0.11084781961E+04 0.  0.
        2    1    3    3  502    0 -0.17831229226E+03  0.12112533448E+03  0.10244884600E+04  0.10469208303E+04  0.25500000920E-02 0.  1.
       -2    1    3    3    0  502  0.17831229226E+03 -0.12112533448E+03 -0.23125614876E+03  0.31614241501E+03  0.25500000920E-02 0. -1.
</event>
<event>
 5   0  0.4298101E-03  0.1114505E+04  0.7818609E-02  0.9191169E-01
        1   -1    0    0  501    0  0.00000000000E+00  0.00000000000E+00  0.70766933484E+03  0.70766933485E+03  0.50400001928E-02 0. -1.
       -1   -1    0    0    0  501  0.00000000000E+00  0.00000000000E+00 -0.43880713133E+03  0.43880713136E+03  0.50400001928E-02 0.  1.
    10030    2    1    2    0    0  0.00000000000E+00  0.00000000000E+00  0.26886220351E+03  0.11464764662E+04  0.11145050036E+04 0.  0.
        3    1    3    3  502    0 -0.54493959970E+03 -0.47763063334E+02  0.24373293808E+03  0.59887079812E+03  0.10100000352E+00 0. -1.
       -3    1    3    3    0  502  0.54493959970E+03  0.47763063334E+02  0.25129265427E+02  0.54760566809E+03  0.10100000352E+00 0.  1.
</event>
<event>
 5   0  0.4504740E-03  0.1093153E+04  0.7818609E-02  0.9211891E-01
       -1   -1    0    0    0  501  0.00000000000E+00  0.00000000000E+00  0.69790472381E+03  0.69790472382E+03  0.50400001928E-02 0. -1.
        1   -1    0    0  501    0  0.00000000000E+00  0.00000000000E+00 -0.42806131519E+03  0.42806131522E+03  0.50400001928E-02 0.  1.
    10030    2    1    2    0    0  0.00000000000E+00  0.00000000000E+00  0.26984340862E+03  0.11259660390E+04  0.10931532628E+04 0.  0.
        5    1    3    3  502    0 -0.12816320819E+03 -0.31410627033E+03  0.57631161308E+03  0.66876432498E+03  0.46999998093E+01 0. -1.
       -5    1    3    3    0  502  0.12816320819E+03  0.31410627033E+03 -0.30646820446E+03  0.45720171406E+03  0.46999998093E+01 0.  1.
</event>
<event>
 5   0  0.7766551E-03  0.1135123E+04  0.7818609E-02  0.9171619E-01
        2   -1    0    0  501    0  0.00000000000E+00  0.00000000000E+00  0.13940949943E+04  0.13940949943E+04  0.25500000920E-02 0.  1.
       -2   -1    0    0    0  501  0.00000000000E+00  0.00000000000E+00 -0.23106473742E+03  0.23106473743E+03  0.25500000920E-02 0. -1.
    10030    2    1    2    0    0  0.00000000000E+00  0.00000000000E+00  0.11630302569E+04  0.16251597317E+04  0.11351232423E+04 0.  0.
        5    1    3    3  502    0  0.26754232493E+03 -0.14374735014E+03 -0.10489951495E+03  0.32135369072E+03  0.46999998093E+01 0. -1.
       -5    1    3    3    0  502 -0.26754232493E+03  0.14374735014E+03  0.12679297718E+04  0.13038060410E+04  0.46999998093E+01 0.  1.
</event>
<event>
 5   0  0.4641021E-03  0.1074923E+04  0.7818609E-02  0.9229984E-01
       -1   -1    0    0    0  501  0.00000000000E+00  0.00000000000E+00  0.14182735743E+03  0.14182735752E+03  0.50400001928E-02 0.  1.
        1   -1    0    0  501    0  0.00000000000E+00  0.00000000000E+00 -0.20367355724E+04  0.20367355725E+04  0.50400001928E-02 0. -1.
    10030    2    1    2    0    0  0.00000000000E+00  0.00000000000E+00 -0.18949082150E+04  0.21785629300E+04  0.10749229258E+04 0.  0.
        1    1    3    3  502    0  0.22470191466E+03  0.62848879472E+02 -0.19287358531E+04  0.19427977052E+04  0.50400001928E-02 0. -1.
       -1    1    3    3    0  502 -0.22470191466E+03 -0.62848879472E+02  0.33827638091E+02  0.23576522480E+03  0.50400001928E-02 0.  1.
</event>
<event>
 5   0  0.4504740E-03  0.1095061E+04  0.7818609E-02  0.9210019E-01
       -1   -1    0    0    0  501  0.00000000000E+00  0.00000000000E+00  0.36164658404E+03  0.36164658407E+03  0.50400001928E-02 0. -1.
        1   -1    0    0  501    0  0.00000000000E+00  0.00000000000E+00 -0.82895768234E+03  0.82895768235E+03  0.50400001928E-02 0.  1.
    10030    2    1    2    0    0  0.00000000000E+00  0.00000000000E+00 -0.46731109830E+03  0.11906042664E+04  0.10950611200E+04 0.  0.
        5    1    3    3  502    0 -0.33161783928E+03  0.37528157677E+03  0.69214402231E+01  0.50087588236E+03  0.46999998093E+01 0. -1.
       -5    1    3    3    0  502  0.33161783928E+03 -0.37528157677E+03 -0.47423253852E+03  0.68972838407E+03  0.46999998093E+01 0.  1.
</event>
<event>
 5   0  0.4428114E-03  0.1096802E+04  0.7818609E-02  0.9208314E-01
        1   -1    0    0  501    0  0.00000000000E+00  0.00000000000E+00  0.70752056697E+03  0.70752056699E+03  0.50400001928E-02 0.  1.
       -1   -1    0    0    0  501  0.00000000000E+00  0.00000000000E+00 -0.42506709265E+03  0.42506709268E+03  0.50400001928E-02 0. -1.
    10030    2    1    2    0    0  0.00000000000E+00  0.00000000000E+00  0.28245347432E+03  0.11325876597E+04  0.10968020978E+04 0.  0.
        4    1    3    3  502    0  0.53238177503E+02  0.20803363505E+03  0.66229925447E+03  0.69624292616E+03  0.12699999809E+01 0.  1.
       -4    1    3    3    0  502 -0.53238177503E+02 -0.20803363505E+03 -0.37984578015E+03  0.43634473350E+03  0.12699999809E+01 0. -1.
</event>
<event>
 5   0  0.4598561E-03  0.1092954E+04  0.7818609E-02  0.9212087E-01
       -1   -1    0    0    0  501  0.00000000000E+00  0.00000000000E+00  0.88763932276E+03  0.88763932277E+03  0.50400001928E-02 0.  1.
        1   -1    0    0  501    0  0.00000000000E+00  0.00000000000E+00 -0.33643970005E+03  0.33643970009E+03  0.50400001928E-02 0. -1.
    10030    2    1    2    0    0  0.00000000000E+00  0.00000000000E+00  0.55119962271E+03  0.12240790229E+04  0.10929539927E+04 0.  0.
        2    1    3    3  502    0 -0.35094153614E+02 -0.48311033950E+03 -0.77553809681E+01  0.48444540011E+03  0.25500000920E-02 0. -1.
       -2    1    3    3    0  502  0.35094153614E+02  0.48311033950E+03  0.55895500368E+03  0.73963362274E+03  0.25500000920E-02 0.  1.
</event>
<event>
 5   0  0.7712816E-03  0.1105738E+04  0.7818609E-02  0.9199618E-01
        2   -1    0    0  501    0  0.00000000000E+00  0.00000000000E+00  0.68418744459E+03  0.68418744460E+03  0.25500000920E-02 0.  1.
       -2   -1    0    0    0  501  0.00000000000E+00  0.00000000000E+00 -0.44675461611E+03  0.44675461612E+03  0.25500000920E-02 0. -1.
    10030    2    1    2    0    0  0.00000000000E+00  0.00000000000E+00  0.23743282848E+03  0.11309420607E+04  0.11057375804E+04 0.  0.
        2    1    3    3  502    0  0.30283723345E+02 -0.39022256365E+03  0.51809517661E+03  0.64931761497E+03  0.25500000920E-02 0.  1.
       -2    1    3    3    0  502 -0.30283723345E+02  0.39022256365E+03 -0.28066234813E+03  0.48162444575E+03  0.25500000920E-02 0. -1.
</event>
<event>
 5   0  0.7952121E-03  0.1101518E+04  0.7818609E-02  0.9203713E-01
       -2   -1    0    0    0  501  0.00000000000E+00  0.00000000000E+00  0.21604336330E+03  0.21604336331E+03  0.25500000920E-02 0. -1.
        2   -1    0    0  501    0  0.00000000000E+00  0.00000000000E+00 -0.14040496856E+04  0.14040496856E+04  0.25500000920E-02 0.  1.
    10030    2    1    2    0    0  0.00000000000E+00  0.00000000000E+00 -0.11880063223E+04  0.16200930489E+04  0.11015182547E+04 0.  0.
        3    1    3    3  502    0  0.53667969718E+03 -0.12372244144E+03 -0.59134504843E+03  0.80809734338E+03  0.10100000352E+00 0. -1.
       -3    1    3    3    0  502 -0.53667969718E+03  0.12372244144E+03 -0.59666127389E+03  0.81199570555E+03  0.10100000352E+00 0.  1.
</event>
<event>
 5   0  0.7738497E-03  0.1080199E+04  0.7818609E-02  0.9224709E-01
       -2   -1    0    0    0  501  0.00000000000E+00  0.00000000000E+00  0.36306036399E+03  0.36306036400E+03  0.25500000920E-02 0. -1.
        2   -1    0    0  501    0  0.00000000000E+00  0.00000000000E+00 -0.80346776710E+03  0.80346776710E+03  0.25500000920E-02 0.  1.
    10030    2    1    2    0    0  0.00000000000E+00  0.00000000000E+00 -0.44040740311E+03  0.11665281311E+04  0.10801986854E+04 0.  0.
        4    1    3    3  502    0  0.38485971753E+03 -0.20235638236E+03 -0.56618380125E+03  0.71388431651E+03  0.12699999809E+01 0.  1.
       -4    1    3    3    0  502 -0.38485971753E+03  0.20235638236E+03  0.12577639815E+03  0.45264381459E+03  0.12699999809E+01 0. -1.
</event>
<event>
 5   0  0.4504740E-03  0.1145969E+04  0.7818609E-02  0.9161511E-01
       -1   -1    0    0    0  501  0.00000000000E+00  0.00000000000E+00  0.13624144457E+03  0.13624144467E+03  0.50400001928E-02 0. -1.
        1   -1    0    0  501    0  0.00000000000E+00  0.00000000000E+00 -0.24097741201E+04  0.24097741201E+04  0.50400001928E-02 0.  1.
    10030    2    1    2    0    0  0.00000000000E+00  0.00000000000E+00 -0.22735326755E+04  0.25460155648E+04  0.11459687733E+04 0.  0.
        5    1    3    3  502    0  0.36149947859E+03 -0.26006986241E+03 -0.19377269965E+04  0.19882470192E+04  0.46999998093E+01 0.  1.
       -5    1    3    3    0  502 -0.36149947859E+03  0.26006986241E+03 -0.33580567897E+03  0.55776854553E+03  0.46999998093E+01 0. -1.
</event>
<event>
 5   0  0.7537480E-03  0.1090358E+04  0.7818609E-02  0.9214641E-01
       -2   -1    0    0    0  501  0.00000000000E+00  0.00000000000E+00  0.31120871626E+03  0.31120871627E+03  0.25500000920E-02 0.  1.
        2   -1    0    0  501    0  0.00000000000E+00  0.00000000000E+00 -0.95505078157E+03  0.95505078158E+03  0.25500000920E-02 0. -1.
    10030    2    1    2    0    0  0.00000000000E+00  0.00000000000E+00 -0.64384206531E+03  0.12662594978E+04  0.10903579737E+04 0.  0.
        1    1    3    3  502    0  0.49713127856E+03 -0.93225850051E+02 -0.85656234747E+02  0.51299859436E+03  0.50400001928E-02 0.  1.
       -1    1    3    3    0  502 -0.49713127856E+03  0.93225850051E+02 -0.55818583057E+03  0.75326090348E+03  0.50400001928E-02 0. -1.
</event>
<event>
 5   0  0.7766551E-03  0.1089021E+04  0.7818609E-02  0.9215959E-01
       -2   -1    0    0    0  501  0.00000000000E+00  0.00000000000E+00  0.45362335486E+03  0.45362335487E+03  0.25500000920E-02 0. -1.
        2   -1    0    0  501    0  0.00000000000E+00  0.00000000000E+00 -0.65360806175E+03  0.65360806175E+03  0.25500000920E-02 0.  1.
    10030    2    1    2    0    0  0.00000000000E+00  0.00000000000E+00 -0.19998470688E+03  0.11072314166E+04  0.10890213620E+04 0.  0.
        5    1    3    3  502    0 -0.13859805856E+03 -0.18225181647E+03  0.40227695679E+03  0.46289738216E+03  0.46999998093E+01 0. -1.
       -5    1    3    3    0  502  0.13859805856E+03  0.18225181647E+03 -0.60226166367E+03  0.64433403447E+03  0.46999998093E+01 0.  1.
</event>
<event>
 5   0  0.4428114E-03  0.1137089E+04  0.7818609E-02  0.9169778E-01
       -1   -1    0    0    0  501  0.00000000000E+00  0.00000000000E+00  0.45412649761E+03  0.45412649764E+03  0.50400001928E-02 0.  1.
        1   -1    0    0  501    0  0.00000000000E+00  0.00000000000E+00 -0.71178971017E+03  0.71178971019E+03  0.50400001928E-02 0. -1.
    10030    2    1    2    0    0  0.00000000000E+00  0.00000000000E+00 -0.25766321256E+03  0.11659162078E+04  0.11370885069E+04 0.  0.
        4    1    3    3  502    0  0.18289977606E+03 -0.53806239387E+03 -0.14591187710E+03  0.58673278122E+03  0.12699999809E+01 0.  1.
       -4    1    3    3    0  502 -0.18289977606E+03  0.53806239387E+03 -0.11175133546E+03  0.57918342661E+03  0.12699999809E+01 0. -1.
</event>
<event>
 5   0  0.4598561E-03  0.1124115E+04  0.7818609E-02  0.9182001E-01
        1   -1    0    0  501    0  0.00000000000E+00  0.00000000000E+00  0.52386014037E+03  0.52386014040E+03  0.50400001928E-02 0. -1.
       -1   -1    0    0    0  501  0.00000000000E+00  0.00000000000E+00 -0.60304046393E+03  0.60304046395E+03  0.50400001928E-02 0.  1.
    10030    2    1    2    0    0  0.00000000000E+00  0.00000000000E+00 -0.79180323560E+02  0.11269006044E+04  0.11241154071E+04 0.  0.
        2    1    3    3  502    0 -0.27321554729E+03 -0.24878093907E+03 -0.46416066920E+03  0.59328224123E+03  0.25500000920E-02 0.  1.
       -2    1    3    3    0  502  0.27321554729E+03  0.24878093907E+03  0.38498034564E+03  0.53361836312E+03  0.25500000920E-02 0. -1.
</event>
<event>
 5   0  0.4598561E-03  0.1122531E+04  0.7818609E-02  0.9183506E-01
        1   -1    0    0  501    0  0.00000000000E+00  0.00000000000E+00  0.66578898389E+03  0.66578898391E+03  0.50400001928E-02 0. -1.
       -1   -1    0    0    0  501  0.00000000000E+00  0.00000000000E+00 -0.47315136708E+03  0.47315136711E+03  0.50400001928E-02 0.  1.
    10030    2    1    2    0    0  0.00000000000E+00  0.00000000000E+00  0.19263761681E+03  0.11389403510E+04  0.11225310115E+04 0.  0.
        2    1    3    3  502    0  0.24662498223E+03 -0.44974530464E+03  0.32751875823E+03  0.60857477594E+03  0.25500000920E-02 0. -1.
       -2    1    3    3    0  502 -0.24662498223E+03  0.44974530464E+03 -0.13488114143E+03  0.53036557508E+03  0.25500000920E-02 0.  1.
</event>
<event>
 5   0  0.4298101E-03  0.1094501E+04  0.7818609E-02  0.9210568E-01
       -1   -1    0    0    0  501  0.00000000000E+00  0.00000000000E+00  0.32751267612E+03  0.32751267616E+03  0.50400001928E-02 0.  1.
        1   -1    0    0  501    0  0.00000000000E+00  0.00000000000E+00 -0.91441729204E+03  0.91441729205E+03  0.50400001928E-02 0. -1.
    10030    2    1    2    0    0  0.00000000000E+00  0.00000000000E+00 -0.58690461592E+03  0.12419299682E+04  0.10945012644E+04 0.  0.
        3    1    3    3  502    0  0.16994653701E+03  0.18998454955E+03  0.25603670484E+03  0.36129040804E+03  0.10100000352E+00 0.  1.
       -3    1    3    3    0  502 -0.16994653701E+03 -0.18998454955E+03 -0.84294132076E+03  0.88063956018E+03  0.10100000352E+00 0. -1.
</event>
<event>
 5   0  0.4598561E-03  0.9763203E+03  0.7818609E-02  0.9334904E-01
        1   -1    0    0  501    0  0.00000000000E+00  0.00000000000E+00  0.82059867373E+03  0.82059867375E+03  0.50400001928E-02 0. -1.
       -1   -1    0    0    0  501  0.00000000000E+00  0.00000000000E+00 -0.29039812134E+03  0.29039812138E+03  0.50400001928E-02 0.  1.
    10030    2    1    2    0    0  0.00000000000E+00  0.00000000000E+00  0.53020055239E+03  0.11109967951E+04  0.97632026151E+03 0.  0.
        2    1    3    3  502    0  0.21214254407E+03 -0.39546289017E+03  0.46493885361E+02  0.45117295785E+03  0.25500000920E-02 0.  1.
       -2    1    3    3    0  502 -0.21214254407E+03  0.39546289017E+03  0.48370666703E+03  0.65982383728E+03  0.25500000920E-02 0. -1.
</event>
<event>
 5   0  0.7712816E-03  0.1076520E+04  0.7818609E-02  0.9228384E-01
        2   -1    0    0  501    0  0.00000000000E+00  0.00000000000E+00  0.50881929171E+03  0.50881929172E+03  0.25500000920E-02 0.  1.
       -2   -1    0    0    0  501  0.00000000000E+00  0.00000000000E+00 -0.56940384289E+03  0.56940384290E+03  0.25500000920E-02 0. -1.
    10030    2    1    2    0    0  0.00000000000E+00  0.00000000000E+00 -0.60584551183E+02  0.10782231346E+04  0.10765196887E+04 0.  0.
        2    1    3    3  502    0 -0.99419232235E+02 -0.49548980438E+03 -0.21586721734E+03  0.54953888443E+03  0.25500000920E-02 0. -1.
       -2    1    3    3    0  502  0.99419232235E+02  0.49548980438E+03  0.15528266616E+03  0.52868425018E+03  0.25500000920E-02 0.  1.
</event>
<event>
 5   0  0.7712816E-03  0.1097658E+04  0.7818609E-02  0.9207477E-01
       -2   -1    0    0    0  501  0.00000000000E+00  0.00000000000E+00  0.17472924331E+03  0.17472924333E+03  0.25500000920E-02 0.  1.
        2   -1    0    0  501    0  0.00000000000E+00  0.00000000000E+00 -0.17238863648E+04  0.17238863648E+04  0.25500000920E-02 0. -1.
    10030    2    1    2    0    0  0.00000000000E+00  0.00000000000E+00 -0.15491571215E+04  0.18986156081E+04  0.10976581619E+04 0.  0.
        2    1    3    3  502    0 -0.42755061306E+03  0.24606526492E+03 -0.35849494794E+03  0.60980838715E+03  0.25500000920E-02 0. -1.
       -2    1    3    3    0  502  0.42755061306E+03 -0.24606526492E+03 -0.11906621735E+04  0.12888072210E+04  0.25500000920E-02 0.  1.
</event>
<event>
 5   0  0.7952121E-03  0.1079932E+04  0.7818609E-02  0.9224975E-01
       -2   -1    0    0    0  501  0.00000000000E+00  0.00000000000E+00  0.24063565123E+03  0.24063565125E+03  0.25500000920E-02 0.  1.
        2   -1    0    0  501    0  0.00000000000E+00  0.00000000000E+00 -0.12116382802E+04  0.12116382802E+04  0.25500000920E-02 0. -1.
    10030    2    1    2    0    0  0.00000000000E+00  0.00000000000E+00 -0.97100262893E+03  0.14522739314E+04  0.10799321583E+04 0.  0.
        3    1    3    3  502    0  0.23332316215E+03 -0.29727651733E+03  0.33156633982E+02  0.37935787633E+03  0.10100000352E+00 0.  1.
       -3    1    3    3    0  502 -0.23332316215E+03  0.29727651733E+03 -0.10041592629E+04  0.10729160551E+04  0.10100000352E+00 0. -1.
</event>
<event>
 5   0  0.2992375E-03  0.1096678E+04  0.7818609E-02  0.9208436E-01
       -3   -1    0    0    0  501  0.00000000000E+00  0.00000000000E+00  0.10312128334E+04  0.10312128384E+04  0.10100000352E+00 0. -1.
        3   -1    0    0  501    0  0.00000000000E+00  0.00000000000E+00 -0.29157465296E+03  0.29157467046E+03  0.10100000352E+00 0.  1.
    10030    2    1    2    0    0  0.00000000000E+00  0.00000000000E+00  0.73963818045E+03  0.13227875088E+04  0.10966777811E+04 0.  0.
        5    1    3    3  502    0  0.45434131628E+03 -0.28093001814E+03  0.22059524173E+03  0.57795506524E+03  0.46999998093E+01 0.  1.
       -5    1    3    3    0  502 -0.45434131628E+03  0.28093001814E+03  0.51904293872E+03  0.74483244357E+03  0.46999998093E+01 0. -1.
</event>
<event>
 5   0  0.4641021E-03  0.1091176E+04  0.7818609E-02  0.9213835E-01
       -1   -1    0    0    0  501  0.00000000000E+00  0.00000000000E+00  0.94468764097E+03  0.94468764099E+03  0.50400001928E-02 0.  1.
        1   -1    0    0  501    0  0.00000000000E+00  0.00000000000E+00 -0.31509479190E+03  0.31509479194E+03  0.50400001928E-02 0. -1.
    10030    2    1    2    0    0  0.00000000000E+00  0.00000000000E+00  0.62959284907E+03  0.12597824329E+04  0.10911757983E+04 0.  0.
        1    1    3    3  502    0 -0.48825009531E+02  0.44289692850E+03  0.67828562628E+03  0.81154972840E+03  0.50400001928E-02 0.  1.
       -1    1    3    3    0  502  0.48825009531E+02 -0.44289692850E+03 -0.48692777209E+02  0.44823270453E+03  0.50400001928E-02 0. -1.
</event>
<event>
 5   0  0.4598561E-03  0.8410625E+03  0.7818609E-02  0.9502412E-01
        1   -1    0    0  501    0  0.00000000000E+00  0.00000000000E+00  0.21866692871E+03  0.21866692877E+03  0.50400001928E-02 0.  1.
       -1   -1    0    0    0  501  0.00000000000E+00  0.00000000000E+00 -0.80874839676E+03  0.80874839677E+03  0.50400001928E-02 0. -1.
    10030    2    1    2    0    0  0.00000000000E+00  0.00000000000E+00 -0.59008146804E+03  0.10274153255E+04  0.84106249009E+03 0.  0.
        2    1    3    3  502    0 -0.15937950005E+03 -0.31520784469E+03 -0.57383870450E+03  0.67383133586E+03  0.25500000920E-02 0. -1.
       -2    1    3    3    0  502  0.15937950005E+03  0.31520784469E+03 -0.16242763539E+02  0.35358398969E+03  0.25500000920E-02 0.  1.
</event>
<event>
 5   0  0.4598561E-03  0.1117009E+04  0.7818609E-02  0.9188770E-01
       -1   -1    0    0    0  501  0.00000000000E+00  0.00000000000E+00  0.69418561591E+03  0.69418561593E+03  0.50400001928E-02 0. -1.
        1   -1    0    0  501    0  0.00000000000E+00  0.00000000000E+00 -0.44934291455E+03  0.44934291458E+03  0.50400001928E-02 0.  1.
    10030    2    1    2    0    0  0.00000000000E+00  0.00000000000E+00  0.24484270136E+03  0.11435285305E+04  0.11170091995E+04 0.  0.
        2    1    3    3  502    0  0.30193256513E+03  0.38096572577E+03 -0.15911539970E+03  0.51148398658E+03  0.25500000920E-02 0.  1.
       -2    1    3    3    0  502 -0.30193256513E+03 -0.38096572577E+03  0.40395810105E+03  0.63204454393E+03  0.25500000920E-02 0. -1.
</event>
<event>
 5   0  0.7952121E-03  0.6990562E+03  0.7818609E-02  0.9718848E-01
       -2   -1    0    0    0  501  0.00000000000E+00  0.00000000000E+00  0.19171822355E+03  0.19171822356E+03  0.25500000920E-02 0.  1.
        2   -1    0    0  501    0  0.00000000000E+00  0.00000000000E+00 -0.63723670858E+03  0.63723670858E+03  0.25500000920E-02 0. -1.
    10030    2    1    2    0    0  0.00000000000E+00  0.00000000000E+00 -0.44551848503E+03  0.82895493215E+03  0.69905619161E+03 0.  0.
        3    1    3    3  502    0 -0.46605243891E+02 -0.55793445894E+01  0.18796391742E+03  0.19373596025E+03  0.10100000352E+00 0.  1.
       -3    1    3    3    0  502  0.46605243891E+02  0.55793445894E+01 -0.63348240245E+03  0.63521897189E+03  0.10100000352E+00 0. -1.
</event>
<event>
 5   0  0.7712816E-03  0.1073956E+04  0.7818609E-02  0.9230955E-01
        2   -1    0    0  501    0  0.00000000000E+00  0.00000000000E+00  0.33027136442E+03  0.33027136443E+03  0.25500000920E-02 0. -1.
       -2   -1    0    0    0  501  0.00000000000E+00  0.00000000000E+00 -0.87305562092E+03  0.87305562092E+03  0.25500000920E-02 0.  1.
    10030    2    1    2    0    0  0.00000000000E+00  0.00000000000E+00 -0.54278425650E+03  0.12033269854E+04  0.10739558113E+04 0.  0.
        2    1    3    3  502    0 -0.49453512822E+03  0.15341769372E+03 -0.43081028563E+03  0.67357218173E+03  0.25500000920E-02 0. -1.
       -2    1    3    3    0  502  0.49453512822E+03 -0.15341769372E+03 -0.11197397087E+03  0.52975480362E+03  0.25500000920E-02 0.  1.
</event>
<event>
 5   0  0.7712816E-03  0.1087983E+04  0.7818609E-02  0.9216984E-01
       -2   -1    0    0    0  501  0.00000000000E+00  0.00000000000E+00  0.31362975640E+03  0.31362975641E+03  0.25500000920E-02 0.  1.
        2   -1    0    0  501    0  0.00000000000E+00  0.00000000000E+00 -0.94355460632E+03  0.94355460633E+03  0.25500000920E-02 0. -1.
    10030    2    1    2    0    0  0.00000000000E+00  0.00000000000E+00 -0.62992484992E+03  0.12571843627E+04  0.10879830906E+04 0.  0.
        2    1    3    3  502    0 -0.23888320419E+03 -0.48843450576E+03 -0.29517133893E+03  0.61867565897E+03  0.25500000920E-02 0.  1.
       -2    1    3    3    0  502  0.23888320419E+03  0.48843450576E+03 -0.33475351099E+03  0.63850870377E+03  0.25500000920E-02 0. -1.
</event>
<event>
 5   0  0.4428114E-03  0.1101066E+04  0.7818609E-02  0.9204153E-01
        1   -1    0    0  501    0  0.00000000000E+00  0.00000000000E+00  0.86523212361E+03  0.86523212362E+03  0.50400001928E-02 0.  1.
       -1   -1    0    0    0  501  0.00000000000E+00  0.00000000000E+00 -0.35029533878E+03  0.35029533882E+03  0.50400001928E-02 0. -1.
    10030    2    1    2    0    0  0.00000000000E+00  0.00000000000E+00  0.51493678482E+03  0.12155274624E+04  0.11010663557E+04 0.  0.
        4    1    3    3  502    0  0.29414859910E+03  0.29068530108E+03 -0.14371525054E+03  0.43780935207E+03  0.12699999809E+01 0. -1.
       -4    1    3    3    0  502 -0.29414859910E+03 -0.29068530108E+03  0.65865203536E+03  0.77771811038E+03  0.12699999809E+01 0.  1.
</event>
<event>
 5   0  0.4504740E-03  0.1101969E+04  0.7818609E-02  0.9203275E-01
        1   -1    0    0  501    0  0.00000000000E+00  0.00000000000E+00  0.67026282564E+03  0.67026282566E+03  0.50400001928E-02 0. -1.
       -1   -1    0    0    0  501  0.00000000000E+00  0.00000000000E+00 -0.45293282734E+03  0.45293282737E+03  0.50400001928E-02 0.  1.
    10030    2    1    2    0    0  0.00000000000E+00  0.00000000000E+00  0.21732999830E+03  0.11231956530E+04  0.11019692132E+04 0.  0.
        5    1    3    3  502    0 -0.19774748919E+03 -0.31526475029E+03 -0.30544411143E+03  0.48147079606E+03  0.46999998093E+01 0.  1.
       -5    1    3    3    0  502  0.19774748919E+03  0.31526475029E+03  0.52277410973E+03  0.64172485697E+03  0.46999998093E+01 0. -1.
</event>
<event>
 5   0  0.7537480E-03  0.1075439E+04  0.7818609E-02  0.9229467E-01
       -2   -1    0    0    0  501  0.00000000000E+00  0.00000000000E+00  0.18054164346E+03  0.18054164348E+03  0.25500000920E-02 0. -1.
        2   -1    0    0  501    0  0.00000000000E+00  0.00000000000E+00 -0.16015277550E+04  0.16015277550E+04  0.25500000920E-02 0.  1.
    10030    2    1    2    0    0  0.00000000000E+00  0.00000000000E+00 -0.14209861115E+04  0.17820693985E+04  0.10754393576E+04 0.  0.
        1    1    3    3  502    0 -0.36740757946E+03 -0.15875774080E+03 -0.13055376765E+04  0.13655112502E+04  0.50400001928E-02 0.  1.
       -1    1    3    3    0  502  0.36740757946E+03  0.15875774080E+03 -0.11544843507E+03  0.41655814828E+03  0.50400001928E-02 0. -1.
</event>
<event>
 5   0  0.7952121E-03  0.1085385E+04  0.7818609E-02  0.9219555E-01
        2   -1    0    0  501    0  0.00000000000E+00  0.00000000000E+00  0.20165674849E+04  0.20165674849E+04  0.25500000920E-02 0. -1.
       -2   -1    0    0    0  501  0.00000000000E+00  0.00000000000E+00 -0.14604779925E+03  0.14604779927E+03  0.25500000920E-02 0.  1.
    10030    2    1    2    0    0  0.00000000000E+00  0.00000000000E+00  0.18705196857E+04  0.21626152842E+04  0.10853851726E+04 0.  0.
        3    1    3    3  502    0 -0.27515140684E+02  0.32412317317E+03  0.18007935824E+04  0.18299372807E+04  0.10100000352E+00 0. -1.
       -3    1    3    3    0  502  0.27515140684E+02 -0.32412317317E+03  0.69726103209E+02  0.33267800352E+03  0.10100000352E+00 0.  1.
</event>
<event>
 5   0  0.2992375E-03  0.1081458E+04  0.7818609E-02  0.9223455E-01
        4   -1    0    0  501    0  0.00000000000E+00  0.00000000000E+00  0.15197621907E+04  0.15197627214E+04  0.12699999809E+01 0. -1.
       -4   -1    0    0    0  501  0.00000000000E+00  0.00000000000E+00 -0.19238783441E+03  0.19239202616E+03  0.12699999809E+01 0.  1.
    10030    2    1    2    0    0  0.00000000000E+00  0.00000000000E+00  0.13273743563E+04  0.17121547475E+04  0.10814579038E+04 0.  0.
        3    1    3    3  502    0 -0.16290395751E+03 -0.35180770644E+03  0.66923954401E+02  0.39342748703E+03  0.10100000352E+00 0.  1.
       -3    1    3    3    0  502  0.16290395751E+03  0.35180770644E+03  0.12604504019E+04  0.13187272605E+04  0.10100000352E+00 0. -1.
</event>
<event>
 5   0  0.7952121E-03  0.1067370E+04  0.7818609E-02  0.9237592E-01
       -2   -1    0    0    0  501  0.00000000000E+00  0.00000000000E+00  0.54850929602E+03  0.54850929603E+03  0.25500000920E-02 0.  1.
        2   -1    0    0  501    0  0.00000000000E+00  0.00000000000E+00 -0.51926127322E+03  0.51926127323E+03  0.25500000920E-02 0. -1.
    10030    2    1    2    0    0  0.00000000000E+00  0.00000000000E+00  0.29248022802E+02  0.10677705693E+04  0.10673699179E+04 0.  0.
        3    1    3    3  502    0 -0.35402685000E+03 -0.99112151380E+01  0.41400610980E+03  0.54482502867E+03  0.10100000352E+00 0.  1.
       -3    1    3    3    0  502  0.35402685000E+03  0.99112151380E+01 -0.38475808700E+03  0.52294554059E+03  0.10100000352E+00 0. -1.
</event>
<event>
 5   0  0.7712816E-03  0.1072301E+04  0.7818609E-02  0.9232618E-01
       -2   -1    0    0    0  501  0.00000000000E+00  0.00000000000E+00  0.21538696125E+03  0.21538696126E+03  0.25500000920E-02 0.  1.
        2   -1    0    0  501    0  0.00000000000E+00  0.00000000000E+00 -0.13346094192E+04  0.13346094192E+04  0.25500000920E-02 0. -1.
    10030    2    1    2    0    0  0.00000000000E+00  0.00000000000E+00 -0.11192224579E+04  0.15499963805E+04  0.10723012026E+04 0.  0.
        2    1    3    3  502    0 -0.24993199550E+02 -0.30417894176E+03  0.77564475653E+02  0.31490591694E+03  0.25500000920E-02 0.  1.
       -2    1    3    3    0  502  0.24993199550E+02  0.30417894176E+03 -0.11967869336E+04  0.12350904635E+04  0.25500000920E-02 0. -1.
</event>
<event>
 5   0  0.7766551E-03  0.1099252E+04  0.7818609E-02  0.9205922E-01
        2   -1    0    0  501    0  0.00000000000E+00  0.00000000000E+00  0.14540309929E+04  0.14540309929E+04  0.25500000920E-02 0.  1.
       -2   -1    0    0    0  501  0.00000000000E+00  0.00000000000E+00 -0.20775937944E+03  0.20775937945E+03  0.25500000920E-02 0. -1.
    10030    2    1    2    0    0  0.00000000000E+00  0.00000000000E+00  0.12462716135E+04  0.16617903723E+04  0.10992517033E+04 0.  0.
        5    1    3    3  502    0 -0.48820120552E+03  0.26096383397E+02  0.24355470427E+03  0.54622561481E+03  0.46999998093E+01 0. -1.
       -5    1    3    3    0  502  0.48820120552E+03 -0.26096383397E+02  0.10027169092E+04  0.11155647575E+04  0.46999998093E+01 0.  1.
</event>
<event>
 5   0  0.4298101E-03  0.1093352E+04  0.7818609E-02  0.9211696E-01
       -1   -1    0    0    0  501  0.00000000000E+00  0.00000000000E+00  0.30099246998E+03  0.30099247002E+03  0.50400001928E-02 0. -1.
        1   -1    0    0  501    0  0.00000000000E+00  0.00000000000E+00 -0.99289697760E+03  0.99289697761E+03  0.50400001928E-02 0.  1.
    10030    2    1    2    0    0  0.00000000000E+00  0.00000000000E+00 -0.69190450762E+03  0.12938894476E+04  0.10933517527E+04 0.  0.
        3    1    3    3  502    0  0.20181897439E+03  0.36877040440E+03 -0.75952507393E+03  0.86810187058E+03  0.10100000352E+00 0.  1.
       -3    1    3    3    0  502 -0.20181897439E+03 -0.36877040440E+03  0.67620566302E+02  0.42578757705E+03  0.10100000352E+00 0. -1.
</event>
<event>
 5   0  0.4504740E-03  0.1092723E+04  0.7818609E-02  0.9212314E-01
       -1   -1    0    0    0  501  0.00000000000E+00  0.00000000000E+00  0.72784966966E+03  0.72784966968E+03  0.50400001928E-02 0. -1.
        1   -1    0    0  501    0  0.00000000000E+00  0.00000000000E+00 -0.41012690773E+03  0.41012690776E+03  0.50400001928E-02 0.  1.
    10030    2    1    2    0    0  0.00000000000E+00  0.00000000000E+00  0.31772276193E+03  0.11379765774E+04  0.10927227175E+04 0.  0.
        5    1    3    3  502    0 -0.29034553287E+03  0.18771775071E+03  0.59940549083E+03  0.69198808864E+03  0.46999998093E+01 0. -1.
       -5    1    3    3    0  502  0.29034553287E+03 -0.18771775071E+03 -0.28168272889E+03  0.44598848880E+03  0.46999998093E+01 0.  1.
</event>
<event>
 5   0  0.7537480E-03  0.1171651E+04  0.7818609E-02  0.9138039E-01
        2   -1    0    0  501    0  0.00000000000E+00  0.00000000000E+00  0.23373950048E+04  0.23373950048E+04  0.25500000920E-02 0. -1.
       -2   -1    0    0    0  501  0.00000000000E+00  0.00000000000E+00 -0.14682640882E+03  0.14682640884E+03  0.25500000920E-02 0.  1.
    10030    2    1    2    0    0  0.00000000000E+00  0.00000000000E+00  0.21905685960E+04  0.24842214136E+04  0.11716506554E+04 0.  0.
        1    1    3    3  502    0  0.32308313121E+03 -0.35409124109E+03  0.38119537816E+03  0.61243222731E+03  0.50400001928E-02 0.  1.
       -1    1    3    3    0  502 -0.32308313121E+03  0.35409124109E+03  0.18093732178E+04  0.18717891863E+04  0.50400001928E-02 0. -1.
</event>
<event>
 5   0  0.4598561E-03  0.1103912E+04  0.7818609E-02  0.9201387E-01
       -1   -1    0    0    0  501  0.00000000000E+00  0.00000000000E+00  0.31733757851E+03  0.31733757855E+03  0.50400001928E-02 0. -1.
        1   -1    0    0  501    0  0.00000000000E+00  0.00000000000E+00 -0.96003602276E+03  0.96003602277E+03  0.50400001928E-02 0.  1.
    10030    2    1    2    0    0  0.00000000000E+00  0.00000000000E+00 -0.64269844425E+03  0.12773736013E+04  0.11039121465E+04 0.  0.
        2    1    3    3  502    0  0.45127007234E+03  0.31717696940E+03 -0.29793052735E+03  0.62690390591E+03  0.25500000920E-02 0.  1.
       -2    1    3    3    0  502 -0.45127007234E+03 -0.31717696940E+03 -0.34476791690E+03  0.65046969541E+03  0.25500000920E-02 0. -1.
</event>
<event>
 5   0  0.7712816E-03  0.1080159E+04  0.7818609E-02  0.9224749E-01
       -2   -1    0    0    0  501  0.00000000000E+00  0.00000000000E+00  0.42823847053E+03  0.42823847054E+03  0.25500000920E-02 0. -1.
        2   -1    0    0  501    0  0.00000000000E+00  0.00000000000E+00 -0.68112931492E+03  0.68112931493E+03  0.25500000920E-02 0.  1.
    10030    2    1    2    0    0  0.00000000000E+00  0.00000000000E+00 -0.25289084439E+03  0.11093677855E+04  0.10801588329E+04 0.  0.
        2    1    3    3  502    0  0.20678399705E+03 -0.46009003694E+02 -0.63667862011E+03  0.67099636002E+03  0.25500000920E-02 0.  1.
       -2    1    3    3    0  502 -0.20678399705E+03  0.46009003694E+02  0.38378777571E+03  0.43837142545E+03  0.25500000920E-02 0. -1.
</event>
<event>
 5   0  0.4641021E-03  0.1112627E+04  0.7818609E-02  0.9192971E-01
       -1   -1    0    0    0  501  0.00000000000E+00  0.00000000000E+00  0.10642150326E+04  0.10642150326E+04  0.50400001928E-02 0. -1.
        1   -1    0    0  501    0  0.00000000000E+00  0.00000000000E+00 -0.29081042091E+03  0.29081042095E+03  0.50400001928E-02 0.  1.
    10030    2    1    2    0    0  0.00000000000E+00  0.00000000000E+00  0.77340461166E+03  0.13550254535E+04  0.11126272001E+04 0.  0.
        1    1    3    3  502    0  0.19235594440E+03  0.26935514063E+03  0.93125353250E+03  0.98832491770E+03  0.50400001928E-02 0. -1.
       -1    1    3    3    0  502 -0.19235594440E+03 -0.26935514063E+03 -0.15784892085E+03  0.36670053582E+03  0.50400001928E-02 0.  1.
</event>
<event>
 5   0  0.7738497E-03  0.1123947E+04  0.7818609E-02  0.9182161E-01
        2   -1    0    0  501    0  0.00000000000E+00  0.00000000000E+00  0.12025085057E+04  0.12025085057E+04  0.25500000920E-02 0. -1.
       -2   -1    0    0    0  501  0.00000000000E+00  0.00000000000E+00 -0.26262933132E+03  0.26262933134E+03  0.25500000920E-02 0.  1.
    10030    2    1    2    0    0  0.00000000000E+00  0.00000000000E+00  0.93987917442E+03  0.14651378371E+04  0.11239466265E+04 0.  0.
        4    1    3    3  502    0 -0.30026308926E+03 -0.46454052123E+03  0.59935791170E+03  0.81559017763E+03  0.12699999809E+01 0.  1.
       -4    1    3    3    0  502  0.30026308926E+03  0.46454052123E+03  0.34052126273E+03  0.64954765945E+03  0.12699999809E+01 0. -1.
</event>
<event>
 5   0  0.4428114E-03  0.1099490E+04  0.7818609E-02  0.9205689E-01
        1   -1    0    0  501    0  0.00000000000E+00  0.00000000000E+00  0.80609581199E+03  0.80609581200E+03  0.50400001928E-02 0.  1.
       -1   -1    0    0    0  501  0.00000000000E+00  0.00000000000E+00 -0.37491788382E+03  0.37491788386E+03  0.50400001928E-02 0. -1.
    10030    2    1    2    0    0  0.00000000000E+00  0.00000000000E+00  0.43117792816E+03  0.11810136959E+04  0.10994903110E+04 0.  0.
        4    1    3    3  502    0 -0.38363009007E+03  0.34457778183E+03  0.10902094546E+02  0.51577743485E+03  0.12699999809E+01 0. -1.
       -4    1    3    3    0  502  0.38363009007E+03 -0.34457778183E+03  0.42027583362E+03  0.66523626101E+03  0.12699999809E+01 0.  1.
</event>
<event>
 5   0  0.7766551E-03  0.1055545E+04  0.7818609E-02  0.9249638E-01
       -2   -1    0    0    0  501  0.00000000000E+00  0.00000000000E+00  0.17787989771E+03  0.17787989773E+03  0.25500000920E-02 0. -1.
        2   -1    0    0  501    0  0.00000000000E+00  0.00000000000E+00 -0.15659084793E+04  0.15659084793E+04  0.25500000920E-02 0.  1.
    10030    2    1    2    0    0  0.00000000000E+00  0.00000000000E+00 -0.13880285816E+04  0.17437883770E+04  0.10555446748E+04 0.  0.
        5    1    3    3  502    0 -0.19283916419E+02 -0.52520608307E+03 -0.77338471037E+03  0.93507181508E+03  0.46999998093E+01 0. -1.
       -5    1    3    3    0  502  0.19283916419E+02  0.52520608307E+03 -0.61464387119E+03  0.80871656191E+03  0.46999998093E+01 0.  1.
</event>
<event>
 5   0  0.4598561E-03  0.1253541E+04  0.7818609E-02  0.9067241E-01
        1   -1    0    0  501    0  0.00000000000E+00  0.00000000000E+00  0.39786463351E+03  0.39786463354E+03  0.50400001928E-02 0. -1.
       -1   -1    0    0    0  501  0.00000000000E+00  0.00000000000E+00 -0.98737369192E+03  0.98737369193E+03  0.50400001928E-02 0.  1.
    10030    2    1    2    0    0  0.00000000000E+00  0.00000000000E+00 -0.58950905841E+03  0.13852383255E+04  0.12535407007E+04 0.  0.
        2    1    3    3  502    0  0.36568702513E+03 -0.21016637124E+03  0.21757441526E+03  0.47458985464E+03  0.25500000920E-02 0. -1.
       -2    1    3    3    0  502 -0.36568702513E+03  0.21016637124E+03 -0.80708347366E+03  0.91064847083E+03  0.25500000920E-02 0.  1.
</event>
<event>
 5   0  0.4298101E-03  0.1074237E+04  0.7818609E-02  0.9230673E-01
        1   -1    0    0  501    0  0.00000000000E+00  0.00000000000E+00  0.39317403902E+03  0.39317403906E+03  0.50400001928E-02 0. -1.
       -1   -1    0    0    0  501  0.00000000000E+00  0.00000000000E+00 -0.73376205543E+03  0.73376205545E+03  0.50400001928E-02 0.  1.
    10030    2    1    2    0    0  0.00000000000E+00  0.00000000000E+00 -0.34058801641E+03  0.11269360945E+04  0.10742368287E+04 0.  0.
        3    1    3    3  502    0  0.10681977702E+03 -0.18293786671E+03  0.34749786931E+03  0.40697850953E+03  0.10100000352E+00 0. -1.
       -3    1    3    3    0  502 -0.10681977702E+03  0.18293786671E+03 -0.68808588572E+03  0.71995758498E+03  0.10100000352E+00 0.  1.
</event>
<event>
 5   0  0.7537480E-03  0.8530431E+03  0.7818609E-02  0.9486262E-01
        2   -1    0    0  501    0  0.00000000000E+00  0.00000000000E+00  0.24237254742E+04  0.24237254742E+04  0.25500000920E-02 0. -1.
       -2   -1    0    0    0  501  0.00000000000E+00  0.00000000000E+00 -0.75058260035E+02  0.75058260078E+02  0.25500000920E-02 0.  1.
    10030    2    1    2    0    0  0.00000000000E+00  0.00000000000E+00  0.23486672142E+04  0.24987837343E+04  0.85304306328E+03 0.  0.
        1    1    3    3  502    0  0.17745924853E+03  0.75203812961E+02  0.59777773489E+02  0.20179390626E+03  0.50400001928E-02 0. -1.
       -1    1    3    3    0  502 -0.17745924853E+03 -0.75203812961E+02  0.22888894407E+04  0.22969898280E+04  0.50400001928E-02 0.  1.
</event>
<event>
 5   0  0.4298101E-03  0.1066511E+04  0.7818609E-02  0.9238462E-01
        1   -1    0    0  501    0  0.00000000000E+00  0.00000000000E+00  0.10498768309E+04  0.10498768310E+04  0.50400001928E-02 0. -1.
       -1   -1    0    0    0  501  0.00000000000E+00  0.00000000000E+00 -0.27085214534E+03  0.27085214539E+03  0.50400001928E-02 0.  1.
    10030    2    1    2    0    0  0.00000000000E+00  0.00000000000E+00  0.77902468561E+03  0.13207289763E+04  0.10665109320E+04 0.  0.
        3    1    3    3  502    0  0.28969739237E+03  0.42573557542E+03  0.56104265170E+03  0.76154069264E+03  0.10100000352E+00 0.  1.
       -3    1    3    3    0  502 -0.28969739237E+03 -0.42573557542E+03  0.21798203391E+03  0.55918828370E+03  0.10100000352E+00 0. -1.
</event>
<event>
 5   0  0.7537480E-03  0.9935964E+03  0.7818609E-02  0.9315596E-01
        2   -1    0    0  501    0  0.00000000000E+00  0.00000000000E+00  0.39344086302E+03  0.39344086303E+03  0.25500000920E-02 0. -1.
       -2   -1    0    0    0  501  0.00000000000E+00  0.00000000000E+00 -0.62730756963E+03  0.62730756964E+03  0.25500000920E-02 0.  1.
    10030    2    1    2    0    0  0.00000000000E+00  0.00000000000E+00 -0.23386670661E+03  0.10207484327E+04  0.99359635986E+03 0.  0.
        1    1    3    3  502    0  0.44211410991E+02  0.56690251519E+02 -0.62193540412E+03  0.62607673683E+03  0.50400001928E-02 0.  1.
       -1    1    3    3    0  502 -0.44211410991E+02 -0.56690251519E+02  0.38806869751E+03  0.39467169583E+03  0.50400001928E-02 0. -1.
</event>
<event>
 5   0  0.4298101E-03  0.1122436E+04  0.7818609E-02  0.9183596E-01
       -1   -1    0    0    0  501  0.00000000000E+00  0.00000000000E+00  0.19519249167E+03  0.19519249174E+03  0.50400001928E-02 0. -1.
        1   -1    0    0  501    0  0.00000000000E+00  0.00000000000E+00 -0.16136162451E+04  0.16136162451E+04  0.50400001928E-02 0.  1.
    10030    2    1    2    0    0  0.00000000000E+00  0.00000000000E+00 -0.14184237534E+04  0.18088087368E+04  0.11224362352E+04 0.  0.
        3    1    3    3  502    0  0.24641335013E+03  0.43661623241E+03 -0.30276651424E+03  0.58567981515E+03  0.10100000352E+00 0. -1.
       -3    1    3    3    0  502 -0.24641335013E+03 -0.43661623241E+03 -0.11156572391E+04  0.12231289217E+04  0.10100000352E+00 0.  1.
</event>
<event>
 5   0  0.4504740E-03  0.1083871E+04  0.7818609E-02  0.9221056E-01
        1   -1    0    0  501    0  0.00000000000E+00  0.00000000000E+00  0.57763236579E+03  0.57763236581E+03  0.50400001928E-02 0.  1.
       -1   -1    0    0    0  501  0.00000000000E+00  0.00000000000E+00 -0.50844483110E+03  0.50844483112E+03  0.50400001928E-02 0. -1.
    10030    2    1    2    0    0  0.00000000000E+00  0.00000000000E+00  0.69187534695E+02  0.10860771969E+04  0.10838711929E+04 0.  0.
        5    1    3    3  502    0 -0.17319542418E+03 -0.29983222802E+03  0.45230679548E+03  0.56964861727E+03  0.46999998093E+01 0.  1.
       -5    1    3    3    0  502  0.17319542418E+03  0.29983222802E+03 -0.38311926079E+03  0.51642857967E+03  0.46999998093E+01 0. -1.
</event>
<event>
 5   0  0.7738497E-03  0.1089451E+04  0.7818609E-02  0.9215535E-01
        2   -1    0    0  501    0  0.00000000000E+00  0.00000000000E+00  0.37561042335E+03  0.37561042335E+03  0.25500000920E-02 0. -1.
       -2   -1    0    0    0  501  0.00000000000E+00  0.00000000000E+00 -0.78998242321E+03  0.78998242322E+03  0.25500000920E-02 0.  1.
    10030    2    1    2    0    0  0.00000000000E+00  0.00000000000E+00 -0.41437199987E+03  0.11655928466E+04  0.10894505632E+04 0.  0.
        4    1    3    3  502    0 -0.45866733418E+03 -0.17500297995E+03  0.45367667784E+02  0.49301278342E+03  0.12699999809E+01 0. -1.
       -4    1    3    3    0  502  0.45866733418E+03  0.17500297995E+03 -0.45973966765E+03  0.67258006315E+03  0.12699999809E+01 0.  1.
</event>
<event>
 5   0  0.7712816E-03  0.1057556E+04  0.7818609E-02  0.9247577E-01
        2   -1    0    0  501    0  0.00000000000E+00  0.00000000000E+00  0.84493449202E+03  0.84493449202E+03  0.25500000920E-02 0.  1.
       -2   -1    0    0    0  501  0.00000000000E+00  0.00000000000E+00 -0.33092069095E+03  0.33092069096E+03  0.25500000920E-02 0. -1.
    10030    2    1    2    0    0  0.00000000000E+00  0.00000000000E+00  0.51401380107E+03  0.11758551830E+04  0.10575562508E+04 0.  0.
        2    1    3    3  502    0  0.18454728672E+03  0.30528687584E+03 -0.17697287705E+03  0.39821749938E+03  0.25500000920E-02 0. -1.
       -2    1    3    3    0  502 -0.18454728672E+03 -0.30528687584E+03  0.69098667813E+03  0.77763768360E+03  0.25500000920E-02 0.  1.
</event>
<event>
 5   0  0.4428114E-03  0.1022033E+04  0.7818609E-02  0.9284704E-01
        1   -1    0    0  501    0  0.00000000000E+00  0.00000000000E+00  0.61250108407E+03  0.61250108409E+03  0.50400001928E-02 0. -1.
       -1   -1    0    0    0  501  0.00000000000E+00  0.00000000000E+00 -0.42634714434E+03  0.42634714437E+03  0.50400001928E-02 0.  1.
    10030    2    1    2    0    0  0.00000000000E+00  0.00000000000E+00  0.18615393973E+03  0.10388482285E+04  0.10220334400E+04 0.  0.
        4    1    3    3  502    0  0.37055072874E+03 -0.37035169341E+02 -0.26261892817E+03  0.45568603301E+03  0.12699999809E+01 0.  1.
       -4    1    3    3    0  502 -0.37055072874E+03  0.37035169341E+02  0.44877286791E+03  0.58316219546E+03  0.12699999809E+01 0. -1.
</event>
<event>
 5   0  0.2992375E-03  0.1111074E+04  0.7818609E-02  0.9194465E-01
        3   -1    0    0  501    0  0.00000000000E+00  0.00000000000E+00  0.15520503015E+04  0.15520503048E+04  0.10100000352E+00 0.  1.
       -3   -1    0    0    0  501  0.00000000000E+00  0.00000000000E+00 -0.19884757959E+03  0.19884760524E+03  0.10100000352E+00 0. -1.
    10030    2    1    2    0    0  0.00000000000E+00  0.00000000000E+00  0.13532027219E+04  0.17508979100E+04  0.11110742031E+04 0.  0.
        3    1    3    3  502    0 -0.51483446729E+02  0.28098104741E+03  0.14274464797E+04  0.14557487273E+04  0.10100000352E+00 0.  1.
       -3    1    3    3    0  502  0.51483446729E+02 -0.28098104741E+03 -0.74243757840E+02  0.29514918273E+03  0.10100000352E+00 0. -1.
</event>
<event>
 5   0  0.7766551E-03  0.9771915E+03  0.7818609E-02  0.9333921E-01
       -2   -1    0    0    0  501  0.00000000000E+00  0.00000000000E+00  0.58103136407E+03  0.58103136407E+03  0.25500000920E-02 0. -1.
        2   -1    0    0  501    0  0.00000000000E+00  0.00000000000E+00 -0.41086564044E+03  0.41086564045E+03  0.25500000920E-02 0.  1.
    10030    2    1    2    0    0  0.00000000000E+00  0.00000000000E+00  0.17016572362E+03  0.99189700452E+03  0.97719153398E+03 0.  0.
        5    1    3    3  502    0 -0.30982791107E+02  0.44400093378E+03 -0.11946134348E+03  0.46085774934E+03  0.46999998093E+01 0.  1.
       -5    1    3    3    0  502  0.30982791107E+02 -0.44400093378E+03  0.28962706710E+03  0.53103925518E+03  0.46999998093E+01 0. -1.
</event>
<event>
 5   0  0.4641021E-03  0.1092133E+04  0.7818609E-02  0.9212893E-01
       -1   -1    0    0    0  501  0.00000000000E+00  0.00000000000E+00  0.81555582284E+03  0.81555582286E+03  0.50400001928E-02 0.  1.
        1   -1    0    0  501    0  0.00000000000E+00  0.00000000000E+00 -0.36562657778E+03  0.36562657781E+03  0.50400001928E-02 0. -1.
    10030    2    1    2    0    0  0.00000000000E+00  0.00000000000E+00  0.44992924507E+03  0.11811824007E+04  0.10921334800E+04 0.  0.
        1    1    3    3  502    0  0.28726325672E+03  0.14635301770E+03  0.70163833421E+03  0.77216302457E+03  0.50400001928E-02 0.  1.
       -1    1    3    3    0  502 -0.28726325672E+03 -0.14635301770E+03 -0.25170908914E+03  0.40901937611E+03  0.50400001928E-02 0. -1.
</event>
<event>
 5   0  0.7738497E-03  0.1063728E+04  0.7818609E-02  0.9241284E-01
       -2   -1    0    0    0  501  0.00000000000E+00  0.00000000000E+00  0.56215082168E+03  0.56215082168E+03  0.25500000920E-02 0. -1.
        2   -1    0    0  501    0  0.00000000000E+00  0.00000000000E+00 -0.50320887734E+03  0.50320887734E+03  0.25500000920E-02 0.  1.
    10030    2    1    2    0    0  0.00000000000E+00  0.00000000000E+00  0.58941944343E+02  0.10653596990E+04  0.10637279424E+04 0.  0.
        4    1    3    3  502    0 -0.19023231753E+03  0.32799763512E+03  0.40301346565E+03  0.55334641019E+03  0.12699999809E+01 0. -1.
       -4    1    3    3    0  502  0.19023231753E+03 -0.32799763512E+03 -0.34407152130E+03  0.51201328884E+03  0.12699999809E+01 0.  1.
</event>
<event>
 5   0  0.4598561E-03  0.1162934E+04  0.7818609E-02  0.9145934E-01
        1   -1    0    0  501    0  0.00000000000E+00  0.00000000000E+00  0.95588098570E+03  0.95588098571E+03  0.50400001928E-02 0. -1.
       -1   -1    0    0    0  501  0.00000000000E+00  0.00000000000E+00 -0.35370919575E+03  0.35370919578E+03  0.50400001928E-02 0.  1.
    10030    2    1    2    0    0  0.00000000000E+00  0.00000000000E+00  0.60217178995E+03  0.13095901815E+04  0.11629340389E+04 0.  0.
        2    1    3    3  502    0 -0.33763862168E+03  0.31257147784E+03  0.70145378288E+03  0.83889104008E+03  0.25500000920E-02 0. -1.
       -2    1    3    3    0  502  0.33763862168E+03 -0.31257147784E+03 -0.99281992925E+02  0.47069914142E+03  0.25500000920E-02 0.  1.
</event>
<event>
 5   0  0.4598561E-03  0.1095861E+04  0.7818609E-02  0.9209236E-01
       -1   -1    0    0    0  501  0.00000000000E+00  0.00000000000E+00  0.71407808399E+03  0.71407808401E+03  0.50400001928E-02 0.  1.
        1   -1    0    0  501    0  0.00000000000E+00  0.00000000000E+00 -0.42044082247E+03  0.42044082250E+03  0.50400001928E-02 0. -1.
    10030    2    1    2    0    0  0.00000000000E+00  0.00000000000E+00  0.29363726152E+03  0.11345189065E+04  0.10958605330E+04 0.  0.
        2    1    3    3  502    0 -0.45087702022E+03 -0.25024973183E+03  0.33858966940E+03  0.61689381572E+03  0.25500000920E-02 0.  1.
       -2    1    3    3    0  502  0.45087702022E+03  0.25024973183E+03 -0.44952407877E+02  0.51762509079E+03  0.25500000920E-02 0. -1.
</event>
<event>
 5   0  0.7712816E-03  0.1128732E+04  0.7818609E-02  0.9177631E-01
        2   -1    0    0  501    0  0.00000000000E+00  0.00000000000E+00  0.15519322194E+04  0.15519322194E+04  0.25500000920E-02 0. -1.
       -2   -1    0    0    0  501  0.00000000000E+00  0.00000000000E+00 -0.20523395825E+03  0.20523395827E+03  0.25500000920E-02 0.  1.
    10030    2    1    2    0    0  0.00000000000E+00  0.00000000000E+00  0.13466982612E+04  0.17571661777E+04  0.11287323728E+04 0.  0.
        2    1    3    3  502    0  0.22042484451E+03 -0.10116666562E+03  0.14666670818E+04  0.14865847219E+04  0.25500000920E-02 0. -1.
       -2    1    3    3    0  502 -0.22042484451E+03  0.10116666562E+03 -0.11996882066E+03  0.27058145584E+03  0.25500000920E-02 0.  1.
</event>
<event>
 5   0  0.4504740E-03  0.1108474E+04  0.7818609E-02  0.9196971E-01
        1   -1    0    0  501    0  0.00000000000E+00  0.00000000000E+00  0.12223010699E+04  0.12223010699E+04  0.50400001928E-02 0.  1.
       -1   -1    0    0    0  501  0.00000000000E+00  0.00000000000E+00 -0.25131189001E+03  0.25131189006E+03  0.50400001928E-02 0. -1.
    10030    2    1    2    0    0  0.00000000000E+00  0.00000000000E+00  0.97098917987E+03  0.14736129599E+04  0.11084742524E+04 0.  0.
        5    1    3    3  502    0 -0.22187452895E+03  0.14935896335E+03 -0.15980913310E+03  0.31160464623E+03  0.46999998093E+01 0. -1.
       -5    1    3    3    0  502  0.22187452895E+03 -0.14935896335E+03  0.11307983130E+04  0.11620083137E+04  0.46999998093E+01 0.  1.
</event>
<event>
 5   0  0.4428114E-03  0.1072392E+04  0.7818609E-02  0.9232526E-01
       -1   -1    0    0    0  501  0.00000000000E+00  0.00000000000E+00  0.24055660730E+03  0.24055660735E+03  0.50400001928E-02 0.  1.
        1   -1    0    0  501    0  0.00000000000E+00  0.00000000000E+00 -0.11951715165E+04  0.11951715165E+04  0.50400001928E-02 0. -1.
    10030    2    1    2    0    0  0.00000000000E+00  0.00000000000E+00 -0.95461490922E+03  0.14357281239E+04  0.10723924752E+04 0.  0.
        4    1    3    3  502    0  0.49777467271E+03 -0.12394169189E+03 -0.68628007985E+03  0.85680985562E+03  0.12699999809E+01 0.  1.
       -4    1    3    3    0  502 -0.49777467271E+03  0.12394169189E+03 -0.26833482937E+03  0.57891826827E+03  0.12699999809E+01 0. -1.
</event>
<event>
 5   0  0.4504740E-03  0.1082502E+04  0.7818609E-02  0.9222416E-01
        1   -1    0    0  501    0  0.00000000000E+00  0.00000000000E+00  0.72411428232E+03  0.72411428234E+03  0.50400001928E-02 0.  1.
       -1   -1    0    0    0  501  0.00000000000E+00  0.00000000000E+00 -0.40456692618E+03  0.40456692621E+03  0.50400001928E-02 0. -1.
    10030    2    1    2    0    0  0.00000000000E+00  0.00000000000E+00  0.31954735614E+03  0.11286812086E+04  0.10825020821E+04 0.  0.
        5    1    3    3  502    0 -0.30661387453E+02  0.49370031352E+03  0.38880420356E+03  0.62918273892E+03  0.46999998093E+01 0.  1.
       -5    1    3    3    0  502  0.30661387453E+02 -0.49370031352E+03 -0.69256847420E+02  0.49949846963E+03  0.46999998093E+01 0. -1.
</event>
<event>
 5   0  0.7712816E-03  0.1079844E+04  0.7818609E-02  0.9225063E-01
        2   -1    0    0  501    0  0.00000000000E+00  0.00000000000E+00  0.78954409601E+03  0.78954409602E+03  0.25500000920E-02 0.  1.
       -2   -1    0    0    0  501  0.00000000000E+00  0.00000000000E+00 -0.36922032294E+03  0.36922032295E+03  0.25500000920E-02 0. -1.
    10030    2    1    2    0    0  0.00000000000E+00  0.00000000000E+00  0.42032377307E+03  0.11587644190E+04  0.10798439260E+04 0.  0.
        2    1    3    3  502    0  0.22155623106E+03  0.53405150474E+02  0.73539999235E+03  0.76990416441E+03  0.25500000920E-02 0.  1.
       -2    1    3    3    0  502 -0.22155623106E+03 -0.53405150474E+02 -0.31507621928E+03  0.38886025456E+03  0.25500000920E-02 0. -1.
</event>
<event>
 5   0  0.7712816E-03  0.1092711E+04  0.7818609E-02  0.9212325E-01
        2   -1    0    0  501    0  0.00000000000E+00  0.00000000000E+00  0.51026172598E+03  0.51026172599E+03  0.25500000920E-02 0. -1.
       -2   -1    0    0    0  501  0.00000000000E+00  0.00000000000E+00 -0.58500282887E+03  0.58500282887E+03  0.25500000920E-02 0.  1.
    10030    2    1    2    0    0  0.00000000000E+00  0.00000000000E+00 -0.74741102887E+02  0.10952645549E+04  0.10927114041E+04 0.  0.
        2    1    3    3  502    0 -0.45573291690E+03 -0.20103681185E+03  0.18764509597E+03  0.53227715836E+03  0.25500000920E-02 0. -1.
       -2    1    3    3    0  502  0.45573291690E+03  0.20103681185E+03 -0.26238619886E+03  0.56298739650E+03  0.25500000920E-02 0.  1.
</event>
<event>
 5   0  0.4641021E-03  0.9930337E+03  0.7818609E-02  0.9316218E-01
        1   -1    0    0  501    0  0.00000000000E+00  0.00000000000E+00  0.22118358697E+04  0.22118358697E+04  0.50400001928E-02 0. -1.
       -1   -1    0    0    0  501  0.00000000000E+00  0.00000000000E+00 -0.11145898505E+03  0.11145898516E+03  0.50400001928E-02 0.  1.
    10030    2    1    2    0    0  0.00000000000E+00  0.00000000000E+00  0.21003768846E+04  0.23232948548E+04  0.99303369785E+03 0.  0.
        1    1    3    3  502    0 -0.88500996830E+02  0.35339087958E+02  0.21902395776E+04  0.21923117216E+04  0.50400001928E-02 0. -1.
       -1    1    3    3    0  502  0.88500996830E+02 -0.35339087958E+02 -0.89862692951E+02  0.13098313322E+03  0.50400001928E-02 0.  1.
</event>
<event>
 5   0  0.7952121E-03  0.1139111E+04  0.7818609E-02  0.9167888E-01
        2   -1    0    0  501    0  0.00000000000E+00  0.00000000000E+00  0.27578872628E+03  0.27578872629E+03  0.25500000920E-02 0.  1.
       -2   -1    0    0    0  501  0.00000000000E+00  0.00000000000E+00 -0.11762386666E+04  0.11762386666E+04  0.25500000920E-02 0. -1.
    10030    2    1    2    0    0  0.00000000000E+00  0.00000000000E+00 -0.90044994027E+03  0.14520273928E+04  0.11391108175E+04 0.  0.
        3    1    3    3  502    0  0.48601399321E+02  0.53071822725E+03 -0.19410992455E+03  0.56718833359E+03  0.10100000352E+00 0.  1.
       -3    1    3    3    0  502 -0.48601399321E+02 -0.53071822725E+03 -0.70634001573E+03  0.88483905925E+03  0.10100000352E+00 0. -1.
</event>
<event>
 5   0  0.7952121E-03  0.1142255E+04  0.7818609E-02  0.9164958E-01
        2   -1    0    0  501    0  0.00000000000E+00  0.00000000000E+00  0.48641025241E+03  0.48641025242E+03  0.25500000920E-02 0.  1.
       -2   -1    0    0    0  501  0.00000000000E+00  0.00000000000E+00 -0.67060004167E+03  0.67060004168E+03  0.25500000920E-02 0. -1.
    10030    2    1    2    0    0  0.00000000000E+00  0.00000000000E+00 -0.18418978926E+03  0.11570102941E+04  0.11422552001E+04 0.  0.
        3    1    3    3  502    0  0.40970847920E+03  0.21744295827E+03 -0.42963245837E+03  0.63223930400E+03  0.10100000352E+00 0. -1.
       -3    1    3    3    0  502 -0.40970847920E+03 -0.21744295827E+03  0.24544266911E+03  0.52477099010E+03  0.10100000352E+00 0.  1.
</event>
<event>
 5   0  0.7738497E-03  0.8628167E+03  0.7818609E-02  0.9473294E-01
        2   -1    0    0  501    0  0.00000000000E+00  0.00000000000E+00  0.10108180718E+04  0.10108180718E+04  0.25500000920E-02 0. -1.
       -2   -1    0    0    0  501  0.00000000000E+00  0.00000000000E+00 -0.18412133736E+03  0.18412133738E+03  0.25500000920E-02 0.  1.
    10030    2    1    2    0    0  0.00000000000E+00  0.00000000000E+00  0.82669673442E+03  0.11949394092E+04  0.86281672495E+03 0.  0.
        4    1    3    3  502    0  0.75785987534E+01 -0.78169486121E+02  0.10008317712E+04  0.10039092344E+04  0.12699999809E+01 0. -1.
       -4    1    3    3    0  502 -0.75785987534E+01  0.78169486121E+02 -0.17413503681E+03  0.19103017475E+03  0.12699999809E+01 0.  1.
</event>
<event>
 5   0  0.4428114E-03  0.7267794E+03  0.7818609E-02  0.9672501E-01
       -1   -1    0    0    0  501  0.00000000000E+00  0.00000000000E+00  0.13255484062E+03  0.13255484071E+03  0.50400001928E-02 0.  1.
        1   -1    0    0  501    0  0.00000000000E+00  0.00000000000E+00 -0.99620704997E+03  0.99620704999E+03  0.50400001928E-02 0. -1.
    10030    2    1    2    0    0  0.00000000000E+00  0.00000000000E+00 -0.86365220936E+03  0.11287618907E+04  0.72677937999E+03 0.  0.
        4    1    3    3  502    0 -0.18604497003E+03 -0.30942266111E+03 -0.36787793464E+03  0.51545213336E+03  0.12699999809E+01 0.  1.
       -4    1    3    3    0  502  0.18604497003E+03  0.30942266111E+03 -0.49577427472E+03  0.61330975735E+03  0.12699999809E+01 0. -1.
</event>
<event>
 5   0  0.4428114E-03  0.1149872E+04  0.7818609E-02  0.9157902E-01
        1   -1    0    0  501    0  0.00000000000E+00  0.00000000000E+00  0.16733133370E+04  0.16733133370E+04  0.50400001928E-02 0. -1.
       -1   -1    0    0    0  501  0.00000000000E+00  0.00000000000E+00 -0.19754295243E+03  0.19754295250E+03  0.50400001928E-02 0.  1.
    10030    2    1    2    0    0  0.00000000000E+00  0.00000000000E+00  0.14757703846E+04  0.18708562895E+04  0.11498717442E+04 0.  0.
        4    1    3    3  502    0 -0.90353443099E+02 -0.46689372680E+03  0.12635794848E+04  0.13501067455E+04  0.12699999809E+01 0. -1.
       -4    1    3    3    0  502  0.90353443099E+02  0.46689372680E+03  0.21219089980E+03  0.52074954409E+03  0.12699999809E+01 0.  1.
</event>
<event>
 5   0  0.7766551E-03  0.1088366E+04  0.7818609E-02  0.9216606E-01
       -2   -1    0    0    0  501  0.00000000000E+00  0.00000000000E+00  0.29612239618E+03  0.29612239619E+03  0.25500000920E-02 0. -1.
        2   -1    0    0  501    0  0.00000000000E+00  0.00000000000E+00 -0.10000433715E+04  0.10000433715E+04  0.25500000920E-02 0.  1.
    10030    2    1    2    0    0  0.00000000000E+00  0.00000000000E+00 -0.70392097527E+03  0.12961657676E+04  0.10883661874E+04 0.  0.
        5    1    3    3  502    0 -0.15815458925E+03  0.51906183883E+03 -0.40070252160E+03  0.67455368018E+03  0.46999998093E+01 0. -1.
       -5    1    3    3    0  502  0.15815458925E+03 -0.51906183883E+03 -0.30321845367E+03  0.62161208746E+03  0.46999998093E+01 0.  1.
</event>
<event>
 5   0  0.4428114E-03  0.1087111E+04  0.7818609E-02  0.9217846E-01
       -1   -1    0    0    0  501  0.00000000000E+00  0.00000000000E+00  0.26107239257E+03  0.26107239262E+03  0.50400001928E-02 0.  1.
        1   -1    0    0  501    0  0.00000000000E+00  0.00000000000E+00 -0.11316881113E+04  0.11316881114E+04  0.50400001928E-02 0. -1.
    10030    2    1    2    0    0  0.00000000000E+00  0.00000000000E+00 -0.87061571877E+03  0.13927605040E+04  0.10871108921E+04 0.  0.
        4    1    3    3  502    0 -0.40307382298E+03 -0.33182004715E+03 -0.62908845668E+03  0.81751266026E+03  0.12699999809E+01 0.  1.
       -4    1    3    3    0  502  0.40307382298E+03  0.33182004715E+03 -0.24152726209E+03  0.57524784371E+03  0.12699999809E+01 0. -1.
</event>
<event>
 5   0  0.7952121E-03  0.1153811E+04  0.7818609E-02  0.9154275E-01
       -2   -1    0    0    0  501  0.00000000000E+00  0.00000000000E+00  0.65624627940E+03  0.65624627941E+03  0.25500000920E-02 0. -1.
        2   -1    0    0  501    0  0.00000000000E+00  0.00000000000E+00 -0.50715736471E+03  0.50715736472E+03  0.25500000920E-02 0.  1.
    10030    2    1    2    0    0  0.00000000000E+00  0.00000000000E+00  0.14908891469E+03  0.11634036441E+04  0.11538113081E+04 0.  0.
        3    1    3    3  502    0 -0.48712674042E+02  0.50373232128E+03  0.35379626484E+03  0.61748763820E+03  0.10100000352E+00 0. -1.
       -3    1    3    3    0  502  0.48712674042E+02 -0.50373232128E+03 -0.20470735015E+03  0.54591600593E+03  0.10100000352E+00 0.  1.
</event>
<event>
 5   0  0.7952121E-03  0.1002534E+04  0.7818609E-02  0.9305770E-01
       -2   -1    0    0    0  501  0.00000000000E+00  0.00000000000E+00  0.23202008442E+03  0.23202008444E+03  0.25500000920E-02 0. -1.
        2   -1    0    0  501    0  0.00000000000E+00  0.00000000000E+00 -0.10829603779E+04  0.10829603779E+04  0.25500000920E-02 0.  1.
    10030    2    1    2    0    0  0.00000000000E+00  0.00000000000E+00 -0.85094029346E+03  0.13149804623E+04  0.10025339063E+04 0.  0.
        3    1    3    3  502    0  0.44528031625E+03  0.21728670998E+03 -0.32574562851E+03  0.59295724894E+03  0.10100000352E+00 0. -1.
       -3    1    3    3    0  502 -0.44528031625E+03 -0.21728670998E+03 -0.52519466496E+03  0.72202321339E+03  0.10100000352E+00 0.  1.
</event>
<event>
 5   0  0.4428114E-03  0.1061513E+04  0.7818609E-02  0.9243538E-01
       -1   -1    0    0    0  501  0.00000000000E+00  0.00000000000E+00  0.76293066795E+03  0.76293066796E+03  0.50400001928E-02 0. -1.
        1   -1    0    0  501    0  0.00000000000E+00  0.00000000000E+00 -0.36923730183E+03  0.36923730186E+03  0.50400001928E-02 0.  1.
    10030    2    1    2    0    0  0.00000000000E+00  0.00000000000E+00  0.39369336612E+03  0.11321679698E+04  0.10615129982E+04 0.  0.
        4    1    3    3  502    0 -0.42096981212E+03 -0.28398802099E+03  0.32181086982E+02  0.50882414845E+03  0.12699999809E+01 0.  1.
       -4    1    3    3    0  502  0.42096981212E+03  0.28398802099E+03  0.36151227914E+03  0.62334382138E+03  0.12699999809E+01 0. -1.
</event>
<event>
 5   0  0.4298101E-03  0.1093255E+04  0.7818609E-02  0.9211791E-01
       -1   -1    0    0    0  501  0.00000000000E+00  0.00000000000E+00  0.19738055033E+03  0.19738055039E+03  0.50400001928E-02 0. -1.
        1   -1    0    0  501    0  0.00000000000E+00  0.00000000000E+00 -0.15138357423E+04  0.15138357423E+04  0.50400001928E-02 0.  1.
    10030    2    1    2    0    0  0.00000000000E+00  0.00000000000E+00 -0.13164551920E+04  0.17112162927E+04  0.10932551980E+04 0.  0.
        3    1    3    3  502    0 -0.34126489072E+03  0.11059788417E+03 -0.12653853651E+02  0.35896204233E+03  0.10100000352E+00 0. -1.
       -3    1    3    3    0  502  0.34126489072E+03 -0.11059788417E+03 -0.13038013384E+04  0.13522542504E+04  0.10100000352E+00 0.  1.
</event>
<event>
 5   0  0.4428114E-03  0.1088346E+04  0.7818609E-02  0.9216626E-01
        1   -1    0    0  501    0  0.00000000000E+00  0.00000000000E+00  0.58075700549E+03  0.58075700552E+03  0.50400001928E-02 0. -1.
       -1   -1    0    0    0  501  0.00000000000E+00  0.00000000000E+00 -0.50989365461E+03  0.50989365464E+03  0.50400001928E-02 0.  1.
    10030    2    1    2    0    0  0.00000000000E+00  0.00000000000E+00  0.70863350881E+02  0.10906506602E+04  0.10883461067E+04 0.  0.
        4    1    3    3  502    0  0.31828042948E+03  0.20159190642E+03  0.42892197110E+03  0.57089175745E+03  0.12699999809E+01 0. -1.
       -4    1    3    3    0  502 -0.31828042948E+03 -0.20159190642E+03 -0.35805862022E+03  0.51975890271E+03  0.12699999809E+01 0.  1.
</event>
<event>
 5   0  0.7766551E-03  0.1006648E+04  0.7818609E-02  0.9301283E-01
        2   -1    0    0  501    0  0.00000000000E+00  0.00000000000E+00  0.85229593464E+03  0.85229593465E+03  0.25500000920E-02 0. -1.
       -2   -1    0    0    0  501  0.00000000000E+00  0.00000000000E+00 -0.29723830322E+03  0.29723830323E+03  0.25500000920E-02 0.  1.
    10030    2    1    2    0    0  0.00000000000E+00  0.00000000000E+00  0.55505763143E+03  0.11495342379E+04  0.10066478976E+04 0.  0.
        5    1    3    3  502    0 -0.19488172500E+03  0.45233775750E+03  0.15926977757E+03  0.51766522545E+03  0.46999998093E+01 0.  1.
       -5    1    3    3    0  502  0.19488172500E+03 -0.45233775750E+03  0.39578785385E+03  0.63186901242E+03  0.46999998093E+01 0. -1.
</event>
<event>
 5   0  0.4428114E-03  0.8979502E+03  0.7818609E-02  0.9428147E-01
        1   -1    0    0  501    0  0.00000000000E+00  0.00000000000E+00  0.12069596207E+04  0.12069596207E+04  0.50400001928E-02 0. -1.
       -1   -1    0    0    0  501  0.00000000000E+00  0.00000000000E+00 -0.16701355627E+03  0.16701355634E+03  0.50400001928E-02 0.  1.
    10030    2    1    2    0    0  0.00000000000E+00  0.00000000000E+00  0.10399460644E+04  0.13739731770E+04  0.89795015136E+03 0.  0.
        4    1    3    3  502    0 -0.12657079897E+03  0.27366008233E+03  0.10952746010E+02  0.30171440694E+03  0.12699999809E+01 0.  1.
       -4    1    3    3    0  502  0.12657079897E+03 -0.27366008233E+03  0.10289933184E+04  0.10722587701E+04  0.12699999809E+01 0. -1.
</event>
<event>
 5   0  0.2992375E-03  0.1115127E+04  0.7818609E-02  0.9190572E-01
       -3   -1    0    0    0  501  0.00000000000E+00  0.00000000000E+00  0.78978776547E+03  0.78978777193E+03  0.10100000352E+00 0. -1.
        3   -1    0    0  501    0  0.00000000000E+00  0.00000000000E+00 -0.39362115032E+03  0.39362116327E+03  0.10100000352E+00 0.  1.
    10030    2    1    2    0    0  0.00000000000E+00  0.00000000000E+00  0.39616661516E+03  0.11834089352E+04  0.11151272219E+04 0.  0.
        4    1    3    3  502    0 -0.20037220256E+03  0.11744276935E+02  0.75011649800E+03  0.77650712879E+03  0.12699999809E+01 0. -1.
       -4    1    3    3    0  502  0.20037220256E+03 -0.11744276935E+02 -0.35394988284E+03  0.40690180641E+03  0.12699999809E+01 0.  1.
</event>
<event>
 5   0  0.4598561E-03  0.1121511E+04  0.7818609E-02  0.9184476E-01
        1   -1    0    0  501    0  0.00000000000E+00  0.00000000000E+00  0.58143665002E+03  0.58143665004E+03  0.50400001928E-02 0. -1.
       -1   -1    0    0    0  501  0.00000000000E+00  0.00000000000E+00 -0.54081006372E+03  0.54081006374E+03  0.50400001928E-02 0.  1.
    10030    2    1    2    0    0  0.00000000000E+00  0.00000000000E+00  0.40626586300E+02  0.11222467138E+04  0.11215111088E+04 0.  0.
        2    1    3    3  502    0 -0.46240834615E+03 -0.28011038299E+03 -0.12865841674E+03  0.55573041436E+03  0.25500000920E-02 0.  1.
       -2    1    3    3    0  502  0.46240834615E+03  0.28011038299E+03  0.16928500304E+03  0.56651629942E+03  0.25500000920E-02 0. -1.
</event>
<event>
 5   0  0.4504740E-03  0.8082410E+03  0.7818609E-02  0.9548165E-01
       -1   -1    0    0    0  501  0.00000000000E+00  0.00000000000E+00  0.96090311219E+03  0.96090311221E+03  0.50400001928E-02 0. -1.
        1   -1    0    0  501    0  0.00000000000E+00  0.00000000000E+00 -0.16995820841E+03  0.16995820849E+03  0.50400001928E-02 0.  1.
    10030    2    1    2    0    0  0.00000000000E+00  0.00000000000E+00  0.79094490378E+03  0.11308613207E+04  0.80824098252E+03 0.  0.
        5    1    3    3  502    0  0.67354575035E+02  0.12766526265E+03  0.92356397395E+03  0.93478744218E+03  0.46999998093E+01 0. -1.
       -5    1    3    3    0  502 -0.67354575035E+02 -0.12766526265E+03 -0.13261907017E+03  0.19607387852E+03  0.46999998093E+01 0.  1.
</event>
<event>
 5   0  0.7712816E-03  0.1098585E+04  0.7818609E-02  0.9206572E-01
       -2   -1    0    0    0  501  0.00000000000E+00  0.00000000000E+00  0.56173228787E+03  0.56173228787E+03  0.25500000920E-02 0.  1.
        2   -1    0    0  501    0  0.00000000000E+00  0.00000000000E+00 -0.53712831358E+03  0.53712831358E+03  0.25500000920E-02 0. -1.
    10030    2    1    2    0    0  0.00000000000E+00  0.00000000000E+00  0.24603974290E+02  0.10988606015E+04  0.10985851200E+04 0.  0.
        2    1    3    3  502    0  0.30444464845E+03 -0.26896530165E+03 -0.35751148226E+03  0.54115001378E+03  0.25500000920E-02 0. -1.
       -2    1    3    3    0  502 -0.30444464845E+03  0.26896530165E+03  0.38211545655E+03  0.55771058767E+03  0.25500000920E-02 0.  1.
</event>
<event>
 5   0  0.7738497E-03  0.1206397E+04  0.7818609E-02  0.9107276E-01
        2   -1    0    0  501    0  0.00000000000E+00  0.00000000000E+00  0.65232209778E+03  0.65232209778E+03  0.25500000920E-02 0.  1.
       -2   -1    0    0    0  501  0.00000000000E+00  0.00000000000E+00 -0.55777377360E+03  0.55777377360E+03  0.25500000920E-02 0. -1.
    10030    2    1    2    0    0  0.00000000000E+00  0.00000000000E+00  0.94548324183E+02  0.12100958714E+04  0.12063965485E+04 0.  0.
        4    1    3    3  502    0  0.39509489067E+03 -0.10750791603E+03  0.49156422514E+03  0.63976161575E+03  0.12699999809E+01 0.  1.
       -4    1    3    3    0  502 -0.39509489067E+03  0.10750791603E+03 -0.39701590096E+03  0.57033425564E+03  0.12699999809E+01 0. -1.
</event>
<event>
 5   0  0.7952121E-03  0.1112796E+04  0.7818609E-02  0.9192809E-01
        2   -1    0    0  501    0  0.00000000000E+00  0.00000000000E+00  0.41591132014E+03  0.41591132015E+03  0.25500000920E-02 0. -1.
       -2   -1    0    0    0  501  0.00000000000E+00  0.00000000000E+00 -0.74433879877E+03  0.74433879877E+03  0.25500000920E-02 0.  1.
    10030    2    1    2    0    0  0.00000000000E+00  0.00000000000E+00 -0.32842747862E+03  0.11602501189E+04  0.11127963559E+04 0.  0.
        3    1    3    3  502    0 -0.42799754925E+03  0.16843816172E+03 -0.49065548689E+03  0.67252965251E+03  0.10100000352E+00 0.  1.
       -3    1    3    3    0  502  0.42799754925E+03 -0.16843816172E+03  0.16222800826E+03  0.48772046641E+03  0.10100000352E+00 0. -1.
</event>
<event>
 5   0  0.4428114E-03  0.1059400E+04  0.7818609E-02  0.9245692E-01
       -1   -1    0    0    0  501  0.00000000000E+00  0.00000000000E+00  0.30532888441E+03  0.30532888445E+03  0.50400001928E-02 0.  1.
        1   -1    0    0  501    0  0.00000000000E+00  0.00000000000E+00 -0.91895063190E+03  0.91895063192E+03  0.50400001928E-02 0. -1.
    10030    2    1    2    0    0  0.00000000000E+00  0.00000000000E+00 -0.61362174750E+03  0.12242795164E+04  0.10594001535E+04 0.  0.
        4    1    3    3  502    0 -0.12685756934E+03  0.12995722693E+03  0.26822488195E+03  0.32392580004E+03  0.12699999809E+01 0.  1.
       -4    1    3    3    0  502  0.12685756934E+03 -0.12995722693E+03 -0.88184662945E+03  0.90035371633E+03  0.12699999809E+01 0. -1.
</event>
<event>
 5   0  0.4298101E-03  0.1098911E+04  0.7818609E-02  0.9206254E-01
        1   -1    0    0  501    0  0.00000000000E+00  0.00000000000E+00  0.68160983239E+03  0.68160983240E+03  0.50400001928E-02 0.  1.
       -1   -1    0    0    0  501  0.00000000000E+00  0.00000000000E+00 -0.44292428161E+03  0.44292428163E+03  0.50400001928E-02 0. -1.
    10030    2    1    2    0    0  0.00000000000E+00  0.00000000000E+00  0.23868555078E+03  0.11245341140E+04  0.10989113620E+04 0.  0.
        3    1    3    3  502    0 -0.25801000139E+03 -0.37682522554E+03  0.43197412461E+03  0.62862394637E+03  0.10100000352E+00 0. -1.
       -3    1    3    3    0  502  0.25801000139E+03  0.37682522554E+03 -0.19328857383E+03  0.49591016767E+03  0.10100000352E+00 0.  1.
</event>
<event>
 5   0  0.4504740E-03  0.1119889E+04  0.7818609E-02  0.9186020E-01
        1   -1    0    0  501    0  0.00000000000E+00  0.00000000000E+00  0.93797716083E+03  0.93797716084E+03  0.50400001928E-02 0.  1.
       -1   -1    0    0    0  501  0.00000000000E+00  0.00000000000E+00 -0.33427040197E+03  0.33427040201E+03  0.50400001928E-02 0. -1.
    10030    2    1    2    0    0  0.00000000000E+00  0.00000000000E+00  0.60370675886E+03  0.12722475629E+04  0.11198892849E+04 0.  0.
        5    1    3    3  502    0  0.47483680957E+03  0.67078463751E+02 -0.26514297035E+02  0.48030679151E+03  0.46999998093E+01 0. -1.
       -5    1    3    3    0  502 -0.47483680957E+03 -0.67078463751E+02  0.63022105590E+03  0.79194077134E+03  0.46999998093E+01 0.  1.
</event>
<event>
 5   0  0.4504740E-03  0.1079147E+04  0.7818609E-02  0.9225758E-01
       -1   -1    0    0    0  501  0.00000000000E+00  0.00000000000E+00  0.30479578924E+03  0.30479578928E+03  0.50400001928E-02 0.  1.
        1   -1    0    0  501    0  0.00000000000E+00  0.00000000000E+00 -0.95519567686E+03  0.95519567688E+03  0.50400001928E-02 0. -1.
    10030    2    1    2    0    0  0.00000000000E+00  0.00000000000E+00 -0.65039988762E+03  0.12599914662E+04  0.10791471081E+04 0.  0.
        5    1    3    3  502    0  0.48383196092E+02 -0.52726339869E+03 -0.20403056308E+03  0.56744883992E+03  0.46999998093E+01 0. -1.
       -5    1    3    3    0  502 -0.48383196092E+02  0.52726339869E+03 -0.44636932454E+03  0.69254262623E+03  0.46999998093E+01 0.  1.
</event>
<event>
 5   0  0.7712816E-03  0.1182972E+04  0.7818609E-02  0.9127893E-01
        2   -1    0    0  501    0  0.00000000000E+00  0.00000000000E+00  0.12556445172E+04  0.12556445172E+04  0.25500000920E-02 0. -1.
       -2   -1    0    0    0  501  0.00000000000E+00  0.00000000000E+00 -0.27862628101E+03  0.27862628102E+03  0.25500000920E-02 0.  1.
    10030    2    1    2    0    0  0.00000000000E+00  0.00000000000E+00  0.97701823623E+03  0.15342707983E+04  0.11829717869E+04 0.  0.
        2    1    3    3  502    0 -0.16615874106E+03 -0.12484451978E+03  0.12067277707E+04  0.12244945055E+04  0.25500000920E-02 0. -1.
       -2    1    3    3    0  502  0.16615874106E+03  0.12484451978E+03 -0.22970953446E+03  0.30977629280E+03  0.25500000920E-02 0.  1.
</event>
<event>
 5   0  0.7712816E-03  0.1131732E+04  0.7818609E-02  0.9174804E-01
       -2   -1    0    0    0  501  0.00000000000E+00  0.00000000000E+00  0.49912213796E+03  0.49912213797E+03  0.25500000920E-02 0.  1.
        2   -1    0    0  501    0  0.00000000000E+00  0.00000000000E+00 -0.64153464722E+03  0.64153464723E+03  0.25500000920E-02 0. -1.
    10030    2    1    2    0    0  0.00000000000E+00  0.00000000000E+00 -0.14241250926E+03  0.11406567852E+04  0.11317316726E+04 0.  0.
        2    1    3    3  502    0 -0.33196339170E+03 -0.35380239897E+03 -0.36475615344E+03  0.60697848597E+03  0.25500000920E-02 0. -1.
       -2    1    3    3    0  502  0.33196339170E+03  0.35380239897E+03  0.22234364418E+03  0.53367829923E+03  0.25500000920E-02 0.  1.
</event>
<event>
 5   0  0.4298101E-03  0.1100568E+04  0.7818609E-02  0.9204638E-01
        1   -1    0    0  501    0  0.00000000000E+00  0.00000000000E+00  0.45037709424E+03  0.45037709427E+03  0.50400001928E-02 0. -1.
       -1   -1    0    0    0  501  0.00000000000E+00  0.00000000000E+00 -0.67235379887E+03  0.67235379889E+03  0.50400001928E-02 0.  1.
    10030    2    1    2    0    0  0.00000000000E+00  0.00000000000E+00 -0.22197670463E+03  0.11227308932E+04  0.11005684899E+04 0.  0.
        3    1    3    3  502    0  0.39672117068E+03 -0.37678503078E+03 -0.17097808907E+03  0.57322610184E+03  0.10100000352E+00 0. -1.
       -3    1    3    3    0  502 -0.39672117068E+03  0.37678503078E+03 -0.50998615555E+02  0.54950479132E+03  0.10100000352E+00 0.  1.
</event>
<event>
 5   0  0.4641021E-03  0.1106016E+04  0.7818609E-02  0.9199348E-01
        1   -1    0    0  501    0  0.00000000000E+00  0.00000000000E+00  0.17527491212E+04  0.17527491212E+04  0.50400001928E-02 0. -1.
       -1   -1    0    0    0  501  0.00000000000E+00  0.00000000000E+00 -0.17447886516E+03  0.17447886523E+03  0.50400001928E-02 0.  1.
    10030    2    1    2    0    0  0.00000000000E+00  0.00000000000E+00  0.15782702560E+04  0.19272279864E+04  0.11060156918E+04 0.  0.
        1    1    3    3  502    0  0.45958738427E+03  0.27859488670E+03  0.10162085271E+04  0.11495718530E+04  0.50400001928E-02 0.  1.
       -1    1    3    3    0  502 -0.45958738427E+03 -0.27859488670E+03  0.56206172897E+03  0.77765613344E+03  0.50400001928E-02 0. -1.
</event>
<event>
 5   0  0.7537480E-03  0.1105972E+04  0.7818609E-02  0.9199391E-01
        2   -1    0    0  501    0  0.00000000000E+00  0.00000000000E+00  0.12487295558E+04  0.12487295558E+04  0.25500000920E-02 0. -1.
       -2   -1    0    0    0  501  0.00000000000E+00  0.00000000000E+00 -0.24488358963E+03  0.24488358965E+03  0.25500000920E-02 0.  1.
    10030    2    1    2    0    0  0.00000000000E+00  0.00000000000E+00  0.10038459661E+04  0.14936131454E+04  0.11059717467E+04 0.  0.
        1    1    3    3  502    0  0.18621680880E+02  0.36516640532E+03  0.10621765922E+04  0.11233487365E+04  0.50400001928E-02 0. -1.
       -1    1    3    3    0  502 -0.18621680880E+02 -0.36516640532E+03 -0.58330626107E+02  0.37026440896E+03  0.50400001928E-02 0.  1.
</event>
<event>
 5   0  0.7766551E-03  0.1093570E+04  0.7818609E-02  0.9211482E-01
       -2   -1    0    0    0  501  0.00000000000E+00  0.00000000000E+00  0.27477154841E+03  0.27477154842E+03  0.25500000920E-02 0.  1.
        2   -1    0    0  501    0  0.00000000000E+00  0.00000000000E+00 -0.10880807875E+04  0.10880807875E+04  0.25500000920E-02 0. -1.
    10030    2    1    2    0    0  0.00000000000E+00  0.00000000000E+00 -0.81330923913E+03  0.13628523360E+04  0.10935696462E+04 0.  0.
        5    1    3    3  502    0 -0.25556180821E+03  0.47725592477E+03 -0.31120113406E+03  0.62446240190E+03  0.46999998093E+01 0. -1.
       -5    1    3    3    0  502  0.25556180821E+03 -0.47725592477E+03 -0.50210810506E+03  0.73838993406E+03  0.46999998093E+01 0.  1.
</event>
<event>
 5   0  0.4598561E-03  0.1081688E+04  0.7818609E-02  0.9223226E-01
        1   -1    0    0  501    0  0.00000000000E+00  0.00000000000E+00  0.28483471134E+04  0.28483471134E+04  0.50400001928E-02 0.  1.
       -1   -1    0    0    0  501  0.00000000000E+00  0.00000000000E+00 -0.10269537713E+03  0.10269537726E+03  0.50400001928E-02 0. -1.
    10030    2    1    2    0    0  0.00000000000E+00  0.00000000000E+00  0.27456517363E+04  0.29510424907E+04  0.10816877206E+04 0.  0.
        2    1    3    3  502    0  0.34294191255E+03 -0.12689084247E+03  0.24600048674E+04  0.24870332505E+04  0.25500000920E-02 0.  1.
       -2    1    3    3    0  502 -0.34294191255E+03  0.12689084247E+03  0.28564686887E+03  0.46400924020E+03  0.25500000920E-02 0. -1.
</event>
<event>
 5   0  0.4598561E-03  0.1074122E+04  0.7818609E-02  0.9230788E-01
       -1   -1    0    0    0  501  0.00000000000E+00  0.00000000000E+00  0.15968299775E+03  0.15968299783E+03  0.50400001928E-02 0. -1.
        1   -1    0    0  501    0  0.00000000000E+00  0.00000000000E+00 -0.18062939834E+04  0.18062939834E+04  0.50400001928E-02 0.  1.
    10030    2    1    2    0    0  0.00000000000E+00  0.00000000000E+00 -0.16466109857E+04  0.19659769813E+04  0.10741218519E+04 0.  0.
        2    1    3    3  502    0 -0.16447529203E+03 -0.42962578851E+03 -0.31606164146E+03  0.55814460586E+03  0.25500000920E-02 0. -1.
       -2    1    3    3    0  502  0.16447529203E+03  0.42962578851E+03 -0.13305493442E+04  0.14078323754E+04  0.25500000920E-02 0.  1.
</event>
<event>
 5   0  0.4298101E-03  0.1078421E+04  0.7818609E-02  0.9226483E-01
        1   -1    0    0  501    0  0.00000000000E+00  0.00000000000E+00  0.86211120132E+03  0.86211120134E+03  0.50400001928E-02 0. -1.
       -1   -1    0    0    0  501  0.00000000000E+00  0.00000000000E+00 -0.33725130442E+03  0.33725130446E+03  0.50400001928E-02 0.  1.
    10030    2    1    2    0    0  0.00000000000E+00  0.00000000000E+00  0.52485989690E+03  0.11993625058E+04  0.10784213040E+04 0.  0.
        3    1    3    3  502    0  0.48215126981E+03 -0.22841824715E+03  0.17554450625E+03  0.56165881680E+03  0.10100000352E+00 0. -1.
       -3    1    3    3    0  502 -0.48215126981E+03  0.22841824715E+03  0.34931539065E+03  0.63770368899E+03  0.10100000352E+00 0.  1.
</event>
<event>
 5   0  0.7952121E-03  0.1113425E+04  0.7818609E-02  0.9192205E-01
       -2   -1    0    0    0  501  0.00000000000E+00  0.00000000000E+00  0.32529602863E+03  0.32529602864E+03  0.25500000920E-02 0.  1.
        2   -1    0    0  501    0  0.00000000000E+00  0.00000000000E+00 -0.95275871334E+03  0.95275871334E+03  0.25500000920E-02 0. -1.
    10030    2    1    2    0    0  0.00000000000E+00  0.00000000000E+00 -0.62746268471E+03  0.12780547420E+04  0.11134246732E+04 0.  0.
        3    1    3    3  502    0  0.53772134145E+03  0.77656575083E+02 -0.45315645829E+03  0.70747831811E+03  0.10100000352E+00 0. -1.
       -3    1    3    3    0  502 -0.53772134145E+03 -0.77656575083E+02 -0.17430622642E+03  0.57057642387E+03  0.10100000352E+00 0.  1.
</event>
<event>
 5   0  0.4504740E-03  0.1075317E+04  0.7818609E-02  0.9229589E-01
        1   -1    0    0  501    0  0.00000000000E+00  0.00000000000E+00  0.40998516459E+03  0.40998516462E+03  0.50400001928E-02 0. -1.
       -1   -1    0    0    0  501  0.00000000000E+00  0.00000000000E+00 -0.70509032769E+03  0.70509032771E+03  0.50400001928E-02 0.  1.
    10030    2    1    2    0    0  0.00000000000E+00  0.00000000000E+00 -0.29510516310E+03  0.11150754923E+04  0.10753168353E+04 0.  0.
        5    1    3    3  502    0 -0.39253136426E+03  0.22527454950E+03 -0.44849839654E+03  0.63718317325E+03  0.46999998093E+01 0.  1.
       -5    1    3    3    0  502  0.39253136426E+03 -0.22527454950E+03  0.15339323344E+03  0.47789231908E+03  0.46999998093E+01 0. -1.
</event>
<event>
 5   0  0.4598561E-03  0.1100765E+04  0.7818609E-02  0.9204446E-01
       -1   -1    0    0    0  501  0.00000000000E+00  0.00000000000E+00  0.58129527751E+03  0.58129527753E+03  0.50400001928E-02 0. -1.
        1   -1    0    0  501    0  0.00000000000E+00  0.00000000000E+00 -0.52111392082E+03  0.52111392085E+03  0.50400001928E-02 0.  1.
    10030    2    1    2    0    0  0.00000000000E+00  0.00000000000E+00  0.60181356685E+02  0.11024091984E+04  0.11007652997E+04 0.  0.
        2    1    3    3  502    0  0.26471352498E+03 -0.33365990608E+03 -0.31902549873E+03  0.53214608153E+03  0.25500000920E-02 0.  1.
       -2    1    3    3    0  502 -0.26471352498E+03  0.33365990608E+03  0.37920685542E+03  0.57026311685E+03  0.25500000920E-02 0. -1.
</event>
<event>
 5   0  0.7952121E-03  0.1114435E+04  0.7818609E-02  0.9191236E-01
       -2   -1    0    0    0  501  0.00000000000E+00  0.00000000000E+00  0.31261703877E+03  0.31261703878E+03  0.25500000920E-02 0.  1.
        2   -1    0    0  501    0  0.00000000000E+00  0.00000000000E+00 -0.99319955847E+03  0.99319955847E+03  0.25500000920E-02 0. -1.
    10030    2    1    2    0    0  0.00000000000E+00  0.00000000000E+00 -0.68058251970E+03  0.13058165973E+04  0.11144345739E+04 0.  0.
        3    1    3    3  502    0 -0.46910449116E+03  0.13983803695E+03 -0.65223873817E+03  0.81549315262E+03  0.10100000352E+00 0. -1.
       -3    1    3    3    0  502  0.46910449116E+03 -0.13983803695E+03 -0.28343781530E+02  0.49032344463E+03  0.10100000352E+00 0.  1.
</event>
<event>
 5   0  0.7766551E-03  0.1096140E+04  0.7818609E-02  0.9208962E-01
       -2   -1    0    0    0  501  0.00000000000E+00  0.00000000000E+00  0.18999475658E+03  0.18999475660E+03  0.25500000920E-02 0.  1.
        2   -1    0    0  501    0  0.00000000000E+00  0.00000000000E+00 -0.15809954167E+04  0.15809954167E+04  0.25500000920E-02 0. -1.
    10030    2    1    2    0    0  0.00000000000E+00  0.00000000000E+00 -0.13910006601E+04  0.17709901733E+04  0.10961402088E+04 0.  0.
        5    1    3    3  502    0 -0.34390157583E+03  0.39557214057E+03 -0.43692836870E+03  0.68240318114E+03  0.46999998093E+01 0.  1.
       -5    1    3    3    0  502  0.34390157583E+03 -0.39557214057E+03 -0.95407229137E+03  0.10885869921E+04  0.46999998093E+01 0. -1.
</event>
<event>
 5   0  0.7766551E-03  0.1136713E+04  0.7818609E-02  0.9170130E-01
        2   -1    0    0  501    0  0.00000000000E+00  0.00000000000E+00  0.12039212581E+04  0.12039212581E+04  0.25500000920E-02 0.  1.
       -2   -1    0    0    0  501  0.00000000000E+00  0.00000000000E+00 -0.26831397377E+03  0.26831397378E+03  0.25500000920E-02 0. -1.
    10030    2    1    2    0    0  0.00000000000E+00  0.00000000000E+00  0.93560728434E+03  0.14722352319E+04  0.11367126231E+04 0.  0.
        5    1    3    3  502    0 -0.48012480798E+03  0.18770786075E+03  0.77770582943E+03  0.93306083368E+03  0.46999998093E+01 0.  1.
       -5    1    3    3    0  502  0.48012480798E+03 -0.18770786075E+03  0.15790145491E+03  0.53917439821E+03  0.46999998093E+01 0. -1.
</event>
<event>
 5   0  0.7766551E-03  0.1149987E+04  0.7818609E-02  0.9157796E-01
        2   -1    0    0  501    0  0.00000000000E+00  0.00000000000E+00  0.13905200496E+04  0.13905200496E+04  0.25500000920E-02 0. -1.
       -2   -1    0    0    0  501  0.00000000000E+00  0.00000000000E+00 -0.23776528375E+03  0.23776528377E+03  0.25500000920E-02 0.  1.
    10030    2    1    2    0    0  0.00000000000E+00  0.00000000000E+00  0.11527547659E+04  0.16282853334E+04  0.11499867724E+04 0.  0.
        5    1    3    3  502    0 -0.55297937667E+03  0.15464340927E+03  0.61872557829E+03  0.84412333595E+03  0.46999998093E+01 0. -1.
       -5    1    3    3    0  502  0.55297937667E+03 -0.15464340927E+03  0.53402918757E+03  0.78416199744E+03  0.46999998093E+01 0.  1.
</event>
<event>
 5   0  0.7712816E-03  0.9960712E+03  0.7818609E-02  0.9312864E-01
       -2   -1    0    0    0  501  0.00000000000E+00  0.00000000000E+00  0.91185399764E+03  0.91185399765E+03  0.25500000920E-02 0. -1.
        2   -1    0    0  501    0  0.00000000000E+00  0.00000000000E+00 -0.27201666025E+03  0.27201666026E+03  0.25500000920E-02 0.  1.
    10030    2    1    2    0    0  0.00000000000E+00  0.00000000000E+00  0.63983733739E+03  0.11838706579E+04  0.99607124060E+03 0.  0.
        2    1    3    3  502    0 -0.17189680132E+02 -0.33472420171E+03  0.75775289153E+03  0.82856817519E+03  0.25500000920E-02 0. -1.
       -2    1    3    3    0  502  0.17189680132E+02  0.33472420171E+03 -0.11791555414E+03  0.35530248272E+03  0.25500000920E-02 0.  1.
</event>
<event>
 5   0  0.7738497E-03  0.1221503E+04  0.7818609E-02  0.9094240E-01
        2   -1    0    0  501    0  0.00000000000E+00  0.00000000000E+00  0.14801140555E+04  0.14801140555E+04  0.25500000920E-02 0.  1.
       -2   -1    0    0    0  501  0.00000000000E+00  0.00000000000E+00 -0.25201954952E+03  0.25201954954E+03  0.25500000920E-02 0. -1.
    10030    2    1    2    0    0  0.00000000000E+00  0.00000000000E+00  0.12280945060E+04  0.17321336050E+04  0.12215034630E+04 0.  0.
        4    1    3    3  502    0 -0.46239983520E+03 -0.14848274970E+03  0.11392089339E+04  0.12384100059E+04  0.12699999809E+01 0.  1.
       -4    1    3    3    0  502  0.46239983520E+03  0.14848274970E+03  0.88885572019E+02  0.49372359916E+03  0.12699999809E+01 0. -1.
</event>
<event>
 5   0  0.7952121E-03  0.1070946E+04  0.7818609E-02  0.9233981E-01
       -2   -1    0    0    0  501  0.00000000000E+00  0.00000000000E+00  0.14409650655E+04  0.14409650655E+04  0.25500000920E-02 0. -1.
        2   -1    0    0  501    0  0.00000000000E+00  0.00000000000E+00 -0.19898577273E+03  0.19898577274E+03  0.25500000920E-02 0.  1.
    10030    2    1    2    0    0  0.00000000000E+00  0.00000000000E+00  0.12419792928E+04  0.16399508383E+04  0.10709463984E+04 0.  0.
        3    1    3    3  502    0  0.43808927464E+03 -0.28179228861E+02  0.10905184716E+04  0.11755623457E+04  0.10100000352E+00 0. -1.
       -3    1    3    3    0  502 -0.43808927464E+03  0.28179228861E+02  0.15146082122E+03  0.46438849260E+03  0.10100000352E+00 0.  1.
</event>
<event>
 5   0  0.7766551E-03  0.1126696E+04  0.7818609E-02  0.9179556E-01
        2   -1    0    0  501    0  0.00000000000E+00  0.00000000000E+00  0.21389799419E+04  0.21389799419E+04  0.25500000920E-02 0.  1.
       -2   -1    0    0    0  501  0.00000000000E+00  0.00000000000E+00 -0.14837021656E+03  0.14837021658E+03  0.25500000920E-02 0. -1.
    10030    2    1    2    0    0  0.00000000000E+00  0.00000000000E+00  0.19906097254E+04  0.22873501585E+04  0.11266959079E+04 0.  0.
        5    1    3    3  502    0  0.35821189876E+03  0.15455687634E+00  0.11266546847E+03  0.37554145721E+03  0.46999998093E+01 0. -1.
       -5    1    3    3    0  502 -0.35821189876E+03 -0.15455687634E+00  0.18779442569E+04  0.19118087013E+04  0.46999998093E+01 0.  1.
</event>
<event>
 5   0  0.7537480E-03  0.1094586E+04  0.7818609E-02  0.9210485E-01
        2   -1    0    0  501    0  0.00000000000E+00  0.00000000000E+00  0.62895889606E+03  0.62895889607E+03  0.25500000920E-02 0. -1.
       -2   -1    0    0    0  501  0.00000000000E+00  0.00000000000E+00 -0.47623074245E+03  0.47623074245E+03  0.25500000920E-02 0.  1.
    10030    2    1    2    0    0  0.00000000000E+00  0.00000000000E+00  0.15272815362E+03  0.11051896385E+04  0.10945858798E+04 0.  0.
        1    1    3    3  502    0  0.22673826761E+03  0.21441737945E+03 -0.37759628753E+03  0.48986121605E+03  0.50400001928E-02 0. -1.
       -1    1    3    3    0  502 -0.22673826761E+03 -0.21441737945E+03  0.53032444114E+03  0.61532842248E+03  0.50400001928E-02 0.  1.
</event>
<event>
 5   0  0.2992375E-03  0.1080049E+04  0.7818609E-02  0.9224859E-01
       -3   -1    0    0    0  501  0.00000000000E+00  0.00000000000E+00  0.87868241808E+03  0.87868242389E+03  0.10100000352E+00 0.  1.
        3   -1    0    0  501    0  0.00000000000E+00  0.00000000000E+00 -0.33189031175E+03  0.33189032712E+03  0.10100000352E+00 0. -1.
    10030    2    1    2    0    0  0.00000000000E+00  0.00000000000E+00  0.54679210633E+03  0.12105727510E+04  0.10800485072E+04 0.  0.
        2    1    3    3  502    0 -0.24586999531E+03 -0.32795155659E+03 -0.12069390526E+03  0.42728362575E+03  0.25500000920E-02 0. -1.
       -2    1    3    3    0  502  0.24586999531E+03  0.32795155659E+03  0.66748601159E+03  0.78328912525E+03  0.25500000920E-02 0.  1.
</event>
<event>
 5   0  0.7537480E-03  0.9755218E+03  0.7818609E-02  0.9335807E-01
       -2   -1    0    0    0  501  0.00000000000E+00  0.00000000000E+00  0.20129039401E+03  0.20129039403E+03  0.25500000920E-02 0.  1.
        2   -1    0    0  501    0  0.00000000000E+00  0.00000000000E+00 -0.11819275986E+04  0.11819275986E+04  0.25500000920E-02 0. -1.
    10030    2    1    2    0    0  0.00000000000E+00  0.00000000000E+00 -0.98063720456E+03  0.13832179926E+04  0.97552175173E+03 0.  0.
        1    1    3    3  502    0  0.40260372883E+03 -0.24225273153E+03 -0.67592360974E+03  0.82319431159E+03  0.50400001928E-02 0.  1.
       -1    1    3    3    0  502 -0.40260372883E+03  0.24225273153E+03 -0.30471359483E+03  0.56002368102E+03  0.50400001928E-02 0. -1.
</event>
<event>
 5   0  0.4598561E-03  0.1075025E+04  0.7818609E-02  0.9229882E-01
       -1   -1    0    0    0  501  0.00000000000E+00  0.00000000000E+00  0.14082969229E+04  0.14082969229E+04  0.50400001928E-02 0. -1.
        1   -1    0    0  501    0  0.00000000000E+00  0.00000000000E+00 -0.20515529115E+03  0.20515529121E+03  0.50400001928E-02 0.  1.
    10030    2    1    2    0    0  0.00000000000E+00  0.00000000000E+00  0.12031416318E+04  0.16134522141E+04  0.10750247724E+04 0.  0.
        2    1    3    3  502    0 -0.40138111253E+02 -0.49942500738E+03  0.89369043827E+03  0.10245579561E+04  0.25500000920E-02 0. -1.
       -2    1    3    3    0  502  0.40138111253E+02  0.49942500738E+03  0.30945119349E+03  0.58889425802E+03  0.25500000920E-02 0.  1.
</event>
<event>
 5   0  0.7952121E-03  0.1055614E+04  0.7818609E-02  0.9249567E-01
       -2   -1    0    0    0  501  0.00000000000E+00  0.00000000000E+00  0.49923930641E+03  0.49923930642E+03  0.25500000920E-02 0. -1.
        2   -1    0    0  501    0  0.00000000000E+00  0.00000000000E+00 -0.55800954059E+03  0.55800954059E+03  0.25500000920E-02 0.  1.
    10030    2    1    2    0    0  0.00000000000E+00  0.00000000000E+00 -0.58770234173E+02  0.10572488470E+04  0.10556141265E+04 0.  0.
        3    1    3    3  502    0  0.36811254618E+03  0.15075235740E+03  0.31806299840E+03  0.50931051537E+03  0.10100000352E+00 0. -1.
       -3    1    3    3    0  502 -0.36811254618E+03 -0.15075235740E+03 -0.37683323257E+03  0.54793833165E+03  0.10100000352E+00 0.  1.
</event>
<event>
 5   0  0.4428114E-03  0.1098336E+04  0.7818609E-02  0.9206815E-01
       -1   -1    0    0    0  501  0.00000000000E+00  0.00000000000E+00  0.25839379187E+03  0.25839379192E+03  0.50400001928E-02 0.  1.
        1   -1    0    0  501    0  0.00000000000E+00  0.00000000000E+00 -0.11671543690E+04  0.11671543691E+04  0.50400001928E-02 0. -1.
    10030    2    1    2    0    0  0.00000000000E+00  0.00000000000E+00 -0.90876057717E+03  0.14255481610E+04  0.10983359107E+04 0.  0.
        4    1    3    3  502    0 -0.89194676209E+02 -0.15323030805E+03  0.22022242169E+03  0.28272733417E+03  0.12699999809E+01 0.  1.
       -4    1    3    3    0  502  0.89194676209E+02  0.15323030805E+03 -0.11289829989E+04  0.11428208268E+04  0.12699999809E+01 0. -1.
</event>
<event>
 5   0  0.4641021E-03  0.1116074E+04  0.7818609E-02  0.9189665E-01
       -1   -1    0    0    0  501  0.00000000000E+00  0.00000000000E+00  0.52508733952E+03  0.52508733955E+03  0.50400001928E-02 0.  1.
        1   -1    0    0  501    0  0.00000000000E+00  0.00000000000E+00 -0.59305408378E+03  0.59305408380E+03  0.50400001928E-02 0. -1.
    10030    2    1    2    0    0  0.00000000000E+00  0.00000000000E+00 -0.67966744260E+02  0.11181414234E+04  0.11160738167E+04 0.  0.
        1    1    3    3  502    0  0.73969658591E+02  0.94281925128E+02 -0.58001103763E+03  0.59226125620E+03  0.50400001928E-02 0. -1.
       -1    1    3    3    0  502 -0.73969658591E+02 -0.94281925128E+02  0.51204429337E+03  0.52588016715E+03  0.50400001928E-02 0.  1.
</event>
<event>
 5   0  0.4504740E-03  0.1113705E+04  0.7818609E-02  0.9191936E-01
       -1   -1    0    0    0  501  0.00000000000E+00  0.00000000000E+00  0.25305731094E+03  0.25305731099E+03  0.50400001928E-02 0. -1.
        1   -1    0    0  501    0  0.00000000000E+00  0.00000000000E+00 -0.12253546734E+04  0.12253546734E+04  0.50400001928E-02 0.  1.
    10030    2    1    2    0    0  0.00000000000E+00  0.00000000000E+00 -0.97229736242E+03  0.14784119843E+04  0.11137054523E+04 0.  0.
        5    1    3    3  502    0  0.29202903542E+03 -0.35426097646E+03 -0.67877101349E+02  0.46412410825E+03  0.46999998093E+01 0. -1.
       -5    1    3    3    0  502 -0.29202903542E+03  0.35426097646E+03 -0.90442026107E+03  0.10142878761E+04  0.46999998093E+01 0.  1.
</event>
<event>
 5   0  0.7738497E-03  0.1107566E+04  0.7818609E-02  0.9197849E-01
       -2   -1    0    0    0  501  0.00000000000E+00  0.00000000000E+00  0.32977795897E+03  0.32977795898E+03  0.25500000920E-02 0.  1.
        2   -1    0    0  501    0  0.00000000000E+00  0.00000000000E+00 -0.92994538379E+03  0.92994538379E+03  0.25500000920E-02 0. -1.
    10030    2    1    2    0    0  0.00000000000E+00  0.00000000000E+00 -0.60016742481E+03  0.12597233428E+04  0.11075657825E+04 0.  0.
        4    1    3    3  502    0 -0.74361798599E+02  0.13246439647E+03 -0.90578257393E+03  0.91843354554E+03  0.12699999809E+01 0. -1.
       -4    1    3    3    0  502  0.74361798599E+02 -0.13246439647E+03  0.30561514912E+03  0.34128979723E+03  0.12699999809E+01 0.  1.
</event>
<event>
 5   0  0.4598561E-03  0.1106040E+04  0.7818609E-02  0.9199324E-01
       -1   -1    0    0    0  501  0.00000000000E+00  0.00000000000E+00  0.23871788915E+03  0.23871788920E+03  0.50400001928E-02 0.  1.
        1   -1    0    0  501    0  0.00000000000E+00  0.00000000000E+00 -0.12811414738E+04  0.12811414738E+04  0.50400001928E-02 0. -1.
    10030    2    1    2    0    0  0.00000000000E+00  0.00000000000E+00 -0.10424235846E+04  0.15198593630E+04  0.11060404846E+04 0.  0.
        2    1    3    3  502    0  0.20503701749E+03  0.45521403663E+03 -0.19437509975E+03  0.53576270595E+03  0.25500000920E-02 0.  1.
       -2    1    3    3    0  502 -0.20503701749E+03 -0.45521403663E+03 -0.84804848486E+03  0.98409665702E+03  0.25500000920E-02 0. -1.
</event>
<event>
 5   0  0.7712816E-03  0.1110260E+04  0.7818609E-02  0.9195249E-01
       -2   -1    0    0    0  501  0.00000000000E+00  0.00000000000E+00  0.80405037199E+03  0.80405037199E+03  0.25500000920E-02 0. -1.
        2   -1    0    0  501    0  0.00000000000E+00  0.00000000000E+00 -0.38327089736E+03  0.38327089737E+03  0.25500000920E-02 0.  1.
    10030    2    1    2    0    0  0.00000000000E+00  0.00000000000E+00  0.42077947462E+03  0.11873212694E+04  0.11102596230E+04 0.  0.
        2    1    3    3  502    0  0.13375315630E+03 -0.28922444529E+03 -0.27572493575E+03  0.42138453552E+03  0.25500000920E-02 0.  1.
       -2    1    3    3    0  502 -0.13375315630E+03  0.28922444529E+03  0.69650441037E+03  0.76593673384E+03  0.25500000920E-02 0. -1.
</event>
<event>
 5   0  0.7537480E-03  0.1087628E+04  0.7818609E-02  0.9217335E-01
       -2   -1    0    0    0  501  0.00000000000E+00  0.00000000000E+00  0.40059234544E+03  0.40059234544E+03  0.25500000920E-02 0.  1.
        2   -1    0    0  501    0  0.00000000000E+00  0.00000000000E+00 -0.73824101918E+03  0.73824101919E+03  0.25500000920E-02 0. -1.
    10030    2    1    2    0    0  0.00000000000E+00  0.00000000000E+00 -0.33764867375E+03  0.11388333646E+04  0.10876280640E+04 0.  0.
        1    1    3    3  502    0  0.45005661810E+03  0.15718211419E+03 -0.44282438121E+03  0.65065398573E+03  0.50400001928E-02 0. -1.
       -1    1    3    3    0  502 -0.45005661810E+03 -0.15718211419E+03  0.10517570746E+03  0.48817937890E+03  0.50400001928E-02 0.  1.
</event>
<event>
 5   0  0.7766551E-03  0.1095931E+04  0.7818609E-02  0.9209167E-01
        2   -1    0    0  501    0  0.00000000000E+00  0.00000000000E+00  0.12658985973E+04  0.12658985973E+04  0.25500000920E-02 0. -1.
       -2   -1    0    0    0  501  0.00000000000E+00  0.00000000000E+00 -0.23719613550E+03  0.23719613551E+03  0.25500000920E-02 0.  1.
    10030    2    1    2    0    0  0.00000000000E+00  0.00000000000E+00  0.10287024618E+04  0.15030947328E+04  0.10959311205E+04 0.  0.
        5    1    3    3  502    0 -0.43248461081E+03  0.18059044487E+03  0.12500216348E+03  0.48508089865E+03  0.46999998093E+01 0.  1.
       -5    1    3    3    0  502  0.43248461081E+03 -0.18059044487E+03  0.90370029830E+03  0.10180138341E+04  0.46999998093E+01 0. -1.
</event>
<event>
 5   0  0.4598561E-03  0.1019130E+04  0.7818609E-02  0.9287809E-01
        1   -1    0    0  501    0  0.00000000000E+00  0.00000000000E+00  0.12335787948E+04  0.12335787949E+04  0.50400001928E-02 0.  1.
       -1   -1    0    0    0  501  0.00000000000E+00  0.00000000000E+00 -0.21049038568E+03  0.21049038575E+03  0.50400001928E-02 0. -1.
    10030    2    1    2    0    0  0.00000000000E+00  0.00000000000E+00  0.10230884092E+04  0.14440691806E+04  0.10191299747E+04 0.  0.
        2    1    3    3  502    0 -0.11387733380E+03  0.15228781130E+03 -0.15833134906E+03  0.24744381327E+03  0.25500000920E-02 0. -1.
       -2    1    3    3    0  502  0.11387733380E+03 -0.15228781130E+03  0.11814197582E+04  0.11966253673E+04  0.25500000920E-02 0.  1.
</event>
<event>
 5   0  0.4428114E-03  0.1111734E+04  0.7818609E-02  0.9193830E-01
       -1   -1    0    0    0  501  0.00000000000E+00  0.00000000000E+00  0.30219447652E+03  0.30219447656E+03  0.50400001928E-02 0. -1.
        1   -1    0    0  501    0  0.00000000000E+00  0.00000000000E+00 -0.10224811914E+04  0.10224811914E+04  0.50400001928E-02 0.  1.
    10030    2    1    2    0    0  0.00000000000E+00  0.00000000000E+00 -0.72028671490E+03  0.13246756680E+04  0.11117340841E+04 0.  0.
        4    1    3    3  502    0  0.35648628366E+03 -0.40374079449E+03 -0.19634471077E+03  0.57327302215E+03  0.12699999809E+01 0. -1.
       -4    1    3    3    0  502 -0.35648628366E+03  0.40374079449E+03 -0.52394200414E+03  0.75140264584E+03  0.12699999809E+01 0.  1.
</event>
<event>
 5   0  0.7738497E-03  0.1141835E+04  0.7818609E-02  0.9165349E-01
        2   -1    0    0  501    0  0.00000000000E+00  0.00000000000E+00  0.17148186179E+04  0.17148186179E+04  0.25500000920E-02 0.  1.
       -2   -1    0    0    0  501  0.00000000000E+00  0.00000000000E+00 -0.19007658874E+03  0.19007658876E+03  0.25500000920E-02 0. -1.
    10030    2    1    2    0    0  0.00000000000E+00  0.00000000000E+00  0.15247420291E+04  0.19048952066E+04  0.11418351426E+04 0.  0.
        4    1    3    3  502    0 -0.11101880710E+03  0.23891367059E+03  0.16073492428E+04  0.16287965247E+04  0.12699999809E+01 0.  1.
       -4    1    3    3    0  502  0.11101880710E+03 -0.23891367059E+03 -0.82607213687E+02  0.27609868196E+03  0.12699999809E+01 0. -1.
</event>
<event>
 5   0  0.7952121E-03  0.1098774E+04  0.7818609E-02  0.9206387E-01
        2   -1    0    0  501    0  0.00000000000E+00  0.00000000000E+00  0.51242277154E+03  0.51242277155E+03  0.25500000920E-02 0.  1.
       -2   -1    0    0    0  501  0.00000000000E+00  0.00000000000E+00 -0.58901798274E+03  0.58901798274E+03  0.25500000920E-02 0. -1.
    10030    2    1    2    0    0  0.00000000000E+00  0.00000000000E+00 -0.76595211195E+02  0.11014407543E+04  0.10987742757E+04 0.  0.
        3    1    3    3  502    0  0.13909538068E+03  0.16646573748E+03 -0.54426784142E+03  0.58590601643E+03  0.10100000352E+00 0. -1.
       -3    1    3    3    0  502 -0.13909538068E+03 -0.16646573748E+03  0.46767263023E+03  0.51553473786E+03  0.10100000352E+00 0.  1.
</event>
<event>
 5   0  0.4641021E-03  0.1105746E+04  0.7818609E-02  0.9199609E-01
        1   -1    0    0  501    0  0.00000000000E+00  0.00000000000E+00  0.98033765702E+03  0.98033765704E+03  0.50400001928E-02 0. -1.
       -1   -1    0    0    0  501  0.00000000000E+00  0.00000000000E+00 -0.31179931348E+03  0.31179931352E+03  0.50400001928E-02 0.  1.
    10030    2    1    2    0    0  0.00000000000E+00  0.00000000000E+00  0.66853834354E+03  0.12921369706E+04  0.11057460983E+04 0.  0.
        1    1    3    3  502    0 -0.17554325847E+03 -0.15193918375E+03 -0.25207566672E+03  0.34269971247E+03  0.50400001928E-02 0.  1.
       -1    1    3    3    0  502  0.17554325847E+03  0.15193918375E+03  0.92061401025E+03  0.94943725809E+03  0.50400001928E-02 0. -1.
</event>
<event>
 5   0  0.4641021E-03  0.1090506E+04  0.7818609E-02  0.9214495E-01
        1   -1    0    0  501    0  0.00000000000E+00  0.00000000000E+00  0.69883272808E+03  0.69883272810E+03  0.50400001928E-02 0. -1.
       -1   -1    0    0    0  501  0.00000000000E+00  0.00000000000E+00 -0.42542513532E+03  0.42542513535E+03  0.50400001928E-02 0.  1.
    10030    2    1    2    0    0  0.00000000000E+00  0.00000000000E+00  0.27340759276E+03  0.11242578634E+04  0.10905063190E+04 0.  0.
        1    1    3    3  502    0  0.40941445243E+03  0.11572273554E+03 -0.21486245811E+03  0.47663174602E+03  0.50400001928E-02 0.  1.
       -1    1    3    3    0  502 -0.40941445243E+03 -0.11572273554E+03  0.48827005087E+03  0.64762611743E+03  0.50400001928E-02 0. -1.
</event>
<event>
 5   0  0.4598561E-03  0.1100446E+04  0.7818609E-02  0.9204757E-01
        1   -1    0    0  501    0  0.00000000000E+00  0.00000000000E+00  0.12736780395E+04  0.12736780395E+04  0.50400001928E-02 0.  1.
       -1   -1    0    0    0  501  0.00000000000E+00  0.00000000000E+00 -0.23769381300E+03  0.23769381305E+03  0.50400001928E-02 0. -1.
    10030    2    1    2    0    0  0.00000000000E+00  0.00000000000E+00  0.10359842265E+04  0.15113718526E+04  0.11004460728E+04 0.  0.
        2    1    3    3  502    0  0.18180808982E+02  0.22487090778E+03 -0.17124991456E+03  0.28323841587E+03  0.25500000920E-02 0. -1.
       -2    1    3    3    0  502 -0.18180808982E+02 -0.22487090778E+03  0.12072341411E+04  0.12281334367E+04  0.25500000920E-02 0.  1.
</event>
<event>
 5   0  0.4598561E-03  0.1097092E+04  0.7818609E-02  0.9208031E-01
        1   -1    0    0  501    0  0.00000000000E+00  0.00000000000E+00  0.22168184752E+03  0.22168184758E+03  0.50400001928E-02 0. -1.
       -1   -1    0    0    0  501  0.00000000000E+00  0.00000000000E+00 -0.13573626265E+04  0.13573626266E+04  0.50400001928E-02 0.  1.
    10030    2    1    2    0    0  0.00000000000E+00  0.00000000000E+00 -0.11356807790E+04  0.15790444741E+04  0.10970918920E+04 0.  0.
        2    1    3    3  502    0 -0.84224718050E+02 -0.17456275068E+03  0.17075577726E+03  0.25830890912E+03  0.25500000920E-02 0. -1.
       -2    1    3    3    0  502  0.84224718050E+02  0.17456275068E+03 -0.13064365563E+04  0.13207355650E+04  0.25500000920E-02 0.  1.
</event>
<event>
 5   0  0.7766551E-03  0.1108088E+04  0.7818609E-02  0.9197345E-01
       -2   -1    0    0    0  501  0.00000000000E+00  0.00000000000E+00  0.18325169565E+03  0.18325169567E+03  0.25500000920E-02 0. -1.
        2   -1    0    0  501    0  0.00000000000E+00  0.00000000000E+00 -0.16750982185E+04  0.16750982185E+04  0.25500000920E-02 0.  1.
    10030    2    1    2    0    0  0.00000000000E+00  0.00000000000E+00 -0.14918465228E+04  0.18583499141E+04  0.11080877022E+04 0.  0.
        5    1    3    3  502    0 -0.19852124029E+03 -0.25879664984E+03  0.51309847335E+01  0.32624347628E+03  0.46999998093E+01 0. -1.
       -5    1    3    3    0  502  0.19852124029E+03  0.25879664984E+03 -0.14969775075E+04  0.15321064379E+04  0.46999998093E+01 0.  1.
</event>
<event>
 5   0  0.4504740E-03  0.1078866E+04  0.7818609E-02  0.9226039E-01
       -1   -1    0    0    0  501  0.00000000000E+00  0.00000000000E+00  0.39242669591E+03  0.39242669594E+03  0.50400001928E-02 0. -1.
        1   -1    0    0  501    0  0.00000000000E+00  0.00000000000E+00 -0.74150877325E+03  0.74150877327E+03  0.50400001928E-02 0.  1.
    10030    2    1    2    0    0  0.00000000000E+00  0.00000000000E+00 -0.34908207734E+03  0.11339354692E+04  0.10788657709E+04 0.  0.
        5    1    3    3  502    0  0.17953152037E+03 -0.28502185327E+03 -0.61734968959E+03  0.70328639464E+03  0.46999998093E+01 0.  1.
       -5    1    3    3    0  502 -0.17953152037E+03  0.28502185327E+03  0.26826761225E+03  0.43064907457E+03  0.46999998093E+01 0. -1.
</event>
<event>
 5   0  0.4298101E-03  0.1042987E+04  0.7818609E-02  0.9262614E-01
       -1   -1    0    0    0  501  0.00000000000E+00  0.00000000000E+00  0.52614279485E+03  0.52614279488E+03  0.50400001928E-02 0. -1.
        1   -1    0    0  501    0  0.00000000000E+00  0.00000000000E+00 -0.51688551683E+03  0.51688551685E+03  0.50400001928E-02 0.  1.
    10030    2    1    2    0    0  0.00000000000E+00  0.00000000000E+00  0.92572780233E+01  0.10430283117E+04  0.10429872300E+04 0.  0.
        3    1    3    3  502    0 -0.19189485322E+03 -0.20297885973E+03  0.44502256012E+03  0.52542282155E+03  0.10100000352E+00 0. -1.
       -3    1    3    3    0  502  0.19189485322E+03  0.20297885973E+03 -0.43576528209E+03  0.51760549018E+03  0.10100000352E+00 0.  1.
</event>
<event>
 5   0  0.4504740E-03  0.1089103E+04  0.7818609E-02  0.9215879E-01
       -1   -1    0    0    0  501  0.00000000000E+00  0.00000000000E+00  0.22600724173E+03  0.22600724179E+03  0.50400001928E-02 0. -1.
        1   -1    0    0  501    0  0.00000000000E+00  0.00000000000E+00 -0.13120647737E+04  0.13120647737E+04  0.50400001928E-02 0.  1.
    10030    2    1    2    0    0  0.00000000000E+00  0.00000000000E+00 -0.10860575320E+04  0.15380720155E+04  0.10891026408E+04 0.  0.
        5    1    3    3  502    0 -0.23067874437E+03  0.42416288568E+03 -0.89858532197E+03  0.10201002439E+04  0.46999998093E+01 0.  1.
       -5    1    3    3    0  502  0.23067874437E+03 -0.42416288568E+03 -0.18747221001E+03  0.51797177164E+03  0.46999998093E+01 0. -1.
</event>
<event>
 5   0  0.4428114E-03  0.1104078E+04  0.7818609E-02  0.9201226E-01
        1   -1    0    0  501    0  0.00000000000E+00  0.00000000000E+00  0.11138670885E+04  0.11138670885E+04  0.50400001928E-02 0.  1.
       -1   -1    0    0    0  501  0.00000000000E+00  0.00000000000E+00 -0.27359365628E+03  0.27359365633E+03  0.50400001928E-02 0. -1.
    10030    2    1    2    0    0  0.00000000000E+00  0.00000000000E+00  0.84027343225E+03  0.13874607449E+04  0.11040778404E+04 0.  0.
        4    1    3    3  502    0  0.49265791217E+03 -0.24338697111E+03  0.48658969828E+03  0.73397560143E+03  0.12699999809E+01 0.  1.
       -4    1    3    3    0  502 -0.49265791217E+03  0.24338697111E+03  0.35368373398E+03  0.65348514345E+03  0.12699999809E+01 0. -1.
</event>
<event>
 5   0  0.7712816E-03  0.1104520E+04  0.7818609E-02  0.9200798E-01
        2   -1    0    0  501    0  0.00000000000E+00  0.00000000000E+00  0.14418479110E+04  0.14418479110E+04  0.25500000920E-02 0.  1.
       -2   -1    0    0    0  501  0.00000000000E+00  0.00000000000E+00 -0.21152794336E+03  0.21152794337E+03  0.25500000920E-02 0. -1.
    10030    2    1    2    0    0  0.00000000000E+00  0.00000000000E+00  0.12303199676E+04  0.16533758544E+04  0.11045200284E+04 0.  0.
        2    1    3    3  502    0  0.21172768673E+03 -0.37704589548E+03  0.11293657943E+04  0.12093218422E+04  0.25500000920E-02 0.  1.
       -2    1    3    3    0  502 -0.21172768673E+03  0.37704589548E+03  0.10095417334E+03  0.44405401219E+03  0.25500000920E-02 0. -1.
</event>
<event>
 5   0  0.7537480E-03  0.1120590E+04  0.7818609E-02  0.9185352E-01
        2   -1    0    0  501    0  0.00000000000E+00  0.00000000000E+00  0.14436225144E+04  0.14436225144E+04  0.25500000920E-02 0. -1.
       -2   -1    0    0    0  501  0.00000000000E+00  0.00000000000E+00 -0.21746037998E+03  0.21746037999E+03  0.25500000920E-02 0.  1.
    10030    2    1    2    0    0  0.00000000000E+00  0.00000000000E+00  0.12261621344E+04  0.16610828944E+04  0.11205903811E+04 0.  0.
        1    1    3    3  502    0  0.51182290762E+03 -0.21470767201E+02  0.27666431107E+03  0.58220857401E+03  0.50400001928E-02 0.  1.
       -1    1    3    3    0  502 -0.51182290762E+03  0.21470767201E+02  0.94949782338E+03  0.10788743204E+04  0.50400001928E-02 0. -1.
</event>
<event>
 5   0  0.4504740E-03  0.1077853E+04  0.7818609E-02  0.9227051E-01
       -1   -1    0    0    0  501  0.00000000000E+00  0.00000000000E+00  0.66598335815E+03  0.66598335817E+03  0.50400001928E-02 0. -1.
        1   -1    0    0  501    0  0.00000000000E+00  0.00000000000E+00 -0.43610970105E+03  0.43610970108E+03  0.50400001928E-02 0.  1.
    10030    2    1    2    0    0  0.00000000000E+00  0.00000000000E+00  0.22987365710E+03  0.11020930592E+04  0.10778530572E+04 0.  0.
        5    1    3    3  502    0 -0.22134521255E+03  0.47516662050E+03  0.24282031534E+03  0.57772036133E+03  0.46999998093E+01 0. -1.
       -5    1    3    3    0  502  0.22134521255E+03 -0.47516662050E+03 -0.12946658243E+02  0.52437269791E+03  0.46999998093E+01 0.  1.
</event>
<event>
 5   0  0.4598561E-03  0.1092514E+04  0.7818609E-02  0.9212519E-01
       -1   -1    0    0    0  501  0.00000000000E+00  0.00000000000E+00  0.77040807375E+03  0.77040807377E+03  0.50400001928E-02 0. -1.
        1   -1    0    0  501    0  0.00000000000E+00  0.00000000000E+00 -0.38732323187E+03  0.38732323191E+03  0.50400001928E-02 0.  1.
    10030    2    1    2    0    0  0.00000000000E+00  0.00000000000E+00  0.38308484188E+03  0.11577313057E+04  0.10925144301E+04 0.  0.
        2    1    3    3  502    0 -0.93158059765E+02 -0.53541532100E+03  0.25005592398E+03  0.59822734406E+03  0.25500000920E-02 0.  1.
       -2    1    3    3    0  502  0.93158059765E+02  0.53541532100E+03  0.13302891790E+03  0.55950396161E+03  0.25500000920E-02 0. -1.
</event>
<event>
 5   0  0.4298101E-03  0.1066110E+04  0.7818609E-02  0.9238868E-01
        1   -1    0    0  501    0  0.00000000000E+00  0.00000000000E+00  0.37383507450E+04  0.37383507451E+04  0.50400001928E-02 0. -1.
       -1   -1    0    0    0  501  0.00000000000E+00  0.00000000000E+00 -0.76008832801E+02  0.76008832968E+02  0.50400001928E-02 0.  1.
    10030    2    1    2    0    0  0.00000000000E+00  0.00000000000E+00  0.36623419122E+04  0.38143595780E+04  0.10661100826E+04 0.  0.
        3    1    3    3  502    0  0.90011531094E+02 -0.30723666832E+03  0.30628016694E+03  0.44306206896E+03  0.10100000352E+00 0.  1.
       -3    1    3    3    0  502 -0.90011531094E+02  0.30723666832E+03  0.33560617453E+04  0.33712975091E+04  0.10100000352E+00 0. -1.
</event>
<event>
 5   0  0.7712816E-03  0.1096241E+04  0.7818609E-02  0.9208864E-01
       -2   -1    0    0    0  501  0.00000000000E+00  0.00000000000E+00  0.29134959921E+03  0.29134959922E+03  0.25500000920E-02 0.  1.
        2   -1    0    0  501    0  0.00000000000E+00  0.00000000000E+00 -0.10311872354E+04  0.10311872354E+04  0.25500000920E-02 0. -1.
    10030    2    1    2    0    0  0.00000000000E+00  0.00000000000E+00 -0.73983763615E+03  0.13225368346E+04  0.10962408271E+04 0.  0.
        2    1    3    3  502    0 -0.11459314006E+03 -0.13966846384E+03 -0.99423523532E+03  0.10105159923E+04  0.25500000920E-02 0. -1.
       -2    1    3    3    0  502  0.11459314006E+03  0.13966846384E+03  0.25439759917E+03  0.31202084227E+03  0.25500000920E-02 0.  1.
</event>
<event>
 5   0  0.7537480E-03  0.1095418E+04  0.7818609E-02  0.9209669E-01
       -2   -1    0    0    0  501  0.00000000000E+00  0.00000000000E+00  0.35165124655E+03  0.35165124656E+03  0.25500000920E-02 0. -1.
        2   -1    0    0  501    0  0.00000000000E+00  0.00000000000E+00 -0.85307629926E+03  0.85307629926E+03  0.25500000920E-02 0.  1.
    10030    2    1    2    0    0  0.00000000000E+00  0.00000000000E+00 -0.50142505271E+03  0.12047275458E+04  0.10954183567E+04 0.  0.
        1    1    3    3  502    0 -0.34237914194E+03 -0.95529399689E+02  0.20756516180E+03  0.41162196183E+03  0.50400001928E-02 0. -1.
       -1    1    3    3    0  502  0.34237914194E+03  0.95529399689E+02 -0.70899021452E+03  0.79310558399E+03  0.50400001928E-02 0.  1.
</event>
<event>
 5   0  0.4641021E-03  0.1111387E+04  0.7818609E-02  0.9194164E-01
        1   -1    0    0  501    0  0.00000000000E+00  0.00000000000E+00  0.92386670636E+03  0.92386670638E+03  0.50400001928E-02 0. -1.
       -1   -1    0    0    0  501  0.00000000000E+00  0.00000000000E+00 -0.33424193903E+03  0.33424193907E+03  0.50400001928E-02 0.  1.
    10030    2    1    2    0    0  0.00000000000E+00  0.00000000000E+00  0.58962476733E+03  0.12581086454E+04  0.11113865203E+04 0.  0.
        1    1    3    3  502    0  0.41455812435E+03  0.16212153749E+03  0.67137304478E+03  0.80553311333E+03  0.50400001928E-02 0. -1.
       -1    1    3    3    0  502 -0.41455812435E+03 -0.16212153749E+03 -0.81748277451E+02  0.45257553212E+03  0.50400001928E-02 0.  1.
</event>
<event>
 5   0  0.7712816E-03  0.1038870E+04  0.7818609E-02  0.9266911E-01
        2   -1    0    0  501    0  0.00000000000E+00  0.00000000000E+00  0.54458686548E+03  0.54458686549E+03  0.25500000920E-02 0. -1.
       -2   -1    0    0    0  501  0.00000000000E+00  0.00000000000E+00 -0.49544438724E+03  0.49544438725E+03  0.25500000920E-02 0.  1.
    10030    2    1    2    0    0  0.00000000000E+00  0.00000000000E+00  0.49142478239E+02  0.10400312527E+04  0.10388695893E+04 0.  0.
        2    1    3    3  502    0 -0.29400924315E+03 -0.41900088978E+03 -0.63897962910E+02  0.51583537138E+03  0.25500000920E-02 0. -1.
       -2    1    3    3    0  502  0.29400924315E+03  0.41900088978E+03  0.11304044115E+03  0.52419588136E+03  0.25500000920E-02 0.  1.
</event>
<event>
 5   0  0.4428114E-03  0.1053525E+04  0.7818609E-02  0.9251712E-01
        1   -1    0    0  501    0  0.00000000000E+00  0.00000000000E+00  0.17337728941E+04  0.17337728941E+04  0.50400001928E-02 0. -1.
       -1   -1    0    0    0  501  0.00000000000E+00  0.00000000000E+00 -0.16004341448E+03  0.16004341456E+03  0.50400001928E-02 0.  1.
    10030    2    1    2    0    0  0.00000000000E+00  0.00000000000E+00  0.15737294796E+04  0.18938163087E+04  0.10535253846E+04 0.  0.
        4    1    3    3  502    0 -0.99531597010E+02  0.26734496258E+03 -0.91641407449E+01  0.28542155174E+03  0.12699999809E+01 0.  1.
       -4    1    3    3    0  502  0.99531597010E+02 -0.26734496258E+03  0.15828936204E+04  0.16083947569E+04  0.12699999809E+01 0. -1.
</event>
<event>
 5   0  0.2992375E-03  0.1034075E+04  0.7818609E-02  0.9271941E-01
       -3   -1    0    0    0  501  0.00000000000E+00  0.00000000000E+00  0.18289814289E+03  0.18289817078E+03  0.10100000352E+00 0.  1.
        3   -1    0    0  501    0  0.00000000000E+00  0.00000000000E+00 -0.14616219577E+04  0.14616219612E+04  0.10100000352E+00 0. -1.
    10030    2    1    2    0    0  0.00000000000E+00  0.00000000000E+00 -0.12787238148E+04  0.16445201319E+04  0.10340753695E+04 0.  0.
        1    1    3    3  502    0  0.63321013991E+02  0.28313690350E+02 -0.14541890951E+04  0.14558424160E+04  0.50400001928E-02 0. -1.
       -1    1    3    3    0  502 -0.63321013991E+02 -0.28313690350E+02  0.17546528032E+03  0.18867771595E+03  0.50400001928E-02 0.  1.
</event>
<event>
 5   0  0.4298101E-03  0.1089063E+04  0.7818609E-02  0.9215917E-01
       -1   -1    0    0    0  501  0.00000000000E+00  0.00000000000E+00  0.13117735332E+04  0.13117735332E+04  0.50400001928E-02 0. -1.
        1   -1    0    0  501    0  0.00000000000E+00  0.00000000000E+00 -0.22604111923E+03  0.22604111929E+03  0.50400001928E-02 0.  1.
    10030    2    1    2    0    0  0.00000000000E+00  0.00000000000E+00  0.10857324140E+04  0.15378146525E+04  0.10890633731E+04 0.  0.
        3    1    3    3  502    0 -0.33886477958E+03  0.42152491833E+03  0.63219626669E+03  0.83197639716E+03  0.10100000352E+00 0.  1.
       -3    1    3    3    0  502  0.33886477958E+03 -0.42152491833E+03  0.45353614730E+03  0.70583825535E+03  0.10100000352E+00 0. -1.
</event>
<event>
 5   0  0.7766551E-03  0.9908420E+03  0.7818609E-02  0.9318646E-01
       -2   -1    0    0    0  501  0.00000000000E+00  0.00000000000E+00  0.93246711092E+03  0.93246711093E+03  0.25500000920E-02 0.  1.
        2   -1    0    0  501    0  0.00000000000E+00  0.00000000000E+00 -0.26321785205E+03  0.26321785207E+03  0.25500000920E-02 0. -1.
    10030    2    1    2    0    0  0.00000000000E+00  0.00000000000E+00  0.66924925887E+03  0.11956849630E+04  0.99084204606E+03 0.  0.
        5    1    3    3  502    0  0.40040362029E+03  0.26149129370E+03  0.17859058620E+03  0.51050704530E+03  0.46999998093E+01 0. -1.
       -5    1    3    3    0  502 -0.40040362029E+03 -0.26149129370E+03  0.49065867267E+03  0.68517791769E+03  0.46999998093E+01 0.  1.
</event>
<event>
 5   0  0.7712816E-03  0.1090905E+04  0.7818609E-02  0.9214102E-01
        2   -1    0    0  501    0  0.00000000000E+00  0.00000000000E+00  0.47266538572E+03  0.47266538573E+03  0.25500000920E-02 0. -1.
       -2   -1    0    0    0  501  0.00000000000E+00  0.00000000000E+00 -0.62944824810E+03  0.62944824810E+03  0.25500000920E-02 0.  1.
    10030    2    1    2    0    0  0.00000000000E+00  0.00000000000E+00 -0.15678286238E+03  0.11021136338E+04  0.10909049436E+04 0.  0.
        2    1    3    3  502    0 -0.18367854232E+03  0.26323844759E+03 -0.52392841663E+03  0.61443736292E+03  0.25500000920E-02 0.  1.
       -2    1    3    3    0  502  0.18367854232E+03 -0.26323844759E+03  0.36714555425E+03  0.48767627091E+03  0.25500000920E-02 0. -1.
</event>
<event>
 5   0  0.2992375E-03  0.1109938E+04  0.7818609E-02  0.9195559E-01
       -3   -1    0    0    0  501  0.00000000000E+00  0.00000000000E+00  0.50237761397E+03  0.50237762413E+03  0.10100000352E+00 0.  1.
        3   -1    0    0  501    0  0.00000000000E+00  0.00000000000E+00 -0.61306607647E+03  0.61306608479E+03  0.10100000352E+00 0. -1.
    10030    2    1    2    0    0  0.00000000000E+00  0.00000000000E+00 -0.11068846250E+03  0.11154437089E+04  0.11099381659E+04 0.  0.
        2    1    3    3  502    0  0.50512298586E+03 -0.22651007692E+03 -0.94712991262E+02  0.56162852181E+03  0.25500000920E-02 0. -1.
       -2    1    3    3    0  502 -0.50512298586E+03  0.22651007692E+03 -0.15975471236E+02  0.55381518711E+03  0.25500000920E-02 0.  1.
</event>
<event>
 5   0  0.4504740E-03  0.1077217E+04  0.7818609E-02  0.9227686E-01
       -1   -1    0    0    0  501  0.00000000000E+00  0.00000000000E+00  0.37772289305E+03  0.37772289308E+03  0.50400001928E-02 0.  1.
        1   -1    0    0  501    0  0.00000000000E+00  0.00000000000E+00 -0.76802162951E+03  0.76802162953E+03  0.50400001928E-02 0. -1.
    10030    2    1    2    0    0  0.00000000000E+00  0.00000000000E+00 -0.39029873646E+03  0.11457445226E+04  0.10772174374E+04 0.  0.
        5    1    3    3  502    0  0.13479613316E+03  0.32516100698E+03  0.23843202339E+03  0.42517243297E+03  0.46999998093E+01 0.  1.
       -5    1    3    3    0  502 -0.13479613316E+03 -0.32516100698E+03 -0.62873075986E+03  0.72057208964E+03  0.46999998093E+01 0. -1.
</event>
<event>
 5   0  0.4598561E-03  0.1089740E+04  0.7818609E-02  0.9215250E-01
       -1   -1    0    0    0  501  0.00000000000E+00  0.00000000000E+00  0.30907452635E+03  0.30907452639E+03  0.50400001928E-02 0. -1.
        1   -1    0    0  501    0  0.00000000000E+00  0.00000000000E+00 -0.96055627281E+03  0.96055627282E+03  0.50400001928E-02 0.  1.
    10030    2    1    2    0    0  0.00000000000E+00  0.00000000000E+00 -0.65148174646E+03  0.12696307992E+04  0.10897402903E+04 0.  0.
        2    1    3    3  502    0 -0.45999716119E+03  0.73591794895E+02  0.35253579458E+01  0.46586003127E+03  0.25500000920E-02 0. -1.
       -2    1    3    3    0  502  0.45999716119E+03 -0.73591794895E+02 -0.65500710440E+03  0.80377076794E+03  0.25500000920E-02 0.  1.
</event>
<event>
 5   0  0.4641021E-03  0.1154359E+04  0.7818609E-02  0.9153771E-01
        1   -1    0    0  501    0  0.00000000000E+00  0.00000000000E+00  0.16071019932E+04  0.16071019932E+04  0.50400001928E-02 0. -1.
       -1   -1    0    0    0  501  0.00000000000E+00  0.00000000000E+00 -0.20729006989E+03  0.20729006995E+03  0.50400001928E-02 0.  1.
    10030    2    1    2    0    0  0.00000000000E+00  0.00000000000E+00  0.13998119233E+04  0.18143920632E+04  0.11543591894E+04 0.  0.
        1    1    3    3  502    0 -0.25899488710E+03  0.85977622978E+01  0.15105271264E+04  0.15325940339E+04  0.50400001928E-02 0. -1.
       -1    1    3    3    0  502  0.25899488710E+03 -0.85977622978E+01 -0.11071520313E+03  0.28179802925E+03  0.50400001928E-02 0.  1.
</event>
<event>
 5   0  0.7712816E-03  0.9066163E+03  0.7818609E-02  0.9417348E-01
        2   -1    0    0  501    0  0.00000000000E+00  0.00000000000E+00  0.41164392590E+03  0.41164392591E+03  0.25500000920E-02 0.  1.
       -2   -1    0    0    0  501  0.00000000000E+00  0.00000000000E+00 -0.49918935113E+03  0.49918935113E+03  0.25500000920E-02 0. -1.
    10030    2    1    2    0    0  0.00000000000E+00  0.00000000000E+00 -0.87545425223E+02  0.91083327705E+03  0.90661626783E+03 0.  0.
        2    1    3    3  502    0  0.11151705090E+03  0.65352914065E+02  0.39273785508E+03  0.41346109712E+03  0.25500000920E-02 0.  1.
       -2    1    3    3    0  502 -0.11151705090E+03 -0.65352914065E+02 -0.48028328030E+03  0.49737217992E+03  0.25500000920E-02 0. -1.
</event>
<event>
 5   0  0.4641021E-03  0.1094993E+04  0.7818609E-02  0.9210085E-01
        1   -1    0    0  501    0  0.00000000000E+00  0.00000000000E+00  0.57371373884E+03  0.57371373886E+03  0.50400001928E-02 0.  1.
       -1   -1    0    0    0  501  0.00000000000E+00  0.00000000000E+00 -0.52247777892E+03  0.52247777894E+03  0.50400001928E-02 0. -1.
    10030    2    1    2    0    0  0.00000000000E+00  0.00000000000E+00  0.51235959922E+02  0.10961915178E+04  0.10949934795E+04 0.  0.
        1    1    3    3  502    0  0.18865655751E+03  0.43527008509E+03 -0.24799650804E+03  0.53530702563E+03  0.50400001928E-02 0. -1.
       -1    1    3    3    0  502 -0.18865655751E+03 -0.43527008509E+03  0.29923246796E+03  0.56088449218E+03  0.50400001928E-02 0.  1.
</event>
<event>
 5   0  0.7766551E-03  0.1071059E+04  0.7818609E-02  0.9233868E-01
        2   -1    0    0  501    0  0.00000000000E+00  0.00000000000E+00  0.86959724196E+03  0.86959724196E+03  0.25500000920E-02 0. -1.
       -2   -1    0    0    0  501  0.00000000000E+00  0.00000000000E+00 -0.32979830689E+03  0.32979830690E+03  0.25500000920E-02 0.  1.
    10030    2    1    2    0    0  0.00000000000E+00  0.00000000000E+00  0.53979893507E+03  0.11993955489E+04  0.10710587250E+04 0.  0.
        5    1    3    3  502    0  0.54136872014E+02 -0.22707906832E+03 -0.26979673104E+03  0.35680256481E+03  0.46999998093E+01 0.  1.
       -5    1    3    3    0  502 -0.54136872014E+02  0.22707906832E+03  0.80959566611E+03  0.84259298404E+03  0.46999998093E+01 0. -1.
</event>
<event>
 5   0  0.4298101E-03  0.1128932E+04  0.7818609E-02  0.9177443E-01
        1   -1    0    0  501    0  0.00000000000E+00  0.00000000000E+00  0.10293149664E+04  0.10293149664E+04  0.50400001928E-02 0.  1.
       -1   -1    0    0    0  501  0.00000000000E+00  0.00000000000E+00 -0.30954726551E+03  0.30954726556E+03  0.50400001928E-02 0. -1.
    10030    2    1    2    0    0  0.00000000000E+00  0.00000000000E+00  0.71976770091E+03  0.13388622320E+04  0.11289315892E+04 0.  0.
        3    1    3    3  502    0 -0.41301407845E+03  0.24624559222E+02 -0.95489918554E+02  0.42462375424E+03  0.10100000352E+00 0. -1.
       -3    1    3    3    0  502  0.41301407845E+03 -0.24624559222E+02  0.81525761947E+03  0.91423847776E+03  0.10100000352E+00 0.  1.
</event>
<event>
 5   0  0.4504740E-03  0.1088654E+04  0.7818609E-02  0.9216322E-01
       -1   -1    0    0    0  501  0.00000000000E+00  0.00000000000E+00  0.19252343019E+04  0.19252343019E+04  0.50400001928E-02 0.  1.
        1   -1    0    0  501    0  0.00000000000E+00  0.00000000000E+00 -0.15389903910E+03  0.15389903918E+03  0.50400001928E-02 0. -1.
    10030    2    1    2    0    0  0.00000000000E+00  0.00000000000E+00  0.17713352628E+04  0.20791333411E+04  0.10886536808E+04 0.  0.
        5    1    3    3  502    0 -0.25489386494E+03  0.46535853816E+03  0.11175372304E+04  0.12371099396E+04  0.46999998093E+01 0.  1.
       -5    1    3    3    0  502  0.25489386494E+03 -0.46535853816E+03  0.65379803244E+03  0.84202340148E+03  0.46999998093E+01 0. -1.
</event>
<event>
 5   0  0.4504740E-03  0.1106697E+04  0.7818609E-02  0.9198689E-01
       -1   -1    0    0    0  501  0.00000000000E+00  0.00000000000E+00  0.11837480979E+04  0.11837480979E+04  0.50400001928E-02 0.  1.
        1   -1    0    0  501    0  0.00000000000E+00  0.00000000000E+00 -0.25866516857E+03  0.25866516862E+03  0.50400001928E-02 0. -1.
    10030    2    1    2    0    0  0.00000000000E+00  0.00000000000E+00  0.92508292929E+03  0.14424132665E+04  0.11066967088E+04 0.  0.
        5    1    3    3  502    0  0.21288858680E+03 -0.47589609309E+03  0.70418436419E+03  0.87618282942E+03  0.46999998093E+01 0.  1.
       -5    1    3    3    0  502 -0.21288858680E+03  0.47589609309E+03  0.22089856510E+03  0.56623043707E+03  0.46999998093E+01 0. -1.
</event>
<event>
 5   0  0.7712816E-03  0.1092590E+04  0.7818609E-02  0.9212444E-01
       -2   -1    0    0    0  501  0.00000000000E+00  0.00000000000E+00  0.34336783314E+03  0.34336783315E+03  0.25500000920E-02 0.  1.
        2   -1    0    0  501    0  0.00000000000E+00  0.00000000000E+00 -0.86915005408E+03  0.86915005408E+03  0.25500000920E-02 0. -1.
    10030    2    1    2    0    0  0.00000000000E+00  0.00000000000E+00 -0.52578222093E+03  0.12125178872E+04  0.10925898970E+04 0.  0.
        2    1    3    3  502    0  0.27740288268E+03  0.46081869162E+03 -0.15684063637E+03  0.56027244363E+03  0.25500000920E-02 0.  1.
       -2    1    3    3    0  502 -0.27740288268E+03 -0.46081869162E+03 -0.36894158457E+03  0.65224544360E+03  0.25500000920E-02 0. -1.
</event>
<event>
 5   0  0.4504740E-03  0.1101577E+04  0.7818609E-02  0.9203656E-01
        1   -1    0    0  501    0  0.00000000000E+00  0.00000000000E+00  0.85468350602E+03  0.85468350604E+03  0.50400001928E-02 0.  1.
       -1   -1    0    0    0  501  0.00000000000E+00  0.00000000000E+00 -0.35494769234E+03  0.35494769238E+03  0.50400001928E-02 0. -1.
    10030    2    1    2    0    0  0.00000000000E+00  0.00000000000E+00  0.49973581368E+03  0.12096311984E+04  0.11015769391E+04 0.  0.
        5    1    3    3  502    0  0.15158877553E+03 -0.51216122880E+03  0.10230820753E+03  0.54385415369E+03  0.46999998093E+01 0. -1.
       -5    1    3    3    0  502 -0.15158877553E+03  0.51216122880E+03  0.39742760615E+03  0.66577704473E+03  0.46999998093E+01 0.  1.
</event>
<event>
 5   0  0.4641021E-03  0.1112009E+04  0.7818609E-02  0.9193566E-01
       -1   -1    0    0    0  501  0.00000000000E+00  0.00000000000E+00  0.51658211222E+03  0.51658211224E+03  0.50400001928E-02 0. -1.
        1   -1    0    0  501    0  0.00000000000E+00  0.00000000000E+00 -0.59843493185E+03  0.59843493187E+03  0.50400001928E-02 0.  1.
    10030    2    1    2    0    0  0.00000000000E+00  0.00000000000E+00 -0.81852819632E+02  0.11150170441E+04  0.11120085991E+04 0.  0.
        1    1    3    3  502    0 -0.41100899686E+03 -0.97602213259E+02 -0.40340988660E+03  0.58411824502E+03  0.50400001928E-02 0.  1.
       -1    1    3    3    0  502  0.41100899686E+03  0.97602213259E+02  0.32155706697E+03  0.53089879909E+03  0.50400001928E-02 0. -1.
</event>
<event>
 5   0  0.7712816E-03  0.1121119E+04  0.7818609E-02  0.9184849E-01
        2   -1    0    0  501    0  0.00000000000E+00  0.00000000000E+00  0.13788501639E+04  0.13788501639E+04  0.25500000920E-02 0.  1.
       -2   -1    0    0    0  501  0.00000000000E+00  0.00000000000E+00 -0.22789048297E+03  0.22789048298E+03  0.25500000920E-02 0. -1.
    10030    2    1    2    0    0  0.00000000000E+00  0.00000000000E+00  0.11509596809E+04  0.16067406469E+04  0.11211187802E+04 0.  0.
        2    1    3    3  502    0 -0.64672603960E+01  0.55317551517E+03  0.44584551587E+03  0.71050911329E+03  0.25500000920E-02 0. -1.
       -2    1    3    3    0  502  0.64672603960E+01 -0.55317551517E+03  0.70511416505E+03  0.89623153358E+03  0.25500000920E-02 0.  1.
</event>
<event>
 5   0  0.2992375E-03  0.1101457E+04  0.7818609E-02  0.9203773E-01
       -4   -1    0    0    0  501  0.00000000000E+00  0.00000000000E+00  0.10299288105E+04  0.10299295935E+04  0.12699999809E+01 0. -1.
        4   -1    0    0  501    0  0.00000000000E+00  0.00000000000E+00 -0.29448573898E+03  0.29448847747E+03  0.12699999809E+01 0.  1.
    10030    2    1    2    0    0  0.00000000000E+00  0.00000000000E+00  0.73544307155E+03  0.13244180710E+04  0.11014566334E+04 0.  0.
        5    1    3    3  502    0  0.11687394100E+03 -0.21739141343E+03 -0.22423402206E+03  0.33349892259E+03  0.46999998093E+01 0.  1.
       -5    1    3    3    0  502 -0.11687394100E+03  0.21739141343E+03  0.95967709362E+03  0.99091914843E+03  0.46999998093E+01 0. -1.
</event>
<event>
 5   0  0.4598561E-03  0.1113912E+04  0.7818609E-02  0.9191737E-01
       -1   -1    0    0    0  501  0.00000000000E+00  0.00000000000E+00  0.44664661205E+03  0.44664661208E+03  0.50400001928E-02 0.  1.
        1   -1    0    0  501    0  0.00000000000E+00  0.00000000000E+00 -0.69450875452E+03  0.69450875454E+03  0.50400001928E-02 0. -1.
    10030    2    1    2    0    0  0.00000000000E+00  0.00000000000E+00 -0.24786214247E+03  0.11411553666E+04  0.11139119934E+04 0.  0.
        2    1    3    3  502    0  0.94447712027E+02  0.41511946133E+03 -0.49181747607E+03  0.65048364104E+03  0.25500000920E-02 0. -1.
       -2    1    3    3    0  502 -0.94447712027E+02 -0.41511946133E+03  0.24395533360E+03  0.49067172558E+03  0.25500000920E-02 0.  1.
</event>
<event>
 5   0  0.4428114E-03  0.1207618E+04  0.7818609E-02  0.9106214E-01
       -1   -1    0    0    0  501  0.00000000000E+00  0.00000000000E+00  0.16654339563E+04  0.16654339563E+04  0.50400001928E-02 0. -1.
        1   -1    0    0  501    0  0.00000000000E+00  0.00000000000E+00 -0.21891322813E+03  0.21891322819E+03  0.50400001928E-02 0.  1.
    10030    2    1    2    0    0  0.00000000000E+00  0.00000000000E+00  0.14465207281E+04  0.18843471845E+04  0.12076183564E+04 0.  0.
        4    1    3    3  502    0 -0.28220190756E+03 -0.22856464145E+02  0.15554341164E+04  0.15809924851E+04  0.12699999809E+01 0. -1.
       -4    1    3    3    0  502  0.28220190756E+03  0.22856464145E+02 -0.10891338825E+03  0.30335469937E+03  0.12699999809E+01 0.  1.
</event>
<event>
 5   0  0.4428114E-03  0.1106831E+04  0.7818609E-02  0.9198559E-01
       -1   -1    0    0    0  501  0.00000000000E+00  0.00000000000E+00  0.33497119967E+03  0.33497119971E+03  0.50400001928E-02 0.  1.
        1   -1    0    0  501    0  0.00000000000E+00  0.00000000000E+00 -0.91431433831E+03  0.91431433833E+03  0.50400001928E-02 0. -1.
    10030    2    1    2    0    0  0.00000000000E+00  0.00000000000E+00 -0.57934313864E+03  0.12492855380E+04  0.11068314611E+04 0.  0.
        4    1    3    3  502    0 -0.21208512221E+03 -0.25470779092E+03  0.21055106836E+03  0.39266973795E+03  0.12699999809E+01 0.  1.
       -4    1    3    3    0  502  0.21208512221E+03  0.25470779092E+03 -0.78989420700E+03  0.85661580009E+03  0.12699999809E+01 0. -1.
</event>
<event>
 5   0  0.4504740E-03  0.1056808E+04  0.7818609E-02  0.9248343E-01
       -1   -1    0    0    0  501  0.00000000000E+00  0.00000000000E+00  0.15308916776E+03  0.15308916785E+03  0.50400001928E-02 0. -1.
        1   -1    0    0  501    0  0.00000000000E+00  0.00000000000E+00 -0.18238456811E+04  0.18238456811E+04  0.50400001928E-02 0.  1.
    10030    2    1    2    0    0  0.00000000000E+00  0.00000000000E+00 -0.16707565134E+04  0.19769348490E+04  0.10568084359E+04 0.  0.
        5    1    3    3  502    0  0.70871677767E+02  0.51333316190E+03 -0.64228067160E+03  0.82527588171E+03  0.46999998093E+01 0. -1.
       -5    1    3    3    0  502 -0.70871677767E+02 -0.51333316190E+03 -0.10284758418E+04  0.11516589673E+04  0.46999998093E+01 0.  1.
</event>
<event>
 5   0  0.4298101E-03  0.1057145E+04  0.7818609E-02  0.9247998E-01
       -1   -1    0    0    0  501  0.00000000000E+00  0.00000000000E+00  0.38478995344E+03  0.38478995347E+03  0.50400001928E-02 0. -1.
        1   -1    0    0  501    0  0.00000000000E+00  0.00000000000E+00 -0.72608130274E+03  0.72608130275E+03  0.50400001928E-02 0.  1.
    10030    2    1    2    0    0  0.00000000000E+00  0.00000000000E+00 -0.34129134930E+03  0.11108712562E+04  0.10571448164E+04 0.  0.
        3    1    3    3  502    0  0.89546101077E+02  0.26735013430E+03  0.29917196852E+03  0.41109424160E+03  0.10100000352E+00 0. -1.
       -3    1    3    3    0  502 -0.89546101077E+02 -0.26735013430E+03 -0.64046331782E+03  0.69977701462E+03  0.10100000352E+00 0.  1.
</event>
<event>
 5   0  0.7766551E-03  0.1116495E+04  0.7818609E-02  0.9189262E-01
       -2   -1    0    0    0  501  0.00000000000E+00  0.00000000000E+00  0.28550818069E+03  0.28550818070E+03  0.25500000920E-02 0.  1.
        2   -1    0    0  501    0  0.00000000000E+00  0.00000000000E+00 -0.10915289598E+04  0.10915289598E+04  0.25500000920E-02 0. -1.
    10030    2    1    2    0    0  0.00000000000E+00  0.00000000000E+00 -0.80602077911E+03  0.13770371405E+04  0.11164953157E+04 0.  0.
        5    1    3    3  502    0  0.79521731051E+02  0.79097408837E+02  0.27144327872E+03  0.29374078599E+03  0.46999998093E+01 0.  1.
       -5    1    3    3    0  502 -0.79521731051E+02 -0.79097408837E+02 -0.10774640578E+04  0.10832963545E+04  0.46999998093E+01 0. -1.
</event>
<event>
 5   0  0.4504740E-03  0.1104030E+04  0.7818609E-02  0.9201273E-01
        1   -1    0    0  501    0  0.00000000000E+00  0.00000000000E+00  0.33535805994E+03  0.33535805998E+03  0.50400001928E-02 0.  1.
       -1   -1    0    0    0  501  0.00000000000E+00  0.00000000000E+00 -0.90864175492E+03  0.90864175493E+03  0.50400001928E-02 0. -1.
    10030    2    1    2    0    0  0.00000000000E+00  0.00000000000E+00 -0.57328369497E+03  0.12439998149E+04  0.11040295941E+04 0.  0.
        5    1    3    3  502    0 -0.15120754880E+03  0.17142427754E+03 -0.85278436878E+03  0.88290049007E+03  0.46999998093E+01 0. -1.
       -5    1    3    3    0  502  0.15120754880E+03 -0.17142427754E+03  0.27950067381E+03  0.36109932484E+03  0.46999998093E+01 0.  1.
</event>
<event>
 5   0  0.7537480E-03  0.1113357E+04  0.7818609E-02  0.9192270E-01
        2   -1    0    0  501    0  0.00000000000E+00  0.00000000000E+00  0.13753045806E+04  0.13753045806E+04  0.25500000920E-02 0.  1.
       -2   -1    0    0    0  501  0.00000000000E+00  0.00000000000E+00 -0.22532537405E+03  0.22532537406E+03  0.25500000920E-02 0. -1.
    10030    2    1    2    0    0  0.00000000000E+00  0.00000000000E+00  0.11499792065E+04  0.16006299546E+04  0.11133571198E+04 0.  0.
        1    1    3    3  502    0  0.29419926238E+03 -0.28095248702E+02  0.12532067351E+04  0.12875828789E+04  0.50400001928E-02 0.  1.
       -1    1    3    3    0  502 -0.29419926238E+03  0.28095248702E+02 -0.10322752857E+03  0.31304707579E+03  0.50400001928E-02 0. -1.
</event>
<event>
 5   0  0.4298101E-03  0.1095206E+04  0.7818609E-02  0.9209877E-01
        1   -1    0    0  501    0  0.00000000000E+00  0.00000000000E+00  0.58305310735E+03  0.58305310738E+03  0.50400001928E-02 0.  1.
       -1   -1    0    0    0  501  0.00000000000E+00  0.00000000000E+00 -0.51430819552E+03  0.51430819554E+03  0.50400001928E-02 0. -1.
    10030    2    1    2    0    0  0.00000000000E+00  0.00000000000E+00  0.68744911836E+02  0.10973613029E+04  0.10952059013E+04 0.  0.
        3    1    3    3  502    0  0.43772938502E+03 -0.14179116225E+03 -0.26312471605E+03  0.53004374782E+03  0.10100000352E+00 0. -1.
       -3    1    3    3    0  502 -0.43772938502E+03  0.14179116225E+03  0.33186962789E+03  0.56731755510E+03  0.10100000352E+00 0.  1.
</event>
<event>
 5   0  0.4598561E-03  0.1084473E+04  0.7818609E-02  0.9220459E-01
        1   -1    0    0  501    0  0.00000000000E+00  0.00000000000E+00  0.37340151830E+03  0.37340151833E+03  0.50400001928E-02 0. -1.
       -1   -1    0    0    0  501  0.00000000000E+00  0.00000000000E+00 -0.78741105361E+03  0.78741105363E+03  0.50400001928E-02 0.  1.
    10030    2    1    2    0    0  0.00000000000E+00  0.00000000000E+00 -0.41400953532E+03  0.11608125720E+04  0.10844731126E+04 0.  0.
        2    1    3    3  502    0  0.96832047184E+02  0.30608111480E+03  0.26074403538E+03  0.41358136586E+03  0.25500000920E-02 0. -1.
       -2    1    3    3    0  502 -0.96832047184E+02 -0.30608111480E+03 -0.67475357070E+03  0.74723120610E+03  0.25500000920E-02 0.  1.
</event>
<event>
 5   0  0.2992375E-03  0.1180059E+04  0.7818609E-02  0.9130492E-01
       -3   -1    0    0    0  501  0.00000000000E+00  0.00000000000E+00  0.25327313228E+03  0.25327315242E+03  0.10100000352E+00 0.  1.
        3   -1    0    0  501    0  0.00000000000E+00  0.00000000000E+00 -0.13745433766E+04  0.13745433803E+04  0.10100000352E+00 0. -1.
    10030    2    1    2    0    0  0.00000000000E+00  0.00000000000E+00 -0.11212702443E+04  0.16278165327E+04  0.11800591949E+04 0.  0.
        3    1    3    3  502    0 -0.29770019416E+03 -0.50677695005E+03 -0.48913515705E+03  0.76465776316E+03  0.10100000352E+00 0.  1.
       -3    1    3    3    0  502  0.29770019416E+03  0.50677695005E+03 -0.63213508724E+03  0.86315876953E+03  0.10100000352E+00 0. -1.
</event>
<event>
 5   0  0.7537480E-03  0.1102242E+04  0.7818609E-02  0.9203010E-01
       -2   -1    0    0    0  501  0.00000000000E+00  0.00000000000E+00  0.43314830336E+03  0.43314830337E+03  0.25500000920E-02 0.  1.
        2   -1    0    0  501    0  0.00000000000E+00  0.00000000000E+00 -0.70122435812E+03  0.70122435813E+03  0.25500000920E-02 0. -1.
    10030    2    1    2    0    0  0.00000000000E+00  0.00000000000E+00 -0.26807605476E+03  0.11343726615E+04  0.11022416087E+04 0.  0.
        1    1    3    3  502    0 -0.31381192526E+03  0.20188100758E+03 -0.55144746548E+03  0.66582893664E+03  0.50400001928E-02 0. -1.
       -1    1    3    3    0  502  0.31381192526E+03 -0.20188100758E+03  0.28337141072E+03  0.46854372485E+03  0.50400001928E-02 0.  1.
</event>
<event>
 5   0  0.7952121E-03  0.1099623E+04  0.7818609E-02  0.9205559E-01
       -2   -1    0    0    0  501  0.00000000000E+00  0.00000000000E+00  0.20246647416E+03  0.20246647417E+03  0.25500000920E-02 0. -1.
        2   -1    0    0  501    0  0.00000000000E+00  0.00000000000E+00 -0.14930504362E+04  0.14930504362E+04  0.25500000920E-02 0.  1.
    10030    2    1    2    0    0  0.00000000000E+00  0.00000000000E+00 -0.12905839621E+04  0.16955169104E+04  0.10996229492E+04 0.  0.
        3    1    3    3  502    0  0.54315507993E+03 -0.83358981007E+02 -0.67315262495E+03  0.86896526239E+03  0.10100000352E+00 0. -1.
       -3    1    3    3    0  502 -0.54315507993E+03  0.83358981007E+02 -0.61743133711E+03  0.82655164801E+03  0.10100000352E+00 0.  1.
</event>
<event>
 5   0  0.7537480E-03  0.9181669E+03  0.7818609E-02  0.9403153E-01
       -2   -1    0    0    0  501  0.00000000000E+00  0.00000000000E+00  0.15190697136E+03  0.15190697138E+03  0.25500000920E-02 0.  1.
        2   -1    0    0  501    0  0.00000000000E+00  0.00000000000E+00 -0.13874125082E+04  0.13874125082E+04  0.25500000920E-02 0. -1.
    10030    2    1    2    0    0  0.00000000000E+00  0.00000000000E+00 -0.12355055369E+04  0.15393194796E+04  0.91816693943E+03 0.  0.
        1    1    3    3  502    0 -0.59889320566E+02  0.15087760255E+03 -0.13376916674E+04  0.13475050199E+04  0.50400001928E-02 0. -1.
       -1    1    3    3    0  502  0.59889320566E+02 -0.15087760255E+03  0.10218613049E+03  0.19181445972E+03  0.50400001928E-02 0.  1.
</event>
<event>
 5   0  0.7952121E-03  0.1112837E+04  0.7818609E-02  0.9192770E-01
       -2   -1    0    0    0  501  0.00000000000E+00  0.00000000000E+00  0.18522930227E+03  0.18522930229E+03  0.25500000920E-02 0. -1.
        2   -1    0    0  501    0  0.00000000000E+00  0.00000000000E+00 -0.16714502901E+04  0.16714502901E+04  0.25500000920E-02 0.  1.
    10030    2    1    2    0    0  0.00000000000E+00  0.00000000000E+00 -0.14862209878E+04  0.18566795924E+04  0.11128370429E+04 0.  0.
        3    1    3    3  502    0 -0.29803783672E+03  0.37158397710E+02 -0.15245907731E+04  0.15538932828E+04  0.10100000352E+00 0.  1.
       -3    1    3    3    0  502  0.29803783672E+03 -0.37158397710E+02  0.38369785307E+02  0.30278630957E+03  0.10100000352E+00 0. -1.
</event>
<event>
 5   0  0.7712816E-03  0.1112571E+04  0.7818609E-02  0.9193025E-01
       -2   -1    0    0    0  501  0.00000000000E+00  0.00000000000E+00  0.82411367947E+03  0.82411367947E+03  0.25500000920E-02 0.  1.
        2   -1    0    0  501    0  0.00000000000E+00  0.00000000000E+00 -0.37549885607E+03  0.37549885608E+03  0.25500000920E-02 0. -1.
    10030    2    1    2    0    0  0.00000000000E+00  0.00000000000E+00  0.44861482340E+03  0.11996125356E+04  0.11125713351E+04 0.  0.
        2    1    3    3  502    0  0.22872803950E+03  0.50370901397E+03  0.16130256490E+03  0.57624456983E+03  0.25500000920E-02 0.  1.
       -2    1    3    3    0  502 -0.22872803950E+03 -0.50370901397E+03  0.28731225850E+03  0.62336796573E+03  0.25500000920E-02 0. -1.
</event>
<event>
 5   0  0.7537480E-03  0.1136536E+04  0.7818609E-02  0.9170296E-01
       -2   -1    0    0    0  501  0.00000000000E+00  0.00000000000E+00  0.20116909794E+03  0.20116909795E+03  0.25500000920E-02 0. -1.
        2   -1    0    0  501    0  0.00000000000E+00  0.00000000000E+00 -0.16052577998E+04  0.16052577998E+04  0.25500000920E-02 0.  1.
    10030    2    1    2    0    0  0.00000000000E+00  0.00000000000E+00 -0.14040887019E+04  0.18064268978E+04  0.11365355490E+04 0.  0.
        1    1    3    3  502    0  0.67712878200E+02  0.19117748583E+03 -0.15457744552E+04  0.15590229413E+04  0.50400001928E-02 0.  1.
       -1    1    3    3    0  502 -0.67712878200E+02 -0.19117748583E+03  0.14168575335E+03  0.24740395649E+03  0.50400001928E-02 0. -1.
</event>
<event>
 5   0  0.4504740E-03  0.1051927E+04  0.7818609E-02  0.9253357E-01
       -1   -1    0    0    0  501  0.00000000000E+00  0.00000000000E+00  0.40829920298E+03  0.40829920301E+03  0.50400001928E-02 0. -1.
        1   -1    0    0  501    0  0.00000000000E+00  0.00000000000E+00 -0.67753612981E+03  0.67753612983E+03  0.50400001928E-02 0.  1.
    10030    2    1    2    0    0  0.00000000000E+00  0.00000000000E+00 -0.26923692683E+03  0.10858353328E+04  0.10519267309E+04 0.  0.
        5    1    3    3  502    0  0.17794041540E+02  0.18651240509E+02  0.40762505060E+03  0.40846636161E+03  0.46999998093E+01 0. -1.
       -5    1    3    3    0  502 -0.17794041540E+02 -0.18651240509E+02 -0.67686197744E+03  0.67736897123E+03  0.46999998093E+01 0.  1.
</event>
<event>
 5   0  0.4504740E-03  0.1117801E+04  0.7818609E-02  0.9188014E-01
        1   -1    0    0  501    0  0.00000000000E+00  0.00000000000E+00  0.78658150244E+03  0.78658150246E+03  0.50400001928E-02 0.  1.
       -1   -1    0    0    0  501  0.00000000000E+00  0.00000000000E+00 -0.39712305546E+03  0.39712305549E+03  0.50400001928E-02 0. -1.
    10030    2    1    2    0    0  0.00000000000E+00  0.00000000000E+00  0.38945844698E+03  0.11837045579E+04  0.11178007866E+04 0.  0.
        5    1    3    3  502    0  0.23762097923E+03 -0.49137655476E+03  0.67509080170E+02  0.54999474019E+03  0.46999998093E+01 0. -1.
       -5    1    3    3    0  502 -0.23762097923E+03  0.49137655476E+03  0.32194936681E+03  0.63370981776E+03  0.46999998093E+01 0.  1.
</event>
<event>
 5   0  0.7712816E-03  0.1083974E+04  0.7818609E-02  0.9220954E-01
        2   -1    0    0  501    0  0.00000000000E+00  0.00000000000E+00  0.18903286503E+04  0.18903286503E+04  0.25500000920E-02 0.  1.
       -2   -1    0    0    0  501  0.00000000000E+00  0.00000000000E+00 -0.15539612925E+03  0.15539612927E+03  0.25500000920E-02 0. -1.
    10030    2    1    2    0    0  0.00000000000E+00  0.00000000000E+00  0.17349325210E+04  0.20457247795E+04  0.10839737179E+04 0.  0.
        2    1    3    3  502    0  0.49544014356E+03 -0.14208674083E+03  0.55110522749E+03  0.75456381410E+03  0.25500000920E-02 0. -1.
       -2    1    3    3    0  502 -0.49544014356E+03  0.14208674083E+03  0.11838272935E+04  0.12911609654E+04  0.25500000920E-02 0.  1.
</event>
<event>
 5   0  0.4298101E-03  0.1029080E+04  0.7818609E-02  0.9277213E-01
       -1   -1    0    0    0  501  0.00000000000E+00  0.00000000000E+00  0.28467570552E+03  0.28467570557E+03  0.50400001928E-02 0.  1.
        1   -1    0    0  501    0  0.00000000000E+00  0.00000000000E+00 -0.93001030372E+03  0.93001030373E+03  0.50400001928E-02 0. -1.
    10030    2    1    2    0    0  0.00000000000E+00  0.00000000000E+00 -0.64533459819E+03  0.12146860093E+04  0.10290798597E+04 0.  0.
        3    1    3    3  502    0 -0.18360246167E+03 -0.31805842071E+03 -0.74805663930E+03  0.83334252785E+03  0.10100000352E+00 0. -1.
       -3    1    3    3    0  502  0.18360246167E+03  0.31805842071E+03  0.10272204111E+03  0.38134348145E+03  0.10100000352E+00 0.  1.
</event>
<event>
 5   0  0.4504740E-03  0.9922640E+03  0.7818609E-02  0.9317070E-01
        1   -1    0    0  501    0  0.00000000000E+00  0.00000000000E+00  0.31597658939E+03  0.31597658943E+03  0.50400001928E-02 0. -1.
       -1   -1    0    0    0  501  0.00000000000E+00  0.00000000000E+00 -0.77900373783E+03  0.77900373785E+03  0.50400001928E-02 0.  1.
    10030    2    1    2    0    0  0.00000000000E+00  0.00000000000E+00 -0.46302714845E+03  0.10949803273E+04  0.99226396535E+03 0.  0.
        5    1    3    3  502    0  0.42742611616E+03 -0.24594856452E+03 -0.29135914365E+03  0.57279666703E+03  0.46999998093E+01 0. -1.
       -5    1    3    3    0  502 -0.42742611616E+03  0.24594856452E+03 -0.17166800479E+03  0.52218366025E+03  0.46999998093E+01 0.  1.
</event>
<event>
 5   0  0.7766551E-03  0.1097279E+04  0.7818609E-02  0.9207848E-01
       -2   -1    0    0    0  501  0.00000000000E+00  0.00000000000E+00  0.33798913969E+03  0.33798913970E+03  0.25500000920E-02 0. -1.
        2   -1    0    0  501    0  0.00000000000E+00  0.00000000000E+00 -0.89057645967E+03  0.89057645967E+03  0.25500000920E-02 0.  1.
    10030    2    1    2    0    0  0.00000000000E+00  0.00000000000E+00 -0.55258731998E+03  0.12285655994E+04  0.10972787639E+04 0.  0.
        5    1    3    3  502    0  0.62423538410E+02 -0.16685413371E+03  0.30467950386E+03  0.35297123134E+03  0.46999998093E+01 0. -1.
       -5    1    3    3    0  502 -0.62423538410E+02  0.16685413371E+03 -0.85726682384E+03  0.87559436803E+03  0.46999998093E+01 0.  1.
</event>
<event>
 5   0  0.7952121E-03  0.1099162E+04  0.7818609E-02  0.9206009E-01
       -2   -1    0    0    0  501  0.00000000000E+00  0.00000000000E+00  0.26568112327E+03  0.26568112328E+03  0.25500000920E-02 0.  1.
        2   -1    0    0  501    0  0.00000000000E+00  0.00000000000E+00 -0.11368478448E+04  0.11368478448E+04  0.25500000920E-02 0. -1.
    10030    2    1    2    0    0  0.00000000000E+00  0.00000000000E+00 -0.87116672155E+03  0.14025289681E+04  0.10991615212E+04 0.  0.
        3    1    3    3  502    0 -0.26631548827E+03  0.43647787390E+03 -0.17846995313E+03  0.54156108434E+03  0.10100000352E+00 0.  1.
       -3    1    3    3    0  502  0.26631548827E+03 -0.43647787390E+03 -0.69269676842E+03  0.86096788377E+03  0.10100000352E+00 0. -1.
</event>
<event>
 5   0  0.4504740E-03  0.1103135E+04  0.7818609E-02  0.9202142E-01
        1   -1    0    0  501    0  0.00000000000E+00  0.00000000000E+00  0.97413095220E+03  0.97413095222E+03  0.50400001928E-02 0. -1.
       -1   -1    0    0    0  501  0.00000000000E+00  0.00000000000E+00 -0.31230581124E+03  0.31230581128E+03  0.50400001928E-02 0.  1.
    10030    2    1    2    0    0  0.00000000000E+00  0.00000000000E+00  0.66182514096E+03  0.12864367635E+04  0.11031350911E+04 0.  0.
        5    1    3    3  502    0  0.44153764541E+02 -0.54845078309E+03  0.28640157583E+03  0.62031908646E+03  0.46999998093E+01 0.  1.
       -5    1    3    3    0  502 -0.44153764541E+02  0.54845078309E+03  0.37542356514E+03  0.66611767703E+03  0.46999998093E+01 0. -1.
</event>
<event>
 5   0  0.7712816E-03  0.7671520E+03  0.7818609E-02  0.9608819E-01
       -2   -1    0    0    0  501  0.00000000000E+00  0.00000000000E+00  0.66703566924E+02  0.66703566973E+02  0.25500000920E-02 0. -1.
        2   -1    0    0  501    0  0.00000000000E+00  0.00000000000E+00 -0.22057373460E+04  0.22057373460E+04  0.25500000920E-02 0.  1.
    10030    2    1    2    0    0  0.00000000000E+00  0.00000000000E+00 -0.21390337791E+04  0.22724409130E+04  0.76715200250E+03 0.  0.
        2    1    3    3  502    0 -0.28785641631E+03  0.23724465403E+03 -0.80483327565E+03  0.88707550067E+03  0.25500000920E-02 0. -1.
       -2    1    3    3    0  502  0.28785641631E+03 -0.23724465403E+03 -0.13342005035E+04  0.13853654123E+04  0.25500000920E-02 0.  1.
</event>
<event>
 5   0  0.4641021E-03  0.1102470E+04  0.7818609E-02  0.9202788E-01
       -1   -1    0    0    0  501  0.00000000000E+00  0.00000000000E+00  0.55346357906E+03  0.55346357908E+03  0.50400001928E-02 0. -1.
        1   -1    0    0  501    0  0.00000000000E+00  0.00000000000E+00 -0.54901499574E+03  0.54901499576E+03  0.50400001928E-02 0.  1.
    10030    2    1    2    0    0  0.00000000000E+00  0.00000000000E+00  0.44485833170E+01  0.11024785748E+04  0.11024695996E+04 0.  0.
        1    1    3    3  502    0 -0.17898250429E+03 -0.30386945005E+03 -0.42143990017E+03  0.54952977079E+03  0.50400001928E-02 0.  1.
       -1    1    3    3    0  502  0.17898250429E+03  0.30386945005E+03  0.42588848348E+03  0.55294880405E+03  0.50400001928E-02 0. -1.
</event>
<event>
 5   0  0.2992375E-03  0.1098236E+04  0.7818609E-02  0.9206912E-01
        3   -1    0    0  501    0  0.00000000000E+00  0.00000000000E+00  0.63255564101E+03  0.63255564907E+03  0.10100000352E+00 0. -1.
       -3   -1    0    0    0  501  0.00000000000E+00  0.00000000000E+00 -0.47668665703E+03  0.47668666773E+03  0.10100000352E+00 0.  1.
    10030    2    1    2    0    0  0.00000000000E+00  0.00000000000E+00  0.15586898398E+03  0.11092423168E+04  0.10982364851E+04 0.  0.
        4    1    3    3  502    0  0.36977832186E+03 -0.21707708031E+03  0.42440386543E+03  0.60330648928E+03  0.12699999809E+01 0. -1.
       -4    1    3    3    0  502 -0.36977832186E+03  0.21707708031E+03 -0.26853488145E+03  0.50593582752E+03  0.12699999809E+01 0.  1.
</event>
<event>
 5   0  0.7537480E-03  0.1102034E+04  0.7818609E-02  0.9203211E-01
        2   -1    0    0  501    0  0.00000000000E+00  0.00000000000E+00  0.14277757929E+04  0.14277757929E+04  0.25500000920E-02 0. -1.
       -2   -1    0    0    0  501  0.00000000000E+00  0.00000000000E+00 -0.21265233435E+03  0.21265233436E+03  0.25500000920E-02 0.  1.
    10030    2    1    2    0    0  0.00000000000E+00  0.00000000000E+00  0.12151234585E+04  0.16404281272E+04  0.11020342196E+04 0.  0.
        1    1    3    3  502    0  0.42636698620E+02  0.19086457968E+02  0.14248229505E+04  0.14255885175E+04  0.50400001928E-02 0. -1.
       -1    1    3    3    0  502 -0.42636698620E+02 -0.19086457968E+02 -0.20969949198E+03  0.21483960973E+03  0.50400001928E-02 0.  1.
</event>
<event>
 5   0  0.4598561E-03  0.1106636E+04  0.7818609E-02  0.9198748E-01
       -1   -1    0    0    0  501  0.00000000000E+00  0.00000000000E+00  0.24050390284E+03  0.24050390289E+03  0.50400001928E-02 0. -1.
        1   -1    0    0  501    0  0.00000000000E+00  0.00000000000E+00 -0.12729963836E+04  0.12729963836E+04  0.50400001928E-02 0.  1.
    10030    2    1    2    0    0  0.00000000000E+00  0.00000000000E+00 -0.10324924807E+04  0.15135002865E+04  0.11066356195E+04 0.  0.
        2    1    3    3  502    0  0.55278154249E+03  0.90080880459E+01 -0.54719341421E+03  0.77786194915E+03  0.25500000920E-02 0. -1.
       -2    1    3    3    0  502 -0.55278154249E+03 -0.90080880459E+01 -0.48529906651E+03  0.73563833732E+03  0.25500000920E-02 0.  1.
</event>
<event>
 5   0  0.4298101E-03  0.1024722E+04  0.7818609E-02  0.9281838E-01
       -1   -1    0    0    0  501  0.00000000000E+00  0.00000000000E+00  0.15386085540E+03  0.15386085548E+03  0.50400001928E-02 0.  1.
        1   -1    0    0  501    0  0.00000000000E+00  0.00000000000E+00 -0.17061767378E+04  0.17061767378E+04  0.50400001928E-02 0. -1.
    10030    2    1    2    0    0  0.00000000000E+00  0.00000000000E+00 -0.15523158824E+04  0.18600375933E+04  0.10247220353E+04 0.  0.
        3    1    3    3  502    0 -0.56305686230E+02 -0.92645974564E+02  0.13280242377E+03  0.17143541310E+03  0.10100000352E+00 0.  1.
       -3    1    3    3    0  502  0.56305686230E+02  0.92645974564E+02 -0.16851183062E+04  0.16886021802E+04  0.10100000352E+00 0. -1.
</event>
<event>
 5   0  0.4504740E-03  0.1132444E+04  0.7818609E-02  0.9174134E-01
       -1   -1    0    0    0  501  0.00000000000E+00  0.00000000000E+00  0.46331551199E+03  0.46331551202E+03  0.50400001928E-02 0.  1.
        1   -1    0    0  501    0  0.00000000000E+00  0.00000000000E+00 -0.69198489274E+03  0.69198489276E+03  0.50400001928E-02 0. -1.
    10030    2    1    2    0    0  0.00000000000E+00  0.00000000000E+00 -0.22866938076E+03  0.11553004048E+04  0.11324439675E+04 0.  0.
        5    1    3    3  502    0 -0.55453613211E+03  0.61183028131E+02 -0.15784984412E+02  0.55814419326E+03  0.46999998093E+01 0.  1.
       -5    1    3    3    0  502  0.55453613211E+03 -0.61183028131E+02 -0.21288439635E+03  0.59715621151E+03  0.46999998093E+01 0. -1.
</event>
<event>
 5   0  0.4598561E-03  0.1098016E+04  0.7818609E-02  0.9207128E-01
       -1   -1    0    0    0  501  0.00000000000E+00  0.00000000000E+00  0.40043707275E+03  0.40043707278E+03  0.50400001928E-02 0.  1.
        1   -1    0    0  501    0  0.00000000000E+00  0.00000000000E+00 -0.75270180938E+03  0.75270180939E+03  0.50400001928E-02 0. -1.
    10030    2    1    2    0    0  0.00000000000E+00  0.00000000000E+00 -0.35226473663E+03  0.11531388822E+04  0.10980158637E+04 0.  0.
        2    1    3    3  502    0 -0.35281316811E+02 -0.53321414028E+03 -0.43925199326E+02  0.53618235131E+03  0.25500000920E-02 0.  1.
       -2    1    3    3    0  502  0.35281316811E+02  0.53321414028E+03 -0.30833953730E+03  0.61695653087E+03  0.25500000920E-02 0. -1.
</event>
<event>
 5   0  0.7738497E-03  0.1108235E+04  0.7818609E-02  0.9197203E-01
        2   -1    0    0  501    0  0.00000000000E+00  0.00000000000E+00  0.83178201807E+03  0.83178201807E+03  0.25500000920E-02 0. -1.
       -2   -1    0    0    0  501  0.00000000000E+00  0.00000000000E+00 -0.36914258515E+03  0.36914258516E+03  0.25500000920E-02 0.  1.
    10030    2    1    2    0    0  0.00000000000E+00  0.00000000000E+00  0.46263943292E+03  0.12009246032E+04  0.11082349290E+04 0.  0.
        4    1    3    3  502    0  0.86041168239E+02  0.15094242271E+03 -0.33886074661E+03  0.38080824058E+03  0.12699999809E+01 0.  1.
       -4    1    3    3    0  502 -0.86041168239E+02 -0.15094242271E+03  0.80150017953E+03  0.82011636265E+03  0.12699999809E+01 0. -1.
</event>
<event>
 5   0  0.4428114E-03  0.1184308E+04  0.7818609E-02  0.9126704E-01
        1   -1    0    0  501    0  0.00000000000E+00  0.00000000000E+00  0.44126156556E+03  0.44126156559E+03  0.50400001928E-02 0. -1.
       -1   -1    0    0    0  501  0.00000000000E+00  0.00000000000E+00 -0.79464512322E+03  0.79464512323E+03  0.50400001928E-02 0.  1.
    10030    2    1    2    0    0  0.00000000000E+00  0.00000000000E+00 -0.35338355765E+03  0.12359066888E+04  0.11843079856E+04 0.  0.
        4    1    3    3  502    0  0.37186439678E+03  0.11633975504E+03 -0.64201887731E+03  0.75100460712E+03  0.12699999809E+01 0.  1.
       -4    1    3    3    0  502 -0.37186439678E+03 -0.11633975504E+03  0.28863531965E+03  0.48490208171E+03  0.12699999809E+01 0. -1.
</event>
<event>
 5   0  0.4298101E-03  0.1093204E+04  0.7818609E-02  0.9211841E-01
        1   -1    0    0  501    0  0.00000000000E+00  0.00000000000E+00  0.11729849726E+04  0.11729849726E+04  0.50400001928E-02 0. -1.
       -1   -1    0    0    0  501  0.00000000000E+00  0.00000000000E+00 -0.25471217435E+03  0.25471217440E+03  0.50400001928E-02 0.  1.
    10030    2    1    2    0    0  0.00000000000E+00  0.00000000000E+00  0.91827279822E+03  0.14276971470E+04  0.10932036460E+04 0.  0.
        3    1    3    3  502    0  0.11811270870E+03  0.52894589503E+03  0.36642896481E+03  0.65422058075E+03  0.10100000352E+00 0.  1.
       -3    1    3    3    0  502 -0.11811270870E+03 -0.52894589503E+03  0.55184383341E+03  0.77347656622E+03  0.10100000352E+00 0. -1.
</event>
<event>
 5   0  0.2992375E-03  0.1158499E+04  0.7818609E-02  0.9149978E-01
        4   -1    0    0  501    0  0.00000000000E+00  0.00000000000E+00  0.68956021408E+03  0.68956138359E+03  0.12699999809E+01 0. -1.
       -4   -1    0    0    0  501  0.00000000000E+00  0.00000000000E+00 -0.48658324154E+03  0.48658489891E+03  0.12699999809E+01 0.  1.
    10030    2    1    2    0    0  0.00000000000E+00  0.00000000000E+00  0.20297697254E+03  0.11761462825E+04  0.11584992130E+04 0.  0.
        4    1    3    3  502    0  0.22280265464E+03  0.52446102329E+03  0.20713175817E+03  0.60630484577E+03  0.12699999809E+01 0.  1.
       -4    1    3    3    0  502 -0.22280265464E+03 -0.52446102329E+03 -0.41547856314E+01  0.56984143673E+03  0.12699999809E+01 0. -1.
</event>
<event>
 5   0  0.7537480E-03  0.1092706E+04  0.7818609E-02  0.9212331E-01
        2   -1    0    0  501    0  0.00000000000E+00  0.00000000000E+00  0.89284028257E+03  0.89284028257E+03  0.25500000920E-02 0. -1.
       -2   -1    0    0    0  501  0.00000000000E+00  0.00000000000E+00 -0.33432798352E+03  0.33432798353E+03  0.25500000920E-02 0.  1.
    10030    2    1    2    0    0  0.00000000000E+00  0.00000000000E+00  0.55851229904E+03  0.12271682661E+04  0.10927057999E+04 0.  0.
        1    1    3    3  502    0  0.11694528769E+03 -0.24988205829E+03 -0.25034982861E+03  0.37254835939E+03  0.50400001928E-02 0.  1.
       -1    1    3    3    0  502 -0.11694528769E+03  0.24988205829E+03  0.80886212766E+03  0.85461990672E+03  0.50400001928E-02 0. -1.
</event>
<event>
 5   0  0.7952121E-03  0.1055207E+04  0.7818609E-02  0.9249984E-01
       -2   -1    0    0    0  501  0.00000000000E+00  0.00000000000E+00  0.37163882375E+03  0.37163882376E+03  0.25500000920E-02 0. -1.
        2   -1    0    0  501    0  0.00000000000E+00  0.00000000000E+00 -0.74902213570E+03  0.74902213570E+03  0.25500000920E-02 0.  1.
    10030    2    1    2    0    0  0.00000000000E+00  0.00000000000E+00 -0.37738331195E+03  0.11206609595E+04  0.10552074781E+04 0.  0.
        3    1    3    3  502    0 -0.40031585003E+03  0.65521516653E+02  0.16960716560E+03  0.43967311694E+03  0.10100000352E+00 0. -1.
       -3    1    3    3    0  502  0.40031585003E+03 -0.65521516653E+02 -0.54699047755E+03  0.68098784252E+03  0.10100000352E+00 0.  1.
</event>
<event>
 5   0  0.7952121E-03  0.9329758E+03  0.7818609E-02  0.9385274E-01
        2   -1    0    0  501    0  0.00000000000E+00  0.00000000000E+00  0.10028386641E+04  0.10028386641E+04  0.25500000920E-02 0.  1.
       -2   -1    0    0    0  501  0.00000000000E+00  0.00000000000E+00 -0.21699500621E+03  0.21699500623E+03  0.25500000920E-02 0. -1.
    10030    2    1    2    0    0  0.00000000000E+00  0.00000000000E+00  0.78584365791E+03  0.12198336704E+04  0.93297584570E+03 0.  0.
        3    1    3    3  502    0  0.24368290148E+03 -0.33844784588E+03  0.66618733199E+03  0.78596047760E+03  0.10100000352E+00 0.  1.
       -3    1    3    3    0  502 -0.24368290148E+03  0.33844784588E+03  0.11965632592E+03  0.43387319275E+03  0.10100000352E+00 0. -1.
</event>
<event>
 5   0  0.4428114E-03  0.1098645E+04  0.7818609E-02  0.9206513E-01
       -1   -1    0    0    0  501  0.00000000000E+00  0.00000000000E+00  0.99835759329E+03  0.99835759330E+03  0.50400001928E-02 0.  1.
        1   -1    0    0  501    0  0.00000000000E+00  0.00000000000E+00 -0.30225184570E+03  0.30225184574E+03  0.50400001928E-02 0. -1.
    10030    2    1    2    0    0  0.00000000000E+00  0.00000000000E+00  0.69610574759E+03  0.13006094390E+04  0.10986453937E+04 0.  0.
        4    1    3    3  502    0  0.14943124190E+03  0.52806830103E+03  0.31983930073E+03  0.63520439057E+03  0.12699999809E+01 0. -1.
       -4    1    3    3    0  502 -0.14943124190E+03 -0.52806830103E+03  0.37626644686E+03  0.66540504847E+03  0.12699999809E+01 0.  1.
</event>
<event>
 5   0  0.7537480E-03  0.1083847E+04  0.7818609E-02  0.9221081E-01
       -2   -1    0    0    0  501  0.00000000000E+00  0.00000000000E+00  0.27346100272E+03  0.27346100273E+03  0.25500000920E-02 0. -1.
        2   -1    0    0  501    0  0.00000000000E+00  0.00000000000E+00 -0.10739404012E+04  0.10739404013E+04  0.25500000920E-02 0.  1.
    10030    2    1    2    0    0  0.00000000000E+00  0.00000000000E+00 -0.80047939853E+03  0.13474014040E+04  0.10838465186E+04 0.  0.
        1    1    3    3  502    0 -0.20005722365E+03  0.48286704439E+03 -0.22225691347E+03  0.56796268443E+03  0.50400001928E-02 0.  1.
       -1    1    3    3    0  502  0.20005722365E+03 -0.48286704439E+03 -0.57822248506E+03  0.77943871955E+03  0.50400001928E-02 0. -1.
</event>
<event>
 5   0  0.4598561E-03  0.1104585E+04  0.7818609E-02  0.9200735E-01
        1   -1    0    0  501    0  0.00000000000E+00  0.00000000000E+00  0.65400033238E+03  0.65400033240E+03  0.50400001928E-02 0. -1.
       -1   -1    0    0    0  501  0.00000000000E+00  0.00000000000E+00 -0.46640174150E+03  0.46640174153E+03  0.50400001928E-02 0.  1.
    10030    2    1    2    0    0  0.00000000000E+00  0.00000000000E+00  0.18759859088E+03  0.11204020739E+04  0.11045847980E+04 0.  0.
        2    1    3    3  502    0  0.10328857848E+03 -0.15241865705E+03 -0.43435541764E+03  0.47176753417E+03  0.25500000920E-02 0.  1.
       -2    1    3    3    0  502 -0.10328857848E+03  0.15241865705E+03  0.62195400851E+03  0.64863453976E+03  0.25500000920E-02 0. -1.
</event>
<event>
 5   0  0.4641021E-03  0.1110222E+04  0.7818609E-02  0.9195286E-01
       -1   -1    0    0    0  501  0.00000000000E+00  0.00000000000E+00  0.30046482035E+03  0.30046482039E+03  0.50400001928E-02 0. -1.
        1   -1    0    0  501    0  0.00000000000E+00  0.00000000000E+00 -0.10255719185E+04  0.10255719185E+04  0.50400001928E-02 0.  1.
    10030    2    1    2    0    0  0.00000000000E+00  0.00000000000E+00 -0.72510709814E+03  0.13260367389E+04  0.11102221080E+04 0.  0.
        1    1    3    3  502    0  0.12627524128E+03 -0.15913940192E+03  0.25446989124E+03  0.32561589546E+03  0.50400001928E-02 0. -1.
       -1    1    3    3    0  502 -0.12627524128E+03  0.15913940192E+03 -0.97957698938E+03  0.10004208434E+04  0.50400001928E-02 0.  1.
</event>
<event>
 5   0  0.4504740E-03  0.1137997E+04  0.7818609E-02  0.9168929E-01
       -1   -1    0    0    0  501  0.00000000000E+00  0.00000000000E+00  0.82904472694E+03  0.82904472696E+03  0.50400001928E-02 0.  1.
        1   -1    0    0  501    0  0.00000000000E+00  0.00000000000E+00 -0.39052077721E+03  0.39052077724E+03  0.50400001928E-02 0. -1.
    10030    2    1    2    0    0  0.00000000000E+00  0.00000000000E+00  0.43852394973E+03  0.12195655042E+04  0.11379968210E+04 0.  0.
        5    1    3    3  502    0 -0.10690705645E+03  0.52924696431E+03  0.41158443421E+03  0.67893689282E+03  0.46999998093E+01 0. -1.
       -5    1    3    3    0  502  0.10690705645E+03 -0.52924696431E+03  0.26939515528E+02  0.54062861138E+03  0.46999998093E+01 0.  1.
</event>
<event>
 5   0  0.7712816E-03  0.1204128E+04  0.7818609E-02  0.9109251E-01
        2   -1    0    0  501    0  0.00000000000E+00  0.00000000000E+00  0.71629349667E+03  0.71629349668E+03  0.25500000920E-02 0. -1.
       -2   -1    0    0    0  501  0.00000000000E+00  0.00000000000E+00 -0.50605117122E+03  0.50605117123E+03  0.25500000920E-02 0.  1.
    10030    2    1    2    0    0  0.00000000000E+00  0.00000000000E+00  0.21024232545E+03  0.12223446679E+04  0.12041281708E+04 0.  0.
        2    1    3    3  502    0  0.32175314885E+03  0.26872174889E+03  0.54379840343E+03  0.68662447575E+03  0.25500000920E-02 0. -1.
       -2    1    3    3    0  502 -0.32175314885E+03 -0.26872174889E+03 -0.33355607798E+03  0.53572019215E+03  0.25500000920E-02 0.  1.
</event>
<event>
 5   0  0.7537480E-03  0.1075718E+04  0.7818609E-02  0.9229187E-01
       -2   -1    0    0    0  501  0.00000000000E+00  0.00000000000E+00  0.44479626869E+03  0.44479626870E+03  0.25500000920E-02 0. -1.
        2   -1    0    0  501    0  0.00000000000E+00  0.00000000000E+00 -0.65039317277E+03  0.65039317278E+03  0.25500000920E-02 0.  1.
    10030    2    1    2    0    0  0.00000000000E+00  0.00000000000E+00 -0.20559690408E+03  0.10951894415E+04  0.10757182836E+04 0.  0.
        1    1    3    3  502    0  0.32838176034E+03  0.38464641986E+03 -0.28915538667E+03  0.58257899594E+03  0.50400001928E-02 0. -1.
       -1    1    3    3    0  502 -0.32838176034E+03 -0.38464641986E+03  0.83558482598E+02  0.51261044554E+03  0.50400001928E-02 0.  1.
</event>
<event>
 5   0  0.7766551E-03  0.1101416E+04  0.7818609E-02  0.9203813E-01
        2   -1    0    0  501    0  0.00000000000E+00  0.00000000000E+00  0.98963968020E+03  0.98963968020E+03  0.25500000920E-02 0.  1.
       -2   -1    0    0    0  501  0.00000000000E+00  0.00000000000E+00 -0.30645410367E+03  0.30645410368E+03  0.25500000920E-02 0. -1.
    10030    2    1    2    0    0  0.00000000000E+00  0.00000000000E+00  0.68318557653E+03  0.12960937839E+04  0.11014157093E+04 0.  0.
        5    1    3    3  502    0  0.14346680382E+02  0.26226685007E+03 -0.22796922826E+03  0.34782436216E+03  0.46999998093E+01 0. -1.
       -5    1    3    3    0  502 -0.14346680382E+02 -0.26226685007E+03  0.91115480479E+03  0.94826942172E+03  0.46999998093E+01 0.  1.
</event>
<event>
 5   0  0.2992375E-03  0.1050712E+04  0.7818609E-02  0.9254609E-01
        3   -1    0    0  501    0  0.00000000000E+00  0.00000000000E+00  0.26501068969E+03  0.26501070894E+03  0.10100000352E+00 0.  1.
       -3   -1    0    0    0  501  0.00000000000E+00  0.00000000000E+00 -0.10414630350E+04  0.10414630399E+04  0.10100000352E+00 0. -1.
    10030    2    1    2    0    0  0.00000000000E+00  0.00000000000E+00 -0.77645234528E+03  0.13064737488E+04  0.10507118596E+04 0.  0.
        2    1    3    3  502    0  0.59993438208E+02  0.17452699869E+03  0.22337859491E+03  0.28975314074E+03  0.25500000920E-02 0.  1.
       -2    1    3    3    0  502 -0.59993438208E+02 -0.17452699869E+03 -0.99983094019E+03  0.10167206081E+04  0.25500000920E-02 0. -1.
</event>
<event>
 5   0  0.2992375E-03  0.1060983E+04  0.7818609E-02  0.9244078E-01
       -4   -1    0    0    0  501  0.00000000000E+00  0.00000000000E+00  0.60469427398E+03  0.60469560763E+03  0.12699999809E+01 0.  1.
        4   -1    0    0  501    0  0.00000000000E+00  0.00000000000E+00 -0.46539123159E+03  0.46539296443E+03  0.12699999809E+01 0. -1.
    10030    2    1    2    0    0  0.00000000000E+00  0.00000000000E+00  0.13930304239E+03  0.10700885721E+04  0.10609826645E+04 0.  0.
        4    1    3    3  502    0 -0.32281307869E+01 -0.29157632987E+02  0.60387555986E+03  0.60458902825E+03  0.12699999809E+01 0.  1.
       -4    1    3    3    0  502  0.32281307869E+01  0.29157632987E+02 -0.46457251747E+03  0.46549954380E+03  0.12699999809E+01 0. -1.
</event>
<event>
 5   0  0.7738497E-03  0.1098967E+04  0.7818609E-02  0.9206200E-01
        2   -1    0    0  501    0  0.00000000000E+00  0.00000000000E+00  0.10433646275E+04  0.10433646275E+04  0.25500000920E-02 0.  1.
       -2   -1    0    0    0  501  0.00000000000E+00  0.00000000000E+00 -0.28938287616E+03  0.28938287618E+03  0.25500000920E-02 0. -1.
    10030    2    1    2    0    0  0.00000000000E+00  0.00000000000E+00  0.75398175130E+03  0.13327475036E+04  0.10989665269E+04 0.  0.
        4    1    3    3  502    0  0.51849768797E+03  0.17938030092E+03  0.41363652085E+03  0.68710547157E+03  0.12699999809E+01 0. -1.
       -4    1    3    3    0  502 -0.51849768797E+03 -0.17938030092E+03  0.34034523045E+03  0.64564203207E+03  0.12699999809E+01 0.  1.
</event>
<event>
 5   0  0.7537480E-03  0.1097207E+04  0.7818609E-02  0.9207919E-01
       -2   -1    0    0    0  501  0.00000000000E+00  0.00000000000E+00  0.53315960474E+03  0.53315960475E+03  0.25500000920E-02 0.  1.
        2   -1    0    0  501    0  0.00000000000E+00  0.00000000000E+00 -0.56449438052E+03  0.56449438052E+03  0.25500000920E-02 0. -1.
    10030    2    1    2    0    0  0.00000000000E+00  0.00000000000E+00 -0.31334775775E+02  0.10976539853E+04  0.10972066365E+04 0.  0.
        1    1    3    3  502    0  0.92207864980E+02  0.68166090185E+02 -0.55237162429E+03  0.56414831167E+03  0.50400001928E-02 0. -1.
       -1    1    3    3    0  502 -0.92207864980E+02 -0.68166090185E+02  0.52103684852E+03  0.53350567359E+03  0.50400001928E-02 0.  1.
</event>
<event>
 5   0  0.4641021E-03  0.1116816E+04  0.7818609E-02  0.9188955E-01
        1   -1    0    0  501    0  0.00000000000E+00  0.00000000000E+00  0.29225133983E+03  0.29225133988E+03  0.50400001928E-02 0.  1.
       -1   -1    0    0    0  501  0.00000000000E+00  0.00000000000E+00 -0.10669568752E+04  0.10669568752E+04  0.50400001928E-02 0. -1.
    10030    2    1    2    0    0  0.00000000000E+00  0.00000000000E+00 -0.77470553536E+03  0.13592082151E+04  0.11168161467E+04 0.  0.
        1    1    3    3  502    0  0.47609017970E+03 -0.29120721423E+03 -0.41031823878E+03  0.69269369704E+03  0.50400001928E-02 0. -1.
       -1    1    3    3    0  502 -0.47609017970E+03  0.29120721423E+03 -0.36438729658E+03  0.66651451804E+03  0.50400001928E-02 0.  1.
</event>
<event>
 5   0  0.4504740E-03  0.1122138E+04  0.7818609E-02  0.9183880E-01
        1   -1    0    0  501    0  0.00000000000E+00  0.00000000000E+00  0.21460984226E+04  0.21460984226E+04  0.50400001928E-02 0.  1.
       -1   -1    0    0    0  501  0.00000000000E+00  0.00000000000E+00 -0.14668395054E+03  0.14668395063E+03  0.50400001928E-02 0. -1.
    10030    2    1    2    0    0  0.00000000000E+00  0.00000000000E+00  0.19994144721E+04  0.22927823733E+04  0.11221375940E+04 0.  0.
        5    1    3    3  502    0 -0.52843070372E+03 -0.18223539119E+03  0.90113641593E+03  0.10604327780E+04  0.46999998093E+01 0.  1.
       -5    1    3    3    0  502  0.52843070372E+03  0.18223539119E+03  0.10982780562E+04  0.12323495953E+04  0.46999998093E+01 0. -1.
</event>
<event>
 5   0  0.7766551E-03  0.1112940E+04  0.7818609E-02  0.9192670E-01
        2   -1    0    0  501    0  0.00000000000E+00  0.00000000000E+00  0.12788816416E+04  0.12788816416E+04  0.25500000920E-02 0.  1.
       -2   -1    0    0    0  501  0.00000000000E+00  0.00000000000E+00 -0.24213265241E+03  0.24213265243E+03  0.25500000920E-02 0. -1.
    10030    2    1    2    0    0  0.00000000000E+00  0.00000000000E+00  0.10367489892E+04  0.15210142940E+04  0.11129402572E+04 0.  0.
        5    1    3    3  502    0 -0.16746627287E+03 -0.52763106657E+03  0.44109554281E+03  0.70783251045E+03  0.46999998093E+01 0. -1.
       -5    1    3    3    0  502  0.16746627287E+03  0.52763106657E+03  0.59565344636E+03  0.81318178356E+03  0.46999998093E+01 0.  1.
</event>
<event>
 5   0  0.7766551E-03  0.1087237E+04  0.7818609E-02  0.9217722E-01
       -2   -1    0    0    0  501  0.00000000000E+00  0.00000000000E+00  0.29852996329E+03  0.29852996330E+03  0.25500000920E-02 0. -1.
        2   -1    0    0  501    0  0.00000000000E+00  0.00000000000E+00 -0.98992012229E+03  0.98992012229E+03  0.25500000920E-02 0.  1.
    10030    2    1    2    0    0  0.00000000000E+00  0.00000000000E+00 -0.69139015900E+03  0.12884500856E+04  0.10872365295E+04 0.  0.
        5    1    3    3  502    0  0.43063724014E+03  0.12666325140E+03  0.17653112616E+02  0.44925019113E+03  0.46999998093E+01 0. -1.
       -5    1    3    3    0  502 -0.43063724014E+03 -0.12666325140E+03 -0.70904327161E+03  0.83919989446E+03  0.46999998093E+01 0.  1.
</event>
<event>
 5   0  0.7766551E-03  0.1105446E+04  0.7818609E-02  0.9199901E-01
       -2   -1    0    0    0  501  0.00000000000E+00  0.00000000000E+00  0.35885438304E+03  0.35885438305E+03  0.25500000920E-02 0. -1.
        2   -1    0    0  501    0  0.00000000000E+00  0.00000000000E+00 -0.85132704620E+03  0.85132704620E+03  0.25500000920E-02 0.  1.
    10030    2    1    2    0    0  0.00000000000E+00  0.00000000000E+00 -0.49247266316E+03  0.12101814293E+04  0.11054455065E+04 0.  0.
        5    1    3    3  502    0 -0.47916243389E+03 -0.17053127676E+03 -0.48307305929E+03  0.70146933291E+03  0.46999998093E+01 0.  1.
       -5    1    3    3    0  502  0.47916243389E+03  0.17053127676E+03 -0.93996038675E+01  0.50871209634E+03  0.46999998093E+01 0. -1.
</event>
<event>
 5   0  0.7738497E-03  0.1103316E+04  0.7818609E-02  0.9201966E-01
       -2   -1    0    0    0  501  0.00000000000E+00  0.00000000000E+00  0.29300925255E+03  0.29300925256E+03  0.25500000920E-02 0.  1.
        2   -1    0    0  501    0  0.00000000000E+00  0.00000000000E+00 -0.10386237330E+04  0.10386237330E+04  0.25500000920E-02 0. -1.
    10030    2    1    2    0    0  0.00000000000E+00  0.00000000000E+00 -0.74561448048E+03  0.13316329856E+04  0.11033156642E+04 0.  0.
        4    1    3    3  502    0  0.41010191140E+03  0.77432494930E+02  0.62603503743E+02  0.42201917088E+03  0.12699999809E+01 0.  1.
       -4    1    3    3    0  502 -0.41010191140E+03 -0.77432494930E+02 -0.80821798422E+03  0.90961381472E+03  0.12699999809E+01 0. -1.
</event>
<event>
 5   0  0.7738497E-03  0.1122607E+04  0.7818609E-02  0.9183434E-01
        2   -1    0    0  501    0  0.00000000000E+00  0.00000000000E+00  0.14452548743E+04  0.14452548743E+04  0.25500000920E-02 0.  1.
       -2   -1    0    0    0  501  0.00000000000E+00  0.00000000000E+00 -0.21799711969E+03  0.21799711971E+03  0.25500000920E-02 0. -1.
    10030    2    1    2    0    0  0.00000000000E+00  0.00000000000E+00  0.12272577547E+04  0.16632519941E+04  0.11226066094E+04 0.  0.
        4    1    3    3  502    0  0.68417891688E+02 -0.34477874264E+03  0.12619976675E+04  0.13100355396E+04  0.12699999809E+01 0.  1.
       -4    1    3    3    0  502 -0.68417891688E+02  0.34477874264E+03 -0.34739912827E+02  0.35321645449E+03  0.12699999809E+01 0. -1.
</event>
<event>
 5   0  0.4504740E-03  0.8723404E+03  0.7818609E-02  0.9460833E-01
       -1   -1    0    0    0  501  0.00000000000E+00  0.00000000000E+00  0.31199123213E+03  0.31199123217E+03  0.50400001928E-02 0. -1.
        1   -1    0    0  501    0  0.00000000000E+00  0.00000000000E+00 -0.60977495510E+03  0.60977495512E+03  0.50400001928E-02 0.  1.
    10030    2    1    2    0    0  0.00000000000E+00  0.00000000000E+00 -0.29778372297E+03  0.92176618729E+03  0.87234039135E+03 0.  0.
        5    1    3    3  502    0 -0.57121945134E+02 -0.43171470023E+03 -0.17438014142E+03  0.46911728036E+03  0.46999998093E+01 0.  1.
       -5    1    3    3    0  502  0.57121945134E+02  0.43171470023E+03 -0.12340358155E+03  0.45264890693E+03  0.46999998093E+01 0. -1.
</event>
<event>
 5   0  0.7952121E-03  0.1102740E+04  0.7818609E-02  0.9202526E-01
       -2   -1    0    0    0  501  0.00000000000E+00  0.00000000000E+00  0.12212580389E+04  0.12212580389E+04  0.25500000920E-02 0. -1.
        2   -1    0    0  501    0  0.00000000000E+00  0.00000000000E+00 -0.24893080531E+03  0.24893080532E+03  0.25500000920E-02 0.  1.
    10030    2    1    2    0    0  0.00000000000E+00  0.00000000000E+00  0.97232723357E+03  0.14701888442E+04  0.11027397646E+04 0.  0.
        3    1    3    3  502    0 -0.13700795758E+03 -0.36884673361E+03  0.10011187904E+04  0.10756662754E+04  0.10100000352E+00 0. -1.
       -3    1    3    3    0  502  0.13700795758E+03  0.36884673361E+03 -0.28791556857E+02  0.39452256879E+03  0.10100000352E+00 0.  1.
</event>
<event>
 5   0  0.7712816E-03  0.1081489E+04  0.7818609E-02  0.9223425E-01
        2   -1    0    0  501    0  0.00000000000E+00  0.00000000000E+00  0.45797564067E+03  0.45797564068E+03  0.25500000920E-02 0. -1.
       -2   -1    0    0    0  501  0.00000000000E+00  0.00000000000E+00 -0.63847140260E+03  0.63847140261E+03  0.25500000920E-02 0.  1.
    10030    2    1    2    0    0  0.00000000000E+00  0.00000000000E+00 -0.18049576193E+03  0.10964470433E+04  0.10814885106E+04 0.  0.
        2    1    3    3  502    0  0.53583566437E+03 -0.69209515618E+02 -0.67702189420E+02  0.54451207767E+03  0.25500000920E-02 0.  1.
       -2    1    3    3    0  502 -0.53583566437E+03  0.69209515618E+02 -0.11279357251E+03  0.55193496562E+03  0.25500000920E-02 0. -1.
</event>
<event>
 5   0  0.4298101E-03  0.1090887E+04  0.7818609E-02  0.9214120E-01
       -1   -1    0    0    0  501  0.00000000000E+00  0.00000000000E+00  0.25851417088E+03  0.25851417093E+03  0.50400001928E-02 0. -1.
        1   -1    0    0  501    0  0.00000000000E+00  0.00000000000E+00 -0.11508409073E+04  0.11508409073E+04  0.50400001928E-02 0.  1.
    10030    2    1    2    0    0  0.00000000000E+00  0.00000000000E+00 -0.89232673643E+03  0.14093550783E+04  0.10908871308E+04 0.  0.
        3    1    3    3  502    0  0.14853058425E+03  0.52473589422E+03 -0.45905553601E+03  0.71284015633E+03  0.10100000352E+00 0.  1.
       -3    1    3    3    0  502 -0.14853058425E+03 -0.52473589422E+03 -0.43327120042E+03  0.69651492192E+03  0.10100000352E+00 0. -1.
</event>
<event>
 5   0  0.7766551E-03  0.1103004E+04  0.7818609E-02  0.9202269E-01
       -2   -1    0    0    0  501  0.00000000000E+00  0.00000000000E+00  0.74921252632E+03  0.74921252632E+03  0.25500000920E-02 0. -1.
        2   -1    0    0  501    0  0.00000000000E+00  0.00000000000E+00 -0.40596578318E+03  0.40596578319E+03  0.25500000920E-02 0.  1.
    10030    2    1    2    0    0  0.00000000000E+00  0.00000000000E+00  0.34324674314E+03  0.11551783095E+04  0.11030043518E+04 0.  0.
        5    1    3    3  502    0  0.10482883335E+02  0.44053316047E+03  0.51890014974E+03  0.68077809286E+03  0.46999998093E+01 0. -1.
       -5    1    3    3    0  502 -0.10482883335E+02 -0.44053316047E+03 -0.17565340660E+03  0.47440021666E+03  0.46999998093E+01 0.  1.
</event>
<event>
 5   0  0.7712816E-03  0.1084658E+04  0.7818609E-02  0.9220276E-01
       -2   -1    0    0    0  501  0.00000000000E+00  0.00000000000E+00  0.20685208801E+03  0.20685208803E+03  0.25500000920E-02 0. -1.
        2   -1    0    0  501    0  0.00000000000E+00  0.00000000000E+00 -0.14218879633E+04  0.14218879633E+04  0.25500000920E-02 0.  1.
    10030    2    1    2    0    0  0.00000000000E+00  0.00000000000E+00 -0.12150358753E+04  0.16287400513E+04  0.10846575388E+04 0.  0.
        2    1    3    3  502    0  0.42873305008E+03 -0.27421795970E+03 -0.88889776554E+03  0.10242786512E+04  0.25500000920E-02 0.  1.
       -2    1    3    3    0  502 -0.42873305008E+03  0.27421795970E+03 -0.32613810974E+03  0.60446140016E+03  0.25500000920E-02 0. -1.
</event>
<event>
 5   0  0.4641021E-03  0.1094174E+04  0.7818609E-02  0.9210889E-01
       -1   -1    0    0    0  501  0.00000000000E+00  0.00000000000E+00  0.38428696699E+03  0.38428696702E+03  0.50400001928E-02 0.  1.
        1   -1    0    0  501    0  0.00000000000E+00  0.00000000000E+00 -0.77885603544E+03  0.77885603546E+03  0.50400001928E-02 0. -1.
    10030    2    1    2    0    0  0.00000000000E+00  0.00000000000E+00 -0.39456906845E+03  0.11631430025E+04  0.10941740695E+04 0.  0.
        1    1    3    3  502    0 -0.20595964189E+03 -0.78123206194E+02  0.33506213438E+03  0.40098534057E+03  0.50400001928E-02 0.  1.
       -1    1    3    3    0  502  0.20595964189E+03  0.78123206194E+02 -0.72963120283E+03  0.76215766191E+03  0.50400001928E-02 0. -1.
</event>
<event>
 5   0  0.7766551E-03  0.1060741E+04  0.7818609E-02  0.9244325E-01
       -2   -1    0    0    0  501  0.00000000000E+00  0.00000000000E+00  0.26119963028E+03  0.26119963029E+03  0.25500000920E-02 0.  1.
        2   -1    0    0  501    0  0.00000000000E+00  0.00000000000E+00 -0.10769258900E+04  0.10769258900E+04  0.25500000920E-02 0. -1.
    10030    2    1    2    0    0  0.00000000000E+00  0.00000000000E+00 -0.81572625967E+03  0.13381255202E+04  0.10607405796E+04 0.  0.
        5    1    3    3  502    0  0.11139660605E+03  0.13408011999E+03  0.22400149475E+03  0.28387575110E+03  0.46999998093E+01 0.  1.
       -5    1    3    3    0  502 -0.11139660605E+03 -0.13408011999E+03 -0.10397277544E+04  0.10542497691E+04  0.46999998093E+01 0. -1.
</event>
<event>
 5   0  0.7766551E-03  0.1100002E+04  0.7818609E-02  0.9205190E-01
        2   -1    0    0  501    0  0.00000000000E+00  0.00000000000E+00  0.20515906224E+04  0.20515906224E+04  0.25500000920E-02 0. -1.
       -2   -1    0    0    0  501  0.00000000000E+00  0.00000000000E+00 -0.14744717266E+03  0.14744717269E+03  0.25500000920E-02 0.  1.
    10030    2    1    2    0    0  0.00000000000E+00  0.00000000000E+00  0.19041434497E+04  0.21990377951E+04  0.11000022486E+04 0.  0.
        5    1    3    3  502    0 -0.26608165418E+03 -0.11288747505E+02 -0.99029454131E+01  0.26654650784E+03  0.46999998093E+01 0.  1.
       -5    1    3    3    0  502  0.26608165418E+03  0.11288747505E+02  0.19140463951E+04  0.19324912872E+04  0.46999998093E+01 0. -1.
</event>
<event>
 5   0  0.7952121E-03  0.9673978E+03  0.7818609E-02  0.9345043E-01
       -2   -1    0    0    0  501  0.00000000000E+00  0.00000000000E+00  0.25296960121E+03  0.25296960122E+03  0.25500000920E-02 0.  1.
        2   -1    0    0  501    0  0.00000000000E+00  0.00000000000E+00 -0.92487256309E+03  0.92487256309E+03  0.25500000920E-02 0. -1.
    10030    2    1    2    0    0  0.00000000000E+00  0.00000000000E+00 -0.67190296188E+03  0.11778421643E+04  0.96739783639E+03 0.  0.
        3    1    3    3  502    0  0.37466812834E+03  0.13708819852E+02  0.36145866946E+02  0.37665723414E+03  0.10100000352E+00 0.  1.
       -3    1    3    3    0  502 -0.37466812834E+03 -0.13708819852E+02 -0.70804882882E+03  0.80118493017E+03  0.10100000352E+00 0. -1.
</event>
<event>
 5   0  0.2992375E-03  0.1122405E+04  0.7818609E-02  0.9183626E-01
       -4   -1    0    0    0  501  0.00000000000E+00  0.00000000000E+00  0.25245655705E+03  0.25245975144E+03  0.12699999809E+01 0. -1.
        4   -1    0    0  501    0  0.00000000000E+00  0.00000000000E+00 -0.12475221702E+04  0.12475228167E+04  0.12699999809E+01 0.  1.
    10030    2    1    2    0    0  0.00000000000E+00  0.00000000000E+00 -0.99506561317E+03  0.14999825681E+04  0.11224046196E+04 0.  0.
        5    1    3    3  502    0  0.26664484211E+03 -0.19004121405E+03 -0.11066015515E+04  0.11540382223E+04  0.46999998093E+01 0. -1.
       -5    1    3    3    0  502 -0.26664484211E+03  0.19004121405E+03  0.11153593829E+03  0.34594434579E+03  0.46999998093E+01 0.  1.
</event>
<event>
 5   0  0.4504740E-03  0.1097784E+04  0.7818609E-02  0.9207355E-01
       -1   -1    0    0    0  501  0.00000000000E+00  0.00000000000E+00  0.11262904422E+04  0.11262904422E+04  0.50400001928E-02 0.  1.
        1   -1    0    0  501    0  0.00000000000E+00  0.00000000000E+00 -0.26749963160E+03  0.26749963165E+03  0.50400001928E-02 0. -1.
    10030    2    1    2    0    0  0.00000000000E+00  0.00000000000E+00  0.85879081062E+03  0.13937900739E+04  0.10977837281E+04 0.  0.
        5    1    3    3  502    0 -0.47830343946E+03  0.18602980983E+03  0.67649916943E+03  0.84914927226E+03  0.46999998093E+01 0.  1.
       -5    1    3    3    0  502  0.47830343946E+03 -0.18602980983E+03  0.18229164119E+03  0.54464080162E+03  0.46999998093E+01 0. -1.
</event>
<event>
 5   0  0.7712816E-03  0.1099181E+04  0.7818609E-02  0.9205990E-01
       -2   -1    0    0    0  501  0.00000000000E+00  0.00000000000E+00  0.48502956023E+03  0.48502956024E+03  0.25500000920E-02 0.  1.
        2   -1    0    0  501    0  0.00000000000E+00  0.00000000000E+00 -0.62274541748E+03  0.62274541748E+03  0.25500000920E-02 0. -1.
    10030    2    1    2    0    0  0.00000000000E+00  0.00000000000E+00 -0.13771585724E+03  0.11077749777E+04  0.10991813972E+04 0.  0.
        2    1    3    3  502    0  0.22042443274E+03 -0.46542908006E+03 -0.26229280600E+03  0.57793483647E+03  0.25500000920E-02 0. -1.
       -2    1    3    3    0  502 -0.22042443274E+03  0.46542908006E+03  0.12457694875E+03  0.52984014126E+03  0.25500000920E-02 0.  1.
</event>
<event>
 5   0  0.7537480E-03  0.9912015E+03  0.7818609E-02  0.9318248E-01
       -2   -1    0    0    0  501  0.00000000000E+00  0.00000000000E+00  0.11731589149E+03  0.11731589152E+03  0.25500000920E-02 0. -1.
        2   -1    0    0  501    0  0.00000000000E+00  0.00000000000E+00 -0.20936643444E+04  0.20936643444E+04  0.25500000920E-02 0.  1.
    10030    2    1    2    0    0  0.00000000000E+00  0.00000000000E+00 -0.19763484529E+04  0.22109802359E+04  0.99120149126E+03 0.  0.
        1    1    3    3  502    0  0.34766163815E+03  0.32484107950E+03 -0.12974955196E+04  0.13819858772E+04  0.50400001928E-02 0.  1.
       -1    1    3    3    0  502 -0.34766163815E+03 -0.32484107950E+03 -0.67885293330E+03  0.82899435864E+03  0.50400001928E-02 0. -1.
</event>
<event>
 5   0  0.4598561E-03  0.1099380E+04  0.7818609E-02  0.9205796E-01
       -1   -1    0    0    0  501  0.00000000000E+00  0.00000000000E+00  0.26830526432E+03  0.26830526437E+03  0.50400001928E-02 0.  1.
        1   -1    0    0  501    0  0.00000000000E+00  0.00000000000E+00 -0.11261767489E+04  0.11261767489E+04  0.50400001928E-02 0. -1.
    10030    2    1    2    0    0  0.00000000000E+00  0.00000000000E+00 -0.85787148458E+03  0.13944820133E+04  0.10993800986E+04 0.  0.
        2    1    3    3  502    0  0.47240815298E+03  0.22616199266E+03 -0.64057834629E+03  0.82744143459E+03  0.25500000920E-02 0.  1.
       -2    1    3    3    0  502 -0.47240815298E+03 -0.22616199266E+03 -0.21729313828E+03  0.56704057869E+03  0.25500000920E-02 0. -1.
</event>
<event>
 5   0  0.4298101E-03  0.1097567E+04  0.7818609E-02  0.9207567E-01
        1   -1    0    0  501    0  0.00000000000E+00  0.00000000000E+00  0.95744694039E+03  0.95744694041E+03  0.50400001928E-02 0. -1.
       -1   -1    0    0    0  501  0.00000000000E+00  0.00000000000E+00 -0.31454826185E+03  0.31454826189E+03  0.50400001928E-02 0.  1.
    10030    2    1    2    0    0  0.00000000000E+00  0.00000000000E+00  0.64289867855E+03  0.12719952023E+04  0.10975668926E+04 0.  0.
        3    1    3    3  502    0 -0.36841028489E+03 -0.86211195277E+02 -0.13922025670E+03  0.40316348828E+03  0.10100000352E+00 0.  1.
       -3    1    3    3    0  502  0.36841028489E+03  0.86211195277E+02  0.78211893525E+03  0.86883171401E+03  0.10100000352E+00 0. -1.
</event>
<event>
 5   0  0.7712816E-03  0.1079854E+04  0.7818609E-02  0.9225053E-01
        2   -1    0    0  501    0  0.00000000000E+00  0.00000000000E+00  0.37348686639E+03  0.37348686640E+03  0.25500000920E-02 0.  1.
       -2   -1    0    0    0  501  0.00000000000E+00  0.00000000000E+00 -0.78053869853E+03  0.78053869853E+03  0.25500000920E-02 0. -1.
    10030    2    1    2    0    0  0.00000000000E+00  0.00000000000E+00 -0.40705183214E+03  0.11540255649E+04  0.10798536060E+04 0.  0.
        2    1    3    3  502    0  0.45935432034E+03  0.17810323110E+03 -0.43959160452E+03  0.66027867701E+03  0.25500000920E-02 0.  1.
       -2    1    3    3    0  502 -0.45935432034E+03 -0.17810323110E+03  0.32539772381E+02  0.49374688792E+03  0.25500000920E-02 0. -1.
</event>
<event>
 5   0  0.4641021E-03  0.1104786E+04  0.7818609E-02  0.9200539E-01
        1   -1    0    0  501    0  0.00000000000E+00  0.00000000000E+00  0.15111304625E+04  0.15111304625E+04  0.50400001928E-02 0. -1.
       -1   -1    0    0    0  501  0.00000000000E+00  0.00000000000E+00 -0.20192708715E+03  0.20192708721E+03  0.50400001928E-02 0.  1.
    10030    2    1    2    0    0  0.00000000000E+00  0.00000000000E+00  0.13092033753E+04  0.17130575497E+04  0.11047862647E+04 0.  0.
        1    1    3    3  502    0 -0.31176772438E+03  0.33690749530E+03  0.11310921332E+04  0.12206863595E+04  0.50400001928E-02 0. -1.
       -1    1    3    3    0  502  0.31176772438E+03 -0.33690749530E+03  0.17811124209E+03  0.49237119020E+03  0.50400001928E-02 0.  1.
</event>
<event>
 5   0  0.4641021E-03  0.1088515E+04  0.7818609E-02  0.9216459E-01
        1   -1    0    0  501    0  0.00000000000E+00  0.00000000000E+00  0.65724055874E+03  0.65724055876E+03  0.50400001928E-02 0.  1.
       -1   -1    0    0    0  501  0.00000000000E+00  0.00000000000E+00 -0.45069680838E+03  0.45069680840E+03  0.50400001928E-02 0. -1.
    10030    2    1    2    0    0  0.00000000000E+00  0.00000000000E+00  0.20654375036E+03  0.11079373672E+04  0.10885149924E+04 0.  0.
        1    1    3    3  502    0  0.48463186093E+03 -0.52308464269E+02  0.34969081682E+03  0.59990656227E+03  0.50400001928E-02 0.  1.
       -1    1    3    3    0  502 -0.48463186093E+03  0.52308464269E+02 -0.14314706646E+03  0.50803080489E+03  0.50400001928E-02 0. -1.
</event>
<event>
 5   0  0.4598561E-03  0.1101844E+04  0.7818609E-02  0.9203397E-01
        1   -1    0    0  501    0  0.00000000000E+00  0.00000000000E+00  0.64949563175E+03  0.64949563177E+03  0.50400001928E-02 0.  1.
       -1   -1    0    0    0  501  0.00000000000E+00  0.00000000000E+00 -0.46730858069E+03  0.46730858071E+03  0.50400001928E-02 0. -1.
    10030    2    1    2    0    0  0.00000000000E+00  0.00000000000E+00  0.18218705107E+03  0.11168042125E+04  0.11018436947E+04 0.  0.
        2    1    3    3  502    0 -0.30009106562E+02 -0.34488486961E+03  0.52547840766E+03  0.62926439331E+03  0.25500000920E-02 0.  1.
       -2    1    3    3    0  502  0.30009106562E+02  0.34488486961E+03 -0.34329135660E+03  0.48753981918E+03  0.25500000920E-02 0. -1.
</event>
<event>
 5   0  0.7738497E-03  0.1108430E+04  0.7818609E-02  0.9197014E-01
       -2   -1    0    0    0  501  0.00000000000E+00  0.00000000000E+00  0.17589045797E+03  0.17589045799E+03  0.25500000920E-02 0.  1.
        2   -1    0    0  501    0  0.00000000000E+00  0.00000000000E+00 -0.17462827606E+04  0.17462827606E+04  0.25500000920E-02 0. -1.
    10030    2    1    2    0    0  0.00000000000E+00  0.00000000000E+00 -0.15703923027E+04  0.19221732186E+04  0.11084303759E+04 0.  0.
        4    1    3    3  502    0  0.20981930190E+03 -0.22332023476E+03  0.15625012604E+02  0.30682539109E+03  0.12699999809E+01 0.  1.
       -4    1    3    3    0  502 -0.20981930190E+03  0.22332023476E+03 -0.15860173153E+04  0.16153478275E+04  0.12699999809E+01 0. -1.
</event>
<event>
 5   0  0.2992375E-03  0.1086227E+04  0.7818609E-02  0.9218721E-01
        4   -1    0    0  501    0  0.00000000000E+00  0.00000000000E+00  0.35423879910E+03  0.35424107566E+03  0.12699999809E+01 0.  1.
       -4   -1    0    0    0  501  0.00000000000E+00  0.00000000000E+00 -0.83268769909E+03  0.83268866758E+03  0.12699999809E+01 0. -1.
    10030    2    1    2    0    0  0.00000000000E+00  0.00000000000E+00 -0.47844889999E+03  0.11869297432E+04  0.10862268941E+04 0.  0.
        2    1    3    3  502    0  0.33587553731E+03  0.22421709509E+03  0.15760572565E+03  0.43350345680E+03  0.25500000920E-02 0.  1.
       -2    1    3    3    0  502 -0.33587553731E+03 -0.22421709509E+03 -0.63605462564E+03  0.75342628644E+03  0.25500000920E-02 0. -1.
</event>
<event>
 5   0  0.7738497E-03  0.9150099E+03  0.7818609E-02  0.9407010E-01
        2   -1    0    0  501    0  0.00000000000E+00  0.00000000000E+00  0.16940793808E+04  0.16940793808E+04  0.25500000920E-02 0.  1.
       -2   -1    0    0    0  501  0.00000000000E+00  0.00000000000E+00 -0.12355429922E+03  0.12355429925E+03  0.25500000920E-02 0. -1.
    10030    2    1    2    0    0  0.00000000000E+00  0.00000000000E+00  0.15705250815E+04  0.18176336800E+04  0.91500992506E+03 0.  0.
        4    1    3    3  502    0  0.18853130938E+03 -0.37958262821E+03  0.44302452767E+03  0.61310632950E+03  0.12699999809E+01 0. -1.
       -4    1    3    3    0  502 -0.18853130938E+03  0.37958262821E+03  0.11275005539E+04  0.12045273505E+04  0.12699999809E+01 0.  1.
</event>
<event>
 5   0  0.7537480E-03  0.1115295E+04  0.7818609E-02  0.9190411E-01
       -2   -1    0    0    0  501  0.00000000000E+00  0.00000000000E+00  0.28623639083E+03  0.28623639085E+03  0.25500000920E-02 0.  1.
        2   -1    0    0  501    0  0.00000000000E+00  0.00000000000E+00 -0.10864132602E+04  0.10864132603E+04  0.25500000920E-02 0. -1.
    10030    2    1    2    0    0  0.00000000000E+00  0.00000000000E+00 -0.80017686941E+03  0.13726496511E+04  0.11152954955E+04 0.  0.
        1    1    3    3  502    0 -0.53318479485E+01  0.37846622388E+03 -0.90410397333E+03  0.98013728928E+03  0.50400001928E-02 0. -1.
       -1    1    3    3    0  502  0.53318479485E+01 -0.37846622388E+03  0.10392710392E+03  0.39251236181E+03  0.50400001928E-02 0.  1.
</event>
<event>
 5   0  0.7766551E-03  0.1105607E+04  0.7818609E-02  0.9199744E-01
        2   -1    0    0  501    0  0.00000000000E+00  0.00000000000E+00  0.74837659353E+03  0.74837659354E+03  0.25500000920E-02 0.  1.
       -2   -1    0    0    0  501  0.00000000000E+00  0.00000000000E+00 -0.40833952394E+03  0.40833952395E+03  0.25500000920E-02 0. -1.
    10030    2    1    2    0    0  0.00000000000E+00  0.00000000000E+00  0.34003706960E+03  0.11567161175E+04  0.11056070585E+04 0.  0.
        5    1    3    3  502    0 -0.15441361478E+03  0.10436668891E+03 -0.37445568486E+03  0.41830027505E+03  0.46999998093E+01 0. -1.
       -5    1    3    3    0  502  0.15441361478E+03 -0.10436668891E+03  0.71449275446E+03  0.73841584243E+03  0.46999998093E+01 0.  1.
</event>
<event>
 5   0  0.7952121E-03  0.1062961E+04  0.7818609E-02  0.9242064E-01
        2   -1    0    0  501    0  0.00000000000E+00  0.00000000000E+00  0.10280498734E+04  0.10280498734E+04  0.25500000920E-02 0. -1.
       -2   -1    0    0    0  501  0.00000000000E+00  0.00000000000E+00 -0.27476431646E+03  0.27476431647E+03  0.25500000920E-02 0.  1.
    10030    2    1    2    0    0  0.00000000000E+00  0.00000000000E+00  0.75328555694E+03  0.13028141899E+04  0.10629608097E+04 0.  0.
        3    1    3    3  502    0 -0.31436408998E+03 -0.42485845151E+03  0.30794175919E+03  0.61168425036E+03  0.10100000352E+00 0. -1.
       -3    1    3    3    0  502  0.31436408998E+03  0.42485845151E+03  0.44534379775E+03  0.69112993951E+03  0.10100000352E+00 0.  1.
</event>
<event>
 5   0  0.7738497E-03  0.1094995E+04  0.7818609E-02  0.9210084E-01
        2   -1    0    0  501    0  0.00000000000E+00  0.00000000000E+00  0.31280292418E+04  0.31280292418E+04  0.25500000920E-02 0.  1.
       -2   -1    0    0    0  501  0.00000000000E+00  0.00000000000E+00 -0.95828187440E+02  0.95828187473E+02  0.25500000920E-02 0. -1.
    10030    2    1    2    0    0  0.00000000000E+00  0.00000000000E+00  0.30322010544E+04  0.32238574293E+04  0.10949947444E+04 0.  0.
        4    1    3    3  502    0 -0.29065563091E+03  0.16660854193E+03  0.24119181963E+03  0.41281255889E+03  0.12699999809E+01 0. -1.
       -4    1    3    3    0  502  0.29065563091E+03 -0.16660854193E+03  0.27910092347E+04  0.28110448704E+04  0.12699999809E+01 0.  1.
</event>
<event>
 5   0  0.4298101E-03  0.1120867E+04  0.7818609E-02  0.9185089E-01
       -1   -1    0    0    0  501  0.00000000000E+00  0.00000000000E+00  0.87036139070E+03  0.87036139072E+03  0.50400001928E-02 0.  1.
        1   -1    0    0  501    0  0.00000000000E+00  0.00000000000E+00 -0.36086791734E+03  0.36086791738E+03  0.50400001928E-02 0. -1.
    10030    2    1    2    0    0  0.00000000000E+00  0.00000000000E+00  0.50949347336E+03  0.12312293081E+04  0.11208666333E+04 0.  0.
        3    1    3    3  502    0  0.47031237466E+02  0.44808264117E+03  0.62087498765E+03  0.76712173161E+03  0.10100000352E+00 0.  1.
       -3    1    3    3    0  502 -0.47031237466E+02 -0.44808264117E+03 -0.11138151429E+03  0.46410757648E+03  0.10100000352E+00 0. -1.
</event>
<event>
 5   0  0.4598561E-03  0.1062152E+04  0.7818609E-02  0.9242887E-01
       -1   -1    0    0    0  501  0.00000000000E+00  0.00000000000E+00  0.51618566110E+03  0.51618566113E+03  0.50400001928E-02 0. -1.
        1   -1    0    0  501    0  0.00000000000E+00  0.00000000000E+00 -0.54639584941E+03  0.54639584943E+03  0.50400001928E-02 0.  1.
    10030    2    1    2    0    0  0.00000000000E+00  0.00000000000E+00 -0.30210188304E+02  0.10625815106E+04  0.10621519718E+04 0.  0.
        2    1    3    3  502    0  0.25679783555E+03  0.43256136174E+03 -0.18543034954E+03  0.53613326194E+03  0.25500000920E-02 0.  1.
       -2    1    3    3    0  502 -0.25679783555E+03 -0.43256136174E+03  0.15522016124E+03  0.52644824862E+03  0.25500000920E-02 0. -1.
</event>
<event>
 5   0  0.4298101E-03  0.1114213E+04  0.7818609E-02  0.9191448E-01
       -1   -1    0    0    0  501  0.00000000000E+00  0.00000000000E+00  0.28959343589E+03  0.28959343593E+03  0.50400001928E-02 0.  1.
        1   -1    0    0  501    0  0.00000000000E+00  0.00000000000E+00 -0.10717363663E+04  0.10717363663E+04  0.50400001928E-02 0. -1.
    10030    2    1    2    0    0  0.00000000000E+00  0.00000000000E+00 -0.78214293045E+03  0.13613298023E+04  0.11142132951E+04 0.  0.
        3    1    3    3  502    0  0.17238130950E+03 -0.23918435291E+03  0.18646408088E+03  0.34884571690E+03  0.10100000352E+00 0.  1.
       -3    1    3    3    0  502 -0.17238130950E+03  0.23918435291E+03 -0.96860701133E+03  0.10124840854E+04  0.10100000352E+00 0. -1.
</event>
<event>
 5   0  0.7738497E-03  0.1081597E+04  0.7818609E-02  0.9223317E-01
       -2   -1    0    0    0  501  0.00000000000E+00  0.00000000000E+00  0.32963834914E+03  0.32963834915E+03  0.25500000920E-02 0. -1.
        2   -1    0    0  501    0  0.00000000000E+00  0.00000000000E+00 -0.88722356114E+03  0.88722356114E+03  0.25500000920E-02 0.  1.
    10030    2    1    2    0    0  0.00000000000E+00  0.00000000000E+00 -0.55758521200E+03  0.12168619103E+04  0.10815968011E+04 0.  0.
        4    1    3    3  502    0 -0.19556760641E+03 -0.32064168109E+03  0.15897527107E+03  0.40783884813E+03  0.12699999809E+01 0. -1.
       -4    1    3    3    0  502  0.19556760641E+03  0.32064168109E+03 -0.71656048306E+03  0.80902306217E+03  0.12699999809E+01 0.  1.
</event>
<event>
 5   0  0.4641021E-03  0.1117254E+04  0.7818609E-02  0.9188536E-01
        1   -1    0    0  501    0  0.00000000000E+00  0.00000000000E+00  0.34322242867E+03  0.34322242871E+03  0.50400001928E-02 0.  1.
       -1   -1    0    0    0  501  0.00000000000E+00  0.00000000000E+00 -0.90921809848E+03  0.90921809850E+03  0.50400001928E-02 0. -1.
    10030    2    1    2    0    0  0.00000000000E+00  0.00000000000E+00 -0.56599566981E+03  0.12524405272E+04  0.11172538547E+04 0.  0.
        1    1    3    3  502    0 -0.28230967668E+03 -0.46421462640E+03 -0.13739705326E+03  0.56042120158E+03  0.50400001928E-02 0.  1.
       -1    1    3    3    0  502  0.28230967668E+03  0.46421462640E+03 -0.42859861655E+03  0.69201932563E+03  0.50400001928E-02 0. -1.
</event>
<event>
 5   0  0.4504740E-03  0.8600708E+03  0.7818609E-02  0.9476919E-01
       -1   -1    0    0    0  501  0.00000000000E+00  0.00000000000E+00  0.40798119367E+03  0.40798119370E+03  0.50400001928E-02 0.  1.
        1   -1    0    0  501    0  0.00000000000E+00  0.00000000000E+00 -0.45328182419E+03  0.45328182422E+03  0.50400001928E-02 0. -1.
    10030    2    1    2    0    0  0.00000000000E+00  0.00000000000E+00 -0.45300630521E+02  0.86126301792E+03  0.86007083366E+03 0.  0.
        5    1    3    3  502    0 -0.37309419157E+03  0.11604479368E+03 -0.20246173862E+03  0.44008921315E+03  0.46999998093E+01 0. -1.
       -5    1    3    3    0  502  0.37309419157E+03 -0.11604479368E+03  0.15716110810E+03  0.42117380477E+03  0.46999998093E+01 0.  1.
</event>
<event>
 5   0  0.4641021E-03  0.1106279E+04  0.7818609E-02  0.9199094E-01
        1   -1    0    0  501    0  0.00000000000E+00  0.00000000000E+00  0.11358573064E+04  0.11358573065E+04  0.50400001928E-02 0. -1.
       -1   -1    0    0    0  501  0.00000000000E+00  0.00000000000E+00 -0.26936756024E+03  0.26936756028E+03  0.50400001928E-02 0.  1.
    10030    2    1    2    0    0  0.00000000000E+00  0.00000000000E+00  0.86648974621E+03  0.14052248667E+04  0.11062786475E+04 0.  0.
        1    1    3    3  502    0 -0.29003811982E+03  0.19917253599E+03 -0.10890739225E+03  0.36831050779E+03  0.50400001928E-02 0.  1.
       -1    1    3    3    0  502  0.29003811982E+03 -0.19917253599E+03  0.97539713846E+03  0.10369143589E+04  0.50400001928E-02 0. -1.
</event>
<event>
 5   0  0.4598561E-03  0.1101057E+04  0.7818609E-02  0.9204162E-01
        1   -1    0    0  501    0  0.00000000000E+00  0.00000000000E+00  0.10012127984E+04  0.10012127984E+04  0.50400001928E-02 0.  1.
       -1   -1    0    0    0  501  0.00000000000E+00  0.00000000000E+00 -0.30271440092E+03  0.30271440096E+03  0.50400001928E-02 0. -1.
    10030    2    1    2    0    0  0.00000000000E+00  0.00000000000E+00  0.69849839748E+03  0.13039271994E+04  0.11010568241E+04 0.  0.
        2    1    3    3  502    0  0.35561301135E+03 -0.35110803948E+02 -0.14670747129E+03  0.38628547026E+03  0.25500000920E-02 0. -1.
       -2    1    3    3    0  502 -0.35561301135E+03  0.35110803948E+02  0.84520586877E+03  0.91764172911E+03  0.25500000920E-02 0.  1.
</event>
<event>
 5   0  0.7766551E-03  0.1120123E+04  0.7818609E-02  0.9185798E-01
       -2   -1    0    0    0  501  0.00000000000E+00  0.00000000000E+00  0.25100520937E+03  0.25100520938E+03  0.25500000920E-02 0.  1.
        2   -1    0    0  501    0  0.00000000000E+00  0.00000000000E+00 -0.12496507531E+04  0.12496507531E+04  0.25500000920E-02 0. -1.
    10030    2    1    2    0    0  0.00000000000E+00  0.00000000000E+00 -0.99864554368E+03  0.15006559624E+04  0.11201229377E+04 0.  0.
        5    1    3    3  502    0 -0.21520652799E+03 -0.16544470081E+03  0.15695205024E+03  0.31359501716E+03  0.46999998093E+01 0.  1.
       -5    1    3    3    0  502  0.21520652799E+03  0.16544470081E+03 -0.11555975939E+04  0.11870609453E+04  0.46999998093E+01 0. -1.
</event>
<event>
 5   0  0.7738497E-03  0.1094605E+04  0.7818609E-02  0.9210467E-01
        2   -1    0    0  501    0  0.00000000000E+00  0.00000000000E+00  0.16612905574E+04  0.16612905574E+04  0.25500000920E-02 0.  1.
       -2   -1    0    0    0  501  0.00000000000E+00  0.00000000000E+00 -0.18030548212E+03  0.18030548214E+03  0.25500000920E-02 0. -1.
    10030    2    1    2    0    0  0.00000000000E+00  0.00000000000E+00  0.14809850753E+04  0.18415960395E+04  0.10946045768E+04 0.  0.
        4    1    3    3  502    0  0.13125437893E+03 -0.18004416859E+03 -0.10054527133E+03  0.24444749767E+03  0.12699999809E+01 0. -1.
       -4    1    3    3    0  502 -0.13125437893E+03  0.18004416859E+03  0.15815303466E+04  0.15971485419E+04  0.12699999809E+01 0.  1.
</event>
<event>
 5   0  0.4298101E-03  0.1159982E+04  0.7818609E-02  0.9148624E-01
       -1   -1    0    0    0  501  0.00000000000E+00  0.00000000000E+00  0.70494555449E+03  0.70494555451E+03  0.50400001928E-02 0.  1.
        1   -1    0    0  501    0  0.00000000000E+00  0.00000000000E+00 -0.47718481938E+03  0.47718481941E+03  0.50400001928E-02 0. -1.
    10030    2    1    2    0    0  0.00000000000E+00  0.00000000000E+00  0.22776073511E+03  0.11821303739E+04  0.11599815811E+04 0.  0.
        3    1    3    3  502    0 -0.27138312335E+03  0.73994915013E+02 -0.40301763670E+03  0.49147459017E+03  0.10100000352E+00 0. -1.
       -3    1    3    3    0  502  0.27138312335E+03 -0.73994915013E+02  0.63077837181E+03  0.69065578376E+03  0.10100000352E+00 0.  1.
</event>
<event>
 5   0  0.4598561E-03  0.1108629E+04  0.7818609E-02  0.9196822E-01
       -1   -1    0    0    0  501  0.00000000000E+00  0.00000000000E+00  0.63516118172E+03  0.63516118174E+03  0.50400001928E-02 0.  1.
        1   -1    0    0  501    0  0.00000000000E+00  0.00000000000E+00 -0.48375836479E+03  0.48375836482E+03  0.50400001928E-02 0. -1.
    10030    2    1    2    0    0  0.00000000000E+00  0.00000000000E+00  0.15140281693E+03  0.11189195466E+04  0.11086289454E+04 0.  0.
        2    1    3    3  502    0 -0.36239015807E+03 -0.19510610171E+03 -0.29905573881E+03  0.50875077643E+03  0.25500000920E-02 0. -1.
       -2    1    3    3    0  502  0.36239015807E+03  0.19510610171E+03  0.45045855574E+03  0.61016877013E+03  0.25500000920E-02 0.  1.
</event>
<event>
 5   0  0.7738497E-03  0.1074033E+04  0.7818609E-02  0.9230877E-01
       -2   -1    0    0    0  501  0.00000000000E+00  0.00000000000E+00  0.52266897799E+03  0.52266897799E+03  0.25500000920E-02 0.  1.
        2   -1    0    0  501    0  0.00000000000E+00  0.00000000000E+00 -0.55175773693E+03  0.55175773693E+03  0.25500000920E-02 0. -1.
    10030    2    1    2    0    0  0.00000000000E+00  0.00000000000E+00 -0.29088758940E+02  0.10744267149E+04  0.10740328719E+04 0.  0.
        4    1    3    3  502    0  0.41661512241E+03  0.19691533837E+03  0.26131248023E+03  0.52974487815E+03  0.12699999809E+01 0.  1.
       -4    1    3    3    0  502 -0.41661512241E+03 -0.19691533837E+03 -0.29040123917E+03  0.54468183677E+03  0.12699999809E+01 0. -1.
</event>
<event>
 5   0  0.4641021E-03  0.1095418E+04  0.7818609E-02  0.9209670E-01
        1   -1    0    0  501    0  0.00000000000E+00  0.00000000000E+00  0.22037217398E+04  0.22037217398E+04  0.50400001928E-02 0.  1.
       -1   -1    0    0    0  501  0.00000000000E+00  0.00000000000E+00 -0.13612654977E+03  0.13612654986E+03  0.50400001928E-02 0. -1.
    10030    2    1    2    0    0  0.00000000000E+00  0.00000000000E+00  0.20675951900E+04  0.23398482896E+04  0.10954177964E+04 0.  0.
        1    1    3    3  502    0 -0.22317714670E+03 -0.21442557079E+03  0.19990354926E+04  0.20228517654E+04  0.50400001928E-02 0.  1.
       -1    1    3    3    0  502  0.22317714670E+03  0.21442557079E+03  0.68559697398E+02  0.31699652420E+03  0.50400001928E-02 0. -1.
</event>
<event>
 5   0  0.7537480E-03  0.1065650E+04  0.7818609E-02  0.9239334E-01
        2   -1    0    0  501    0  0.00000000000E+00  0.00000000000E+00  0.16257569871E+04  0.16257569871E+04  0.25500000920E-02 0.  1.
       -2   -1    0    0    0  501  0.00000000000E+00  0.00000000000E+00 -0.17462776222E+03  0.17462776224E+03  0.25500000920E-02 0. -1.
    10030    2    1    2    0    0  0.00000000000E+00  0.00000000000E+00  0.14511292249E+04  0.18003847493E+04  0.10656496696E+04 0.  0.
        1    1    3    3  502    0  0.35876121860E+03 -0.22460833003E+03  0.17878159880E+03  0.45947945981E+03  0.50400001928E-02 0. -1.
       -1    1    3    3    0  502 -0.35876121860E+03  0.22460833003E+03  0.12723476261E+04  0.13409052895E+04  0.50400001928E-02 0.  1.
</event>
<event>
 5   0  0.4641021E-03  0.1107085E+04  0.7818609E-02  0.9198314E-01
       -1   -1    0    0    0  501  0.00000000000E+00  0.00000000000E+00  0.27354189441E+03  0.27354189446E+03  0.50400001928E-02 0. -1.
        1   -1    0    0  501    0  0.00000000000E+00  0.00000000000E+00 -0.11201546629E+04  0.11201546629E+04  0.50400001928E-02 0.  1.
    10030    2    1    2    0    0  0.00000000000E+00  0.00000000000E+00 -0.84661276852E+03  0.13936965574E+04  0.11070848722E+04 0.  0.
        1    1    3    3  502    0  0.54057395598E+02 -0.90487294500E+02  0.26079166966E+03  0.28128712639E+03  0.50400001928E-02 0. -1.
       -1    1    3    3    0  502 -0.54057395598E+02  0.90487294500E+02 -0.11074044382E+04  0.11124094310E+04  0.50400001928E-02 0.  1.
</event>
<event>
 5   0  0.4641021E-03  0.1084336E+04  0.7818609E-02  0.9220595E-01
        1   -1    0    0  501    0  0.00000000000E+00  0.00000000000E+00  0.57725566870E+03  0.57725566872E+03  0.50400001928E-02 0.  1.
       -1   -1    0    0    0  501  0.00000000000E+00  0.00000000000E+00 -0.50921310102E+03  0.50921310104E+03  0.50400001928E-02 0. -1.
    10030    2    1    2    0    0  0.00000000000E+00  0.00000000000E+00  0.68042567678E+02  0.10864687698E+04  0.10843360165E+04 0.  0.
        1    1    3    3  502    0  0.41194621055E+03 -0.35197234469E+03  0.14959214339E+02  0.54204057960E+03  0.50400001928E-02 0. -1.
       -1    1    3    3    0  502 -0.41194621055E+03  0.35197234469E+03  0.53083353339E+02  0.54442819016E+03  0.50400001928E-02 0.  1.
</event>
<event>
 5   0  0.7952121E-03  0.9840571E+03  0.7818609E-02  0.9326206E-01
       -2   -1    0    0    0  501  0.00000000000E+00  0.00000000000E+00  0.44642734689E+03  0.44642734690E+03  0.25500000920E-02 0. -1.
        2   -1    0    0  501    0  0.00000000000E+00  0.00000000000E+00 -0.54228776567E+03  0.54228776568E+03  0.25500000920E-02 0.  1.
    10030    2    1    2    0    0  0.00000000000E+00  0.00000000000E+00 -0.95860418781E+02  0.98871511258E+03  0.98405708876E+03 0.  0.
        3    1    3    3  502    0 -0.96570984591E+02  0.39622596524E+03  0.22863827920E+03  0.46754298574E+03  0.10100000352E+00 0. -1.
       -3    1    3    3    0  502  0.96570984591E+02 -0.39622596524E+03 -0.32449869798E+03  0.52117212684E+03  0.10100000352E+00 0.  1.
</event>
<event>
 5   0  0.4504740E-03  0.1097900E+04  0.7818609E-02  0.9207241E-01
        1   -1    0    0  501    0  0.00000000000E+00  0.00000000000E+00  0.64896725055E+03  0.64896725057E+03  0.50400001928E-02 0. -1.
       -1   -1    0    0    0  501  0.00000000000E+00  0.00000000000E+00 -0.46434730905E+03  0.46434730907E+03  0.50400001928E-02 0.  1.
    10030    2    1    2    0    0  0.00000000000E+00  0.00000000000E+00  0.18461994150E+03  0.11133145596E+04  0.10979001712E+04 0.  0.
        5    1    3    3  502    0  0.35375554082E+03  0.17098463349E+03  0.48102649471E+03  0.62111778767E+03  0.46999998093E+01 0.  1.
       -5    1    3    3    0  502 -0.35375554082E+03 -0.17098463349E+03 -0.29640655321E+03  0.49219677197E+03  0.46999998093E+01 0. -1.
</event>
<event>
 5   0  0.7952121E-03  0.1131601E+04  0.7818609E-02  0.9174927E-01
       -2   -1    0    0    0  501  0.00000000000E+00  0.00000000000E+00  0.42254681084E+03  0.42254681085E+03  0.25500000920E-02 0.  1.
        2   -1    0    0  501    0  0.00000000000E+00  0.00000000000E+00 -0.75762074096E+03  0.75762074096E+03  0.25500000920E-02 0. -1.
    10030    2    1    2    0    0  0.00000000000E+00  0.00000000000E+00 -0.33507393012E+03  0.11801675518E+04  0.11316010391E+04 0.  0.
        3    1    3    3  502    0 -0.36845133696E+03 -0.37248495407E+03 -0.39031368406E+03  0.65333468520E+03  0.10100000352E+00 0. -1.
       -3    1    3    3    0  502  0.36845133696E+03  0.37248495407E+03  0.55239753945E+02  0.52683286661E+03  0.10100000352E+00 0.  1.
</event>
<event>
 5   0  0.7738497E-03  0.1131004E+04  0.7818609E-02  0.9175489E-01
        2   -1    0    0  501    0  0.00000000000E+00  0.00000000000E+00  0.89209252060E+03  0.89209252060E+03  0.25500000920E-02 0. -1.
       -2   -1    0    0    0  501  0.00000000000E+00  0.00000000000E+00 -0.35847455188E+03  0.35847455189E+03  0.25500000920E-02 0.  1.
    10030    2    1    2    0    0  0.00000000000E+00  0.00000000000E+00  0.53361796872E+03  0.12505670725E+04  0.11310039196E+04 0.  0.
        4    1    3    3  502    0 -0.43979564553E+03 -0.30318124258E+03  0.47204269598E+03  0.71285692492E+03  0.12699999809E+01 0. -1.
       -4    1    3    3    0  502  0.43979564553E+03  0.30318124258E+03  0.61575272737E+02  0.53771014756E+03  0.12699999809E+01 0.  1.
</event>
<event>
 5   0  0.7952121E-03  0.1137718E+04  0.7818609E-02  0.9169189E-01
       -2   -1    0    0    0  501  0.00000000000E+00  0.00000000000E+00  0.58556508551E+03  0.58556508552E+03  0.25500000920E-02 0. -1.
        2   -1    0    0  501    0  0.00000000000E+00  0.00000000000E+00 -0.55262985682E+03  0.55262985683E+03  0.25500000920E-02 0.  1.
    10030    2    1    2    0    0  0.00000000000E+00  0.00000000000E+00  0.32935228690E+02  0.11381949423E+04  0.11377183296E+04 0.  0.
        3    1    3    3  502    0  0.15542058080E+02  0.30532553305E+03  0.49639298303E+03  0.58298476867E+03  0.10100000352E+00 0. -1.
       -3    1    3    3    0  502 -0.15542058080E+02 -0.30532553305E+03 -0.46345775434E+03  0.55521017368E+03  0.10100000352E+00 0.  1.
</event>
<event>
 5   0  0.7537480E-03  0.1093192E+04  0.7818609E-02  0.9211853E-01
       -2   -1    0    0    0  501  0.00000000000E+00  0.00000000000E+00  0.10994865430E+04  0.10994865430E+04  0.25500000920E-02 0. -1.
        2   -1    0    0  501    0  0.00000000000E+00  0.00000000000E+00 -0.27173326055E+03  0.27173326056E+03  0.25500000920E-02 0.  1.
    10030    2    1    2    0    0  0.00000000000E+00  0.00000000000E+00  0.82775328248E+03  0.13712198036E+04  0.10931917732E+04 0.  0.
        1    1    3    3  502    0 -0.31381462891E+03  0.35634266814E+03  0.75348976687E+03  0.89062143880E+03  0.50400001928E-02 0. -1.
       -1    1    3    3    0  502  0.31381462891E+03 -0.35634266814E+03  0.74263515611E+02  0.48059836478E+03  0.50400001928E-02 0.  1.
</event>
<event>
 5   0  0.4598561E-03  0.1091972E+04  0.7818609E-02  0.9213052E-01
       -1   -1    0    0    0  501  0.00000000000E+00  0.00000000000E+00  0.51771455441E+03  0.51771455443E+03  0.50400001928E-02 0. -1.
        1   -1    0    0  501    0  0.00000000000E+00  0.00000000000E+00 -0.57580141837E+03  0.57580141839E+03  0.50400001928E-02 0.  1.
    10030    2    1    2    0    0  0.00000000000E+00  0.00000000000E+00 -0.58086863960E+02  0.10935159728E+04  0.10919721146E+04 0.  0.
        2    1    3    3  502    0 -0.22413833063E+03 -0.44712560357E+03  0.19022155782E+03  0.53511077142E+03  0.25500000920E-02 0. -1.
       -2    1    3    3    0  502  0.22413833063E+03  0.44712560357E+03 -0.24830842178E+03  0.55840520141E+03  0.25500000920E-02 0.  1.
</event>
<event>
 5   0  0.4428114E-03  0.1196166E+04  0.7818609E-02  0.9116219E-01
        1   -1    0    0  501    0  0.00000000000E+00  0.00000000000E+00  0.31329690258E+03  0.31329690262E+03  0.50400001928E-02 0. -1.
       -1   -1    0    0    0  501  0.00000000000E+00  0.00000000000E+00 -0.11417391918E+04  0.11417391918E+04  0.50400001928E-02 0.  1.
    10030    2    1    2    0    0  0.00000000000E+00  0.00000000000E+00 -0.82844228920E+03  0.14550360944E+04  0.11961661296E+04 0.  0.
        4    1    3    3  502    0  0.56713868462E+03  0.18895575835E+03 -0.39142596647E+03  0.71453933855E+03  0.12699999809E+01 0. -1.
       -4    1    3    3    0  502 -0.56713868462E+03 -0.18895575835E+03 -0.43701632272E+03  0.74049675586E+03  0.12699999809E+01 0.  1.
</event>
<event>
 5   0  0.7766551E-03  0.1085760E+04  0.7818609E-02  0.9219183E-01
        2   -1    0    0  501    0  0.00000000000E+00  0.00000000000E+00  0.12287813844E+04  0.12287813844E+04  0.25500000920E-02 0. -1.
       -2   -1    0    0    0  501  0.00000000000E+00  0.00000000000E+00 -0.23984634412E+03  0.23984634413E+03  0.25500000920E-02 0.  1.
    10030    2    1    2    0    0  0.00000000000E+00  0.00000000000E+00  0.98893504025E+03  0.14686277285E+04  0.10857600523E+04 0.  0.
        5    1    3    3  502    0  0.13667275235E+03  0.37688552706E+03  0.98956295598E+03  0.10676980264E+04  0.46999998093E+01 0. -1.
       -5    1    3    3    0  502 -0.13667275235E+03 -0.37688552706E+03 -0.62791572836E+00  0.40092970209E+03  0.46999998093E+01 0.  1.
</event>
<event>
 5   0  0.4641021E-03  0.1042929E+04  0.7818609E-02  0.9262675E-01
        1   -1    0    0  501    0  0.00000000000E+00  0.00000000000E+00  0.95911998875E+03  0.95911998876E+03  0.50400001928E-02 0.  1.
       -1   -1    0    0    0  501  0.00000000000E+00  0.00000000000E+00 -0.28351528951E+03  0.28351528956E+03  0.50400001928E-02 0. -1.
    10030    2    1    2    0    0  0.00000000000E+00  0.00000000000E+00  0.67560469924E+03  0.12426352783E+04  0.10429289167E+04 0.  0.
        1    1    3    3  502    0  0.48840448078E+02 -0.11214703278E+03  0.94178453265E+03  0.94969492591E+03  0.50400001928E-02 0.  1.
       -1    1    3    3    0  502 -0.48840448078E+02  0.11214703278E+03 -0.26617983342E+03  0.29294035241E+03  0.50400001928E-02 0. -1.
</event>
<event>
 5   0  0.4428114E-03  0.1100567E+04  0.7818609E-02  0.9204639E-01
       -1   -1    0    0    0  501  0.00000000000E+00  0.00000000000E+00  0.16423048874E+03  0.16423048882E+03  0.50400001928E-02 0. -1.
        1   -1    0    0  501    0  0.00000000000E+00  0.00000000000E+00 -0.18438234503E+04  0.18438234503E+04  0.50400001928E-02 0.  1.
    10030    2    1    2    0    0  0.00000000000E+00  0.00000000000E+00 -0.16795929615E+04  0.20080539391E+04  0.11005671746E+04 0.  0.
        4    1    3    3  502    0  0.51597560618E+02  0.42177026690E+03 -0.14777622382E+04  0.15376395260E+04  0.12699999809E+01 0.  1.
       -4    1    3    3    0  502 -0.51597560618E+02 -0.42177026690E+03 -0.20183072336E+03  0.47041441314E+03  0.12699999809E+01 0. -1.
</event>
<event>
 5   0  0.4504740E-03  0.1106669E+04  0.7818609E-02  0.9198716E-01
        1   -1    0    0  501    0  0.00000000000E+00  0.00000000000E+00  0.21986565538E+04  0.21986565538E+04  0.50400001928E-02 0.  1.
       -1   -1    0    0    0  501  0.00000000000E+00  0.00000000000E+00 -0.13925737520E+03  0.13925737529E+03  0.50400001928E-02 0. -1.
    10030    2    1    2    0    0  0.00000000000E+00  0.00000000000E+00  0.20593991786E+04  0.23379139291E+04  0.11066691299E+04 0.  0.
        5    1    3    3  502    0 -0.51922956018E+03  0.81432483229E+02  0.66424078016E+03  0.84703511704E+03  0.46999998093E+01 0. -1.
       -5    1    3    3    0  502  0.51922956018E+03 -0.81432483229E+02  0.13951583984E+04  0.14908788120E+04  0.46999998093E+01 0.  1.
</event>
<event>
 5   0  0.7738497E-03  0.1043572E+04  0.7818609E-02  0.9262006E-01
       -2   -1    0    0    0  501  0.00000000000E+00  0.00000000000E+00  0.23590890018E+03  0.23590890019E+03  0.25500000920E-02 0. -1.
        2   -1    0    0  501    0  0.00000000000E+00  0.00000000000E+00 -0.11540924298E+04  0.11540924298E+04  0.25500000920E-02 0.  1.
    10030    2    1    2    0    0  0.00000000000E+00  0.00000000000E+00 -0.91818352962E+03  0.13900013300E+04  0.10435720882E+04 0.  0.
        4    1    3    3  502    0 -0.16457032085E+03 -0.34387984119E+03  0.15436159661E+02  0.38154504794E+03  0.12699999809E+01 0. -1.
       -4    1    3    3    0  502  0.16457032085E+03  0.34387984119E+03 -0.93361968928E+03  0.10084562820E+04  0.12699999809E+01 0.  1.
</event>
<event>
 5   0  0.4641021E-03  0.1082562E+04  0.7818609E-02  0.9222357E-01
        1   -1    0    0  501    0  0.00000000000E+00  0.00000000000E+00  0.33343694828E+03  0.33343694831E+03  0.50400001928E-02 0.  1.
       -1   -1    0    0    0  501  0.00000000000E+00  0.00000000000E+00 -0.87868260829E+03  0.87868260830E+03  0.50400001928E-02 0. -1.
    10030    2    1    2    0    0  0.00000000000E+00  0.00000000000E+00 -0.54524566001E+03  0.12121195566E+04  0.10825622337E+04 0.  0.
        1    1    3    3  502    0 -0.59137746111E+02  0.34643205175E+02  0.32855884650E+03  0.33563125647E+03  0.50400001928E-02 0.  1.
       -1    1    3    3    0  502  0.59137746111E+02 -0.34643205175E+02 -0.87380450651E+03  0.87648830015E+03  0.50400001928E-02 0. -1.
</event>
<event>
 5   0  0.7712816E-03  0.1137232E+04  0.7818609E-02  0.9169644E-01
        2   -1    0    0  501    0  0.00000000000E+00  0.00000000000E+00  0.65583988004E+03  0.65583988005E+03  0.25500000920E-02 0.  1.
       -2   -1    0    0    0  501  0.00000000000E+00  0.00000000000E+00 -0.49299228165E+03  0.49299228166E+03  0.25500000920E-02 0. -1.
    10030    2    1    2    0    0  0.00000000000E+00  0.00000000000E+00  0.16284759839E+03  0.11488321617E+04  0.11372317246E+04 0.  0.
        2    1    3    3  502    0 -0.56663007067E+03  0.20664883970E+01  0.12934279503E+03  0.58120862519E+03  0.25500000920E-02 0.  1.
       -2    1    3    3    0  502  0.56663007067E+03 -0.20664883970E+01  0.33504803354E+02  0.56762353652E+03  0.25500000920E-02 0. -1.
</event>
<event>
 5   0  0.7766551E-03  0.1138744E+04  0.7818609E-02  0.9168231E-01
       -2   -1    0    0    0  501  0.00000000000E+00  0.00000000000E+00  0.53494844070E+03  0.53494844071E+03  0.25500000920E-02 0. -1.
        2   -1    0    0  501    0  0.00000000000E+00  0.00000000000E+00 -0.60601100497E+03  0.60601100498E+03  0.25500000920E-02 0.  1.
    10030    2    1    2    0    0  0.00000000000E+00  0.00000000000E+00 -0.71062564272E+02  0.11409594457E+04  0.11387442947E+04 0.  0.
        5    1    3    3  502    0  0.44838281972E+03  0.33810131694E+03  0.58474992898E+02  0.56462471460E+03  0.46999998093E+01 0. -1.
       -5    1    3    3    0  502 -0.44838281972E+03 -0.33810131694E+03 -0.12953755717E+03  0.57633473109E+03  0.46999998093E+01 0.  1.
</event>
<event>
 5   0  0.4298101E-03  0.1114577E+04  0.7818609E-02  0.9191100E-01
        1   -1    0    0  501    0  0.00000000000E+00  0.00000000000E+00  0.13204079537E+04  0.13204079537E+04  0.50400001928E-02 0.  1.
       -1   -1    0    0    0  501  0.00000000000E+00  0.00000000000E+00 -0.23520780483E+03  0.23520780489E+03  0.50400001928E-02 0. -1.
    10030    2    1    2    0    0  0.00000000000E+00  0.00000000000E+00  0.10852001489E+04  0.15556157586E+04  0.11145766126E+04 0.  0.
        3    1    3    3  502    0  0.17886427015E+03  0.70566383926E+02 -0.18744391466E+03  0.26852797437E+03  0.10100000352E+00 0. -1.
       -3    1    3    3    0  502 -0.17886427015E+03 -0.70566383926E+02  0.12726440635E+04  0.12870877842E+04  0.10100000352E+00 0.  1.
</event>
<event>
 5   0  0.2992375E-03  0.1085858E+04  0.7818609E-02  0.9219087E-01
        3   -1    0    0  501    0  0.00000000000E+00  0.00000000000E+00  0.64905382876E+03  0.64905383662E+03  0.10100000352E+00 0.  1.
       -3   -1    0    0    0  501  0.00000000000E+00  0.00000000000E+00 -0.45415599157E+03  0.45415600280E+03  0.10100000352E+00 0. -1.
    10030    2    1    2    0    0  0.00000000000E+00  0.00000000000E+00  0.19489783719E+03  0.11032098394E+04  0.10858576255E+04 0.  0.
        3    1    3    3  502    0  0.24625412172E+03 -0.61537324361E+02  0.58505987809E+03  0.63774838762E+03  0.10100000352E+00 0.  1.
       -3    1    3    3    0  502 -0.24625412172E+03  0.61537324361E+02 -0.39016204090E+03  0.46546145181E+03  0.10100000352E+00 0. -1.
</event>
<event>
 5   0  0.4504740E-03  0.1212265E+04  0.7818609E-02  0.9102188E-01
       -1   -1    0    0    0  501  0.00000000000E+00  0.00000000000E+00  0.51713174314E+03  0.51713174316E+03  0.50400001928E-02 0.  1.
        1   -1    0    0  501    0  0.00000000000E+00  0.00000000000E+00 -0.71045037464E+03  0.71045037466E+03  0.50400001928E-02 0. -1.
    10030    2    1    2    0    0  0.00000000000E+00  0.00000000000E+00 -0.19331863150E+03  0.12275821178E+04  0.12122647247E+04 0.  0.
        5    1    3    3  502    0 -0.55167765346E+03  0.30158047538E+02 -0.34904049014E+03  0.65353584057E+03  0.46999998093E+01 0. -1.
       -5    1    3    3    0  502  0.55167765346E+03 -0.30158047538E+02  0.15572185864E+03  0.57404627724E+03  0.46999998093E+01 0.  1.
</event>
<event>
 5   0  0.7712816E-03  0.1101573E+04  0.7818609E-02  0.9203660E-01
       -2   -1    0    0    0  501  0.00000000000E+00  0.00000000000E+00  0.44007978647E+03  0.44007978648E+03  0.25500000920E-02 0.  1.
        2   -1    0    0  501    0  0.00000000000E+00  0.00000000000E+00 -0.68934249281E+03  0.68934249282E+03  0.25500000920E-02 0. -1.
    10030    2    1    2    0    0  0.00000000000E+00  0.00000000000E+00 -0.24926270634E+03  0.11294222793E+04  0.11015728701E+04 0.  0.
        2    1    3    3  502    0 -0.26284454408E+03  0.22303530580E+03 -0.56506547530E+03  0.66191464206E+03  0.25500000920E-02 0. -1.
       -2    1    3    3    0  502  0.26284454408E+03 -0.22303530580E+03  0.31580276896E+03  0.46750763724E+03  0.25500000920E-02 0.  1.
</event>
<event>
 5   0  0.4428114E-03  0.1094887E+04  0.7818609E-02  0.9210190E-01
       -1   -1    0    0    0  501  0.00000000000E+00  0.00000000000E+00  0.28721448539E+03  0.28721448544E+03  0.50400001928E-02 0. -1.
        1   -1    0    0  501    0  0.00000000000E+00  0.00000000000E+00 -0.10434514250E+04  0.10434514250E+04  0.50400001928E-02 0.  1.
    10030    2    1    2    0    0  0.00000000000E+00  0.00000000000E+00 -0.75623693956E+03  0.13306659104E+04  0.10948869605E+04 0.  0.
        4    1    3    3  502    0 -0.30607452384E+03 -0.42855122896E+03 -0.55983184783E+03  0.76860333120E+03  0.12699999809E+01 0.  1.
       -4    1    3    3    0  502  0.30607452384E+03  0.42855122896E+03 -0.19640509173E+03  0.56206257921E+03  0.12699999809E+01 0. -1.
</event>
<event>
 5   0  0.7952121E-03  0.1111801E+04  0.7818609E-02  0.9193766E-01
        2   -1    0    0  501    0  0.00000000000E+00  0.00000000000E+00  0.25065524397E+03  0.25065524399E+03  0.25500000920E-02 0. -1.
       -2   -1    0    0    0  501  0.00000000000E+00  0.00000000000E+00 -0.12328698758E+04  0.12328698758E+04  0.25500000920E-02 0.  1.
    10030    2    1    2    0    0  0.00000000000E+00  0.00000000000E+00 -0.98221463187E+03  0.14835251198E+04  0.11118008806E+04 0.  0.
        3    1    3    3  502    0 -0.22936368513E+03  0.40483355778E+03 -0.89699233549E+03  0.10104915485E+04  0.10100000352E+00 0.  1.
       -3    1    3    3    0  502  0.22936368513E+03 -0.40483355778E+03 -0.85222296379E+02  0.47303357128E+03  0.10100000352E+00 0. -1.
</event>
<event>
 5   0  0.7766551E-03  0.1131487E+04  0.7818609E-02  0.9175035E-01
       -2   -1    0    0    0  501  0.00000000000E+00  0.00000000000E+00  0.34092671102E+03  0.34092671103E+03  0.25500000920E-02 0.  1.
        2   -1    0    0  501    0  0.00000000000E+00  0.00000000000E+00 -0.93881032522E+03  0.93881032522E+03  0.25500000920E-02 0. -1.
    10030    2    1    2    0    0  0.00000000000E+00  0.00000000000E+00 -0.59788361420E+03  0.12797370363E+04  0.11314866618E+04 0.  0.
        5    1    3    3  502    0 -0.25422518653E+03  0.31411797799E+03 -0.74672233797E+03  0.84906824790E+03  0.46999998093E+01 0. -1.
       -5    1    3    3    0  502  0.25422518653E+03 -0.31411797799E+03  0.14883872377E+03  0.43066878835E+03  0.46999998093E+01 0.  1.
</event>
<event>
 5   0  0.7537480E-03  0.1121838E+04  0.7818609E-02  0.9184164E-01
        2   -1    0    0  501    0  0.00000000000E+00  0.00000000000E+00  0.13358508114E+04  0.13358508114E+04  0.25500000920E-02 0.  1.
       -2   -1    0    0    0  501  0.00000000000E+00  0.00000000000E+00 -0.23552796530E+03  0.23552796532E+03  0.25500000920E-02 0. -1.
    10030    2    1    2    0    0  0.00000000000E+00  0.00000000000E+00  0.11003228461E+04  0.15713787767E+04  0.11218381765E+04 0.  0.
        1    1    3    3  502    0  0.40287379144E+02 -0.46853397879E+03  0.97843090793E+03  0.10855755173E+04  0.50400001928E-02 0.  1.
       -1    1    3    3    0  502 -0.40287379144E+02  0.46853397879E+03  0.12189193814E+03  0.48580325936E+03  0.50400001928E-02 0. -1.
</event>
<event>
 5   0  0.4428114E-03  0.1106636E+04  0.7818609E-02  0.9198748E-01
       -1   -1    0    0    0  501  0.00000000000E+00  0.00000000000E+00  0.47618372029E+03  0.47618372032E+03  0.50400001928E-02 0. -1.
        1   -1    0    0  501    0  0.00000000000E+00  0.00000000000E+00 -0.64294679952E+03  0.64294679954E+03  0.50400001928E-02 0.  1.
    10030    2    1    2    0    0  0.00000000000E+00  0.00000000000E+00 -0.16676307923E+03  0.11191305199E+04  0.11066359817E+04 0.  0.
        4    1    3    3  502    0 -0.13725513639E+03 -0.52496224264E+03 -0.19293216494E+03  0.57588953962E+03  0.12699999809E+01 0.  1.
       -4    1    3    3    0  502  0.13725513639E+03  0.52496224264E+03  0.26169085710E+02  0.54324098024E+03  0.12699999809E+01 0. -1.
</event>
<event>
 5   0  0.7537480E-03  0.1140078E+04  0.7818609E-02  0.9166987E-01
       -2   -1    0    0    0  501  0.00000000000E+00  0.00000000000E+00  0.45874155327E+03  0.45874155327E+03  0.25500000920E-02 0.  1.
        2   -1    0    0  501    0  0.00000000000E+00  0.00000000000E+00 -0.70833829952E+03  0.70833829953E+03  0.25500000920E-02 0. -1.
    10030    2    1    2    0    0  0.00000000000E+00  0.00000000000E+00 -0.24959674626E+03  0.11670798528E+04  0.11400775619E+04 0.  0.
        1    1    3    3  502    0 -0.90331602662E+01  0.63123482913E+02  0.45507901154E+03  0.45952484029E+03  0.50400001928E-02 0.  1.
       -1    1    3    3    0  502  0.90331602662E+01 -0.63123482913E+02 -0.70467575779E+03  0.70755501251E+03  0.50400001928E-02 0. -1.
</event>
<event>
 5   0  0.4428114E-03  0.1080763E+04  0.7818609E-02  0.9224147E-01
        1   -1    0    0  501    0  0.00000000000E+00  0.00000000000E+00  0.15026325224E+04  0.15026325224E+04  0.50400001928E-02 0. -1.
       -1   -1    0    0    0  501  0.00000000000E+00  0.00000000000E+00 -0.19433369973E+03  0.19433369980E+03  0.50400001928E-02 0.  1.
    10030    2    1    2    0    0  0.00000000000E+00  0.00000000000E+00  0.13082988226E+04  0.16969662222E+04  0.10807629480E+04 0.  0.
        4    1    3    3  502    0  0.66503316862E+02 -0.28695820278E+03  0.13654886087E+04  0.13968995865E+04  0.12699999809E+01 0. -1.
       -4    1    3    3    0  502 -0.66503316862E+02  0.28695820278E+03 -0.57189786112E+02  0.30006663565E+03  0.12699999809E+01 0.  1.
</event>
<event>
 5   0  0.7738497E-03  0.1091039E+04  0.7818609E-02  0.9213970E-01
        2   -1    0    0  501    0  0.00000000000E+00  0.00000000000E+00  0.66331550880E+03  0.66331550880E+03  0.25500000920E-02 0.  1.
       -2   -1    0    0    0  501  0.00000000000E+00  0.00000000000E+00 -0.44864218778E+03  0.44864218778E+03  0.25500000920E-02 0. -1.
    10030    2    1    2    0    0  0.00000000000E+00  0.00000000000E+00  0.21467332102E+03  0.11119576966E+04  0.10910386264E+04 0.  0.
        4    1    3    3  502    0 -0.85069651918E+02  0.24309636031E+03 -0.38277564121E+03  0.46135831029E+03  0.12699999809E+01 0. -1.
       -4    1    3    3    0  502  0.85069651918E+02 -0.24309636031E+03  0.59744896223E+03  0.65059938629E+03  0.12699999809E+01 0.  1.
</event>
<event>
 5   0  0.4641021E-03  0.1118289E+04  0.7818609E-02  0.9187547E-01
        1   -1    0    0  501    0  0.00000000000E+00  0.00000000000E+00  0.34273594254E+03  0.34273594257E+03  0.50400001928E-02 0. -1.
       -1   -1    0    0    0  501  0.00000000000E+00  0.00000000000E+00 -0.91219704437E+03  0.91219704439E+03  0.50400001928E-02 0.  1.
    10030    2    1    2    0    0  0.00000000000E+00  0.00000000000E+00 -0.56946110184E+03  0.12549329870E+04  0.11182892538E+04 0.  0.
        1    1    3    3  502    0 -0.53147927768E+03  0.95815037427E+01 -0.47936076107E+03  0.71578541973E+03  0.50400001928E-02 0. -1.
       -1    1    3    3    0  502  0.53147927768E+03 -0.95815037427E+01 -0.90100340769E+02  0.53914756723E+03  0.50400001928E-02 0.  1.
</event>
<event>
 5   0  0.7766551E-03  0.1112408E+04  0.7818609E-02  0.9193182E-01
       -2   -1    0    0    0  501  0.00000000000E+00  0.00000000000E+00  0.58913458290E+03  0.58913458291E+03  0.25500000920E-02 0.  1.
        2   -1    0    0  501    0  0.00000000000E+00  0.00000000000E+00 -0.52511372135E+03  0.52511372135E+03  0.25500000920E-02 0. -1.
    10030    2    1    2    0    0  0.00000000000E+00  0.00000000000E+00  0.64020861554E+02  0.11142483043E+04  0.11124075750E+04 0.  0.
        5    1    3    3  502    0  0.11954487531E+03 -0.51441516364E+03  0.20673136301E+03  0.56716301382E+03  0.46999998093E+01 0.  1.
       -5    1    3    3    0  502 -0.11954487531E+03  0.51441516364E+03 -0.14271050146E+03  0.54708529044E+03  0.46999998093E+01 0. -1.
</event>
<event>
 5   0  0.7766551E-03  0.1111128E+04  0.7818609E-02  0.9194413E-01
        2   -1    0    0  501    0  0.00000000000E+00  0.00000000000E+00  0.67936761912E+03  0.67936761912E+03  0.25500000920E-02 0.  1.
       -2   -1    0    0    0  501  0.00000000000E+00  0.00000000000E+00 -0.45432185151E+03  0.45432185151E+03  0.25500000920E-02 0. -1.
    10030    2    1    2    0    0  0.00000000000E+00  0.00000000000E+00  0.22504576761E+03  0.11336894706E+04  0.11111283537E+04 0.  0.
        5    1    3    3  502    0 -0.27057581144E+03 -0.36436390702E+03 -0.21438429629E+03  0.50195123565E+03  0.46999998093E+01 0.  1.
       -5    1    3    3    0  502  0.27057581144E+03  0.36436390702E+03  0.43943006391E+03  0.63173823498E+03  0.46999998093E+01 0. -1.
</event>
<event>
 5   0  0.7712816E-03  0.1099360E+04  0.7818609E-02  0.9205816E-01
        2   -1    0    0  501    0  0.00000000000E+00  0.00000000000E+00  0.22264251107E+03  0.22264251108E+03  0.25500000920E-02 0. -1.
       -2   -1    0    0    0  501  0.00000000000E+00  0.00000000000E+00 -0.13570987608E+04  0.13570987608E+04  0.25500000920E-02 0.  1.
    10030    2    1    2    0    0  0.00000000000E+00  0.00000000000E+00 -0.11344562497E+04  0.15797412718E+04  0.10993595879E+04 0.  0.
        2    1    3    3  502    0 -0.10103411050E+03  0.51573324976E+03 -0.79874990014E+03  0.95613287747E+03  0.25500000920E-02 0. -1.
       -2    1    3    3    0  502  0.10103411050E+03 -0.51573324976E+03 -0.33570634954E+03  0.62360839436E+03  0.25500000920E-02 0.  1.
</event>
<event>
 5   0  0.7712816E-03  0.1270766E+04  0.7818609E-02  0.9053074E-01
       -2   -1    0    0    0  501  0.00000000000E+00  0.00000000000E+00  0.52257418925E+03  0.52257418926E+03  0.25500000920E-02 0. -1.
        2   -1    0    0  501    0  0.00000000000E+00  0.00000000000E+00 -0.77254438247E+03  0.77254438248E+03  0.25500000920E-02 0.  1.
    10030    2    1    2    0    0  0.00000000000E+00  0.00000000000E+00 -0.24997019322E+03  0.12951185717E+04  0.12707663111E+04 0.  0.
        2    1    3    3  502    0  0.53916966424E+03  0.40211604412E+02 -0.46513363235E+03  0.71321118605E+03  0.25500000920E-02 0.  1.
       -2    1    3    3    0  502 -0.53916966424E+03 -0.40211604412E+02  0.21516343913E+03  0.58190738568E+03  0.25500000920E-02 0. -1.
</event>
<event>
 5   0  0.7537480E-03  0.1098185E+04  0.7818609E-02  0.9206963E-01
        2   -1    0    0  501    0  0.00000000000E+00  0.00000000000E+00  0.85959955036E+03  0.85959955036E+03  0.25500000920E-02 0. -1.
       -2   -1    0    0    0  501  0.00000000000E+00  0.00000000000E+00 -0.35074763760E+03  0.35074763760E+03  0.25500000920E-02 0.  1.
    10030    2    1    2    0    0  0.00000000000E+00  0.00000000000E+00  0.50885191276E+03  0.12103471880E+04  0.10981848871E+04 0.  0.
        1    1    3    3  502    0 -0.50012615159E+03 -0.17747906527E+03  0.99038605855E+02  0.53984593319E+03  0.50400001928E-02 0.  1.
       -1    1    3    3    0  502  0.50012615159E+03  0.17747906527E+03  0.40981330691E+03  0.67050125478E+03  0.50400001928E-02 0. -1.
</event>
<event>
 5   0  0.4298101E-03  0.1074232E+04  0.7818609E-02  0.9230678E-01
       -1   -1    0    0    0  501  0.00000000000E+00  0.00000000000E+00  0.33167451153E+03  0.33167451157E+03  0.50400001928E-02 0. -1.
        1   -1    0    0  501    0  0.00000000000E+00  0.00000000000E+00 -0.86980880076E+03  0.86980880077E+03  0.50400001928E-02 0.  1.
    10030    2    1    2    0    0  0.00000000000E+00  0.00000000000E+00 -0.53813428923E+03  0.12014833123E+04  0.10742316494E+04 0.  0.
        3    1    3    3  502    0  0.20601711758E+03  0.48123676246E+03 -0.40356855582E+03  0.66098370912E+03  0.10100000352E+00 0. -1.
       -3    1    3    3    0  502 -0.20601711758E+03 -0.48123676246E+03 -0.13456573341E+03  0.54049960322E+03  0.10100000352E+00 0.  1.
</event>
<event>
 5   0  0.4298101E-03  0.9989652E+03  0.7818609E-02  0.9309681E-01
       -1   -1    0    0    0  501  0.00000000000E+00  0.00000000000E+00  0.57024926745E+03  0.57024926747E+03  0.50400001928E-02 0.  1.
        1   -1    0    0  501    0  0.00000000000E+00  0.00000000000E+00 -0.43749787864E+03  0.43749787867E+03  0.50400001928E-02 0. -1.
    10030    2    1    2    0    0  0.00000000000E+00  0.00000000000E+00  0.13275138880E+03  0.10077471461E+04  0.99896515421E+03 0.  0.
        3    1    3    3  502    0 -0.45264743520E+03  0.17681322560E+03 -0.50095854736E+02  0.48853067683E+03  0.10100000352E+00 0. -1.
       -3    1    3    3    0  502  0.45264743520E+03 -0.17681322560E+03  0.18284724354E+03  0.51921646932E+03  0.10100000352E+00 0.  1.
</event>
<event>
 5   0  0.2992375E-03  0.1098479E+04  0.7818609E-02  0.9206676E-01
       -3   -1    0    0    0  501  0.00000000000E+00  0.00000000000E+00  0.12524662612E+04  0.12524662653E+04  0.10100000352E+00 0. -1.
        3   -1    0    0  501    0  0.00000000000E+00  0.00000000000E+00 -0.24085601444E+03  0.24085603562E+03  0.10100000352E+00 0.  1.
    10030    2    1    2    0    0  0.00000000000E+00  0.00000000000E+00  0.10116102468E+04  0.14933223009E+04  0.10984790408E+04 0.  0.
        4    1    3    3  502    0  0.20761275042E+02 -0.85993192668E+02  0.12427155557E+04  0.12458609172E+04  0.12699999809E+01 0. -1.
       -4    1    3    3    0  502 -0.20761275042E+02  0.85993192668E+02 -0.23110530891E+03  0.24746138372E+03  0.12699999809E+01 0.  1.
</event>
<event>
 5   0  0.7952121E-03  0.1120822E+04  0.7818609E-02  0.9185132E-01
       -2   -1    0    0    0  501  0.00000000000E+00  0.00000000000E+00  0.16570390358E+03  0.16570390360E+03  0.25500000920E-02 0.  1.
        2   -1    0    0  501    0  0.00000000000E+00  0.00000000000E+00 -0.18953119506E+04  0.18953119506E+04  0.25500000920E-02 0. -1.
    10030    2    1    2    0    0  0.00000000000E+00  0.00000000000E+00 -0.17296080470E+04  0.20610158542E+04  0.11208221781E+04 0.  0.
        3    1    3    3  502    0  0.28691804268E+03  0.38459710826E+03 -0.33241636752E+03  0.58372729120E+03  0.10100000352E+00 0. -1.
       -3    1    3    3    0  502 -0.28691804268E+03 -0.38459710826E+03 -0.13971916795E+04  0.14772885630E+04  0.10100000352E+00 0.  1.
</event>
<event>
 5   0  0.4641021E-03  0.1069115E+04  0.7818609E-02  0.9235829E-01
        1   -1    0    0  501    0  0.00000000000E+00  0.00000000000E+00  0.40138708003E+03  0.40138708006E+03  0.50400001928E-02 0.  1.
       -1   -1    0    0    0  501  0.00000000000E+00  0.00000000000E+00 -0.71191018060E+03  0.71191018062E+03  0.50400001928E-02 0. -1.
    10030    2    1    2    0    0  0.00000000000E+00  0.00000000000E+00 -0.31052310057E+03  0.11132972607E+04  0.10691146780E+04 0.  0.
        1    1    3    3  502    0  0.23742878961E+03 -0.15776802942E+03 -0.62615337675E+03  0.68799072122E+03  0.50400001928E-02 0. -1.
       -1    1    3    3    0  502 -0.23742878961E+03  0.15776802942E+03  0.31563027618E+03  0.42530653946E+03  0.50400001928E-02 0.  1.
</event>
<event>
 5   0  0.7712816E-03  0.1110640E+04  0.7818609E-02  0.9194883E-01
       -2   -1    0    0    0  501  0.00000000000E+00  0.00000000000E+00  0.41363349163E+03  0.41363349164E+03  0.25500000920E-02 0.  1.
        2   -1    0    0  501    0  0.00000000000E+00  0.00000000000E+00 -0.74553942692E+03  0.74553942692E+03  0.25500000920E-02 0. -1.
    10030    2    1    2    0    0  0.00000000000E+00  0.00000000000E+00 -0.33190593529E+03  0.11591729186E+04  0.11106395929E+04 0.  0.
        2    1    3    3  502    0 -0.42481664822E+03 -0.18104012325E+03  0.15596563232E+03  0.48741151946E+03  0.25500000920E-02 0.  1.
       -2    1    3    3    0  502  0.42481664822E+03  0.18104012325E+03 -0.48787156761E+03  0.67176139910E+03  0.25500000920E-02 0. -1.
</event>
<event>
 5   0  0.4428114E-03  0.1089468E+04  0.7818609E-02  0.9215518E-01
        1   -1    0    0  501    0  0.00000000000E+00  0.00000000000E+00  0.49047777488E+03  0.49047777491E+03  0.50400001928E-02 0.  1.
       -1   -1    0    0    0  501  0.00000000000E+00  0.00000000000E+00 -0.60499255179E+03  0.60499255181E+03  0.50400001928E-02 0. -1.
    10030    2    1    2    0    0  0.00000000000E+00  0.00000000000E+00 -0.11451477691E+03  0.10954703267E+04  0.10894684954E+04 0.  0.
        4    1    3    3  502    0  0.18989930082E+03 -0.16802836036E+03 -0.54203213357E+03  0.59841099677E+03  0.12699999809E+01 0. -1.
       -4    1    3    3    0  502 -0.18989930082E+03  0.16802836036E+03  0.42751735666E+03  0.49705932994E+03  0.12699999809E+01 0.  1.
</event>
<event>
 5   0  0.4641021E-03  0.1097556E+04  0.7818609E-02  0.9207577E-01
       -1   -1    0    0    0  501  0.00000000000E+00  0.00000000000E+00  0.19724366722E+03  0.19724366728E+03  0.50400001928E-02 0.  1.
        1   -1    0    0  501    0  0.00000000000E+00  0.00000000000E+00 -0.15268297091E+04  0.15268297091E+04  0.50400001928E-02 0. -1.
    10030    2    1    2    0    0  0.00000000000E+00  0.00000000000E+00 -0.13295860419E+04  0.17240733764E+04  0.10975563605E+04 0.  0.
        1    1    3    3  502    0  0.19517549919E+03  0.23904805816E+03 -0.13776103072E+04  0.14117533807E+04  0.50400001928E-02 0. -1.
       -1    1    3    3    0  502 -0.19517549919E+03 -0.23904805816E+03  0.48024265301E+02  0.31231999564E+03  0.50400001928E-02 0.  1.
</event>
<event>
 5   0  0.4598561E-03  0.1084856E+04  0.7818609E-02  0.9220079E-01
       -1   -1    0    0    0  501  0.00000000000E+00  0.00000000000E+00  0.56396001419E+03  0.56396001421E+03  0.50400001928E-02 0.  1.
        1   -1    0    0  501    0  0.00000000000E+00  0.00000000000E+00 -0.52171790125E+03  0.52171790128E+03  0.50400001928E-02 0. -1.
    10030    2    1    2    0    0  0.00000000000E+00  0.00000000000E+00  0.42242112936E+02  0.10856779155E+04  0.10848558153E+04 0.  0.
        2    1    3    3  502    0 -0.13620235261E+03  0.39115720050E+03  0.37163352626E+03  0.55647687662E+03  0.25500000920E-02 0.  1.
       -2    1    3    3    0  502  0.13620235261E+03 -0.39115720050E+03 -0.32939141333E+03  0.52920103887E+03  0.25500000920E-02 0. -1.
</event>
<event>
 5   0  0.4298101E-03  0.1112543E+04  0.7818609E-02  0.9193052E-01
        1   -1    0    0  501    0  0.00000000000E+00  0.00000000000E+00  0.18033020374E+04  0.18033020374E+04  0.50400001928E-02 0.  1.
       -1   -1    0    0    0  501  0.00000000000E+00  0.00000000000E+00 -0.17159514104E+03  0.17159514112E+03  0.50400001928E-02 0. -1.
    10030    2    1    2    0    0  0.00000000000E+00  0.00000000000E+00  0.16317068963E+04  0.19748971785E+04  0.11125427947E+04 0.  0.
        3    1    3    3  502    0  0.16993098942E+03  0.45448818434E+03  0.33296265559E+03  0.58847276155E+03  0.10100000352E+00 0. -1.
       -3    1    3    3    0  502 -0.16993098942E+03 -0.45448818434E+03  0.12987442407E+04  0.13864244169E+04  0.10100000352E+00 0.  1.
</event>
<event>
 5   0  0.7738497E-03  0.1067399E+04  0.7818609E-02  0.9237563E-01
       -2   -1    0    0    0  501  0.00000000000E+00  0.00000000000E+00  0.39879174522E+03  0.39879174523E+03  0.25500000920E-02 0. -1.
        2   -1    0    0  501    0  0.00000000000E+00  0.00000000000E+00 -0.71424554666E+03  0.71424554666E+03  0.25500000920E-02 0.  1.
    10030    2    1    2    0    0  0.00000000000E+00  0.00000000000E+00 -0.31545380143E+03  0.11130372919E+04  0.10673991345E+04 0.  0.
        4    1    3    3  502    0  0.21877165257E+03 -0.32406576429E+03  0.22105924193E+03  0.44916417588E+03  0.12699999809E+01 0. -1.
       -4    1    3    3    0  502 -0.21877165257E+03  0.32406576429E+03 -0.53651304337E+03  0.66387311601E+03  0.12699999809E+01 0.  1.
</event>
<event>
 5   0  0.7738497E-03  0.1103269E+04  0.7818609E-02  0.9202011E-01
       -2   -1    0    0    0  501  0.00000000000E+00  0.00000000000E+00  0.53801674067E+03  0.53801674068E+03  0.25500000920E-02 0. -1.
        2   -1    0    0  501    0  0.00000000000E+00  0.00000000000E+00 -0.56559743138E+03  0.56559743139E+03  0.25500000920E-02 0.  1.
    10030    2    1    2    0    0  0.00000000000E+00  0.00000000000E+00 -0.27580690711E+02  0.11036141721E+04  0.11032694804E+04 0.  0.
        4    1    3    3  502    0  0.21844148765E+03  0.50611474949E+03  0.69634374533E+01  0.55128842319E+03  0.12699999809E+01 0. -1.
       -4    1    3    3    0  502 -0.21844148765E+03 -0.50611474949E+03 -0.34544128164E+02  0.55232574887E+03  0.12699999809E+01 0.  1.
</event>
<event>
 5   0  0.4598561E-03  0.1110189E+04  0.7818609E-02  0.9195318E-01
       -1   -1    0    0    0  501  0.00000000000E+00  0.00000000000E+00  0.22695468147E+03  0.22695468153E+03  0.50400001928E-02 0. -1.
        1   -1    0    0  501    0  0.00000000000E+00  0.00000000000E+00 -0.13576704577E+04  0.13576704578E+04  0.50400001928E-02 0.  1.
    10030    2    1    2    0    0  0.00000000000E+00  0.00000000000E+00 -0.11307157763E+04  0.15846251393E+04  0.11101885720E+04 0.  0.
        2    1    3    3  502    0 -0.17033092041E+03 -0.17261259510E+03 -0.12780632633E+04  0.13008664172E+04  0.25500000920E-02 0.  1.
       -2    1    3    3    0  502  0.17033092041E+03  0.17261259510E+03  0.14734748700E+03  0.28375872210E+03  0.25500000920E-02 0. -1.
</event>
<event>
 5   0  0.7738497E-03  0.1116522E+04  0.7818609E-02  0.9189236E-01
       -2   -1    0    0    0  501  0.00000000000E+00  0.00000000000E+00  0.18218441949E+03  0.18218441950E+03  0.25500000920E-02 0. -1.
        2   -1    0    0  501    0  0.00000000000E+00  0.00000000000E+00 -0.17106601117E+04  0.17106601117E+04  0.25500000920E-02 0.  1.
    10030    2    1    2    0    0  0.00000000000E+00  0.00000000000E+00 -0.15284756922E+04  0.18928445312E+04  0.11165224931E+04 0.  0.
        4    1    3    3  502    0  0.24914190243E+03 -0.49951790240E+03 -0.77781977035E+03  0.95738969622E+03  0.12699999809E+01 0. -1.
       -4    1    3    3    0  502 -0.24914190243E+03  0.49951790240E+03 -0.75065592182E+03  0.93545483495E+03  0.12699999809E+01 0.  1.
</event>
<event>
 5   0  0.7537480E-03  0.1137744E+04  0.7818609E-02  0.9169166E-01
       -2   -1    0    0    0  501  0.00000000000E+00  0.00000000000E+00  0.30854750107E+03  0.30854750108E+03  0.25500000920E-02 0.  1.
        2   -1    0    0  501    0  0.00000000000E+00  0.00000000000E+00 -0.10488338966E+04  0.10488338966E+04  0.25500000920E-02 0. -1.
    10030    2    1    2    0    0  0.00000000000E+00  0.00000000000E+00 -0.74028639552E+03  0.13573813977E+04  0.11377435174E+04 0.  0.
        1    1    3    3  502    0  0.53721642051E+02 -0.41539255326E+03  0.89107176804E+02  0.42822549797E+03  0.50400001928E-02 0.  1.
       -1    1    3    3    0  502 -0.53721642051E+02  0.41539255326E+03 -0.82939357233E+03  0.92915589971E+03  0.50400001928E-02 0. -1.
</event>
<event>
 5   0  0.7738497E-03  0.1095857E+04  0.7818609E-02  0.9209240E-01
       -2   -1    0    0    0  501  0.00000000000E+00  0.00000000000E+00  0.64333575656E+03  0.64333575657E+03  0.25500000920E-02 0. -1.
        2   -1    0    0  501    0  0.00000000000E+00  0.00000000000E+00 -0.46666983526E+03  0.46666983527E+03  0.25500000920E-02 0.  1.
    10030    2    1    2    0    0  0.00000000000E+00  0.00000000000E+00  0.17666592130E+03  0.11100055918E+04  0.10958565445E+04 0.  0.
        4    1    3    3  502    0  0.39145577101E+03  0.30413905377E+03  0.32476825422E+03  0.59263329010E+03  0.12699999809E+01 0. -1.
       -4    1    3    3    0  502 -0.39145577101E+03 -0.30413905377E+03 -0.14810233292E+03  0.51737230174E+03  0.12699999809E+01 0.  1.
</event>
<event>
 5   0  0.4298101E-03  0.1094508E+04  0.7818609E-02  0.9210562E-01
       -1   -1    0    0    0  501  0.00000000000E+00  0.00000000000E+00  0.26491005772E+03  0.26491005776E+03  0.50400001928E-02 0. -1.
        1   -1    0    0  501    0  0.00000000000E+00  0.00000000000E+00 -0.11305223728E+04  0.11305223729E+04  0.50400001928E-02 0.  1.
    10030    2    1    2    0    0  0.00000000000E+00  0.00000000000E+00 -0.86561231513E+03  0.13954324306E+04  0.10945076465E+04 0.  0.
        3    1    3    3  502    0  0.37602592618E+03  0.77047588328E+01  0.74023897157E+02  0.38332024212E+03  0.10100000352E+00 0. -1.
       -3    1    3    3    0  502 -0.37602592618E+03 -0.77047588328E+01 -0.93963621229E+03  0.10121121885E+04  0.10100000352E+00 0.  1.
</event>
<event>
 5   0  0.7766551E-03  0.1092427E+04  0.7818609E-02  0.9212605E-01
       -2   -1    0    0    0  501  0.00000000000E+00  0.00000000000E+00  0.25413177525E+03  0.25413177527E+03  0.25500000920E-02 0. -1.
        2   -1    0    0  501    0  0.00000000000E+00  0.00000000000E+00 -0.11739936826E+04  0.11739936826E+04  0.25500000920E-02 0.  1.
    10030    2    1    2    0    0  0.00000000000E+00  0.00000000000E+00 -0.91986190734E+03  0.14281254579E+04  0.10924268373E+04 0.  0.
        5    1    3    3  502    0  0.38970365170E+03 -0.21368502853E+03 -0.44883903130E+02  0.44672909277E+03  0.46999998093E+01 0. -1.
       -5    1    3    3    0  502 -0.38970365170E+03  0.21368502853E+03 -0.87497800421E+03  0.98139636509E+03  0.46999998093E+01 0.  1.
</event>
<event>
 5   0  0.4298101E-03  0.1091508E+04  0.7818609E-02  0.9213508E-01
        1   -1    0    0  501    0  0.00000000000E+00  0.00000000000E+00  0.36603018224E+03  0.36603018228E+03  0.50400001928E-02 0.  1.
       -1   -1    0    0    0  501  0.00000000000E+00  0.00000000000E+00 -0.81372366557E+03  0.81372366559E+03  0.50400001928E-02 0. -1.
    10030    2    1    2    0    0  0.00000000000E+00  0.00000000000E+00 -0.44769348333E+03  0.11797538479E+04  0.10915079874E+04 0.  0.
        3    1    3    3  502    0  0.79448957180E+02  0.25163577930E+03  0.29249388886E+03  0.39393576563E+03  0.10100000352E+00 0.  1.
       -3    1    3    3    0  502 -0.79448957180E+02 -0.25163577930E+03 -0.74018737219E+03  0.78581808223E+03  0.10100000352E+00 0. -1.
</event>
<event>
 5   0  0.4298101E-03  0.1102087E+04  0.7818609E-02  0.9203160E-01
        1   -1    0    0  501    0  0.00000000000E+00  0.00000000000E+00  0.80068427820E+03  0.80068427821E+03  0.50400001928E-02 0.  1.
       -1   -1    0    0    0  501  0.00000000000E+00  0.00000000000E+00 -0.37923696206E+03  0.37923696209E+03  0.50400001928E-02 0. -1.
    10030    2    1    2    0    0  0.00000000000E+00  0.00000000000E+00  0.42144731614E+03  0.11799212403E+04  0.11020872438E+04 0.  0.
        3    1    3    3  502    0  0.33095913056E+01  0.11710818674E+03 -0.36574933274E+03  0.38405450837E+03  0.10100000352E+00 0. -1.
       -3    1    3    3    0  502 -0.33095913056E+01 -0.11710818674E+03  0.78719664888E+03  0.79586673194E+03  0.10100000352E+00 0.  1.
</event>
<event>
 5   0  0.7952121E-03  0.1077419E+04  0.7818609E-02  0.9227484E-01
        2   -1    0    0  501    0  0.00000000000E+00  0.00000000000E+00  0.17312056356E+04  0.17312056356E+04  0.25500000920E-02 0.  1.
       -2   -1    0    0    0  501  0.00000000000E+00  0.00000000000E+00 -0.16763353469E+03  0.16763353471E+03  0.25500000920E-02 0. -1.
    10030    2    1    2    0    0  0.00000000000E+00  0.00000000000E+00  0.15635721010E+04  0.18988391703E+04  0.10774193612E+04 0.  0.
        3    1    3    3  502    0 -0.13181951600E+03  0.47093639268E+03  0.38358353615E+03  0.62152538979E+03  0.10100000352E+00 0. -1.
       -3    1    3    3    0  502  0.13181951600E+03 -0.47093639268E+03  0.11799885648E+04  0.12773137806E+04  0.10100000352E+00 0.  1.
</event>
<event>
 5   0  0.4641021E-03  0.1148699E+04  0.7818609E-02  0.9158985E-01
        1   -1    0    0  501    0  0.00000000000E+00  0.00000000000E+00  0.57161751763E+03  0.57161751765E+03  0.50400001928E-02 0. -1.
       -1   -1    0    0    0  501  0.00000000000E+00  0.00000000000E+00 -0.57709431098E+03  0.57709431100E+03  0.50400001928E-02 0.  1.
    10030    2    1    2    0    0  0.00000000000E+00  0.00000000000E+00 -0.54767933527E+01  0.11487118287E+04  0.11486987725E+04 0.  0.
        1    1    3    3  502    0 -0.28699248477E+03  0.45017350172E+03 -0.21453398019E+03  0.57536570687E+03  0.50400001928E-02 0.  1.
       -1    1    3    3    0  502  0.28699248477E+03 -0.45017350172E+03  0.20905718684E+03  0.57334612178E+03  0.50400001928E-02 0. -1.
</event>
<event>
 5   0  0.4428114E-03  0.1109538E+04  0.7818609E-02  0.9195945E-01
        1   -1    0    0  501    0  0.00000000000E+00  0.00000000000E+00  0.90104203145E+03  0.90104203147E+03  0.50400001928E-02 0.  1.
       -1   -1    0    0    0  501  0.00000000000E+00  0.00000000000E+00 -0.34156978959E+03  0.34156978963E+03  0.50400001928E-02 0. -1.
    10030    2    1    2    0    0  0.00000000000E+00  0.00000000000E+00  0.55947224186E+03  0.12426118211E+04  0.11095381690E+04 0.  0.
        4    1    3    3  502    0 -0.96443341044E+02 -0.37121207866E+03  0.72864388336E+03  0.82342167025E+03  0.12699999809E+01 0.  1.
       -4    1    3    3    0  502  0.96443341044E+02  0.37121207866E+03 -0.16917164150E+03  0.41919015085E+03  0.12699999809E+01 0. -1.
</event>
<event>
 5   0  0.4504740E-03  0.1099304E+04  0.7818609E-02  0.9205870E-01
        1   -1    0    0  501    0  0.00000000000E+00  0.00000000000E+00  0.58768908129E+03  0.58768908131E+03  0.50400001928E-02 0. -1.
       -1   -1    0    0    0  501  0.00000000000E+00  0.00000000000E+00 -0.51407688953E+03  0.51407688956E+03  0.50400001928E-02 0.  1.
    10030    2    1    2    0    0  0.00000000000E+00  0.00000000000E+00  0.73612191756E+02  0.11017659709E+04  0.10993040980E+04 0.  0.
        5    1    3    3  502    0 -0.37480384286E+03  0.39981823694E+03 -0.52729468933E+01  0.54807156210E+03  0.46999998093E+01 0.  1.
       -5    1    3    3    0  502  0.37480384286E+03 -0.39981823694E+03  0.78885138650E+02  0.55369440878E+03  0.46999998093E+01 0. -1.
</event>
<event>
 5   0  0.4428114E-03  0.1099456E+04  0.7818609E-02  0.9205722E-01
        1   -1    0    0  501    0  0.00000000000E+00  0.00000000000E+00  0.55029033964E+03  0.55029033967E+03  0.50400001928E-02 0. -1.
       -1   -1    0    0    0  501  0.00000000000E+00  0.00000000000E+00 -0.54916669065E+03  0.54916669068E+03  0.50400001928E-02 0.  1.
    10030    2    1    2    0    0  0.00000000000E+00  0.00000000000E+00  0.11236489894E+01  0.10994570303E+04  0.10994564562E+04 0.  0.
        4    1    3    3  502    0 -0.29649645357E+02 -0.25480081028E+03  0.48676878081E+03  0.55022542041E+03  0.12699999809E+01 0. -1.
       -4    1    3    3    0  502  0.29649645357E+02  0.25480081028E+03 -0.48564513182E+03  0.54923160994E+03  0.12699999809E+01 0.  1.
</event>
<event>
 5   0  0.4641021E-03  0.1106127E+04  0.7818609E-02  0.9199240E-01
        1   -1    0    0  501    0  0.00000000000E+00  0.00000000000E+00  0.82561080416E+03  0.82561080418E+03  0.50400001928E-02 0. -1.
       -1   -1    0    0    0  501  0.00000000000E+00  0.00000000000E+00 -0.37048850827E+03  0.37048850831E+03  0.50400001928E-02 0.  1.
    10030    2    1    2    0    0  0.00000000000E+00  0.00000000000E+00  0.45512229589E+03  0.11960993125E+04  0.11061271451E+04 0.  0.
        1    1    3    3  502    0  0.25760697338E+03  0.39807862838E+03 -0.80291125749E+02  0.48091019120E+03  0.50400001928E-02 0. -1.
       -1    1    3    3    0  502 -0.25760697338E+03 -0.39807862838E+03  0.53541342164E+03  0.71518912128E+03  0.50400001928E-02 0.  1.
</event>
<event>
 5   0  0.7738497E-03  0.1081798E+04  0.7818609E-02  0.9223116E-01
       -2   -1    0    0    0  501  0.00000000000E+00  0.00000000000E+00  0.46179017407E+03  0.46179017408E+03  0.25500000920E-02 0.  1.
        2   -1    0    0  501    0  0.00000000000E+00  0.00000000000E+00 -0.63356014307E+03  0.63356014308E+03  0.25500000920E-02 0. -1.
    10030    2    1    2    0    0  0.00000000000E+00  0.00000000000E+00 -0.17176996901E+03  0.10953503172E+04  0.10817982229E+04 0.  0.
        4    1    3    3  502    0  0.35385216079E+03 -0.10340035619E+02  0.32820277489E+03  0.48273900027E+03  0.12699999809E+01 0.  1.
       -4    1    3    3    0  502 -0.35385216079E+03  0.10340035619E+02 -0.49997274390E+03  0.61261131689E+03  0.12699999809E+01 0. -1.
</event>
<event>
 5   0  0.4428114E-03  0.1111932E+04  0.7818609E-02  0.9193640E-01
       -1   -1    0    0    0  501  0.00000000000E+00  0.00000000000E+00  0.22968913736E+03  0.22968913741E+03  0.50400001928E-02 0. -1.
        1   -1    0    0  501    0  0.00000000000E+00  0.00000000000E+00 -0.13457241081E+04  0.13457241082E+04  0.50400001928E-02 0.  1.
    10030    2    1    2    0    0  0.00000000000E+00  0.00000000000E+00 -0.11160349708E+04  0.15754132456E+04  0.11119320295E+04 0.  0.
        4    1    3    3  502    0 -0.11099848878E+03  0.51682202980E+03 -0.31396582273E+03  0.61481853074E+03  0.12699999809E+01 0. -1.
       -4    1    3    3    0  502  0.11099848878E+03 -0.51682202980E+03 -0.80206914806E+03  0.96059471483E+03  0.12699999809E+01 0.  1.
</event>
<event>
 5   0  0.4428114E-03  0.1101167E+04  0.7818609E-02  0.9204055E-01
        1   -1    0    0  501    0  0.00000000000E+00  0.00000000000E+00  0.88566459465E+03  0.88566459466E+03  0.50400001928E-02 0.  1.
       -1   -1    0    0    0  501  0.00000000000E+00  0.00000000000E+00 -0.34227657848E+03  0.34227657852E+03  0.50400001928E-02 0. -1.
    10030    2    1    2    0    0  0.00000000000E+00  0.00000000000E+00  0.54338801617E+03  0.12279411732E+04  0.11011671030E+04 0.  0.
        4    1    3    3  502    0  0.54378358961E+03  0.90579334621E+01  0.17603979561E+03  0.57164172435E+03  0.12699999809E+01 0. -1.
       -4    1    3    3    0  502 -0.54378358961E+03 -0.90579334621E+01  0.36734822056E+03  0.65629944883E+03  0.12699999809E+01 0.  1.
</event>
<event>
 5   0  0.4298101E-03  0.8457258E+03  0.7818609E-02  0.9496092E-01
       -1   -1    0    0    0  501  0.00000000000E+00  0.00000000000E+00  0.77670385780E+03  0.77670385782E+03  0.50400001928E-02 0. -1.
        1   -1    0    0  501    0  0.00000000000E+00  0.00000000000E+00 -0.23022035433E+03  0.23022035438E+03  0.50400001928E-02 0.  1.
    10030    2    1    2    0    0  0.00000000000E+00  0.00000000000E+00  0.54648350348E+03  0.10069242122E+04  0.84572581228E+03 0.  0.
        3    1    3    3  502    0  0.11592924406E+03 -0.20291503833E+03  0.69283270522E+03  0.73118483986E+03  0.10100000352E+00 0. -1.
       -3    1    3    3    0  502 -0.11592924406E+03  0.20291503833E+03 -0.14634920175E+03  0.27573937235E+03  0.10100000352E+00 0.  1.
</event>
<event>
 5   0  0.4298101E-03  0.1106475E+04  0.7818609E-02  0.9198904E-01
       -1   -1    0    0    0  501  0.00000000000E+00  0.00000000000E+00  0.63315649787E+03  0.63315649789E+03  0.50400001928E-02 0.  1.
        1   -1    0    0  501    0  0.00000000000E+00  0.00000000000E+00 -0.48340635059E+03  0.48340635062E+03  0.50400001928E-02 0. -1.
    10030    2    1    2    0    0  0.00000000000E+00  0.00000000000E+00  0.14975014728E+03  0.11165628485E+04  0.11064752542E+04 0.  0.
        3    1    3    3  502    0  0.52180540057E+03  0.17694301220E+03  0.12515052985E+03  0.56502422157E+03  0.10100000352E+00 0.  1.
       -3    1    3    3    0  502 -0.52180540057E+03 -0.17694301220E+03  0.24599617428E+02  0.55153862695E+03  0.10100000352E+00 0. -1.
</event>
<event>
 5   0  0.7738497E-03  0.1110929E+04  0.7818609E-02  0.9194605E-01
        2   -1    0    0  501    0  0.00000000000E+00  0.00000000000E+00  0.86149896468E+03  0.86149896469E+03  0.25500000920E-02 0.  1.
       -2   -1    0    0    0  501  0.00000000000E+00  0.00000000000E+00 -0.35814419885E+03  0.35814419886E+03  0.25500000920E-02 0. -1.
    10030    2    1    2    0    0  0.00000000000E+00  0.00000000000E+00  0.50335476583E+03  0.12196431635E+04  0.11109290824E+04 0.  0.
        4    1    3    3  502    0  0.54330257963E+03 -0.11200889426E+03  0.28303000943E+03  0.62276101722E+03  0.12699999809E+01 0. -1.
       -4    1    3    3    0  502 -0.54330257963E+03  0.11200889426E+03  0.22032475640E+03  0.59688214633E+03  0.12699999809E+01 0.  1.
</event>
<event>
 5   0  0.4598561E-03  0.1100927E+04  0.7818609E-02  0.9204289E-01
        1   -1    0    0  501    0  0.00000000000E+00  0.00000000000E+00  0.80292296906E+03  0.80292296908E+03  0.50400001928E-02 0.  1.
       -1   -1    0    0    0  501  0.00000000000E+00  0.00000000000E+00 -0.37738391636E+03  0.37738391640E+03  0.50400001928E-02 0. -1.
    10030    2    1    2    0    0  0.00000000000E+00  0.00000000000E+00  0.42553905270E+03  0.11803068855E+04  0.11009272721E+04 0.  0.
        2    1    3    3  502    0 -0.33682996581E+03 -0.43319301583E+03  0.25949646915E+03  0.60700002664E+03  0.25500000920E-02 0.  1.
       -2    1    3    3    0  502  0.33682996581E+03  0.43319301583E+03  0.16604258355E+03  0.57330685884E+03  0.25500000920E-02 0. -1.
</event>
<event>
 5   0  0.4428114E-03  0.1104491E+04  0.7818609E-02  0.9200825E-01
       -1   -1    0    0    0  501  0.00000000000E+00  0.00000000000E+00  0.46998004609E+03  0.46998004612E+03  0.50400001928E-02 0.  1.
        1   -1    0    0  501    0  0.00000000000E+00  0.00000000000E+00 -0.64891124086E+03  0.64891124088E+03  0.50400001928E-02 0. -1.
    10030    2    1    2    0    0  0.00000000000E+00  0.00000000000E+00 -0.17893119476E+03  0.11188912870E+04  0.11044914394E+04 0.  0.
        4    1    3    3  502    0 -0.90666682095E+02 -0.16119707930E+03 -0.61660420975E+03  0.64374475532E+03  0.12699999809E+01 0. -1.
       -4    1    3    3    0  502  0.90666682095E+02  0.16119707930E+03  0.43767301499E+03  0.47514653168E+03  0.12699999809E+01 0.  1.
</event>
<event>
 5   0  0.7738497E-03  0.1097236E+04  0.7818609E-02  0.9207890E-01
       -2   -1    0    0    0  501  0.00000000000E+00  0.00000000000E+00  0.49594343215E+03  0.49594343216E+03  0.25500000920E-02 0. -1.
        2   -1    0    0  501    0  0.00000000000E+00  0.00000000000E+00 -0.60688767360E+03  0.60688767360E+03  0.25500000920E-02 0.  1.
    10030    2    1    2    0    0  0.00000000000E+00  0.00000000000E+00 -0.11094424144E+03  0.11028311058E+04  0.10972364481E+04 0.  0.
        4    1    3    3  502    0  0.41642543067E+03  0.86228722884E+02  0.29289985859E+03  0.51636951112E+03  0.12699999809E+01 0. -1.
       -4    1    3    3    0  502 -0.41642543067E+03 -0.86228722884E+02 -0.40384410003E+03  0.58646159464E+03  0.12699999809E+01 0.  1.
</event>
<event>
 5   0  0.7766551E-03  0.1091307E+04  0.7818609E-02  0.9213707E-01
       -2   -1    0    0    0  501  0.00000000000E+00  0.00000000000E+00  0.22426858223E+03  0.22426858224E+03  0.25500000920E-02 0.  1.
        2   -1    0    0  501    0  0.00000000000E+00  0.00000000000E+00 -0.13275937062E+04  0.13275937062E+04  0.25500000920E-02 0. -1.
    10030    2    1    2    0    0  0.00000000000E+00  0.00000000000E+00 -0.11033251240E+04  0.15518622884E+04  0.10913066632E+04 0.  0.
        5    1    3    3  502    0  0.31695848816E+03  0.11256965371E+03 -0.11626041691E+04  0.12102913509E+04  0.46999998093E+01 0. -1.
       -5    1    3    3    0  502 -0.31695848816E+03 -0.11256965371E+03  0.59279045130E+02  0.34157093750E+03  0.46999998093E+01 0.  1.
</event>
<event>
 5   0  0.4428114E-03  0.1092345E+04  0.7818609E-02  0.9212685E-01
       -1   -1    0    0    0  501  0.00000000000E+00  0.00000000000E+00  0.18355803969E+03  0.18355803976E+03  0.50400001928E-02 0. -1.
        1   -1    0    0  501    0  0.00000000000E+00  0.00000000000E+00 -0.16251229817E+04  0.16251229817E+04  0.50400001928E-02 0.  1.
    10030    2    1    2    0    0  0.00000000000E+00  0.00000000000E+00 -0.14415649420E+04  0.18086810215E+04  0.10923449800E+04 0.  0.
        4    1    3    3  502    0  0.42555790805E+03 -0.22967266807E+03 -0.11411470550E+04  0.12393818143E+04  0.12699999809E+01 0. -1.
       -4    1    3    3    0  502 -0.42555790805E+03  0.22967266807E+03 -0.30041788702E+03  0.56929920719E+03  0.12699999809E+01 0.  1.
</event>
<event>
 5   0  0.7738497E-03  0.1097428E+04  0.7818609E-02  0.9207702E-01
        2   -1    0    0  501    0  0.00000000000E+00  0.00000000000E+00  0.32404969787E+03  0.32404969788E+03  0.25500000920E-02 0. -1.
       -2   -1    0    0    0  501  0.00000000000E+00  0.00000000000E+00 -0.92913881712E+03  0.92913881712E+03  0.25500000920E-02 0.  1.
    10030    2    1    2    0    0  0.00000000000E+00  0.00000000000E+00 -0.60508911925E+03  0.12531885150E+04  0.10974281808E+04 0.  0.
        4    1    3    3  502    0 -0.13888780140E+03  0.52959828404E+03 -0.26103448201E+03  0.60655154565E+03  0.12699999809E+01 0.  1.
       -4    1    3    3    0  502  0.13888780140E+03 -0.52959828404E+03 -0.34405463724E+03  0.64663696936E+03  0.12699999809E+01 0. -1.
</event>
<event>
 5   0  0.7952121E-03  0.1115023E+04  0.7818609E-02  0.9190672E-01
       -2   -1    0    0    0  501  0.00000000000E+00  0.00000000000E+00  0.41020502795E+03  0.41020502795E+03  0.25500000920E-02 0. -1.
        2   -1    0    0  501    0  0.00000000000E+00  0.00000000000E+00 -0.75771616217E+03  0.75771616218E+03  0.25500000920E-02 0.  1.
    10030    2    1    2    0    0  0.00000000000E+00  0.00000000000E+00 -0.34751113423E+03  0.11679211901E+04  0.11150228329E+04 0.  0.
        3    1    3    3  502    0 -0.12634221202E+03 -0.48984008750E+03  0.71697556102E+02  0.51092682021E+03  0.10100000352E+00 0. -1.
       -3    1    3    3    0  502  0.12634221202E+03  0.48984008750E+03 -0.41920869033E+03  0.65699436992E+03  0.10100000352E+00 0.  1.
</event>
<event>
 5   0  0.4504740E-03  0.1089768E+04  0.7818609E-02  0.9215223E-01
       -1   -1    0    0    0  501  0.00000000000E+00  0.00000000000E+00  0.24049387101E+03  0.24049387106E+03  0.50400001928E-02 0.  1.
        1   -1    0    0  501    0  0.00000000000E+00  0.00000000000E+00 -0.12345360387E+04  0.12345360387E+04  0.50400001928E-02 0. -1.
    10030    2    1    2    0    0  0.00000000000E+00  0.00000000000E+00 -0.99404216772E+03  0.14750299098E+04  0.10897675916E+04 0.  0.
        5    1    3    3  502    0  0.73806028243E+02 -0.53837655137E+03 -0.55081625032E+03  0.77376822918E+03  0.46999998093E+01 0. -1.
       -5    1    3    3    0  502 -0.73806028243E+02  0.53837655137E+03 -0.44322591739E+03  0.70126168063E+03  0.46999998093E+01 0.  1.
</event>
<event>
 5   0  0.7712816E-03  0.1068590E+04  0.7818609E-02  0.9236359E-01
        2   -1    0    0  501    0  0.00000000000E+00  0.00000000000E+00  0.12290357446E+04  0.12290357446E+04  0.25500000920E-02 0. -1.
       -2   -1    0    0    0  501  0.00000000000E+00  0.00000000000E+00 -0.23227234880E+03  0.23227234881E+03  0.25500000920E-02 0.  1.
    10030    2    1    2    0    0  0.00000000000E+00  0.00000000000E+00  0.99676339581E+03  0.14613080934E+04  0.10685897607E+04 0.  0.
        2    1    3    3  502    0  0.45896287833E+03  0.23107615941E+03  0.29820172436E+03  0.59411058192E+03  0.25500000920E-02 0.  1.
       -2    1    3    3    0  502 -0.45896287833E+03 -0.23107615941E+03  0.69856167145E+03  0.86719751151E+03  0.25500000920E-02 0. -1.
</event>
<event>
 5   0  0.4504740E-03  0.1102002E+04  0.7818609E-02  0.9203243E-01
       -1   -1    0    0    0  501  0.00000000000E+00  0.00000000000E+00  0.21503948694E+03  0.21503948699E+03  0.50400001928E-02 0.  1.
        1   -1    0    0  501    0  0.00000000000E+00  0.00000000000E+00 -0.14118430848E+04  0.14118430848E+04  0.50400001928E-02 0. -1.
    10030    2    1    2    0    0  0.00000000000E+00  0.00000000000E+00 -0.11968035979E+04  0.16268825718E+04  0.11020018378E+04 0.  0.
        5    1    3    3  502    0  0.93765332576E+02  0.53768472670E+03 -0.48710894208E+03  0.73156955539E+03  0.46999998093E+01 0.  1.
       -5    1    3    3    0  502 -0.93765332576E+02 -0.53768472670E+03 -0.70969465580E+03  0.89531301643E+03  0.46999998093E+01 0. -1.
</event>
<event>
 5   0  0.7712816E-03  0.1020353E+04  0.7818609E-02  0.9286499E-01
       -2   -1    0    0    0  501  0.00000000000E+00  0.00000000000E+00  0.16233563476E+04  0.16233563476E+04  0.25500000920E-02 0.  1.
        2   -1    0    0  501    0  0.00000000000E+00  0.00000000000E+00 -0.16033456439E+03  0.16033456441E+03  0.25500000920E-02 0. -1.
    10030    2    1    2    0    0  0.00000000000E+00  0.00000000000E+00  0.14630217832E+04  0.17836909120E+04  0.10203531405E+04 0.  0.
        2    1    3    3  502    0  0.20905568613E+03  0.22721618746E+02  0.15440716762E+04  0.15583253489E+04  0.25500000920E-02 0.  1.
       -2    1    3    3    0  502 -0.20905568613E+03 -0.22721618746E+02 -0.81049892995E+02  0.22536556308E+03  0.25500000920E-02 0. -1.
</event>
<event>
 5   0  0.4298101E-03  0.1098134E+04  0.7818609E-02  0.9207013E-01
        1   -1    0    0  501    0  0.00000000000E+00  0.00000000000E+00  0.27621923408E+03  0.27621923413E+03  0.50400001928E-02 0.  1.
       -1   -1    0    0    0  501  0.00000000000E+00  0.00000000000E+00 -0.10914316702E+04  0.10914316702E+04  0.50400001928E-02 0. -1.
    10030    2    1    2    0    0  0.00000000000E+00  0.00000000000E+00 -0.81521243616E+03  0.13676509044E+04  0.10981337260E+04 0.  0.
        3    1    3    3  502    0 -0.26966707381E+03  0.47796651795E+03 -0.38595980451E+03  0.67092272571E+03  0.10100000352E+00 0. -1.
       -3    1    3    3    0  502  0.26966707381E+03 -0.47796651795E+03 -0.42925263165E+03  0.69672817867E+03  0.10100000352E+00 0.  1.
</event>
<event>
 5   0  0.7952121E-03  0.1124392E+04  0.7818609E-02  0.9181739E-01
        2   -1    0    0  501    0  0.00000000000E+00  0.00000000000E+00  0.74249152652E+03  0.74249152652E+03  0.25500000920E-02 0. -1.
       -2   -1    0    0    0  501  0.00000000000E+00  0.00000000000E+00 -0.42568070183E+03  0.42568070184E+03  0.25500000920E-02 0.  1.
    10030    2    1    2    0    0  0.00000000000E+00  0.00000000000E+00  0.31681082468E+03  0.11681722284E+04  0.11243919497E+04 0.  0.
        3    1    3    3  502    0 -0.42218003812E+03  0.37111460830E+03  0.14789894876E+03  0.58123673862E+03  0.10100000352E+00 0.  1.
       -3    1    3    3    0  502  0.42218003812E+03 -0.37111460830E+03  0.16891187592E+03  0.58693548973E+03  0.10100000352E+00 0. -1.
</event>
<event>
 5   0  0.4598561E-03  0.1088572E+04  0.7818609E-02  0.9216402E-01
       -1   -1    0    0    0  501  0.00000000000E+00  0.00000000000E+00  0.44602872897E+03  0.44602872900E+03  0.50400001928E-02 0. -1.
        1   -1    0    0  501    0  0.00000000000E+00  0.00000000000E+00 -0.66418885837E+03  0.66418885839E+03  0.50400001928E-02 0.  1.
    10030    2    1    2    0    0  0.00000000000E+00  0.00000000000E+00 -0.21816012940E+03  0.11102175874E+04  0.10885721149E+04 0.  0.
        2    1    3    3  502    0  0.79445406548E+02  0.12899303117E+03  0.42409270700E+03  0.45033920421E+03  0.25500000920E-02 0. -1.
       -2    1    3    3    0  502 -0.79445406548E+02 -0.12899303117E+03 -0.64225283640E+03  0.65987838317E+03  0.25500000920E-02 0.  1.
</event>
<event>
 5   0  0.4641021E-03  0.1103740E+04  0.7818609E-02  0.9201554E-01
       -1   -1    0    0    0  501  0.00000000000E+00  0.00000000000E+00  0.79003952901E+03  0.79003952903E+03  0.50400001928E-02 0.  1.
        1   -1    0    0  501    0  0.00000000000E+00  0.00000000000E+00 -0.38550026867E+03  0.38550026871E+03  0.50400001928E-02 0. -1.
    10030    2    1    2    0    0  0.00000000000E+00  0.00000000000E+00  0.40453926034E+03  0.11755397977E+04  0.11037399163E+04 0.  0.
        1    1    3    3  502    0  0.18265735580E+03  0.19837415252E+03 -0.31055506116E+03  0.41129121077E+03  0.50400001928E-02 0. -1.
       -1    1    3    3    0  502 -0.18265735580E+03 -0.19837415252E+03  0.71509432150E+03  0.76424858697E+03  0.50400001928E-02 0.  1.
</event>
<event>
 5   0  0.7712816E-03  0.1078500E+04  0.7818609E-02  0.9226404E-01
        2   -1    0    0  501    0  0.00000000000E+00  0.00000000000E+00  0.75455839892E+03  0.75455839893E+03  0.25500000920E-02 0.  1.
       -2   -1    0    0    0  501  0.00000000000E+00  0.00000000000E+00 -0.38537840890E+03  0.38537840890E+03  0.25500000920E-02 0. -1.
    10030    2    1    2    0    0  0.00000000000E+00  0.00000000000E+00  0.36917999003E+03  0.11399368078E+04  0.10784999123E+04 0.  0.
        2    1    3    3  502    0  0.14394362674E+03  0.28680777162E+03  0.64265001639E+03  0.71831574472E+03  0.25500000920E-02 0.  1.
       -2    1    3    3    0  502 -0.14394362674E+03 -0.28680777162E+03 -0.27347002636E+03  0.42162106312E+03  0.25500000920E-02 0. -1.
</event>
<event>
 5   0  0.4298101E-03  0.1259036E+04  0.7818609E-02  0.9062696E-01
        1   -1    0    0  501    0  0.00000000000E+00  0.00000000000E+00  0.11586820569E+04  0.11586820569E+04  0.50400001928E-02 0. -1.
       -1   -1    0    0    0  501  0.00000000000E+00  0.00000000000E+00 -0.34202026418E+03  0.34202026422E+03  0.50400001928E-02 0.  1.
    10030    2    1    2    0    0  0.00000000000E+00  0.00000000000E+00  0.81666179274E+03  0.15007023212E+04  0.12590357314E+04 0.  0.
        3    1    3    3  502    0 -0.50715020305E+03  0.20770622765E+03  0.39117101499E+02  0.54943003493E+03  0.10100000352E+00 0.  1.
       -3    1    3    3    0  502  0.50715020305E+03 -0.20770622765E+03  0.77754469124E+03  0.95127228622E+03  0.10100000352E+00 0. -1.
</event>
<event>
 5   0  0.7738497E-03  0.1095679E+04  0.7818609E-02  0.9209414E-01
       -2   -1    0    0    0  501  0.00000000000E+00  0.00000000000E+00  0.33046243563E+03  0.33046243564E+03  0.25500000920E-02 0.  1.
        2   -1    0    0  501    0  0.00000000000E+00  0.00000000000E+00 -0.90820625784E+03  0.90820625784E+03  0.25500000920E-02 0. -1.
    10030    2    1    2    0    0  0.00000000000E+00  0.00000000000E+00 -0.57774382221E+03  0.12386686935E+04  0.10956788800E+04 0.  0.
        4    1    3    3  502    0  0.33894672734E+03  0.42095041225E+03 -0.18748960724E+03  0.57204728762E+03  0.12699999809E+01 0. -1.
       -4    1    3    3    0  502 -0.33894672734E+03 -0.42095041225E+03 -0.39025421496E+03  0.66662140586E+03  0.12699999809E+01 0.  1.
</event>
<event>
 5   0  0.7952121E-03  0.1089802E+04  0.7818609E-02  0.9215189E-01
        2   -1    0    0  501    0  0.00000000000E+00  0.00000000000E+00  0.13234460227E+04  0.13234460227E+04  0.25500000920E-02 0.  1.
       -2   -1    0    0    0  501  0.00000000000E+00  0.00000000000E+00 -0.22435163985E+03  0.22435163987E+03  0.25500000920E-02 0. -1.
    10030    2    1    2    0    0  0.00000000000E+00  0.00000000000E+00  0.10990943828E+04  0.15477976626E+04  0.10898023407E+04 0.  0.
        3    1    3    3  502    0 -0.54461043338E+03 -0.15133562772E+02  0.53624474337E+03  0.76445273488E+03  0.10100000352E+00 0. -1.
       -3    1    3    3    0  502  0.54461043338E+03  0.15133562772E+02  0.56284963947E+03  0.78334492768E+03  0.10100000352E+00 0.  1.
</event>
<event>
 5   0  0.7766551E-03  0.9333179E+03  0.7818609E-02  0.9384865E-01
       -2   -1    0    0    0  501  0.00000000000E+00  0.00000000000E+00  0.20284743612E+03  0.20284743613E+03  0.25500000920E-02 0.  1.
        2   -1    0    0  501    0  0.00000000000E+00  0.00000000000E+00 -0.10735683958E+04  0.10735683958E+04  0.25500000920E-02 0. -1.
    10030    2    1    2    0    0  0.00000000000E+00  0.00000000000E+00 -0.87072095964E+03  0.12764158319E+04  0.93331794494E+03 0.  0.
        5    1    3    3  502    0  0.26939026176E+03  0.75914124488E+02  0.75281416443E+02  0.28986798562E+03  0.46999998093E+01 0.  1.
       -5    1    3    3    0  502 -0.26939026176E+03 -0.75914124488E+02 -0.94600237608E+03  0.98654784627E+03  0.46999998093E+01 0. -1.
</event>
<event>
 5   0  0.4428114E-03  0.1106018E+04  0.7818609E-02  0.9199346E-01
       -1   -1    0    0    0  501  0.00000000000E+00  0.00000000000E+00  0.21899685381E+03  0.21899685387E+03  0.50400001928E-02 0.  1.
        1   -1    0    0  501    0  0.00000000000E+00  0.00000000000E+00 -0.13964528958E+04  0.13964528958E+04  0.50400001928E-02 0. -1.
    10030    2    1    2    0    0  0.00000000000E+00  0.00000000000E+00 -0.11774560420E+04  0.16154497497E+04  0.11060177046E+04 0.  0.
        4    1    3    3  502    0  0.12944259200E+03  0.32740251908E+03 -0.12116177531E+04  0.12617317412E+04  0.12699999809E+01 0.  1.
       -4    1    3    3    0  502 -0.12944259200E+03 -0.32740251908E+03  0.34161711139E+02  0.35371800849E+03  0.12699999809E+01 0. -1.
</event>
<event>
 5   0  0.4298101E-03  0.1096992E+04  0.7818609E-02  0.9208129E-01
        1   -1    0    0  501    0  0.00000000000E+00  0.00000000000E+00  0.39373463871E+03  0.39373463874E+03  0.50400001928E-02 0.  1.
       -1   -1    0    0    0  501  0.00000000000E+00  0.00000000000E+00 -0.76408759768E+03  0.76408759769E+03  0.50400001928E-02 0. -1.
    10030    2    1    2    0    0  0.00000000000E+00  0.00000000000E+00 -0.37035295897E+03  0.11578222364E+04  0.10969918035E+04 0.  0.
        3    1    3    3  502    0 -0.38765452324E+03 -0.10680108819E+03  0.20855840398E+03  0.45296701855E+03  0.10100000352E+00 0.  1.
       -3    1    3    3    0  502  0.38765452324E+03  0.10680108819E+03 -0.57891136295E+03  0.70485521788E+03  0.10100000352E+00 0. -1.
</event>
<event>
 5   0  0.4504740E-03  0.1101840E+04  0.7818609E-02  0.9203400E-01
       -1   -1    0    0    0  501  0.00000000000E+00  0.00000000000E+00  0.64970657602E+03  0.64970657604E+03  0.50400001928E-02 0. -1.
        1   -1    0    0  501    0  0.00000000000E+00  0.00000000000E+00 -0.46715361757E+03  0.46715361760E+03  0.50400001928E-02 0.  1.
    10030    2    1    2    0    0  0.00000000000E+00  0.00000000000E+00  0.18255295845E+03  0.11168601936E+04  0.11018398747E+04 0.  0.
        5    1    3    3  502    0  0.70126478168E+02  0.38320497592E+03 -0.30355487659E+03  0.49389414818E+03  0.46999998093E+01 0.  1.
       -5    1    3    3    0  502 -0.70126478168E+02 -0.38320497592E+03  0.48610783504E+03  0.62296604546E+03  0.46999998093E+01 0. -1.
</event>
<event>
 5   0  0.7738497E-03  0.1058432E+04  0.7818609E-02  0.9246681E-01
       -2   -1    0    0    0  501  0.00000000000E+00  0.00000000000E+00  0.32097970509E+03  0.32097970510E+03  0.25500000920E-02 0.  1.
        2   -1    0    0  501    0  0.00000000000E+00  0.00000000000E+00 -0.87254621986E+03  0.87254621986E+03  0.25500000920E-02 0. -1.
    10030    2    1    2    0    0  0.00000000000E+00  0.00000000000E+00 -0.55156651477E+03  0.11935259250E+04  0.10584321014E+04 0.  0.
        4    1    3    3  502    0 -0.39159275501E+03 -0.19918288132E+03 -0.60848227525E+03  0.75051382278E+03  0.12699999809E+01 0. -1.
       -4    1    3    3    0  502  0.39159275501E+03  0.19918288132E+03  0.56915760483E+02  0.44301210219E+03  0.12699999809E+01 0.  1.
</event>
<event>
 5   0  0.7537480E-03  0.1100902E+04  0.7818609E-02  0.9204313E-01
        2   -1    0    0  501    0  0.00000000000E+00  0.00000000000E+00  0.14248698885E+04  0.14248698885E+04  0.25500000920E-02 0. -1.
       -2   -1    0    0    0  501  0.00000000000E+00  0.00000000000E+00 -0.21264837880E+03  0.21264837882E+03  0.25500000920E-02 0.  1.
    10030    2    1    2    0    0  0.00000000000E+00  0.00000000000E+00  0.12122215097E+04  0.16375182673E+04  0.11009019426E+04 0.  0.
        1    1    3    3  502    0 -0.85802483461E+00  0.32854956846E+03 -0.50807439596E+02  0.33245593857E+03  0.50400001928E-02 0.  1.
       -1    1    3    3    0  502  0.85802483461E+00 -0.32854956846E+03  0.12630289493E+04  0.13050623288E+04  0.50400001928E-02 0. -1.
</event>
<event>
 5   0  0.7766551E-03  0.1223525E+04  0.7818609E-02  0.9092510E-01
       -2   -1    0    0    0  501  0.00000000000E+00  0.00000000000E+00  0.94040432944E+03  0.94040432945E+03  0.25500000920E-02 0. -1.
        2   -1    0    0  501    0  0.00000000000E+00  0.00000000000E+00 -0.39797091546E+03  0.39797091547E+03  0.25500000920E-02 0.  1.
    10030    2    1    2    0    0  0.00000000000E+00  0.00000000000E+00  0.54243341398E+03  0.13383752449E+04  0.12235253523E+04 0.  0.
        5    1    3    3  502    0 -0.45031431595E+03  0.13942344978E+03 -0.15526502299E+03  0.49633778706E+03  0.46999998093E+01 0.  1.
       -5    1    3    3    0  502  0.45031431595E+03 -0.13942344978E+03  0.69769843697E+03  0.84203745786E+03  0.46999998093E+01 0. -1.
</event>
<event>
 5   0  0.7738497E-03  0.1073318E+04  0.7818609E-02  0.9231596E-01
       -2   -1    0    0    0  501  0.00000000000E+00  0.00000000000E+00  0.52800065046E+03  0.52800065046E+03  0.25500000920E-02 0. -1.
        2   -1    0    0  501    0  0.00000000000E+00  0.00000000000E+00 -0.54545913530E+03  0.54545913530E+03  0.25500000920E-02 0.  1.
    10030    2    1    2    0    0  0.00000000000E+00  0.00000000000E+00 -0.17458484840E+02  0.10734597858E+04  0.10733178061E+04 0.  0.
        4    1    3    3  502    0 -0.32057483989E+03 -0.36496580793E+03  0.21940813561E+03  0.53301952291E+03  0.12699999809E+01 0. -1.
       -4    1    3    3    0  502  0.32057483989E+03  0.36496580793E+03 -0.23686662045E+03  0.54044026285E+03  0.12699999809E+01 0.  1.
</event>
<event>
 5   0  0.7712816E-03  0.1102150E+04  0.7818609E-02  0.9203099E-01
       -2   -1    0    0    0  501  0.00000000000E+00  0.00000000000E+00  0.21806050962E+03  0.21806050964E+03  0.25500000920E-02 0.  1.
        2   -1    0    0  501    0  0.00000000000E+00  0.00000000000E+00 -0.13926585026E+04  0.13926585026E+04  0.25500000920E-02 0. -1.
    10030    2    1    2    0    0  0.00000000000E+00  0.00000000000E+00 -0.11745979929E+04  0.16107190122E+04  0.11021503034E+04 0.  0.
        2    1    3    3  502    0  0.46166308988E+03  0.29112660197E+03 -0.47603491611E+03  0.72422147737E+03  0.25500000920E-02 0. -1.
       -2    1    3    3    0  502 -0.46166308988E+03 -0.29112660197E+03 -0.69856307683E+03  0.88649753482E+03  0.25500000920E-02 0.  1.
</event>
<event>
 5   0  0.7766551E-03  0.1072737E+04  0.7818609E-02  0.9232179E-01
        2   -1    0    0  501    0  0.00000000000E+00  0.00000000000E+00  0.26190289642E+03  0.26190289643E+03  0.25500000920E-02 0. -1.
       -2   -1    0    0    0  501  0.00000000000E+00  0.00000000000E+00 -0.10984658041E+04  0.10984658041E+04  0.25500000920E-02 0.  1.
    10030    2    1    2    0    0  0.00000000000E+00  0.00000000000E+00 -0.83656290767E+03  0.13603687005E+04  0.10727373877E+04 0.  0.
        5    1    3    3  502    0  0.56389248928E+02 -0.45094508763E+03 -0.77950457469E+03  0.90231961711E+03  0.46999998093E+01 0.  1.
       -5    1    3    3    0  502 -0.56389248928E+02  0.45094508763E+03 -0.57058332978E+02  0.45804908341E+03  0.46999998093E+01 0. -1.
</event>
<event>
 5   0  0.7766551E-03  0.1118316E+04  0.7818609E-02  0.9187521E-01
       -2   -1    0    0    0  501  0.00000000000E+00  0.00000000000E+00  0.25190834916E+03  0.25190834917E+03  0.25500000920E-02 0. -1.
        2   -1    0    0  501    0  0.00000000000E+00  0.00000000000E+00 -0.12411571636E+04  0.12411571636E+04  0.25500000920E-02 0.  1.
    10030    2    1    2    0    0  0.00000000000E+00  0.00000000000E+00 -0.98924881443E+03  0.14930655128E+04  0.11183163276E+04 0.  0.
        5    1    3    3  502    0  0.53943303382E+03  0.14495894300E+03 -0.52825912943E+03  0.76881785291E+03  0.46999998093E+01 0.  1.
       -5    1    3    3    0  502 -0.53943303382E+03 -0.14495894300E+03 -0.46098968500E+03  0.72424765985E+03  0.46999998093E+01 0. -1.
</event>
<event>
 5   0  0.4598561E-03  0.1024528E+04  0.7818609E-02  0.9282045E-01
        1   -1    0    0  501    0  0.00000000000E+00  0.00000000000E+00  0.59471082454E+03  0.59471082456E+03  0.50400001928E-02 0.  1.
       -1   -1    0    0    0  501  0.00000000000E+00  0.00000000000E+00 -0.44124687471E+03  0.44124687473E+03  0.50400001928E-02 0. -1.
    10030    2    1    2    0    0  0.00000000000E+00  0.00000000000E+00  0.15346394983E+03  0.10359576993E+04  0.10245277794E+04 0.  0.
        2    1    3    3  502    0 -0.62225263636E+02  0.36319530505E+03 -0.28309119457E+03  0.46467562610E+03  0.25500000920E-02 0. -1.
       -2    1    3    3    0  502  0.62225263636E+02 -0.36319530505E+03  0.43655514440E+03  0.57128207319E+03  0.25500000920E-02 0.  1.
</event>
<event>
 5   0  0.4598561E-03  0.9836656E+03  0.7818609E-02  0.9326644E-01
       -1   -1    0    0    0  501  0.00000000000E+00  0.00000000000E+00  0.25179976284E+03  0.25179976289E+03  0.50400001928E-02 0.  1.
        1   -1    0    0  501    0  0.00000000000E+00  0.00000000000E+00 -0.96068195920E+03  0.96068195921E+03  0.50400001928E-02 0. -1.
    10030    2    1    2    0    0  0.00000000000E+00  0.00000000000E+00 -0.70888219636E+03  0.12124817221E+04  0.98366557230E+03 0.  0.
        2    1    3    3  502    0  0.18548111773E+01  0.49030918673E+03 -0.40206779357E+03  0.63408599539E+03  0.25500000920E-02 0. -1.
       -2    1    3    3    0  502 -0.18548111773E+01 -0.49030918673E+03 -0.30681440279E+03  0.57839572672E+03  0.25500000920E-02 0.  1.
</event>
<event>
 5   0  0.2992375E-03  0.1089458E+04  0.7818609E-02  0.9215528E-01
       -4   -1    0    0    0  501  0.00000000000E+00  0.00000000000E+00  0.57530474309E+03  0.57530614487E+03  0.12699999809E+01 0.  1.
        4   -1    0    0  501    0  0.00000000000E+00  0.00000000000E+00 -0.51577577636E+03  0.51577733992E+03  0.12699999809E+01 0. -1.
    10030    2    1    2    0    0  0.00000000000E+00  0.00000000000E+00  0.59528966732E+02  0.10910834848E+04  0.10894583392E+04 0.  0.
        4    1    3    3  502    0 -0.24853632352E+03  0.19564664132E+03 -0.41438364163E+03  0.52130924385E+03  0.12699999809E+01 0. -1.
       -4    1    3    3    0  502  0.24853632352E+03 -0.19564664132E+03  0.47391260836E+03  0.56977424094E+03  0.12699999809E+01 0.  1.
</event>
<event>
 5   0  0.4504740E-03  0.1098831E+04  0.7818609E-02  0.9206332E-01
       -1   -1    0    0    0  501  0.00000000000E+00  0.00000000000E+00  0.36972967325E+03  0.36972967329E+03  0.50400001928E-02 0. -1.
        1   -1    0    0  501    0  0.00000000000E+00  0.00000000000E+00 -0.81642687278E+03  0.81642687279E+03  0.50400001928E-02 0.  1.
    10030    2    1    2    0    0  0.00000000000E+00  0.00000000000E+00 -0.44669719952E+03  0.11861565461E+04  0.10988307257E+04 0.  0.
        5    1    3    3  502    0 -0.45291679896E+03  0.29632871841E+03 -0.32513318172E+03  0.63140954379E+03  0.46999998093E+01 0.  1.
       -5    1    3    3    0  502  0.45291679896E+03 -0.29632871841E+03 -0.12156401780E+03  0.55474700229E+03  0.46999998093E+01 0. -1.
</event>
<event>
 5   0  0.7952121E-03  0.1105334E+04  0.7818609E-02  0.9200009E-01
        2   -1    0    0  501    0  0.00000000000E+00  0.00000000000E+00  0.75096143632E+03  0.75096143633E+03  0.25500000920E-02 0.  1.
       -2   -1    0    0    0  501  0.00000000000E+00  0.00000000000E+00 -0.40673265396E+03  0.40673265397E+03  0.25500000920E-02 0. -1.
    10030    2    1    2    0    0  0.00000000000E+00  0.00000000000E+00  0.34422878237E+03  0.11576940903E+04  0.11053335027E+04 0.  0.
        3    1    3    3  502    0 -0.51076183312E+03 -0.48261621478E+02 -0.43129093664E+02  0.51484654335E+03  0.10100000352E+00 0. -1.
       -3    1    3    3    0  502  0.51076183312E+03  0.48261621478E+02  0.38735787603E+03  0.64284754694E+03  0.10100000352E+00 0.  1.
</event>
<event>
 5   0  0.4641021E-03  0.9483632E+03  0.7818609E-02  0.9367066E-01
        1   -1    0    0  501    0  0.00000000000E+00  0.00000000000E+00  0.89806581878E+03  0.89806581879E+03  0.50400001928E-02 0. -1.
       -1   -1    0    0    0  501  0.00000000000E+00  0.00000000000E+00 -0.25036939864E+03  0.25036939869E+03  0.50400001928E-02 0.  1.
    10030    2    1    2    0    0  0.00000000000E+00  0.00000000000E+00  0.64769642013E+03  0.11484352175E+04  0.94836321950E+03 0.  0.
        1    1    3    3  502    0  0.21586430420E+03  0.11578357329E+03 -0.16781718613E+03  0.29692733396E+03  0.50400001928E-02 0.  1.
       -1    1    3    3    0  502 -0.21586430420E+03 -0.11578357329E+03  0.81551360626E+03  0.85150788352E+03  0.50400001928E-02 0. -1.
</event>
<event>
 5   0  0.4598561E-03  0.1104112E+04  0.7818609E-02  0.9201193E-01
        1   -1    0    0  501    0  0.00000000000E+00  0.00000000000E+00  0.40645514919E+03  0.40645514922E+03  0.50400001928E-02 0. -1.
       -1   -1    0    0    0  501  0.00000000000E+00  0.00000000000E+00 -0.74981458812E+03  0.74981458814E+03  0.50400001928E-02 0.  1.
    10030    2    1    2    0    0  0.00000000000E+00  0.00000000000E+00 -0.34335943893E+03  0.11562697374E+04  0.11041123137E+04 0.  0.
        2    1    3    3  502    0 -0.76443224977E+02 -0.30833552904E+03 -0.64450752212E+03  0.71854318672E+03  0.25500000920E-02 0.  1.
       -2    1    3    3    0  502  0.76443224977E+02  0.30833552904E+03  0.30114808319E+03  0.43772655063E+03  0.25500000920E-02 0. -1.
</event>
<event>
 5   0  0.4504740E-03  0.1116501E+04  0.7818609E-02  0.9189257E-01
        1   -1    0    0  501    0  0.00000000000E+00  0.00000000000E+00  0.96047052814E+03  0.96047052815E+03  0.50400001928E-02 0. -1.
       -1   -1    0    0    0  501  0.00000000000E+00  0.00000000000E+00 -0.32446963107E+03  0.32446963111E+03  0.50400001928E-02 0.  1.
    10030    2    1    2    0    0  0.00000000000E+00  0.00000000000E+00  0.63600089707E+03  0.12849401593E+04  0.11165008159E+04 0.  0.
        5    1    3    3  502    0  0.81035592935E+01  0.44391565029E+03 -0.71417949320E+02  0.44972145349E+03  0.46999998093E+01 0.  1.
       -5    1    3    3    0  502 -0.81035592935E+01 -0.44391565029E+03  0.70741884639E+03  0.83521870577E+03  0.46999998093E+01 0. -1.
</event>
<event>
 5   0  0.7712816E-03  0.1043347E+04  0.7818609E-02  0.9262240E-01
        2   -1    0    0  501    0  0.00000000000E+00  0.00000000000E+00  0.56831654993E+03  0.56831654994E+03  0.25500000920E-02 0. -1.
       -2   -1    0    0    0  501  0.00000000000E+00  0.00000000000E+00 -0.47885867857E+03  0.47885867857E+03  0.25500000920E-02 0.  1.
    10030    2    1    2    0    0  0.00000000000E+00  0.00000000000E+00  0.89457871367E+02  0.10471752285E+04  0.10433471371E+04 0.  0.
        2    1    3    3  502    0  0.44618295509E+03 -0.19527547425E+02  0.31531550073E+03  0.54670322802E+03  0.25500000920E-02 0. -1.
       -2    1    3    3    0  502 -0.44618295509E+03  0.19527547425E+02 -0.22585762936E+03  0.50047200049E+03  0.25500000920E-02 0.  1.
</event>
<event>
 5   0  0.7738497E-03  0.1071485E+04  0.7818609E-02  0.9233439E-01
        2   -1    0    0  501    0  0.00000000000E+00  0.00000000000E+00  0.66682872258E+03  0.66682872259E+03  0.25500000920E-02 0.  1.
       -2   -1    0    0    0  501  0.00000000000E+00  0.00000000000E+00 -0.43042563431E+03  0.43042563432E+03  0.25500000920E-02 0. -1.
    10030    2    1    2    0    0  0.00000000000E+00  0.00000000000E+00  0.23640308827E+03  0.10972543569E+04  0.10714852792E+04 0.  0.
        4    1    3    3  502    0  0.18636518167E+03  0.10248597889E+03 -0.38533868286E+03  0.44013960310E+03  0.12699999809E+01 0. -1.
       -4    1    3    3    0  502 -0.18636518167E+03 -0.10248597889E+03  0.62174177113E+03  0.65711475381E+03  0.12699999809E+01 0.  1.
</event>
<event>
 5   0  0.4298101E-03  0.1155730E+04  0.7818609E-02  0.9152513E-01
       -1   -1    0    0    0  501  0.00000000000E+00  0.00000000000E+00  0.38464571600E+03  0.38464571603E+03  0.50400001928E-02 0. -1.
        1   -1    0    0  501    0  0.00000000000E+00  0.00000000000E+00 -0.86814455188E+03  0.86814455190E+03  0.50400001928E-02 0.  1.
    10030    2    1    2    0    0  0.00000000000E+00  0.00000000000E+00 -0.48349883588E+03  0.12527902679E+04  0.11557302155E+04 0.  0.
        3    1    3    3  502    0  0.30746723650E+03  0.47023475184E+03 -0.38827249281E+03  0.68294389391E+03  0.10100000352E+00 0.  1.
       -3    1    3    3    0  502 -0.30746723650E+03 -0.47023475184E+03 -0.95226343074E+02  0.56984637401E+03  0.10100000352E+00 0. -1.
</event>
<event>
 5   0  0.7712816E-03  0.1063801E+04  0.7818609E-02  0.9241211E-01
       -2   -1    0    0    0  501  0.00000000000E+00  0.00000000000E+00  0.73636219770E+03  0.73636219770E+03  0.25500000920E-02 0.  1.
        2   -1    0    0  501    0  0.00000000000E+00  0.00000000000E+00 -0.38421023687E+03  0.38421023688E+03  0.25500000920E-02 0. -1.
    10030    2    1    2    0    0  0.00000000000E+00  0.00000000000E+00  0.35215196083E+03  0.11205724346E+04  0.10638005347E+04 0.  0.
        2    1    3    3  502    0  0.88897168292E+02 -0.27208695420E+03 -0.29616137772E+03  0.41188053952E+03  0.25500000920E-02 0. -1.
       -2    1    3    3    0  502 -0.88897168292E+02  0.27208695420E+03  0.64831333855E+03  0.70869189506E+03  0.25500000920E-02 0.  1.
</event>
<event>
 5   0  0.4504740E-03  0.1065421E+04  0.7818609E-02  0.9239566E-01
        1   -1    0    0  501    0  0.00000000000E+00  0.00000000000E+00  0.77110220632E+03  0.77110220633E+03  0.50400001928E-02 0. -1.
       -1   -1    0    0    0  501  0.00000000000E+00  0.00000000000E+00 -0.36801924092E+03  0.36801924096E+03  0.50400001928E-02 0.  1.
    10030    2    1    2    0    0  0.00000000000E+00  0.00000000000E+00  0.40308296540E+03  0.11391214473E+04  0.10654209472E+04 0.  0.
        5    1    3    3  502    0  0.22933607792E+02  0.25080939856E+03  0.70340163179E+03  0.74714607031E+03  0.46999998093E+01 0. -1.
       -5    1    3    3    0  502 -0.22933607792E+02 -0.25080939856E+03 -0.30031866640E+03  0.39197537698E+03  0.46999998093E+01 0.  1.
</event>
<event>
 5   0  0.2992375E-03  0.1109163E+04  0.7818609E-02  0.9196306E-01
        3   -1    0    0  501    0  0.00000000000E+00  0.00000000000E+00  0.29173981619E+03  0.29173983367E+03  0.10100000352E+00 0.  1.
       -3   -1    0    0    0  501  0.00000000000E+00  0.00000000000E+00 -0.10542300736E+04  0.10542300784E+04  0.10100000352E+00 0. -1.
    10030    2    1    2    0    0  0.00000000000E+00  0.00000000000E+00 -0.76249025738E+03  0.13459699121E+04  0.11091634738E+04 0.  0.
        1    1    3    3  502    0  0.49629995307E+03  0.50745557317E+02 -0.87307093997E+02  0.50646943016E+03  0.50400001928E-02 0. -1.
       -1    1    3    3    0  502 -0.49629995307E+03 -0.50745557317E+02 -0.67518316338E+03  0.83950048192E+03  0.50400001928E-02 0.  1.
</event>
<event>
 5   0  0.4428114E-03  0.1103907E+04  0.7818609E-02  0.9201392E-01
       -1   -1    0    0    0  501  0.00000000000E+00  0.00000000000E+00  0.43310854305E+03  0.43310854307E+03  0.50400001928E-02 0.  1.
        1   -1    0    0  501    0  0.00000000000E+00  0.00000000000E+00 -0.70340984041E+03  0.70340984043E+03  0.50400001928E-02 0. -1.
    10030    2    1    2    0    0  0.00000000000E+00  0.00000000000E+00 -0.27030129737E+03  0.11365183835E+04  0.11039072627E+04 0.  0.
        4    1    3    3  502    0 -0.34911035419E+03 -0.84774831541E+02 -0.56655974236E+03  0.67086240470E+03  0.12699999809E+01 0. -1.
       -4    1    3    3    0  502  0.34911035419E+03  0.84774831541E+02  0.29625844500E+03  0.46565597881E+03  0.12699999809E+01 0.  1.
</event>
<event>
 5   0  0.4598561E-03  0.1099178E+04  0.7818609E-02  0.9205993E-01
       -1   -1    0    0    0  501  0.00000000000E+00  0.00000000000E+00  0.49407304584E+03  0.49407304586E+03  0.50400001928E-02 0.  1.
        1   -1    0    0  501    0  0.00000000000E+00  0.00000000000E+00 -0.61134331462E+03  0.61134331464E+03  0.50400001928E-02 0. -1.
    10030    2    1    2    0    0  0.00000000000E+00  0.00000000000E+00 -0.11727026878E+03  0.11054163605E+04  0.10991783359E+04 0.  0.
        2    1    3    3  502    0 -0.31740357626E+03  0.32251721512E+03  0.25504181792E+03  0.51943114381E+03  0.25500000920E-02 0. -1.
       -2    1    3    3    0  502  0.31740357626E+03 -0.32251721512E+03 -0.37231208670E+03  0.58598521669E+03  0.25500000920E-02 0.  1.
</event>
<event>
 5   0  0.4504740E-03  0.1070953E+04  0.7818609E-02  0.9233975E-01
        1   -1    0    0  501    0  0.00000000000E+00  0.00000000000E+00  0.15032853877E+04  0.15032853877E+04  0.50400001928E-02 0. -1.
       -1   -1    0    0    0  501  0.00000000000E+00  0.00000000000E+00 -0.19073898993E+03  0.19073899000E+03  0.50400001928E-02 0.  1.
    10030    2    1    2    0    0  0.00000000000E+00  0.00000000000E+00  0.13125463977E+04  0.16940243777E+04  0.10709531017E+04 0.  0.
        5    1    3    3  502    0  0.51235518935E+03 -0.15099483744E+03  0.59696624155E+03  0.80106058730E+03  0.46999998093E+01 0. -1.
       -5    1    3    3    0  502 -0.51235518935E+03  0.15099483744E+03  0.71558015617E+03  0.89296379036E+03  0.46999998093E+01 0.  1.
</event>
<event>
 5   0  0.4641021E-03  0.1184836E+04  0.7818609E-02  0.9126234E-01
       -1   -1    0    0    0  501  0.00000000000E+00  0.00000000000E+00  0.52775576799E+03  0.52775576801E+03  0.50400001928E-02 0. -1.
        1   -1    0    0  501    0  0.00000000000E+00  0.00000000000E+00 -0.66500230406E+03  0.66500230408E+03  0.50400001928E-02 0.  1.
    10030    2    1    2    0    0  0.00000000000E+00  0.00000000000E+00 -0.13724653607E+03  0.11927580721E+04  0.11848355189E+04 0.  0.
        1    1    3    3  502    0  0.11558236340E+03 -0.38773719247E+03  0.36700504654E+03  0.54625279621E+03  0.50400001928E-02 0. -1.
       -1    1    3    3    0  502 -0.11558236340E+03  0.38773719247E+03 -0.50425158261E+03  0.64650527588E+03  0.50400001928E-02 0.  1.
</event>
<event>
 5   0  0.7952121E-03  0.1084288E+04  0.7818609E-02  0.9220643E-01
       -2   -1    0    0    0  501  0.00000000000E+00  0.00000000000E+00  0.87287100803E+03  0.87287100803E+03  0.25500000920E-02 0. -1.
        2   -1    0    0  501    0  0.00000000000E+00  0.00000000000E+00 -0.33672804695E+03  0.33672804696E+03  0.25500000920E-02 0.  1.
    10030    2    1    2    0    0  0.00000000000E+00  0.00000000000E+00  0.53614296108E+03  0.12095990550E+04  0.10842880609E+04 0.  0.
        3    1    3    3  502    0  0.62995962601E+02  0.25962894094E+03  0.79433729298E+03  0.83806170626E+03  0.10100000352E+00 0. -1.
       -3    1    3    3    0  502 -0.62995962601E+02 -0.25962894094E+03 -0.25819433189E+03  0.37153734873E+03  0.10100000352E+00 0.  1.
</event>
<event>
 5   0  0.7952121E-03  0.1043527E+04  0.7818609E-02  0.9262052E-01
        2   -1    0    0  501    0  0.00000000000E+00  0.00000000000E+00  0.42018984983E+03  0.42018984984E+03  0.25500000920E-02 0.  1.
       -2   -1    0    0    0  501  0.00000000000E+00  0.00000000000E+00 -0.64789115935E+03  0.64789115936E+03  0.25500000920E-02 0. -1.
    10030    2    1    2    0    0  0.00000000000E+00  0.00000000000E+00 -0.22770130952E+03  0.10680810092E+04  0.10435272665E+04 0.  0.
        3    1    3    3  502    0 -0.74637945587E+02  0.43835337895E+03 -0.39324380156E+03  0.59360357598E+03  0.10100000352E+00 0. -1.
       -3    1    3    3    0  502  0.74637945587E+02 -0.43835337895E+03  0.16554249204E+03  0.47447743321E+03  0.10100000352E+00 0.  1.
</event>
<event>
 5   0  0.4504740E-03  0.1082504E+04  0.7818609E-02  0.9222414E-01
       -1   -1    0    0    0  501  0.00000000000E+00  0.00000000000E+00  0.21379149261E+03  0.21379149267E+03  0.50400001928E-02 0. -1.
        1   -1    0    0  501    0  0.00000000000E+00  0.00000000000E+00 -0.13702783877E+04  0.13702783877E+04  0.50400001928E-02 0.  1.
    10030    2    1    2    0    0  0.00000000000E+00  0.00000000000E+00 -0.11564868951E+04  0.15840698804E+04  0.10825042482E+04 0.  0.
        5    1    3    3  502    0 -0.51648142482E+03 -0.16077732387E+03 -0.55168630527E+03  0.77264628354E+03  0.46999998093E+01 0. -1.
       -5    1    3    3    0  502  0.51648142482E+03  0.16077732387E+03 -0.60480058981E+03  0.81142359683E+03  0.46999998093E+01 0.  1.
</event>
<event>
 5   0  0.4298101E-03  0.1069750E+04  0.7818609E-02  0.9235187E-01
        1   -1    0    0  501    0  0.00000000000E+00  0.00000000000E+00  0.61672807484E+03  0.61672807486E+03  0.50400001928E-02 0. -1.
       -1   -1    0    0    0  501  0.00000000000E+00  0.00000000000E+00 -0.46388593988E+03  0.46388593991E+03  0.50400001928E-02 0.  1.
    10030    2    1    2    0    0  0.00000000000E+00  0.00000000000E+00  0.15284213496E+03  0.10806140148E+04  0.10697504058E+04 0.  0.
        3    1    3    3  502    0 -0.47619394335E+02 -0.38787531074E+03  0.44533747575E+03  0.59248657445E+03  0.10100000352E+00 0. -1.
       -3    1    3    3    0  502  0.47619394335E+02  0.38787531074E+03 -0.29249534079E+03  0.48812744031E+03  0.10100000352E+00 0.  1.
</event>
<event>
 5   0  0.4298101E-03  0.7471947E+03  0.7818609E-02  0.9639762E-01
        1   -1    0    0  501    0  0.00000000000E+00  0.00000000000E+00  0.57165600778E+03  0.57165600781E+03  0.50400001928E-02 0. -1.
       -1   -1    0    0    0  501  0.00000000000E+00  0.00000000000E+00 -0.24415901868E+03  0.24415901873E+03  0.50400001928E-02 0.  1.
    10030    2    1    2    0    0  0.00000000000E+00  0.00000000000E+00  0.32749698910E+03  0.81581502654E+03  0.74719467320E+03 0.  0.
        3    1    3    3  502    0  0.28449407950E+03 -0.24211298944E+03  0.15894208013E+03  0.40597804862E+03  0.10100000352E+00 0.  1.
       -3    1    3    3    0  502 -0.28449407950E+03  0.24211298944E+03  0.16855490898E+03  0.40983697792E+03  0.10100000352E+00 0. -1.
</event>
<event>
 5   0  0.7712816E-03  0.1107620E+04  0.7818609E-02  0.9197797E-01
        2   -1    0    0  501    0  0.00000000000E+00  0.00000000000E+00  0.98061741867E+03  0.98061741868E+03  0.25500000920E-02 0.  1.
       -2   -1    0    0    0  501  0.00000000000E+00  0.00000000000E+00 -0.31276755355E+03  0.31276755356E+03  0.25500000920E-02 0. -1.
    10030    2    1    2    0    0  0.00000000000E+00  0.00000000000E+00  0.66784986512E+03  0.12933849722E+04  0.11076196297E+04 0.  0.
        2    1    3    3  502    0  0.46105714896E+02  0.48336161868E+03  0.64494340643E+03  0.80728940837E+03  0.25500000920E-02 0.  1.
       -2    1    3    3    0  502 -0.46105714896E+02 -0.48336161868E+03  0.22906458694E+02  0.48609556387E+03  0.25500000920E-02 0. -1.
</event>
<event>
 5   0  0.7712816E-03  0.1056030E+04  0.7818609E-02  0.9249140E-01
       -2   -1    0    0    0  501  0.00000000000E+00  0.00000000000E+00  0.35874134178E+03  0.35874134179E+03  0.25500000920E-02 0. -1.
        2   -1    0    0  501    0  0.00000000000E+00  0.00000000000E+00 -0.77716139091E+03  0.77716139091E+03  0.25500000920E-02 0.  1.
    10030    2    1    2    0    0  0.00000000000E+00  0.00000000000E+00 -0.41842004912E+03  0.11359027327E+04  0.10560301514E+04 0.  0.
        2    1    3    3  502    0 -0.26140307250E+03  0.16873099916E+03  0.24966918020E+03  0.39891905939E+03  0.25500000920E-02 0. -1.
       -2    1    3    3    0  502  0.26140307250E+03 -0.16873099916E+03 -0.66808922933E+03  0.73698367332E+03  0.25500000920E-02 0.  1.
</event>
<event>
 5   0  0.4428114E-03  0.1073314E+04  0.7818609E-02  0.9231600E-01
       -1   -1    0    0    0  501  0.00000000000E+00  0.00000000000E+00  0.10762817472E+04  0.10762817472E+04  0.50400001928E-02 0. -1.
        1   -1    0    0  501    0  0.00000000000E+00  0.00000000000E+00 -0.26758853592E+03  0.26758853597E+03  0.50400001928E-02 0.  1.
    10030    2    1    2    0    0  0.00000000000E+00  0.00000000000E+00  0.80869321132E+03  0.13438702832E+04  0.10733138535E+04 0.  0.
        4    1    3    3  502    0  0.47078747946E+03  0.88899406391E+02  0.10162614325E+03  0.48976876295E+03  0.12699999809E+01 0.  1.
       -4    1    3    3    0  502 -0.47078747946E+03 -0.88899406391E+02  0.70706706806E+03  0.85410152026E+03  0.12699999809E+01 0. -1.
</event>
<event>
 5   0  0.7537480E-03  0.1062174E+04  0.7818609E-02  0.9242864E-01
        2   -1    0    0  501    0  0.00000000000E+00  0.00000000000E+00  0.15092222615E+04  0.15092222615E+04  0.25500000920E-02 0.  1.
       -2   -1    0    0    0  501  0.00000000000E+00  0.00000000000E+00 -0.18688669492E+03  0.18688669493E+03  0.25500000920E-02 0. -1.
    10030    2    1    2    0    0  0.00000000000E+00  0.00000000000E+00  0.13223355666E+04  0.16961089564E+04  0.10621742990E+04 0.  0.
        1    1    3    3  502    0 -0.25200752182E+03 -0.99146945277E+02 -0.68349303991E+02  0.27930187109E+03  0.50400001928E-02 0. -1.
       -1    1    3    3    0  502  0.25200752182E+03  0.99146945277E+02  0.13906848705E+04  0.14168070853E+04  0.50400001928E-02 0.  1.
</event>
<event>
 5   0  0.2992375E-03  0.1154983E+04  0.7818609E-02  0.9153199E-01
        3   -1    0    0  501    0  0.00000000000E+00  0.00000000000E+00  0.14060084256E+04  0.14060084292E+04  0.10100000352E+00 0. -1.
       -3   -1    0    0    0  501  0.00000000000E+00  0.00000000000E+00 -0.23719375499E+03  0.23719377649E+03  0.10100000352E+00 0.  1.
    10030    2    1    2    0    0  0.00000000000E+00  0.00000000000E+00  0.11688146706E+04  0.16432022057E+04  0.11549830105E+04 0.  0.
        4    1    3    3  502    0 -0.10247686271E+03  0.44022286252E+02  0.13905378732E+04  0.13950041788E+04  0.12699999809E+01 0. -1.
       -4    1    3    3    0  502  0.10247686271E+03 -0.44022286252E+02 -0.22172320263E+03  0.24819802691E+03  0.12699999809E+01 0.  1.
</event>
<event>
 5   0  0.7766551E-03  0.1141396E+04  0.7818609E-02  0.9165758E-01
       -2   -1    0    0    0  501  0.00000000000E+00  0.00000000000E+00  0.41292292131E+03  0.41292292132E+03  0.25500000920E-02 0. -1.
        2   -1    0    0  501    0  0.00000000000E+00  0.00000000000E+00 -0.78875816967E+03  0.78875816967E+03  0.25500000920E-02 0.  1.
    10030    2    1    2    0    0  0.00000000000E+00  0.00000000000E+00 -0.37583524836E+03  0.12016810910E+04  0.11413962110E+04 0.  0.
        5    1    3    3  502    0 -0.55904410638E+03 -0.10831563724E+03 -0.14836129976E+03  0.58846899274E+03  0.46999998093E+01 0.  1.
       -5    1    3    3    0  502  0.55904410638E+03  0.10831563724E+03 -0.22747394860E+03  0.61321209825E+03  0.46999998093E+01 0. -1.
</event>
<event>
 5   0  0.7766551E-03  0.1111394E+04  0.7818609E-02  0.9194157E-01
        2   -1    0    0  501    0  0.00000000000E+00  0.00000000000E+00  0.20025804732E+04  0.20025804732E+04  0.25500000920E-02 0.  1.
       -2   -1    0    0    0  501  0.00000000000E+00  0.00000000000E+00 -0.15420059029E+03  0.15420059031E+03  0.25500000920E-02 0. -1.
    10030    2    1    2    0    0  0.00000000000E+00  0.00000000000E+00  0.18483798829E+04  0.21567810635E+04  0.11113938835E+04 0.  0.
        5    1    3    3  502    0  0.17810381259E+03 -0.32632864362E+03  0.12272626279E+03  0.39152928023E+03  0.46999998093E+01 0. -1.
       -5    1    3    3    0  502 -0.17810381259E+03  0.32632864362E+03  0.17256536202E+04  0.17652517833E+04  0.46999998093E+01 0.  1.
</event>
<event>
 5   0  0.7712816E-03  0.1033959E+04  0.7818609E-02  0.9272063E-01
       -2   -1    0    0    0  501  0.00000000000E+00  0.00000000000E+00  0.22453358421E+03  0.22453358422E+03  0.25500000920E-02 0.  1.
        2   -1    0    0  501    0  0.00000000000E+00  0.00000000000E+00 -0.11903250967E+04  0.11903250967E+04  0.25500000920E-02 0. -1.
    10030    2    1    2    0    0  0.00000000000E+00  0.00000000000E+00 -0.96579151253E+03  0.14148586810E+04  0.10339593036E+04 0.  0.
        2    1    3    3  502    0  0.54376288954E+02 -0.18904349004E+03 -0.11371142008E+04  0.11540030016E+04  0.25500000920E-02 0. -1.
       -2    1    3    3    0  502 -0.54376288954E+02  0.18904349004E+03  0.17132268830E+03  0.26085567937E+03  0.25500000920E-02 0.  1.
</event>
<event>
 5   0  0.4504740E-03  0.9540967E+03  0.7818609E-02  0.9360375E-01
        1   -1    0    0  501    0  0.00000000000E+00  0.00000000000E+00  0.29717757791E+03  0.29717757795E+03  0.50400001928E-02 0. -1.
       -1   -1    0    0    0  501  0.00000000000E+00  0.00000000000E+00 -0.76578831989E+03  0.76578831991E+03  0.50400001928E-02 0.  1.
    10030    2    1    2    0    0  0.00000000000E+00  0.00000000000E+00 -0.46861074198E+03  0.10629658979E+04  0.95409667881E+03 0.  0.
        5    1    3    3  502    0 -0.44992438092E+03  0.15842041379E+03 -0.23976927775E+03  0.53389172367E+03  0.46999998093E+01 0.  1.
       -5    1    3    3    0  502  0.44992438092E+03 -0.15842041379E+03 -0.22884146424E+03  0.52907417420E+03  0.46999998093E+01 0. -1.
</event>
<event>
 5   0  0.7952121E-03  0.1087351E+04  0.7818609E-02  0.9217609E-01
        2   -1    0    0  501    0  0.00000000000E+00  0.00000000000E+00  0.83297321675E+03  0.83297321676E+03  0.25500000920E-02 0. -1.
       -2   -1    0    0    0  501  0.00000000000E+00  0.00000000000E+00 -0.35485303408E+03  0.35485303409E+03  0.25500000920E-02 0.  1.
    10030    2    1    2    0    0  0.00000000000E+00  0.00000000000E+00  0.47812018267E+03  0.11878262508E+04  0.10873510441E+04 0.  0.
        3    1    3    3  502    0 -0.61924183788E+02 -0.10084081220E+03 -0.34061378460E+03  0.36058457316E+03  0.10100000352E+00 0.  1.
       -3    1    3    3    0  502  0.61924183788E+02  0.10084081220E+03  0.81873396727E+03  0.82724167769E+03  0.10100000352E+00 0. -1.
</event>
<event>
 5   0  0.4298101E-03  0.1146893E+04  0.7818609E-02  0.9160655E-01
       -1   -1    0    0    0  501  0.00000000000E+00  0.00000000000E+00  0.31853106224E+03  0.31853106228E+03  0.50400001928E-02 0. -1.
        1   -1    0    0  501    0  0.00000000000E+00  0.00000000000E+00 -0.10323665104E+04  0.10323665104E+04  0.50400001928E-02 0.  1.
    10030    2    1    2    0    0  0.00000000000E+00  0.00000000000E+00 -0.71383544814E+03  0.13508975727E+04  0.11468928480E+04 0.  0.
        3    1    3    3  502    0 -0.58330917972E+02 -0.54569763844E+03 -0.16104865738E+03  0.57194850191E+03  0.10100000352E+00 0.  1.
       -3    1    3    3    0  502  0.58330917972E+02  0.54569763844E+03 -0.55278679076E+03  0.77894907076E+03  0.10100000352E+00 0. -1.
</event>
<event>
 5   0  0.7738497E-03  0.1122259E+04  0.7818609E-02  0.9183764E-01
       -2   -1    0    0    0  501  0.00000000000E+00  0.00000000000E+00  0.17077536517E+03  0.17077536519E+03  0.25500000920E-02 0.  1.
        2   -1    0    0  501    0  0.00000000000E+00  0.00000000000E+00 -0.18437470814E+04  0.18437470814E+04  0.25500000920E-02 0. -1.
    10030    2    1    2    0    0  0.00000000000E+00  0.00000000000E+00 -0.16729717162E+04  0.20145224466E+04  0.11222594729E+04 0.  0.
        4    1    3    3  502    0  0.38746253200E+03  0.15264016432E+03 -0.16139377926E+03  0.44662713571E+03  0.12699999809E+01 0.  1.
       -4    1    3    3    0  502 -0.38746253200E+03 -0.15264016432E+03 -0.15115779369E+04  0.15678953109E+04  0.12699999809E+01 0. -1.
</event>
<event>
 5   0  0.4598561E-03  0.1095257E+04  0.7818609E-02  0.9209827E-01
        1   -1    0    0  501    0  0.00000000000E+00  0.00000000000E+00  0.47045793039E+03  0.47045793042E+03  0.50400001928E-02 0. -1.
       -1   -1    0    0    0  501  0.00000000000E+00  0.00000000000E+00 -0.63745714458E+03  0.63745714460E+03  0.50400001928E-02 0.  1.
    10030    2    1    2    0    0  0.00000000000E+00  0.00000000000E+00 -0.16699921419E+03  0.11079150750E+04  0.10952566256E+04 0.  0.
        2    1    3    3  502    0 -0.11181642193E+03  0.39935472246E+03  0.27827848075E+03  0.49942568959E+03  0.25500000920E-02 0. -1.
       -2    1    3    3    0  502  0.11181642193E+03 -0.39935472246E+03 -0.44527769494E+03  0.60848938543E+03  0.25500000920E-02 0.  1.
</event>
<event>
 5   0  0.4641021E-03  0.1096837E+04  0.7818609E-02  0.9208280E-01
       -1   -1    0    0    0  501  0.00000000000E+00  0.00000000000E+00  0.71323947517E+03  0.71323947519E+03  0.50400001928E-02 0.  1.
        1   -1    0    0  501    0  0.00000000000E+00  0.00000000000E+00 -0.42168575796E+03  0.42168575799E+03  0.50400001928E-02 0. -1.
    10030    2    1    2    0    0  0.00000000000E+00  0.00000000000E+00  0.29155371721E+03  0.11349252332E+04  0.10968371415E+04 0.  0.
        1    1    3    3  502    0  0.12668116153E+03 -0.35462083680E+03 -0.26676449831E+03  0.46148385905E+03  0.50400001928E-02 0. -1.
       -1    1    3    3    0  502 -0.12668116153E+03  0.35462083680E+03  0.55831821552E+03  0.67344137413E+03  0.50400001928E-02 0.  1.
</event>
<event>
 5   0  0.7766551E-03  0.1105000E+04  0.7818609E-02  0.9200332E-01
       -2   -1    0    0    0  501  0.00000000000E+00  0.00000000000E+00  0.18522221184E+03  0.18522221185E+03  0.25500000920E-02 0.  1.
        2   -1    0    0  501    0  0.00000000000E+00  0.00000000000E+00 -0.16480544812E+04  0.16480544812E+04  0.25500000920E-02 0. -1.
    10030    2    1    2    0    0  0.00000000000E+00  0.00000000000E+00 -0.14628322694E+04  0.18332766931E+04  0.11050000837E+04 0.  0.
        5    1    3    3  502    0  0.16460279805E+03 -0.19605161934E+03 -0.15436914308E+04  0.15647797423E+04  0.46999998093E+01 0. -1.
       -5    1    3    3    0  502 -0.16460279805E+03  0.19605161934E+03  0.80859161398E+02  0.26849695073E+03  0.46999998093E+01 0.  1.
</event>
<event>
 5   0  0.4504740E-03  0.1107413E+04  0.7818609E-02  0.9197997E-01
       -1   -1    0    0    0  501  0.00000000000E+00  0.00000000000E+00  0.16762435493E+03  0.16762435500E+03  0.50400001928E-02 0. -1.
        1   -1    0    0  501    0  0.00000000000E+00  0.00000000000E+00 -0.18290358989E+04  0.18290358990E+04  0.50400001928E-02 0.  1.
    10030    2    1    2    0    0  0.00000000000E+00  0.00000000000E+00 -0.16614115440E+04  0.19966602540E+04  0.11074131348E+04 0.  0.
        5    1    3    3  502    0 -0.22375312472E+03  0.49865890912E+03 -0.99037727862E+03  0.11311920317E+04  0.46999998093E+01 0. -1.
       -5    1    3    3    0  502  0.22375312472E+03 -0.49865890912E+03 -0.67103426539E+03  0.86546822230E+03  0.46999998093E+01 0.  1.
</event>
<event>
 5   0  0.7952121E-03  0.1118033E+04  0.7818609E-02  0.9187791E-01
       -2   -1    0    0    0  501  0.00000000000E+00  0.00000000000E+00  0.39143812364E+03  0.39143812365E+03  0.25500000920E-02 0. -1.
        2   -1    0    0  501    0  0.00000000000E+00  0.00000000000E+00 -0.79833729936E+03  0.79833729937E+03  0.25500000920E-02 0.  1.
    10030    2    1    2    0    0  0.00000000000E+00  0.00000000000E+00 -0.40689917572E+03  0.11897754230E+04  0.11180333707E+04 0.  0.
        3    1    3    3  502    0  0.36824345391E+03  0.14288887351E+03 -0.62440732665E+03  0.73885383622E+03  0.10100000352E+00 0.  1.
       -3    1    3    3    0  502 -0.36824345391E+03 -0.14288887351E+03  0.21750815092E+03  0.45092158680E+03  0.10100000352E+00 0. -1.
</event>
<event>
 5   0  0.7537480E-03  0.1098887E+04  0.7818609E-02  0.9206277E-01
        2   -1    0    0  501    0  0.00000000000E+00  0.00000000000E+00  0.84377186458E+03  0.84377186459E+03  0.25500000920E-02 0. -1.
       -2   -1    0    0    0  501  0.00000000000E+00  0.00000000000E+00 -0.35778432264E+03  0.35778432265E+03  0.25500000920E-02 0.  1.
    10030    2    1    2    0    0  0.00000000000E+00  0.00000000000E+00  0.48598754194E+03  0.12015561872E+04  0.10988873373E+04 0.  0.
        1    1    3    3  502    0  0.46199724019E+03  0.84770261682E+02 -0.68702583780E+02  0.47470779671E+03  0.50400001928E-02 0.  1.
       -1    1    3    3    0  502 -0.46199724019E+03 -0.84770261682E+02  0.55469012572E+03  0.72684839053E+03  0.50400001928E-02 0. -1.
</event>
<event>
 5   0  0.4598561E-03  0.1115218E+04  0.7818609E-02  0.9190485E-01
       -1   -1    0    0    0  501  0.00000000000E+00  0.00000000000E+00  0.11403714334E+04  0.11403714334E+04  0.50400001928E-02 0. -1.
        1   -1    0    0  501    0  0.00000000000E+00  0.00000000000E+00 -0.27265494443E+03  0.27265494447E+03  0.50400001928E-02 0.  1.
    10030    2    1    2    0    0  0.00000000000E+00  0.00000000000E+00  0.86771648899E+03  0.14130263779E+04  0.11152182026E+04 0.  0.
        2    1    3    3  502    0 -0.46400554168E+03 -0.30460709000E+03  0.36632026911E+03  0.66503921805E+03  0.25500000920E-02 0.  1.
       -2    1    3    3    0  502  0.46400554168E+03  0.30460709000E+03  0.50139621988E+03  0.74798715985E+03  0.25500000920E-02 0. -1.
</event>
<event>
 5   0  0.4598561E-03  0.1108578E+04  0.7818609E-02  0.9196871E-01
        1   -1    0    0  501    0  0.00000000000E+00  0.00000000000E+00  0.67754630810E+03  0.67754630812E+03  0.50400001928E-02 0.  1.
       -1   -1    0    0    0  501  0.00000000000E+00  0.00000000000E+00 -0.45345426442E+03  0.45345426445E+03  0.50400001928E-02 0. -1.
    10030    2    1    2    0    0  0.00000000000E+00  0.00000000000E+00  0.22409204368E+03  0.11310005726E+04  0.11085779409E+04 0.  0.
        2    1    3    3  502    0  0.28936991844E+03 -0.13847177333E+03 -0.34912217011E+03  0.47412621882E+03  0.25500000920E-02 0. -1.
       -2    1    3    3    0  502 -0.28936991844E+03  0.13847177333E+03  0.57321421379E+03  0.65687435374E+03  0.25500000920E-02 0.  1.
</event>
<event>
 5   0  0.7952121E-03  0.1092370E+04  0.7818609E-02  0.9212661E-01
        2   -1    0    0  501    0  0.00000000000E+00  0.00000000000E+00  0.16256409414E+04  0.16256409414E+04  0.25500000920E-02 0. -1.
       -2   -1    0    0    0  501  0.00000000000E+00  0.00000000000E+00 -0.18350788232E+03  0.18350788234E+03  0.25500000920E-02 0.  1.
    10030    2    1    2    0    0  0.00000000000E+00  0.00000000000E+00  0.14421330591E+04  0.18091488237E+04  0.10923697663E+04 0.  0.
        3    1    3    3  502    0 -0.41959722999E+03  0.25080197033E+03  0.31757792404E+03  0.58294014424E+03  0.10100000352E+00 0.  1.
       -3    1    3    3    0  502  0.41959722999E+03 -0.25080197033E+03  0.11245551350E+04  0.12262086795E+04  0.10100000352E+00 0. -1.
</event>
<event>
 5   0  0.7952121E-03  0.1135393E+04  0.7818609E-02  0.9171366E-01
        2   -1    0    0  501    0  0.00000000000E+00  0.00000000000E+00  0.16840350503E+04  0.16840350503E+04  0.25500000920E-02 0.  1.
       -2   -1    0    0    0  501  0.00000000000E+00  0.00000000000E+00 -0.19137318097E+03  0.19137318099E+03  0.25500000920E-02 0. -1.
    10030    2    1    2    0    0  0.00000000000E+00  0.00000000000E+00  0.14926618693E+04  0.18754082313E+04  0.11353926976E+04 0.  0.
        3    1    3    3  502    0 -0.16394317741E+03  0.41878887087E+03  0.13185631204E+04  0.13931511750E+04  0.10100000352E+00 0.  1.
       -3    1    3    3    0  502  0.16394317741E+03 -0.41878887087E+03  0.17409874900E+03  0.48225705633E+03  0.10100000352E+00 0. -1.
</event>
<event>
 5   0  0.4428114E-03  0.1101258E+04  0.7818609E-02  0.9203966E-01
       -1   -1    0    0    0  501  0.00000000000E+00  0.00000000000E+00  0.41283242793E+03  0.41283242796E+03  0.50400001928E-02 0. -1.
        1   -1    0    0  501    0  0.00000000000E+00  0.00000000000E+00 -0.73442026172E+03  0.73442026174E+03  0.50400001928E-02 0.  1.
    10030    2    1    2    0    0  0.00000000000E+00  0.00000000000E+00 -0.32158783379E+03  0.11472526897E+04  0.11012583708E+04 0.  0.
        4    1    3    3  502    0  0.32356479458E+02  0.51176534485E+03 -0.36977154849E+03  0.63220512567E+03  0.12699999809E+01 0. -1.
       -4    1    3    3    0  502 -0.32356479458E+02 -0.51176534485E+03  0.48183714705E+02  0.51504756403E+03  0.12699999809E+01 0.  1.
</event>
<event>
 5   0  0.4428114E-03  0.1118299E+04  0.7818609E-02  0.9187537E-01
       -1   -1    0    0    0  501  0.00000000000E+00  0.00000000000E+00  0.17966844490E+03  0.17966844497E+03  0.50400001928E-02 0.  1.
        1   -1    0    0  501    0  0.00000000000E+00  0.00000000000E+00 -0.17401407864E+04  0.17401407864E+04  0.50400001928E-02 0. -1.
    10030    2    1    2    0    0  0.00000000000E+00  0.00000000000E+00 -0.15604723415E+04  0.19198092314E+04  0.11182994037E+04 0.  0.
        4    1    3    3  502    0 -0.84784571483E+02 -0.11998057689E+03 -0.17064121075E+04  0.17127252132E+04  0.12699999809E+01 0. -1.
       -4    1    3    3    0  502  0.84784571483E+02  0.11998057689E+03  0.14593976600E+03  0.20708401819E+03  0.12699999809E+01 0.  1.
</event>
<event>
 5   0  0.4641021E-03  0.1093655E+04  0.7818609E-02  0.9211399E-01
       -1   -1    0    0    0  501  0.00000000000E+00  0.00000000000E+00  0.53833244064E+03  0.53833244066E+03  0.50400001928E-02 0.  1.
        1   -1    0    0  501    0  0.00000000000E+00  0.00000000000E+00 -0.55545626955E+03  0.55545626957E+03  0.50400001928E-02 0. -1.
    10030    2    1    2    0    0  0.00000000000E+00  0.00000000000E+00 -0.17123828907E+02  0.10937887102E+04  0.10936546608E+04 0.  0.
        1    1    3    3  502    0 -0.21734787862E+02 -0.29706804094E+03  0.45007722807E+03  0.53971412174E+03  0.50400001928E-02 0.  1.
       -1    1    3    3    0  502  0.21734787862E+02  0.29706804094E+03 -0.46720105698E+03  0.55407458850E+03  0.50400001928E-02 0. -1.
</event>
<event>
 5   0  0.4641021E-03  0.1084718E+04  0.7818609E-02  0.9220216E-01
       -1   -1    0    0    0  501  0.00000000000E+00  0.00000000000E+00  0.30108955954E+03  0.30108955958E+03  0.50400001928E-02 0. -1.
        1   -1    0    0  501    0  0.00000000000E+00  0.00000000000E+00 -0.97696250827E+03  0.97696250828E+03  0.50400001928E-02 0.  1.
    10030    2    1    2    0    0  0.00000000000E+00  0.00000000000E+00 -0.67587294874E+03  0.12780520679E+04  0.10847178644E+04 0.  0.
        1    1    3    3  502    0  0.13742965069E+03 -0.41722486882E+03  0.36863828365E+02  0.44082019227E+03  0.50400001928E-02 0. -1.
       -1    1    3    3    0  502 -0.13742965069E+03  0.41722486882E+03 -0.71273677710E+03  0.83723187559E+03  0.50400001928E-02 0.  1.
</event>
<event>
 5   0  0.4598561E-03  0.1103765E+04  0.7818609E-02  0.9201530E-01
       -1   -1    0    0    0  501  0.00000000000E+00  0.00000000000E+00  0.30119647183E+03  0.30119647187E+03  0.50400001928E-02 0.  1.
        1   -1    0    0  501    0  0.00000000000E+00  0.00000000000E+00 -0.10112142201E+04  0.10112142201E+04  0.50400001928E-02 0. -1.
    10030    2    1    2    0    0  0.00000000000E+00  0.00000000000E+00 -0.71001774829E+03  0.13124106920E+04  0.11037647492E+04 0.  0.
        2    1    3    3  502    0 -0.23784767846E+03  0.46906670697E+03 -0.15612030995E+03  0.54860609268E+03  0.25500000920E-02 0.  1.
       -2    1    3    3    0  502  0.23784767846E+03 -0.46906670697E+03 -0.55389743834E+03  0.76380459933E+03  0.25500000920E-02 0. -1.
</event>
<event>
 5   0  0.4504740E-03  0.1111139E+04  0.7818609E-02  0.9194402E-01
       -1   -1    0    0    0  501  0.00000000000E+00  0.00000000000E+00  0.50502854169E+03  0.50502854172E+03  0.50400001928E-02 0. -1.
        1   -1    0    0  501    0  0.00000000000E+00  0.00000000000E+00 -0.61116859483E+03  0.61116859485E+03  0.50400001928E-02 0.  1.
    10030    2    1    2    0    0  0.00000000000E+00  0.00000000000E+00 -0.10614005314E+03  0.11161971366E+04  0.11111392068E+04 0.  0.
        5    1    3    3  502    0 -0.11833603336E+02  0.41365169938E+03  0.31927572984E+03  0.52269192095E+03  0.46999998093E+01 0. -1.
       -5    1    3    3    0  502  0.11833603336E+02 -0.41365169938E+03 -0.42541578297E+03  0.59350521562E+03  0.46999998093E+01 0.  1.
</event>
<event>
 5   0  0.4598561E-03  0.1129210E+04  0.7818609E-02  0.9177180E-01
       -1   -1    0    0    0  501  0.00000000000E+00  0.00000000000E+00  0.26543307751E+03  0.26543307756E+03  0.50400001928E-02 0.  1.
        1   -1    0    0  501    0  0.00000000000E+00  0.00000000000E+00 -0.12009764907E+04  0.12009764908E+04  0.50400001928E-02 0. -1.
    10030    2    1    2    0    0  0.00000000000E+00  0.00000000000E+00 -0.93554341323E+03  0.14664095683E+04  0.11292101416E+04 0.  0.
        2    1    3    3  502    0  0.30436677098E+03  0.14778798049E+03 -0.10547378752E+04  0.11076788361E+04  0.25500000920E-02 0. -1.
       -2    1    3    3    0  502 -0.30436677098E+03 -0.14778798049E+03  0.11919446201E+03  0.35873073221E+03  0.25500000920E-02 0.  1.
</event>
<event>
 5   0  0.7537480E-03  0.1098395E+04  0.7818609E-02  0.9206758E-01
        2   -1    0    0  501    0  0.00000000000E+00  0.00000000000E+00  0.21257889423E+04  0.21257889423E+04  0.25500000920E-02 0. -1.
       -2   -1    0    0    0  501  0.00000000000E+00  0.00000000000E+00 -0.14188512739E+03  0.14188512742E+03  0.25500000920E-02 0.  1.
    10030    2    1    2    0    0  0.00000000000E+00  0.00000000000E+00  0.19839038150E+04  0.22676740698E+04  0.10983948924E+04 0.  0.
        1    1    3    3  502    0  0.46036416927E+03  0.29870338694E+02  0.16071361566E+04  0.16720388845E+04  0.50400001928E-02 0. -1.
       -1    1    3    3    0  502 -0.46036416927E+03 -0.29870338694E+02  0.37676765833E+03  0.59563518522E+03  0.50400001928E-02 0.  1.
</event>
<event>
 5   0  0.7537480E-03  0.1051986E+04  0.7818609E-02  0.9253296E-01
       -2   -1    0    0    0  501  0.00000000000E+00  0.00000000000E+00  0.17877088033E+03  0.17877088035E+03  0.25500000920E-02 0.  1.
        2   -1    0    0  501    0  0.00000000000E+00  0.00000000000E+00 -0.15476157364E+04  0.15476157364E+04  0.25500000920E-02 0. -1.
    10030    2    1    2    0    0  0.00000000000E+00  0.00000000000E+00 -0.13688448560E+04  0.17263866167E+04  0.10519859840E+04 0.  0.
        1    1    3    3  502    0 -0.10438964440E+03 -0.45920569570E+03 -0.10689437659E+04  0.11680786974E+04  0.50400001928E-02 0. -1.
       -1    1    3    3    0  502  0.10438964440E+03  0.45920569570E+03 -0.29990109017E+03  0.55830791928E+03  0.50400001928E-02 0.  1.
</event>
<event>
 5   0  0.7712816E-03  0.1099104E+04  0.7818609E-02  0.9206065E-01
        2   -1    0    0  501    0  0.00000000000E+00  0.00000000000E+00  0.92021485083E+03  0.92021485083E+03  0.25500000920E-02 0.  1.
       -2   -1    0    0    0  501  0.00000000000E+00  0.00000000000E+00 -0.32819250186E+03  0.32819250187E+03  0.25500000920E-02 0. -1.
    10030    2    1    2    0    0  0.00000000000E+00  0.00000000000E+00  0.59202234897E+03  0.12484073527E+04  0.10991043884E+04 0.  0.
        2    1    3    3  502    0 -0.14727755636E+03 -0.72575136369E+01 -0.30530271922E+03  0.33904734253E+03  0.25500000920E-02 0. -1.
       -2    1    3    3    0  502  0.14727755636E+03  0.72575136369E+01  0.89732506818E+03  0.90936001018E+03  0.25500000920E-02 0.  1.
</event>
<event>
 5   0  0.4428114E-03  0.1107439E+04  0.7818609E-02  0.9197971E-01
        1   -1    0    0  501    0  0.00000000000E+00  0.00000000000E+00  0.11275922767E+04  0.11275922767E+04  0.50400001928E-02 0.  1.
       -1   -1    0    0    0  501  0.00000000000E+00  0.00000000000E+00 -0.27191170938E+03  0.27191170943E+03  0.50400001928E-02 0. -1.
    10030    2    1    2    0    0  0.00000000000E+00  0.00000000000E+00  0.85568056733E+03  0.13995039862E+04  0.11074394674E+04 0.  0.
        4    1    3    3  502    0  0.38203268139E+03  0.39961342776E+03  0.46707841058E+03  0.72374285201E+03  0.12699999809E+01 0.  1.
       -4    1    3    3    0  502 -0.38203268139E+03 -0.39961342776E+03  0.38860215675E+03  0.67576113415E+03  0.12699999809E+01 0. -1.
</event>
<event>
 5   0  0.4428114E-03  0.1064688E+04  0.7818609E-02  0.9240309E-01
        1   -1    0    0  501    0  0.00000000000E+00  0.00000000000E+00  0.20297119064E+03  0.20297119071E+03  0.50400001928E-02 0.  1.
       -1   -1    0    0    0  501  0.00000000000E+00  0.00000000000E+00 -0.13962091079E+04  0.13962091079E+04  0.50400001928E-02 0. -1.
    10030    2    1    2    0    0  0.00000000000E+00  0.00000000000E+00 -0.11932379173E+04  0.15991802986E+04  0.10646881705E+04 0.  0.
        4    1    3    3  502    0  0.21060626097E+03 -0.37954639583E+03 -0.10595186077E+04  0.11449854831E+04  0.12699999809E+01 0. -1.
       -4    1    3    3    0  502 -0.21060626097E+03  0.37954639583E+03 -0.13371930962E+03  0.45419481549E+03  0.12699999809E+01 0.  1.
</event>
<event>
 5   0  0.4641021E-03  0.1089231E+04  0.7818609E-02  0.9215752E-01
        1   -1    0    0  501    0  0.00000000000E+00  0.00000000000E+00  0.14162245784E+04  0.14162245784E+04  0.50400001928E-02 0.  1.
       -1   -1    0    0    0  501  0.00000000000E+00  0.00000000000E+00 -0.20943437109E+03  0.20943437115E+03  0.50400001928E-02 0. -1.
    10030    2    1    2    0    0  0.00000000000E+00  0.00000000000E+00  0.12067902073E+04  0.16256589495E+04  0.10892311122E+04 0.  0.
        1    1    3    3  502    0  0.27917510679E+03  0.28623249143E+03  0.11552876498E+04  0.12225208927E+04  0.50400001928E-02 0.  1.
       -1    1    3    3    0  502 -0.27917510679E+03 -0.28623249143E+03  0.51502557531E+02  0.40313805682E+03  0.50400001928E-02 0. -1.
</event>
<event>
 5   0  0.4598561E-03  0.1099634E+04  0.7818609E-02  0.9205549E-01
        1   -1    0    0  501    0  0.00000000000E+00  0.00000000000E+00  0.23506284908E+04  0.23506284908E+04  0.50400001928E-02 0.  1.
       -1   -1    0    0    0  501  0.00000000000E+00  0.00000000000E+00 -0.12860329720E+03  0.12860329729E+03  0.50400001928E-02 0. -1.
    10030    2    1    2    0    0  0.00000000000E+00  0.00000000000E+00  0.22220251936E+04  0.24792317881E+04  0.10996337109E+04 0.  0.
        2    1    3    3  502    0  0.43219413971E+03  0.31888018772E+03  0.84594412081E+03  0.10020468073E+04  0.25500000920E-02 0.  1.
       -2    1    3    3    0  502 -0.43219413971E+03 -0.31888018772E+03  0.13760810728E+04  0.14771849808E+04  0.25500000920E-02 0. -1.
</event>
<event>
 5   0  0.4598561E-03  0.1010322E+04  0.7818609E-02  0.9297296E-01
        1   -1    0    0  501    0  0.00000000000E+00  0.00000000000E+00  0.27531348873E+03  0.27531348878E+03  0.50400001928E-02 0. -1.
       -1   -1    0    0    0  501  0.00000000000E+00  0.00000000000E+00 -0.92689862698E+03  0.92689862700E+03  0.50400001928E-02 0.  1.
    10030    2    1    2    0    0  0.00000000000E+00  0.00000000000E+00 -0.65158513825E+03  0.12022121158E+04  0.10103221164E+04 0.  0.
        2    1    3    3  502    0  0.71157176829E+02  0.26332391118E+03 -0.83173637056E+03  0.87532177862E+03  0.25500000920E-02 0.  1.
       -2    1    3    3    0  502 -0.71157176829E+02 -0.26332391118E+03  0.18015123231E+03  0.32689033715E+03  0.25500000920E-02 0. -1.
</event>
<event>
 5   0  0.7952121E-03  0.1066220E+04  0.7818609E-02  0.9238757E-01
        2   -1    0    0  501    0  0.00000000000E+00  0.00000000000E+00  0.10146448737E+04  0.10146448737E+04  0.25500000920E-02 0.  1.
       -2   -1    0    0    0  501  0.00000000000E+00  0.00000000000E+00 -0.28010398031E+03  0.28010398032E+03  0.25500000920E-02 0. -1.
    10030    2    1    2    0    0  0.00000000000E+00  0.00000000000E+00  0.73454089344E+03  0.12947488541E+04  0.10662196167E+04 0.  0.
        3    1    3    3  502    0 -0.41915200853E+03 -0.26888503331E+03  0.59837262428E+03  0.77848402365E+03  0.10100000352E+00 0.  1.
       -3    1    3    3    0  502  0.41915200853E+03  0.26888503331E+03  0.13616826915E+03  0.51626483041E+03  0.10100000352E+00 0. -1.
</event>
<event>
 5   0  0.7537480E-03  0.1121104E+04  0.7818609E-02  0.9184864E-01
        2   -1    0    0  501    0  0.00000000000E+00  0.00000000000E+00  0.15375884976E+04  0.15375884976E+04  0.25500000920E-02 0. -1.
       -2   -1    0    0    0  501  0.00000000000E+00  0.00000000000E+00 -0.20435787113E+03  0.20435787114E+03  0.25500000920E-02 0.  1.
    10030    2    1    2    0    0  0.00000000000E+00  0.00000000000E+00  0.13332306264E+04  0.17419463687E+04  0.11211035850E+04 0.  0.
        1    1    3    3  502    0  0.33633214311E+03  0.14107376187E+03  0.13280162016E+04  0.13771884942E+04  0.50400001928E-02 0. -1.
       -1    1    3    3    0  502 -0.33633214311E+03 -0.14107376187E+03  0.52144248340E+01  0.36475787452E+03  0.50400001928E-02 0.  1.
</event>
<event>
 5   0  0.7952121E-03  0.1072472E+04  0.7818609E-02  0.9232445E-01
       -2   -1    0    0    0  501  0.00000000000E+00  0.00000000000E+00  0.26238826591E+03  0.26238826592E+03  0.25500000920E-02 0.  1.
        2   -1    0    0  501    0  0.00000000000E+00  0.00000000000E+00 -0.10958920452E+04  0.10958920452E+04  0.25500000920E-02 0. -1.
    10030    2    1    2    0    0  0.00000000000E+00  0.00000000000E+00 -0.83350377931E+03  0.13582803111E+04  0.10724723090E+04 0.  0.
        3    1    3    3  502    0  0.37680298761E+03 -0.22305385177E+03 -0.80878399569E+03  0.91970923348E+03  0.10100000352E+00 0. -1.
       -3    1    3    3    0  502 -0.37680298761E+03  0.22305385177E+03 -0.24719783619E+02  0.43857107767E+03  0.10100000352E+00 0.  1.
</event>
<event>
 5   0  0.4641021E-03  0.1106563E+04  0.7818609E-02  0.9198818E-01
        1   -1    0    0  501    0  0.00000000000E+00  0.00000000000E+00  0.47460620384E+03  0.47460620387E+03  0.50400001928E-02 0. -1.
       -1   -1    0    0    0  501  0.00000000000E+00  0.00000000000E+00 -0.64499916103E+03  0.64499916105E+03  0.50400001928E-02 0.  1.
    10030    2    1    2    0    0  0.00000000000E+00  0.00000000000E+00 -0.17039295718E+03  0.11196053649E+04  0.11065633345E+04 0.  0.
        1    1    3    3  502    0 -0.45242930472E+03 -0.15082457369E+02 -0.40706667763E+03  0.60878817035E+03  0.50400001928E-02 0.  1.
       -1    1    3    3    0  502  0.45242930472E+03  0.15082457369E+02  0.23667372045E+03  0.51081719457E+03  0.50400001928E-02 0. -1.
</event>
<event>
 5   0  0.7712816E-03  0.1091146E+04  0.7818609E-02  0.9213865E-01
       -2   -1    0    0    0  501  0.00000000000E+00  0.00000000000E+00  0.11526792735E+04  0.11526792735E+04  0.25500000920E-02 0. -1.
        2   -1    0    0  501    0  0.00000000000E+00  0.00000000000E+00 -0.25822428826E+03  0.25822428828E+03  0.25500000920E-02 0.  1.
    10030    2    1    2    0    0  0.00000000000E+00  0.00000000000E+00  0.89445498520E+03  0.14109035617E+04  0.10911457923E+04 0.  0.
        2    1    3    3  502    0 -0.29240934362E+03 -0.31390685894E+02 -0.14695738351E+03  0.32876294191E+03  0.25500000920E-02 0.  1.
       -2    1    3    3    0  502  0.29240934362E+03  0.31390685894E+02  0.10414123687E+04  0.10821406198E+04  0.25500000920E-02 0. -1.
</event>
<event>
 5   0  0.7712816E-03  0.1073924E+04  0.7818609E-02  0.9230987E-01
       -2   -1    0    0    0  501  0.00000000000E+00  0.00000000000E+00  0.18060082708E+03  0.18060082710E+03  0.25500000920E-02 0. -1.
        2   -1    0    0  501    0  0.00000000000E+00  0.00000000000E+00 -0.15964945886E+04  0.15964945886E+04  0.25500000920E-02 0.  1.
    10030    2    1    2    0    0  0.00000000000E+00  0.00000000000E+00 -0.14158937615E+04  0.17770954157E+04  0.10739241000E+04 0.  0.
        2    1    3    3  502    0 -0.35731298835E+03  0.36562415487E+03 -0.43616840532E+03  0.67200927975E+03  0.25500000920E-02 0.  1.
       -2    1    3    3    0  502  0.35731298835E+03 -0.36562415487E+03 -0.97972535616E+03  0.11050861359E+04  0.25500000920E-02 0. -1.
</event>
<event>
 5   0  0.4428114E-03  0.1098290E+04  0.7818609E-02  0.9206860E-01
        1   -1    0    0  501    0  0.00000000000E+00  0.00000000000E+00  0.80590392442E+03  0.80590392443E+03  0.50400001928E-02 0. -1.
       -1   -1    0    0    0  501  0.00000000000E+00  0.00000000000E+00 -0.37418897985E+03  0.37418897988E+03  0.50400001928E-02 0.  1.
    10030    2    1    2    0    0  0.00000000000E+00  0.00000000000E+00  0.43171494457E+03  0.11800929043E+04  0.10982902483E+04 0.  0.
        4    1    3    3  502    0  0.49508852012E+03  0.94615471231E+02 -0.18305680397E+02  0.50438223699E+03  0.12699999809E+01 0.  1.
       -4    1    3    3    0  502 -0.49508852012E+03 -0.94615471231E+02  0.45002062497E+03  0.67571066733E+03  0.12699999809E+01 0. -1.
</event>
<event>
 5   0  0.4598561E-03  0.1096128E+04  0.7818609E-02  0.9208974E-01
        1   -1    0    0  501    0  0.00000000000E+00  0.00000000000E+00  0.13797147787E+04  0.13797147787E+04  0.50400001928E-02 0.  1.
       -1   -1    0    0    0  501  0.00000000000E+00  0.00000000000E+00 -0.21770727482E+03  0.21770727488E+03  0.50400001928E-02 0. -1.
    10030    2    1    2    0    0  0.00000000000E+00  0.00000000000E+00  0.11620075038E+04  0.15974220536E+04  0.10961276286E+04 0.  0.
        2    1    3    3  502    0 -0.18851500567E+03 -0.24222630867E+03 -0.80699604190E+02  0.31737031697E+03  0.25500000920E-02 0. -1.
       -2    1    3    3    0  502  0.18851500567E+03  0.24222630867E+03  0.12427071080E+04  0.12800517366E+04  0.25500000920E-02 0.  1.
</event>
<event>
 5   0  0.4504740E-03  0.1077445E+04  0.7818609E-02  0.9227459E-01
        1   -1    0    0  501    0  0.00000000000E+00  0.00000000000E+00  0.69532268792E+03  0.69532268793E+03  0.50400001928E-02 0.  1.
       -1   -1    0    0    0  501  0.00000000000E+00  0.00000000000E+00 -0.41739169176E+03  0.41739169179E+03  0.50400001928E-02 0. -1.
    10030    2    1    2    0    0  0.00000000000E+00  0.00000000000E+00  0.27793099616E+03  0.11127143797E+04  0.10774449648E+04 0.  0.
        5    1    3    3  502    0  0.51128431719E+03  0.14363912713E+03  0.23223216282E+03  0.57965310255E+03  0.46999998093E+01 0.  1.
       -5    1    3    3    0  502 -0.51128431719E+03 -0.14363912713E+03  0.45698833335E+02  0.53306127717E+03  0.46999998093E+01 0. -1.
</event>
<event>
 5   0  0.7738497E-03  0.1081967E+04  0.7818609E-02  0.9222949E-01
       -2   -1    0    0    0  501  0.00000000000E+00  0.00000000000E+00  0.56439037883E+03  0.56439037884E+03  0.25500000920E-02 0.  1.
        2   -1    0    0  501    0  0.00000000000E+00  0.00000000000E+00 -0.51854695005E+03  0.51854695006E+03  0.25500000920E-02 0. -1.
    10030    2    1    2    0    0  0.00000000000E+00  0.00000000000E+00  0.45843428781E+02  0.10829373289E+04  0.10819665606E+04 0.  0.
        4    1    3    3  502    0 -0.40966694948E+03 -0.11898545257E+03  0.35590135704E+03  0.55556452034E+03  0.12699999809E+01 0.  1.
       -4    1    3    3    0  502  0.40966694948E+03  0.11898545257E+03 -0.31005792825E+03  0.52737280855E+03  0.12699999809E+01 0. -1.
</event>
<event>
 5   0  0.4504740E-03  0.1086127E+04  0.7818609E-02  0.9218819E-01
        1   -1    0    0  501    0  0.00000000000E+00  0.00000000000E+00  0.39151780044E+03  0.39151780047E+03  0.50400001928E-02 0.  1.
       -1   -1    0    0    0  501  0.00000000000E+00  0.00000000000E+00 -0.75326898296E+03  0.75326898298E+03  0.50400001928E-02 0. -1.
    10030    2    1    2    0    0  0.00000000000E+00  0.00000000000E+00 -0.36175118252E+03  0.11447867834E+04  0.10861274610E+04 0.  0.
        5    1    3    3  502    0  0.46304335639E+02  0.21225252000E+03 -0.70545061178E+03  0.73815843788E+03  0.46999998093E+01 0. -1.
       -5    1    3    3    0  502 -0.46304335639E+02 -0.21225252000E+03  0.34369942926E+03  0.40662834557E+03  0.46999998093E+01 0.  1.
</event>
<event>
 5   0  0.7537480E-03  0.1109167E+04  0.7818609E-02  0.9196303E-01
        2   -1    0    0  501    0  0.00000000000E+00  0.00000000000E+00  0.86431111387E+03  0.86431111388E+03  0.25500000920E-02 0.  1.
       -2   -1    0    0    0  501  0.00000000000E+00  0.00000000000E+00 -0.35584722356E+03  0.35584722357E+03  0.25500000920E-02 0. -1.
    10030    2    1    2    0    0  0.00000000000E+00  0.00000000000E+00  0.50846389032E+03  0.12201583374E+04  0.11091667326E+04 0.  0.
        1    1    3    3  502    0  0.37694078182E+03 -0.94911855359E+02  0.68937798182E+03  0.79141304964E+03  0.50400001928E-02 0.  1.
       -1    1    3    3    0  502 -0.37694078182E+03  0.94911855359E+02 -0.18091409151E+03  0.42874528781E+03  0.50400001928E-02 0. -1.
</event>
<event>
 5   0  0.4504740E-03  0.1063645E+04  0.7818609E-02  0.9241369E-01
        1   -1    0    0  501    0  0.00000000000E+00  0.00000000000E+00  0.63448294463E+03  0.63448294465E+03  0.50400001928E-02 0.  1.
       -1   -1    0    0    0  501  0.00000000000E+00  0.00000000000E+00 -0.44577231468E+03  0.44577231471E+03  0.50400001928E-02 0. -1.
    10030    2    1    2    0    0  0.00000000000E+00  0.00000000000E+00  0.18871062995E+03  0.10802552594E+04  0.10636445475E+04 0.  0.
        5    1    3    3  502    0  0.38135716003E+03  0.29941981700E+03 -0.12752227684E+03  0.50136766091E+03  0.46999998093E+01 0. -1.
       -5    1    3    3    0  502 -0.38135716003E+03 -0.29941981700E+03  0.31623290679E+03  0.57888759846E+03  0.46999998093E+01 0.  1.
</event>
<event>
 5   0  0.4298101E-03  0.1091233E+04  0.7818609E-02  0.9213779E-01
       -1   -1    0    0    0  501  0.00000000000E+00  0.00000000000E+00  0.23176857079E+03  0.23176857085E+03  0.50400001928E-02 0.  1.
        1   -1    0    0  501    0  0.00000000000E+00  0.00000000000E+00 -0.12844594321E+04  0.12844594321E+04  0.50400001928E-02 0. -1.
    10030    2    1    2    0    0  0.00000000000E+00  0.00000000000E+00 -0.10526908613E+04  0.15162280030E+04  0.10912329300E+04 0.  0.
        3    1    3    3  502    0  0.42042492269E+03  0.18881206549E+03 -0.93213102875E+03  0.10398439194E+04  0.10100000352E+00 0. -1.
       -3    1    3    3    0  502 -0.42042492269E+03 -0.18881206549E+03 -0.12055983259E+03  0.47638408362E+03  0.10100000352E+00 0.  1.
</event>
<event>
 5   0  0.4298101E-03  0.1038496E+04  0.7818609E-02  0.9267302E-01
        1   -1    0    0  501    0  0.00000000000E+00  0.00000000000E+00  0.52774254163E+03  0.52774254166E+03  0.50400001928E-02 0.  1.
       -1   -1    0    0    0  501  0.00000000000E+00  0.00000000000E+00 -0.51089064119E+03  0.51089064121E+03  0.50400001928E-02 0. -1.
    10030    2    1    2    0    0  0.00000000000E+00  0.00000000000E+00  0.16851900443E+02  0.10386331829E+04  0.10384964622E+04 0.  0.
        3    1    3    3  502    0  0.39799121143E+03  0.12394606216E+03  0.31807789426E+03  0.52434071720E+03  0.10100000352E+00 0.  1.
       -3    1    3    3    0  502 -0.39799121143E+03 -0.12394606216E+03 -0.30122599381E+03  0.51429246567E+03  0.10100000352E+00 0. -1.
</event>
<event>
 5   0  0.4504740E-03  0.1093271E+04  0.7818609E-02  0.9211776E-01
       -1   -1    0    0    0  501  0.00000000000E+00  0.00000000000E+00  0.79065619453E+03  0.79065619455E+03  0.50400001928E-02 0.  1.
        1   -1    0    0  501    0  0.00000000000E+00  0.00000000000E+00 -0.37792685625E+03  0.37792685628E+03  0.50400001928E-02 0. -1.
    10030    2    1    2    0    0  0.00000000000E+00  0.00000000000E+00  0.41272933829E+03  0.11685830508E+04  0.10932707076E+04 0.  0.
        5    1    3    3  502    0  0.45808815155E+02 -0.18769635955E+03  0.75292019684E+03  0.77732829856E+03  0.46999998093E+01 0.  1.
       -5    1    3    3    0  502 -0.45808815155E+02  0.18769635955E+03 -0.34019085856E+03  0.39125475227E+03  0.46999998093E+01 0. -1.
</event>
<event>
 5   0  0.7738497E-03  0.1074659E+04  0.7818609E-02  0.9230249E-01
        2   -1    0    0  501    0  0.00000000000E+00  0.00000000000E+00  0.14053915297E+04  0.14053915297E+04  0.25500000920E-02 0. -1.
       -2   -1    0    0    0  501  0.00000000000E+00  0.00000000000E+00 -0.20543954805E+03  0.20543954807E+03  0.25500000920E-02 0.  1.
    10030    2    1    2    0    0  0.00000000000E+00  0.00000000000E+00  0.11999519817E+04  0.16108310778E+04  0.10746590170E+04 0.  0.
        4    1    3    3  502    0  0.71135211069E+02  0.17482789362E+03 -0.15411243873E+03  0.24367451100E+03  0.12699999809E+01 0.  1.
       -4    1    3    3    0  502 -0.71135211069E+02 -0.17482789362E+03  0.13540644204E+04  0.13671565668E+04  0.12699999809E+01 0. -1.
</event>
<event>
 5   0  0.7952121E-03  0.1126370E+04  0.7818609E-02  0.9179865E-01
        2   -1    0    0  501    0  0.00000000000E+00  0.00000000000E+00  0.12043400700E+04  0.12043400700E+04  0.25500000920E-02 0.  1.
       -2   -1    0    0    0  501  0.00000000000E+00  0.00000000000E+00 -0.26336172878E+03  0.26336172879E+03  0.25500000920E-02 0. -1.
    10030    2    1    2    0    0  0.00000000000E+00  0.00000000000E+00  0.94097834118E+03  0.14677017988E+04  0.11263695359E+04 0.  0.
        3    1    3    3  502    0 -0.46076520681E+03  0.13022714010E+03  0.84136035017E+02  0.48615076511E+03  0.10100000352E+00 0. -1.
       -3    1    3    3    0  502  0.46076520681E+03 -0.13022714010E+03  0.85684230616E+03  0.98155103365E+03  0.10100000352E+00 0.  1.
</event>
<event>
 5   0  0.7712816E-03  0.1096008E+04  0.7818609E-02  0.9209092E-01
       -2   -1    0    0    0  501  0.00000000000E+00  0.00000000000E+00  0.15834701848E+03  0.15834701850E+03  0.25500000920E-02 0.  1.
        2   -1    0    0  501    0  0.00000000000E+00  0.00000000000E+00 -0.18965205147E+04  0.18965205147E+04  0.25500000920E-02 0. -1.
    10030    2    1    2    0    0  0.00000000000E+00  0.00000000000E+00 -0.17381734962E+04  0.20548675332E+04  0.10960079726E+04 0.  0.
        2    1    3    3  502    0  0.49014047755E+03  0.21397713204E+03 -0.64500723313E+03  0.83788915231E+03  0.25500000920E-02 0.  1.
       -2    1    3    3    0  502 -0.49014047755E+03 -0.21397713204E+03 -0.10931662631E+04  0.12169783809E+04  0.25500000920E-02 0. -1.
</event>
<event>
 5   0  0.7537480E-03  0.1108268E+04  0.7818609E-02  0.9197170E-01
        2   -1    0    0  501    0  0.00000000000E+00  0.00000000000E+00  0.19807112857E+04  0.19807112857E+04  0.25500000920E-02 0. -1.
       -2   -1    0    0    0  501  0.00000000000E+00  0.00000000000E+00 -0.15502750856E+03  0.15502750858E+03  0.25500000920E-02 0.  1.
    10030    2    1    2    0    0  0.00000000000E+00  0.00000000000E+00  0.18256837772E+04  0.21357387943E+04  0.11082684437E+04 0.  0.
        1    1    3    3  502    0  0.49771259895E+03 -0.11796210636E+03  0.50208641331E+03  0.71674518216E+03  0.50400001928E-02 0.  1.
       -1    1    3    3    0  502 -0.49771259895E+03  0.11796210636E+03  0.13235973639E+04  0.14189936122E+04  0.50400001928E-02 0. -1.
</event>
<event>
 5   0  0.7766551E-03  0.1103381E+04  0.7818609E-02  0.9201903E-01
       -2   -1    0    0    0  501  0.00000000000E+00  0.00000000000E+00  0.29207852342E+03  0.29207852343E+03  0.25500000920E-02 0. -1.
        2   -1    0    0  501    0  0.00000000000E+00  0.00000000000E+00 -0.10420561274E+04  0.10420561274E+04  0.25500000920E-02 0.  1.
    10030    2    1    2    0    0  0.00000000000E+00  0.00000000000E+00 -0.74997760401E+03  0.13341346509E+04  0.11033806506E+04 0.  0.
        5    1    3    3  502    0  0.17560108515E+02  0.31560643559E+03  0.17170054136E+03  0.35974844753E+03  0.46999998093E+01 0. -1.
       -5    1    3    3    0  502 -0.17560108515E+02 -0.31560643559E+03 -0.92167814536E+03  0.97438620333E+03  0.46999998093E+01 0.  1.
</event>
<event>
 5   0  0.7952121E-03  0.1055188E+04  0.7818609E-02  0.9250004E-01
       -2   -1    0    0    0  501  0.00000000000E+00  0.00000000000E+00  0.20319362041E+03  0.20319362042E+03  0.25500000920E-02 0. -1.
        2   -1    0    0  501    0  0.00000000000E+00  0.00000000000E+00 -0.13699021751E+04  0.13699021751E+04  0.25500000920E-02 0.  1.
    10030    2    1    2    0    0  0.00000000000E+00  0.00000000000E+00 -0.11667085547E+04  0.15730957955E+04  0.10551879123E+04 0.  0.
        3    1    3    3  502    0  0.52503762556E+03  0.15034829077E+02 -0.65736894501E+03  0.84144191386E+03  0.10100000352E+00 0. -1.
       -3    1    3    3    0  502 -0.52503762556E+03 -0.15034829077E+02 -0.50933960965E+03  0.73165388163E+03  0.10100000352E+00 0.  1.
</event>
<event>
 5   0  0.4641021E-03  0.1114660E+04  0.7818609E-02  0.9191020E-01
       -1   -1    0    0    0  501  0.00000000000E+00  0.00000000000E+00  0.34864570923E+03  0.34864570927E+03  0.50400001928E-02 0. -1.
        1   -1    0    0  501    0  0.00000000000E+00  0.00000000000E+00 -0.89092422631E+03  0.89092422632E+03  0.50400001928E-02 0.  1.
    10030    2    1    2    0    0  0.00000000000E+00  0.00000000000E+00 -0.54227851707E+03  0.12395699356E+04  0.11146603228E+04 0.  0.
        1    1    3    3  502    0  0.17374785800E+03  0.14717367557E+03  0.29455815887E+03  0.37230755824E+03  0.50400001928E-02 0. -1.
       -1    1    3    3    0  502 -0.17374785800E+03 -0.14717367557E+03 -0.83683667594E+03  0.86726237735E+03  0.50400001928E-02 0.  1.
</event>
<event>
 5   0  0.4298101E-03  0.1127085E+04  0.7818609E-02  0.9179188E-01
        1   -1    0    0  501    0  0.00000000000E+00  0.00000000000E+00  0.10682670735E+04  0.10682670735E+04  0.50400001928E-02 0.  1.
       -1   -1    0    0    0  501  0.00000000000E+00  0.00000000000E+00 -0.29728526425E+03  0.29728526429E+03  0.50400001928E-02 0. -1.
    10030    2    1    2    0    0  0.00000000000E+00  0.00000000000E+00  0.77098180924E+03  0.13655523378E+04  0.11270848402E+04 0.  0.
        3    1    3    3  502    0 -0.49858434654E+03 -0.23922634814E+03  0.51690368607E+03  0.75697095528E+03  0.10100000352E+00 0. -1.
       -3    1    3    3    0  502  0.49858434654E+03  0.23922634814E+03  0.25407812317E+03  0.60858138251E+03  0.10100000352E+00 0.  1.
</event>
<event>
 5   0  0.4504740E-03  0.1033455E+04  0.7818609E-02  0.9272594E-01
        1   -1    0    0  501    0  0.00000000000E+00  0.00000000000E+00  0.42302629519E+03  0.42302629522E+03  0.50400001928E-02 0. -1.
       -1   -1    0    0    0  501  0.00000000000E+00  0.00000000000E+00 -0.63118404432E+03  0.63118404434E+03  0.50400001928E-02 0.  1.
    10030    2    1    2    0    0  0.00000000000E+00  0.00000000000E+00 -0.20815774913E+03  0.10542103396E+04  0.10334552683E+04 0.  0.
        5    1    3    3  502    0  0.24087824895E+02 -0.37493703203E+03  0.25776658240E+03  0.45565743964E+03  0.46999998093E+01 0. -1.
       -5    1    3    3    0  502 -0.24087824895E+02  0.37493703203E+03 -0.46592433153E+03  0.59855289993E+03  0.46999998093E+01 0.  1.
</event>
<event>
 5   0  0.4298101E-03  0.9762837E+03  0.7818609E-02  0.9334946E-01
       -1   -1    0    0    0  501  0.00000000000E+00  0.00000000000E+00  0.90995113798E+03  0.90995113800E+03  0.50400001928E-02 0.  1.
        1   -1    0    0  501    0  0.00000000000E+00  0.00000000000E+00 -0.26186290910E+03  0.26186290915E+03  0.50400001928E-02 0. -1.
    10030    2    1    2    0    0  0.00000000000E+00  0.00000000000E+00  0.64808822889E+03  0.11718140471E+04  0.97628367223E+03 0.  0.
        3    1    3    3  502    0 -0.46015268819E+03 -0.45692002858E+02  0.13634627101E+03  0.48209809313E+03  0.10100000352E+00 0. -1.
       -3    1    3    3    0  502  0.46015268819E+03  0.45692002858E+02  0.51174195787E+03  0.68971595402E+03  0.10100000352E+00 0.  1.
</event>
<event>
 5   0  0.7712816E-03  0.1050929E+04  0.7818609E-02  0.9254385E-01
       -2   -1    0    0    0  501  0.00000000000E+00  0.00000000000E+00  0.11375296420E+04  0.11375296420E+04  0.25500000920E-02 0. -1.
        2   -1    0    0  501    0  0.00000000000E+00  0.00000000000E+00 -0.24273033401E+03  0.24273033402E+03  0.25500000920E-02 0.  1.
    10030    2    1    2    0    0  0.00000000000E+00  0.00000000000E+00  0.89479930803E+03  0.13802599761E+04  0.10509290175E+04 0.  0.
        2    1    3    3  502    0  0.25048337779E+02 -0.26776782681E+03 -0.14549099406E+03  0.30576896124E+03  0.25500000920E-02 0.  1.
       -2    1    3    3    0  502 -0.25048337779E+02  0.26776782681E+03  0.10402903021E+04  0.10744910148E+04  0.25500000920E-02 0. -1.
</event>
<event>
 5   0  0.7952121E-03  0.1073522E+04  0.7818609E-02  0.9231391E-01
        2   -1    0    0  501    0  0.00000000000E+00  0.00000000000E+00  0.27616070470E+03  0.27616070472E+03  0.25500000920E-02 0.  1.
       -2   -1    0    0    0  501  0.00000000000E+00  0.00000000000E+00 -0.10432776530E+04  0.10432776530E+04  0.25500000920E-02 0. -1.
    10030    2    1    2    0    0  0.00000000000E+00  0.00000000000E+00 -0.76711694829E+03  0.13194383577E+04  0.10735218523E+04 0.  0.
        3    1    3    3  502    0  0.52468533745E+03 -0.10778634281E+03 -0.34098771441E+03  0.63496868475E+03  0.10100000352E+00 0.  1.
       -3    1    3    3    0  502 -0.52468533745E+03  0.10778634281E+03 -0.42612923388E+03  0.68446967296E+03  0.10100000352E+00 0. -1.
</event>
<event>
 5   0  0.4298101E-03  0.1102556E+04  0.7818609E-02  0.9202705E-01
        1   -1    0    0  501    0  0.00000000000E+00  0.00000000000E+00  0.49700456532E+03  0.49700456535E+03  0.50400001928E-02 0. -1.
       -1   -1    0    0    0  501  0.00000000000E+00  0.00000000000E+00 -0.61147770973E+03  0.61147770975E+03  0.50400001928E-02 0.  1.
    10030    2    1    2    0    0  0.00000000000E+00  0.00000000000E+00 -0.11447314441E+03  0.11084822751E+04  0.11025556011E+04 0.  0.
        3    1    3    3  502    0 -0.25481950428E+01  0.43844248578E+03 -0.39320182707E+03  0.58893632393E+03  0.10100000352E+00 0.  1.
       -3    1    3    3    0  502  0.25481950428E+01 -0.43844248578E+03  0.27872868266E+03  0.51954595116E+03  0.10100000352E+00 0. -1.
</event>
<event>
 5   0  0.4598561E-03  0.1080916E+04  0.7818609E-02  0.9223994E-01
       -1   -1    0    0    0  501  0.00000000000E+00  0.00000000000E+00  0.18531456786E+03  0.18531456793E+03  0.50400001928E-02 0.  1.
        1   -1    0    0  501    0  0.00000000000E+00  0.00000000000E+00 -0.15762120673E+04  0.15762120673E+04  0.50400001928E-02 0. -1.
    10030    2    1    2    0    0  0.00000000000E+00  0.00000000000E+00 -0.13908974994E+04  0.17615266352E+04  0.10809163856E+04 0.  0.
        2    1    3    3  502    0  0.11936214017E+03 -0.15245655658E+03  0.12685136892E+03  0.23147697932E+03  0.25500000920E-02 0.  1.
       -2    1    3    3    0  502 -0.11936214017E+03  0.15245655658E+03 -0.15177488683E+04  0.15300496559E+04  0.25500000920E-02 0. -1.
</event>
<event>
 5   0  0.7712816E-03  0.1125351E+04  0.7818609E-02  0.9180830E-01
        2   -1    0    0  501    0  0.00000000000E+00  0.00000000000E+00  0.14870042258E+04  0.14870042258E+04  0.25500000920E-02 0. -1.
       -2   -1    0    0    0  501  0.00000000000E+00  0.00000000000E+00 -0.21291369902E+03  0.21291369903E+03  0.25500000920E-02 0.  1.
    10030    2    1    2    0    0  0.00000000000E+00  0.00000000000E+00  0.12740905268E+04  0.16999179248E+04  0.11253507368E+04 0.  0.
        2    1    3    3  502    0  0.60047642067E+02 -0.42752036322E+03  0.91933083478E+02  0.44139672873E+03  0.25500000920E-02 0.  1.
       -2    1    3    3    0  502 -0.60047642067E+02  0.42752036322E+03  0.11821574433E+04  0.12585211961E+04  0.25500000920E-02 0. -1.
</event>
<event>
 5   0  0.4428114E-03  0.1128712E+04  0.7818609E-02  0.9177651E-01
       -1   -1    0    0    0  501  0.00000000000E+00  0.00000000000E+00  0.34566313109E+03  0.34566313113E+03  0.50400001928E-02 0.  1.
        1   -1    0    0  501    0  0.00000000000E+00  0.00000000000E+00 -0.92141030779E+03  0.92141030781E+03  0.50400001928E-02 0. -1.
    10030    2    1    2    0    0  0.00000000000E+00  0.00000000000E+00 -0.57574717670E+03  0.12670734389E+04  0.11287117826E+04 0.  0.
        4    1    3    3  502    0  0.40745798717E+02 -0.22757818908E+03  0.29005960774E+03  0.37092888968E+03  0.12699999809E+01 0.  1.
       -4    1    3    3    0  502 -0.40745798717E+02  0.22757818908E+03 -0.86580678445E+03  0.89614454925E+03  0.12699999809E+01 0. -1.
</event>
<event>
 5   0  0.2992375E-03  0.1095270E+04  0.7818609E-02  0.9209814E-01
        3   -1    0    0  501    0  0.00000000000E+00  0.00000000000E+00  0.32456535046E+03  0.32456536617E+03  0.10100000352E+00 0.  1.
       -3   -1    0    0    0  501  0.00000000000E+00  0.00000000000E+00 -0.92401791640E+03  0.92401792192E+03  0.10100000352E+00 0. -1.
    10030    2    1    2    0    0  0.00000000000E+00  0.00000000000E+00 -0.59945256594E+03  0.12485832881E+04  0.10952702171E+04 0.  0.
        1    1    3    3  502    0  0.14465293765E+03 -0.48313709264E+03 -0.56405086081E+02  0.50747163115E+03  0.50400001928E-02 0. -1.
       -1    1    3    3    0  502 -0.14465293765E+03  0.48313709264E+03 -0.54304747986E+03  0.74111165695E+03  0.50400001928E-02 0.  1.
</event>
<event>
 5   0  0.7537480E-03  0.1094714E+04  0.7818609E-02  0.9210359E-01
       -2   -1    0    0    0  501  0.00000000000E+00  0.00000000000E+00  0.26310323506E+03  0.26310323507E+03  0.25500000920E-02 0. -1.
        2   -1    0    0  501    0  0.00000000000E+00  0.00000000000E+00 -0.11387163605E+04  0.11387163605E+04  0.25500000920E-02 0.  1.
    10030    2    1    2    0    0  0.00000000000E+00  0.00000000000E+00 -0.87561312543E+03  0.14018195956E+04  0.10947144984E+04 0.  0.
        1    1    3    3  502    0 -0.94463827913E+02  0.40789508571E+03  0.13657905928E+02  0.41891330147E+03  0.50400001928E-02 0. -1.
       -1    1    3    3    0  502  0.94463827913E+02 -0.40789508571E+03 -0.88927103136E+03  0.98290629409E+03  0.50400001928E-02 0.  1.
</event>
<event>
 5   0  0.4428114E-03  0.7302159E+03  0.7818609E-02  0.9666910E-01
        1   -1    0    0  501    0  0.00000000000E+00  0.00000000000E+00  0.23416917944E+03  0.23416917949E+03  0.50400001928E-02 0. -1.
       -1   -1    0    0    0  501  0.00000000000E+00  0.00000000000E+00 -0.56926288211E+03  0.56926288213E+03  0.50400001928E-02 0.  1.
    10030    2    1    2    0    0  0.00000000000E+00  0.00000000000E+00 -0.33509370267E+03  0.80343206162E+03  0.73021591881E+03 0.  0.
        4    1    3    3  502    0 -0.20576780127E+03 -0.50999576040E+02  0.15951345555E+03  0.26530642698E+03  0.12699999809E+01 0. -1.
       -4    1    3    3    0  502  0.20576780127E+03  0.50999576040E+02 -0.49460715822E+03  0.53812563464E+03  0.12699999809E+01 0.  1.
</event>
<event>
 5   0  0.4641021E-03  0.1104200E+04  0.7818609E-02  0.9201108E-01
        1   -1    0    0  501    0  0.00000000000E+00  0.00000000000E+00  0.28199292182E+03  0.28199292187E+03  0.50400001928E-02 0. -1.
       -1   -1    0    0    0  501  0.00000000000E+00  0.00000000000E+00 -0.10809298899E+04  0.10809298899E+04  0.50400001928E-02 0.  1.
    10030    2    1    2    0    0  0.00000000000E+00  0.00000000000E+00 -0.79893696809E+03  0.13629228118E+04  0.11042003043E+04 0.  0.
        1    1    3    3  502    0 -0.44504864732E+02  0.19368537230E+03 -0.10352505705E+04  0.10541529539E+04  0.50400001928E-02 0.  1.
       -1    1    3    3    0  502  0.44504864732E+02 -0.19368537230E+03  0.23631360243E+03  0.30876985790E+03  0.50400001928E-02 0. -1.
</event>
<event>
 5   0  0.4598561E-03  0.1085463E+04  0.7818609E-02  0.9219477E-01
        1   -1    0    0  501    0  0.00000000000E+00  0.00000000000E+00  0.76800172785E+03  0.76800172786E+03  0.50400001928E-02 0. -1.
       -1   -1    0    0    0  501  0.00000000000E+00  0.00000000000E+00 -0.38353762732E+03  0.38353762736E+03  0.50400001928E-02 0.  1.
    10030    2    1    2    0    0  0.00000000000E+00  0.00000000000E+00  0.38446410052E+03  0.11515393552E+04  0.10854631463E+04 0.  0.
        2    1    3    3  502    0 -0.10884745151E+03 -0.46675380892E+03  0.46239199044E+03  0.66596789613E+03  0.25500000920E-02 0. -1.
       -2    1    3    3    0  502  0.10884745151E+03  0.46675380892E+03 -0.77927889921E+02  0.48557145909E+03  0.25500000920E-02 0.  1.
</event>
<event>
 5   0  0.7537480E-03  0.1153298E+04  0.7818609E-02  0.9154747E-01
        2   -1    0    0  501    0  0.00000000000E+00  0.00000000000E+00  0.29202830869E+03  0.29202830871E+03  0.25500000920E-02 0. -1.
       -2   -1    0    0    0  501  0.00000000000E+00  0.00000000000E+00 -0.11386701710E+04  0.11386701710E+04  0.25500000920E-02 0.  1.
    10030    2    1    2    0    0  0.00000000000E+00  0.00000000000E+00 -0.84664186226E+03  0.14306984797E+04  0.11532977485E+04 0.  0.
        1    1    3    3  502    0  0.52156090170E+03  0.60702926954E+02 -0.12763429455E+03  0.54037129151E+03  0.50400001928E-02 0. -1.
       -1    1    3    3    0  502 -0.52156090170E+03 -0.60702926954E+02 -0.71900756771E+03  0.89032718815E+03  0.50400001928E-02 0.  1.
</event>
<event>
 5   0  0.7766551E-03  0.1106647E+04  0.7818609E-02  0.9198737E-01
        2   -1    0    0  501    0  0.00000000000E+00  0.00000000000E+00  0.53397568727E+03  0.53397568728E+03  0.25500000920E-02 0.  1.
       -2   -1    0    0    0  501  0.00000000000E+00  0.00000000000E+00 -0.57337236448E+03  0.57337236448E+03  0.25500000920E-02 0. -1.
    10030    2    1    2    0    0  0.00000000000E+00  0.00000000000E+00 -0.39396677203E+02  0.11073480518E+04  0.11066470122E+04 0.  0.
        5    1    3    3  502    0  0.21470744658E+03  0.19888725698E+03  0.45016209155E+03  0.53695756562E+03  0.46999998093E+01 0.  1.
       -5    1    3    3    0  502 -0.21470744658E+03 -0.19888725698E+03 -0.48955876876E+03  0.57039048614E+03  0.46999998093E+01 0. -1.
</event>
<event>
 5   0  0.4504740E-03  0.1081915E+04  0.7818609E-02  0.9223000E-01
        1   -1    0    0  501    0  0.00000000000E+00  0.00000000000E+00  0.69151299206E+03  0.69151299208E+03  0.50400001928E-02 0.  1.
       -1   -1    0    0    0  501  0.00000000000E+00  0.00000000000E+00 -0.42318086784E+03  0.42318086787E+03  0.50400001928E-02 0. -1.
    10030    2    1    2    0    0  0.00000000000E+00  0.00000000000E+00  0.26833212422E+03  0.11146938600E+04  0.10819150949E+04 0.  0.
        5    1    3    3  502    0 -0.37035281934E+03  0.25526829930E+03  0.44375249853E+03  0.63187141522E+03  0.46999998093E+01 0. -1.
       -5    1    3    3    0  502  0.37035281934E+03 -0.25526829930E+03 -0.17542037431E+03  0.48282244474E+03  0.46999998093E+01 0.  1.
</event>
<event>
 5   0  0.7738497E-03  0.8714787E+03  0.7818609E-02  0.9461954E-01
        2   -1    0    0  501    0  0.00000000000E+00  0.00000000000E+00  0.52552748309E+03  0.52552748310E+03  0.25500000920E-02 0. -1.
       -2   -1    0    0    0  501  0.00000000000E+00  0.00000000000E+00 -0.36129178181E+03  0.36129178181E+03  0.25500000920E-02 0.  1.
    10030    2    1    2    0    0  0.00000000000E+00  0.00000000000E+00  0.16423570129E+03  0.88681926491E+03  0.87147865324E+03 0.  0.
        4    1    3    3  502    0  0.25811483026E+03  0.16284818216E+03 -0.23436215631E+03  0.38479868664E+03  0.12699999809E+01 0.  1.
       -4    1    3    3    0  502 -0.25811483026E+03 -0.16284818216E+03  0.39859785759E+03  0.50202057827E+03  0.12699999809E+01 0. -1.
</event>
<event>
 5   0  0.4428114E-03  0.1074049E+04  0.7818609E-02  0.9230862E-01
       -1   -1    0    0    0  501  0.00000000000E+00  0.00000000000E+00  0.28278250853E+03  0.28278250857E+03  0.50400001928E-02 0. -1.
        1   -1    0    0  501    0  0.00000000000E+00  0.00000000000E+00 -0.10198478621E+04  0.10198478621E+04  0.50400001928E-02 0.  1.
    10030    2    1    2    0    0  0.00000000000E+00  0.00000000000E+00 -0.73706535357E+03  0.13026303707E+04  0.10740486708E+04 0.  0.
        4    1    3    3  502    0 -0.50398766335E+03  0.12121128682E+03 -0.53875084487E+03  0.74762947147E+03  0.12699999809E+01 0.  1.
       -4    1    3    3    0  502  0.50398766335E+03 -0.12121128682E+03 -0.19831450870E+03  0.55500089921E+03  0.12699999809E+01 0. -1.
</event>
<event>
 5   0  0.4504740E-03  0.1103597E+04  0.7818609E-02  0.9201693E-01
        1   -1    0    0  501    0  0.00000000000E+00  0.00000000000E+00  0.91024129885E+03  0.91024129886E+03  0.50400001928E-02 0. -1.
       -1   -1    0    0    0  501  0.00000000000E+00  0.00000000000E+00 -0.33450660428E+03  0.33450660432E+03  0.50400001928E-02 0.  1.
    10030    2    1    2    0    0  0.00000000000E+00  0.00000000000E+00  0.57573469456E+03  0.12447479032E+04  0.11035972562E+04 0.  0.
        5    1    3    3  502    0  0.50960187914E+03  0.11806512277E+03  0.48589721598E+03  0.71396893695E+03  0.46999998093E+01 0. -1.
       -5    1    3    3    0  502 -0.50960187914E+03 -0.11806512277E+03  0.89837478586E+02  0.53077896623E+03  0.46999998093E+01 0.  1.
</event>
<event>
 5   0  0.4598561E-03  0.1104230E+04  0.7818609E-02  0.9201079E-01
       -1   -1    0    0    0  501  0.00000000000E+00  0.00000000000E+00  0.37121503612E+03  0.37121503615E+03  0.50400001928E-02 0. -1.
        1   -1    0    0  501    0  0.00000000000E+00  0.00000000000E+00 -0.82117042874E+03  0.82117042875E+03  0.50400001928E-02 0.  1.
    10030    2    1    2    0    0  0.00000000000E+00  0.00000000000E+00 -0.44995539262E+03  0.11923854649E+04  0.11042297051E+04 0.  0.
        2    1    3    3  502    0 -0.38801500135E+03  0.39107495163E+03 -0.18551492879E+03  0.58130116796E+03  0.25500000920E-02 0. -1.
       -2    1    3    3    0  502  0.38801500135E+03 -0.39107495163E+03 -0.26444046383E+03  0.61108429695E+03  0.25500000920E-02 0.  1.
</event>
<event>
 5   0  0.4598561E-03  0.1142196E+04  0.7818609E-02  0.9165013E-01
       -1   -1    0    0    0  501  0.00000000000E+00  0.00000000000E+00  0.38602602125E+03  0.38602602129E+03  0.50400001928E-02 0.  1.
        1   -1    0    0  501    0  0.00000000000E+00  0.00000000000E+00 -0.84489889270E+03  0.84489889271E+03  0.50400001928E-02 0. -1.
    10030    2    1    2    0    0  0.00000000000E+00  0.00000000000E+00 -0.45887287144E+03  0.12309249140E+04  0.11421960566E+04 0.  0.
        2    1    3    3  502    0  0.86606660455E+02  0.64695053452E+02  0.37489933678E+03  0.39017390520E+03  0.25500000920E-02 0.  1.
       -2    1    3    3    0  502 -0.86606660455E+02 -0.64695053452E+02 -0.83377220822E+03  0.84075100880E+03  0.25500000920E-02 0. -1.
</event>
<event>
 5   0  0.4504740E-03  0.1152282E+04  0.7818609E-02  0.9155681E-01
       -1   -1    0    0    0  501  0.00000000000E+00  0.00000000000E+00  0.63416569061E+03  0.63416569063E+03  0.50400001928E-02 0.  1.
        1   -1    0    0  501    0  0.00000000000E+00  0.00000000000E+00 -0.52342533515E+03  0.52342533517E+03  0.50400001928E-02 0. -1.
    10030    2    1    2    0    0  0.00000000000E+00  0.00000000000E+00  0.11074035546E+03  0.11575910258E+04  0.11522818912E+04 0.  0.
        5    1    3    3  502    0 -0.11357858089E+03  0.27605141033E+03  0.55039996254E+03  0.62615228495E+03  0.46999998093E+01 0.  1.
       -5    1    3    3    0  502  0.11357858089E+03 -0.27605141033E+03 -0.43965960708E+03  0.53143874085E+03  0.46999998093E+01 0. -1.
</event>
<event>
 5   0  0.4504740E-03  0.1126300E+04  0.7818609E-02  0.9179930E-01
        1   -1    0    0  501    0  0.00000000000E+00  0.00000000000E+00  0.56363200669E+03  0.56363200671E+03  0.50400001928E-02 0.  1.
       -1   -1    0    0    0  501  0.00000000000E+00  0.00000000000E+00 -0.56266881775E+03  0.56266881777E+03  0.50400001928E-02 0. -1.
    10030    2    1    2    0    0  0.00000000000E+00  0.00000000000E+00  0.96318893869E+00  0.11263008245E+04  0.11263004126E+04 0.  0.
        5    1    3    3  502    0  0.48938524317E+03 -0.24556176878E+03 -0.13111467834E+03  0.56303787386E+03  0.46999998093E+01 0. -1.
       -5    1    3    3    0  502 -0.48938524317E+03  0.24556176878E+03  0.13207786728E+03  0.56326295063E+03  0.46999998093E+01 0.  1.
</event>
<event>
 5   0  0.4598561E-03  0.1175105E+04  0.7818609E-02  0.9134930E-01
        1   -1    0    0  501    0  0.00000000000E+00  0.00000000000E+00  0.61420825069E+03  0.61420825071E+03  0.50400001928E-02 0. -1.
       -1   -1    0    0    0  501  0.00000000000E+00  0.00000000000E+00 -0.56205377816E+03  0.56205377818E+03  0.50400001928E-02 0.  1.
    10030    2    1    2    0    0  0.00000000000E+00  0.00000000000E+00  0.52154472530E+02  0.11762620289E+04  0.11751052172E+04 0.  0.
        2    1    3    3  502    0  0.56612089218E+03  0.66647965183E+02  0.16863672106E+03  0.59445198252E+03  0.25500000920E-02 0.  1.
       -2    1    3    3    0  502 -0.56612089218E+03 -0.66647965183E+02 -0.11648224853E+03  0.58181004637E+03  0.25500000920E-02 0. -1.
</event>
<event>
 5   0  0.4598561E-03  0.1095833E+04  0.7818609E-02  0.9209263E-01
       -1   -1    0    0    0  501  0.00000000000E+00  0.00000000000E+00  0.81796428324E+03  0.81796428326E+03  0.50400001928E-02 0. -1.
        1   -1    0    0  501    0  0.00000000000E+00  0.00000000000E+00 -0.36702366575E+03  0.36702366578E+03  0.50400001928E-02 0.  1.
    10030    2    1    2    0    0  0.00000000000E+00  0.00000000000E+00  0.45094061749E+03  0.11849879490E+04  0.10958325597E+04 0.  0.
        2    1    3    3  502    0 -0.62199395314E+02  0.33668745621E+03 -0.23709976064E+03  0.41646549010E+03  0.25500000920E-02 0.  1.
       -2    1    3    3    0  502  0.62199395314E+02 -0.33668745621E+03  0.68804037813E+03  0.76852245894E+03  0.25500000920E-02 0. -1.
</event>
<event>
 5   0  0.2992375E-03  0.1106500E+04  0.7818609E-02  0.9198880E-01
       -4   -1    0    0    0  501  0.00000000000E+00  0.00000000000E+00  0.63738202311E+03  0.63738328836E+03  0.12699999809E+01 0. -1.
        4   -1    0    0  501    0  0.00000000000E+00  0.00000000000E+00 -0.48022039601E+03  0.48022207534E+03  0.12699999809E+01 0.  1.
    10030    2    1    2    0    0  0.00000000000E+00  0.00000000000E+00  0.15716162710E+03  0.11176053637E+04  0.11064998743E+04 0.  0.
        4    1    3    3  502    0 -0.10367083884E+03 -0.28277440841E+03  0.54732362857E+03  0.62471895775E+03  0.12699999809E+01 0. -1.
       -4    1    3    3    0  502  0.10367083884E+03  0.28277440841E+03 -0.39016200147E+03  0.49288640595E+03  0.12699999809E+01 0.  1.
</event>
<event>
 5   0  0.7537480E-03  0.1133547E+04  0.7818609E-02  0.9173097E-01
       -2   -1    0    0    0  501  0.00000000000E+00  0.00000000000E+00  0.59052635369E+03  0.59052635370E+03  0.25500000920E-02 0. -1.
        2   -1    0    0  501    0  0.00000000000E+00  0.00000000000E+00 -0.54397642978E+03  0.54397642978E+03  0.25500000920E-02 0.  1.
    10030    2    1    2    0    0  0.00000000000E+00  0.00000000000E+00  0.46549923914E+02  0.11345027835E+04  0.11335473834E+04 0.  0.
        1    1    3    3  502    0  0.25941934251E+03 -0.19681941992E+03 -0.44100840337E+03  0.54820132360E+03  0.50400001928E-02 0.  1.
       -1    1    3    3    0  502 -0.25941934251E+03  0.19681941992E+03  0.48755832729E+03  0.58630145988E+03  0.50400001928E-02 0. -1.
</event>
<event>
 5   0  0.4504740E-03  0.1026759E+04  0.7818609E-02  0.9279673E-01
       -1   -1    0    0    0  501  0.00000000000E+00  0.00000000000E+00  0.40401017337E+03  0.40401017340E+03  0.50400001928E-02 0. -1.
        1   -1    0    0  501    0  0.00000000000E+00  0.00000000000E+00 -0.65235623640E+03  0.65235623642E+03  0.50400001928E-02 0.  1.
    10030    2    1    2    0    0  0.00000000000E+00  0.00000000000E+00 -0.24834606303E+03  0.10563664098E+04  0.10267590880E+04 0.  0.
        5    1    3    3  502    0  0.28031778826E+03 -0.15554182296E+03 -0.53669015050E+03  0.62516376154E+03  0.46999998093E+01 0.  1.
       -5    1    3    3    0  502 -0.28031778826E+03  0.15554182296E+03  0.28834408747E+03  0.43120264828E+03  0.46999998093E+01 0. -1.
</event>
<event>
 5   0  0.4598561E-03  0.1096449E+04  0.7818609E-02  0.9208660E-01
       -1   -1    0    0    0  501  0.00000000000E+00  0.00000000000E+00  0.66644107961E+03  0.66644107962E+03  0.50400001928E-02 0.  1.
        1   -1    0    0  501    0  0.00000000000E+00  0.00000000000E+00 -0.45097784395E+03  0.45097784398E+03  0.50400001928E-02 0. -1.
    10030    2    1    2    0    0  0.00000000000E+00  0.00000000000E+00  0.21546323565E+03  0.11174189236E+04  0.10964491073E+04 0.  0.
        2    1    3    3  502    0  0.54116384777E+03  0.83705410634E+02  0.13440964758E+03  0.56385357964E+03  0.25500000920E-02 0. -1.
       -2    1    3    3    0  502 -0.54116384777E+03 -0.83705410634E+02  0.81053588071E+02  0.55356534397E+03  0.25500000920E-02 0.  1.
</event>
<event>
 5   0  0.4641021E-03  0.1112047E+04  0.7818609E-02  0.9193529E-01
       -1   -1    0    0    0  501  0.00000000000E+00  0.00000000000E+00  0.16753664369E+03  0.16753664376E+03  0.50400001928E-02 0. -1.
        1   -1    0    0  501    0  0.00000000000E+00  0.00000000000E+00 -0.18453410587E+04  0.18453410587E+04  0.50400001928E-02 0.  1.
    10030    2    1    2    0    0  0.00000000000E+00  0.00000000000E+00 -0.16778044150E+04  0.20128777024E+04  0.11120472068E+04 0.  0.
        1    1    3    3  502    0  0.34236772770E+03  0.43355530892E+03 -0.72476213614E+03  0.91129908421E+03  0.50400001928E-02 0. -1.
       -1    1    3    3    0  502 -0.34236772770E+03 -0.43355530892E+03 -0.95304227884E+03  0.11015786182E+04  0.50400001928E-02 0.  1.
</event>
<event>
 5   0  0.7766551E-03  0.1123046E+04  0.7818609E-02  0.9183016E-01
        2   -1    0    0  501    0  0.00000000000E+00  0.00000000000E+00  0.11738142838E+04  0.11738142838E+04  0.25500000920E-02 0. -1.
       -2   -1    0    0    0  501  0.00000000000E+00  0.00000000000E+00 -0.26861841564E+03  0.26861841566E+03  0.25500000920E-02 0.  1.
    10030    2    1    2    0    0  0.00000000000E+00  0.00000000000E+00  0.90519586814E+03  0.14424326994E+04  0.11230460955E+04 0.  0.
        5    1    3    3  502    0  0.43118908149E+03  0.25080402569E+03  0.12148507002E+03  0.51342710830E+03  0.46999998093E+01 0.  1.
       -5    1    3    3    0  502 -0.43118908149E+03 -0.25080402569E+03  0.78371079811E+03  0.92900559114E+03  0.46999998093E+01 0. -1.
</event>
<event>
 5   0  0.7766551E-03  0.1096074E+04  0.7818609E-02  0.9209027E-01
       -2   -1    0    0    0  501  0.00000000000E+00  0.00000000000E+00  0.34839601332E+03  0.34839601333E+03  0.25500000920E-02 0.  1.
        2   -1    0    0  501    0  0.00000000000E+00  0.00000000000E+00 -0.86207796550E+03  0.86207796550E+03  0.25500000920E-02 0. -1.
    10030    2    1    2    0    0  0.00000000000E+00  0.00000000000E+00 -0.51368195217E+03  0.12104739788E+04  0.10960739507E+04 0.  0.
        5    1    3    3  502    0 -0.23476774281E+03 -0.36611280972E+03 -0.62505930918E+03  0.76149570747E+03  0.46999998093E+01 0. -1.
       -5    1    3    3    0  502  0.23476774281E+03  0.36611280972E+03  0.11137735701E+03  0.44897827136E+03  0.46999998093E+01 0.  1.
</event>
<event>
 5   0  0.7738497E-03  0.1120662E+04  0.7818609E-02  0.9185284E-01
       -2   -1    0    0    0  501  0.00000000000E+00  0.00000000000E+00  0.51686126566E+03  0.51686126566E+03  0.25500000920E-02 0.  1.
        2   -1    0    0  501    0  0.00000000000E+00  0.00000000000E+00 -0.60745634942E+03  0.60745634943E+03  0.25500000920E-02 0. -1.
    10030    2    1    2    0    0  0.00000000000E+00  0.00000000000E+00 -0.90595083768E+02  0.11243176151E+04  0.11206616931E+04 0.  0.
        4    1    3    3  502    0  0.18786434302E+03 -0.14676888844E+03 -0.55403653195E+03  0.60315189598E+03  0.12699999809E+01 0. -1.
       -4    1    3    3    0  502 -0.18786434302E+03  0.14676888844E+03  0.46344144818E+03  0.52116571912E+03  0.12699999809E+01 0.  1.
</event>
<event>
 5   0  0.4504740E-03  0.1102638E+04  0.7818609E-02  0.9202625E-01
       -1   -1    0    0    0  501  0.00000000000E+00  0.00000000000E+00  0.12274896715E+04  0.12274896715E+04  0.50400001928E-02 0. -1.
        1   -1    0    0  501    0  0.00000000000E+00  0.00000000000E+00 -0.24762116885E+03  0.24762116890E+03  0.50400001928E-02 0.  1.
    10030    2    1    2    0    0  0.00000000000E+00  0.00000000000E+00  0.97986850267E+03  0.14751108404E+04  0.11026376146E+04 0.  0.
        5    1    3    3  502    0 -0.42663393564E+03  0.30986375239E+03  0.27464255073E+03  0.59454409488E+03  0.46999998093E+01 0. -1.
       -5    1    3    3    0  502  0.42663393564E+03 -0.30986375239E+03  0.70522595194E+03  0.88056674555E+03  0.46999998093E+01 0.  1.
</event>
<event>
 5   0  0.7712816E-03  0.1001502E+04  0.7818609E-02  0.9306899E-01
        2   -1    0    0  501    0  0.00000000000E+00  0.00000000000E+00  0.99620006214E+03  0.99620006215E+03  0.25500000920E-02 0.  1.
       -2   -1    0    0    0  501  0.00000000000E+00  0.00000000000E+00 -0.25170801838E+03  0.25170801839E+03  0.25500000920E-02 0. -1.
    10030    2    1    2    0    0  0.00000000000E+00  0.00000000000E+00  0.74449204376E+03  0.12479080805E+04  0.10015019592E+04 0.  0.
        2    1    3    3  502    0 -0.23996246652E+03 -0.44198329908E+02  0.91711613009E+03  0.94901921676E+03  0.25500000920E-02 0.  1.
       -2    1    3    3    0  502  0.23996246652E+03  0.44198329908E+02 -0.17262408633E+03  0.29888886378E+03  0.25500000920E-02 0. -1.
</event>
<event>
 5   0  0.4598561E-03  0.1005210E+04  0.7818609E-02  0.9302849E-01
        1   -1    0    0  501    0  0.00000000000E+00  0.00000000000E+00  0.63655869450E+03  0.63655869452E+03  0.50400001928E-02 0. -1.
       -1   -1    0    0    0  501  0.00000000000E+00  0.00000000000E+00 -0.39683972812E+03  0.39683972815E+03  0.50400001928E-02 0.  1.
    10030    2    1    2    0    0  0.00000000000E+00  0.00000000000E+00  0.23971896638E+03  0.10333984227E+04  0.10052099866E+04 0.  0.
        2    1    3    3  502    0  0.35774365906E+03  0.31158188868E+03  0.29048967613E+03  0.55628055053E+03  0.25500000920E-02 0. -1.
       -2    1    3    3    0  502 -0.35774365906E+03 -0.31158188868E+03 -0.50770709745E+02  0.47711787215E+03  0.25500000920E-02 0.  1.
</event>
<event>
 5   0  0.7712816E-03  0.1101955E+04  0.7818609E-02  0.9203289E-01
        2   -1    0    0  501    0  0.00000000000E+00  0.00000000000E+00  0.87620394389E+03  0.87620394390E+03  0.25500000920E-02 0.  1.
       -2   -1    0    0    0  501  0.00000000000E+00  0.00000000000E+00 -0.34646736772E+03  0.34646736773E+03  0.25500000920E-02 0. -1.
    10030    2    1    2    0    0  0.00000000000E+00  0.00000000000E+00  0.52973657617E+03  0.12226713116E+04  0.11019547614E+04 0.  0.
        2    1    3    3  502    0  0.23502160191E+03  0.26328383317E+03  0.73432961120E+03  0.81473523801E+03  0.25500000920E-02 0.  1.
       -2    1    3    3    0  502 -0.23502160191E+03 -0.26328383317E+03 -0.20459303503E+03  0.40793607362E+03  0.25500000920E-02 0. -1.
</event>
<event>
 5   0  0.4504740E-03  0.1061642E+04  0.7818609E-02  0.9243406E-01
        1   -1    0    0  501    0  0.00000000000E+00  0.00000000000E+00  0.88951683789E+03  0.88951683790E+03  0.50400001928E-02 0. -1.
       -1   -1    0    0    0  501  0.00000000000E+00  0.00000000000E+00 -0.31676875312E+03  0.31676875316E+03  0.50400001928E-02 0.  1.
    10030    2    1    2    0    0  0.00000000000E+00  0.00000000000E+00  0.57274808477E+03  0.12062855911E+04  0.10616423873E+04 0.  0.
        5    1    3    3  502    0 -0.18602547594E+03 -0.48478860980E+03  0.16126541605E+03  0.54374083744E+03  0.46999998093E+01 0.  1.
       -5    1    3    3    0  502  0.18602547594E+03  0.48478860980E+03  0.41148266872E+03  0.66254475361E+03  0.46999998093E+01 0. -1.
</event>
<event>
 5   0  0.7738497E-03  0.1090647E+04  0.7818609E-02  0.9214356E-01
        2   -1    0    0  501    0  0.00000000000E+00  0.00000000000E+00  0.33549621233E+03  0.33549621234E+03  0.25500000920E-02 0. -1.
       -2   -1    0    0    0  501  0.00000000000E+00  0.00000000000E+00 -0.88638216286E+03  0.88638216286E+03  0.25500000920E-02 0.  1.
    10030    2    1    2    0    0  0.00000000000E+00  0.00000000000E+00 -0.55088595053E+03  0.12218783752E+04  0.10906472543E+04 0.  0.
        4    1    3    3  502    0 -0.39816738179E+03  0.17687692936E+03 -0.64285723658E+03  0.77658853429E+03  0.12699999809E+01 0.  1.
       -4    1    3    3    0  502  0.39816738179E+03 -0.17687692936E+03  0.91971286053E+02  0.44528984091E+03  0.12699999809E+01 0. -1.
</event>
<event>
 5   0  0.4641021E-03  0.1123339E+04  0.7818609E-02  0.9182738E-01
        1   -1    0    0  501    0  0.00000000000E+00  0.00000000000E+00  0.51856558860E+03  0.51856558862E+03  0.50400001928E-02 0.  1.
       -1   -1    0    0    0  501  0.00000000000E+00  0.00000000000E+00 -0.60835669403E+03  0.60835669405E+03  0.50400001928E-02 0. -1.
    10030    2    1    2    0    0  0.00000000000E+00  0.00000000000E+00 -0.89791105431E+02  0.11269222827E+04  0.11233393915E+04 0.  0.
        1    1    3    3  502    0  0.70377086499E+01  0.29081518377E+03  0.43710526296E+03  0.52505619831E+03  0.50400001928E-02 0.  1.
       -1    1    3    3    0  502 -0.70377086499E+01 -0.29081518377E+03 -0.52689636839E+03  0.60186608436E+03  0.50400001928E-02 0. -1.
</event>
<event>
 5   0  0.4504740E-03  0.1139721E+04  0.7818609E-02  0.9167319E-01
        1   -1    0    0  501    0  0.00000000000E+00  0.00000000000E+00  0.85495691135E+03  0.85495691137E+03  0.50400001928E-02 0. -1.
       -1   -1    0    0    0  501  0.00000000000E+00  0.00000000000E+00 -0.37983324753E+03  0.37983324756E+03  0.50400001928E-02 0.  1.
    10030    2    1    2    0    0  0.00000000000E+00  0.00000000000E+00  0.47512366383E+03  0.12347901589E+04  0.11397211241E+04 0.  0.
        5    1    3    3  502    0  0.27939301473E+03  0.34920449988E+03  0.62016929631E+03  0.76461512246E+03  0.46999998093E+01 0. -1.
       -5    1    3    3    0  502 -0.27939301473E+03 -0.34920449988E+03 -0.14504563249E+03  0.47017503646E+03  0.46999998093E+01 0.  1.
</event>
<event>
 5   0  0.4428114E-03  0.1294136E+04  0.7818609E-02  0.9034228E-01
       -1   -1    0    0    0  501  0.00000000000E+00  0.00000000000E+00  0.23925297516E+03  0.23925297521E+03  0.50400001928E-02 0.  1.
        1   -1    0    0  501    0  0.00000000000E+00  0.00000000000E+00 -0.17500182000E+04  0.17500182000E+04  0.50400001928E-02 0. -1.
    10030    2    1    2    0    0  0.00000000000E+00  0.00000000000E+00 -0.15107652248E+04  0.19892711752E+04  0.12941360995E+04 0.  0.
        4    1    3    3  502    0  0.17226865024E+02 -0.51008721170E+03 -0.14397531441E+03  0.53029824861E+03  0.12699999809E+01 0.  1.
       -4    1    3    3    0  502 -0.17226865024E+02  0.51008721170E+03 -0.13667899104E+04  0.14589729266E+04  0.12699999809E+01 0. -1.
</event>
<event>
 5   0  0.7712816E-03  0.1092977E+04  0.7818609E-02  0.9212064E-01
        2   -1    0    0  501    0  0.00000000000E+00  0.00000000000E+00  0.19025579742E+04  0.19025579742E+04  0.25500000920E-02 0. -1.
       -2   -1    0    0    0  501  0.00000000000E+00  0.00000000000E+00 -0.15697272135E+03  0.15697272137E+03  0.25500000920E-02 0.  1.
    10030    2    1    2    0    0  0.00000000000E+00  0.00000000000E+00  0.17455852529E+04  0.20595306956E+04  0.10929770405E+04 0.  0.
        2    1    3    3  502    0  0.27450924975E+01 -0.40564294363E+03  0.15628180500E+04  0.16146064507E+04  0.25500000920E-02 0. -1.
       -2    1    3    3    0  502 -0.27450924975E+01  0.40564294363E+03  0.18276720289E+03  0.44492424491E+03  0.25500000920E-02 0.  1.
</event>
<event>
 5   0  0.7952121E-03  0.1082102E+04  0.7818609E-02  0.9222814E-01
        2   -1    0    0  501    0  0.00000000000E+00  0.00000000000E+00  0.29877082858E+03  0.29877082859E+03  0.25500000920E-02 0. -1.
       -2   -1    0    0    0  501  0.00000000000E+00  0.00000000000E+00 -0.97980169230E+03  0.97980169230E+03  0.25500000920E-02 0.  1.
    10030    2    1    2    0    0  0.00000000000E+00  0.00000000000E+00 -0.68103086372E+03  0.12785725209E+04  0.10821019609E+04 0.  0.
        3    1    3    3  502    0  0.31812216668E+03 -0.42520016735E+03 -0.21806951131E+03  0.57406551648E+03  0.10100000352E+00 0. -1.
       -3    1    3    3    0  502 -0.31812216668E+03  0.42520016735E+03 -0.46296135241E+03  0.70450700442E+03  0.10100000352E+00 0.  1.
</event>
<event>
 5   0  0.4504740E-03  0.1110478E+04  0.7818609E-02  0.9195039E-01
        1   -1    0    0  501    0  0.00000000000E+00  0.00000000000E+00  0.31456496993E+03  0.31456496997E+03  0.50400001928E-02 0. -1.
       -1   -1    0    0    0  501  0.00000000000E+00  0.00000000000E+00 -0.98005254733E+03  0.98005254735E+03  0.50400001928E-02 0.  1.
    10030    2    1    2    0    0  0.00000000000E+00  0.00000000000E+00 -0.66548757740E+03  0.12946175173E+04  0.11104777352E+04 0.  0.
        5    1    3    3  502    0  0.17726584479E+03 -0.10603919205E+03 -0.93356625816E+03  0.95615664949E+03  0.46999998093E+01 0.  1.
       -5    1    3    3    0  502 -0.17726584479E+03  0.10603919205E+03  0.26807868076E+03  0.33846086784E+03  0.46999998093E+01 0. -1.
</event>
<event>
 5   0  0.7766551E-03  0.1103780E+04  0.7818609E-02  0.9201515E-01
       -2   -1    0    0    0  501  0.00000000000E+00  0.00000000000E+00  0.77807473230E+03  0.77807473231E+03  0.25500000920E-02 0.  1.
        2   -1    0    0  501    0  0.00000000000E+00  0.00000000000E+00 -0.39145670622E+03  0.39145670623E+03  0.25500000920E-02 0. -1.
    10030    2    1    2    0    0  0.00000000000E+00  0.00000000000E+00  0.38661802608E+03  0.11695314385E+04  0.11037799997E+04 0.  0.
        5    1    3    3  502    0 -0.20417813400E+03  0.25935912557E+03  0.66192697330E+03  0.73967916991E+03  0.46999998093E+01 0.  1.
       -5    1    3    3    0  502  0.20417813400E+03 -0.25935912557E+03 -0.27530894723E+03  0.42985226862E+03  0.46999998093E+01 0. -1.
</event>
<event>
 5   0  0.7766551E-03  0.1075821E+04  0.7818609E-02  0.9229084E-01
        2   -1    0    0  501    0  0.00000000000E+00  0.00000000000E+00  0.40639044011E+03  0.40639044011E+03  0.25500000920E-02 0.  1.
       -2   -1    0    0    0  501  0.00000000000E+00  0.00000000000E+00 -0.71199422244E+03  0.71199422244E+03  0.25500000920E-02 0. -1.
    10030    2    1    2    0    0  0.00000000000E+00  0.00000000000E+00 -0.30560378233E+03  0.11183846626E+04  0.10758208874E+04 0.  0.
        5    1    3    3  502    0  0.29834935898E+03 -0.44588125907E+03 -0.19310585869E+03  0.57020557683E+03  0.46999998093E+01 0.  1.
       -5    1    3    3    0  502 -0.29834935898E+03  0.44588125907E+03 -0.11249792365E+03  0.54817908572E+03  0.46999998093E+01 0. -1.
</event>
<event>
 5   0  0.7766551E-03  0.1068414E+04  0.7818609E-02  0.9236537E-01
        2   -1    0    0  501    0  0.00000000000E+00  0.00000000000E+00  0.75084078017E+03  0.75084078017E+03  0.25500000920E-02 0. -1.
       -2   -1    0    0    0  501  0.00000000000E+00  0.00000000000E+00 -0.38007675577E+03  0.38007675578E+03  0.25500000920E-02 0.  1.
    10030    2    1    2    0    0  0.00000000000E+00  0.00000000000E+00  0.37076402439E+03  0.11309175360E+04  0.10684140168E+04 0.  0.
        5    1    3    3  502    0 -0.12619065586E+03  0.46502197436E+03 -0.58729389456E+02  0.48542841846E+03  0.46999998093E+01 0.  1.
       -5    1    3    3    0  502  0.12619065586E+03 -0.46502197436E+03  0.42949341385E+03  0.64548911749E+03  0.46999998093E+01 0. -1.
</event>
<event>
 5   0  0.4428114E-03  0.1107376E+04  0.7818609E-02  0.9198033E-01
       -1   -1    0    0    0  501  0.00000000000E+00  0.00000000000E+00  0.39323094419E+03  0.39323094422E+03  0.50400001928E-02 0. -1.
        1   -1    0    0  501    0  0.00000000000E+00  0.00000000000E+00 -0.77961896239E+03  0.77961896241E+03  0.50400001928E-02 0.  1.
    10030    2    1    2    0    0  0.00000000000E+00  0.00000000000E+00 -0.38638801821E+03  0.11728499066E+04  0.11073758183E+04 0.  0.
        4    1    3    3  502    0 -0.38808021456E+03 -0.11189867824E+03 -0.59432317166E+03  0.71857443066E+03  0.12699999809E+01 0.  1.
       -4    1    3    3    0  502  0.38808021456E+03  0.11189867824E+03  0.20793515345E+03  0.45427547597E+03  0.12699999809E+01 0. -1.
</event>
<event>
 5   0  0.7738497E-03  0.1106909E+04  0.7818609E-02  0.9198484E-01
        2   -1    0    0  501    0  0.00000000000E+00  0.00000000000E+00  0.11759968368E+04  0.11759968368E+04  0.25500000920E-02 0.  1.
       -2   -1    0    0    0  501  0.00000000000E+00  0.00000000000E+00 -0.26047001464E+03  0.26047001465E+03  0.25500000920E-02 0. -1.
    10030    2    1    2    0    0  0.00000000000E+00  0.00000000000E+00  0.91552682211E+03  0.14364668514E+04  0.11069090537E+04 0.  0.
        4    1    3    3  502    0  0.54671054855E+03 -0.25021787671E+02  0.56471215445E+03  0.78639681080E+03  0.12699999809E+01 0. -1.
       -4    1    3    3    0  502 -0.54671054855E+03  0.25021787671E+02  0.35081466766E+03  0.65007004061E+03  0.12699999809E+01 0.  1.
</event>
<event>
 5   0  0.4641021E-03  0.1101822E+04  0.7818609E-02  0.9203418E-01
        1   -1    0    0  501    0  0.00000000000E+00  0.00000000000E+00  0.33092960698E+03  0.33092960702E+03  0.50400001928E-02 0.  1.
       -1   -1    0    0    0  501  0.00000000000E+00  0.00000000000E+00 -0.91712290530E+03  0.91712290532E+03  0.50400001928E-02 0. -1.
    10030    2    1    2    0    0  0.00000000000E+00  0.00000000000E+00 -0.58619329833E+03  0.12480525123E+04  0.11018223498E+04 0.  0.
        1    1    3    3  502    0 -0.37058504350E+03  0.37376738118E+03 -0.10881582527E+03  0.53747205840E+03  0.50400001928E-02 0.  1.
       -1    1    3    3    0  502  0.37058504350E+03 -0.37376738118E+03 -0.47737747306E+03  0.71058045394E+03  0.50400001928E-02 0. -1.
</event>
<event>
 5   0  0.2992375E-03  0.1087820E+04  0.7818609E-02  0.9217145E-01
        3   -1    0    0  501    0  0.00000000000E+00  0.00000000000E+00  0.93893502630E+03  0.93893503173E+03  0.10100000352E+00 0. -1.
       -3   -1    0    0    0  501  0.00000000000E+00  0.00000000000E+00 -0.31507833107E+03  0.31507834726E+03  0.10100000352E+00 0.  1.
    10030    2    1    2    0    0  0.00000000000E+00  0.00000000000E+00  0.62385669523E+03  0.12540133790E+04  0.10878200120E+04 0.  0.
        5    1    3    3  502    0  0.85397893468E+02  0.69969308598E+02  0.92585896780E+03  0.93242984863E+03  0.46999998093E+01 0. -1.
       -5    1    3    3    0  502 -0.85397893468E+02 -0.69969308598E+02 -0.30200227258E+03  0.32158353035E+03  0.46999998093E+01 0.  1.
</event>
<event>
 5   0  0.4641021E-03  0.1062602E+04  0.7818609E-02  0.9242429E-01
       -1   -1    0    0    0  501  0.00000000000E+00  0.00000000000E+00  0.59840100725E+03  0.59840100727E+03  0.50400001928E-02 0.  1.
        1   -1    0    0  501    0  0.00000000000E+00  0.00000000000E+00 -0.47172477652E+03  0.47172477655E+03  0.50400001928E-02 0. -1.
    10030    2    1    2    0    0  0.00000000000E+00  0.00000000000E+00  0.12667623073E+03  0.10701257838E+04  0.10626016778E+04 0.  0.
        1    1    3    3  502    0  0.31382559376E+03  0.63713341419E+02 -0.36361509373E+03  0.48452226945E+03  0.50400001928E-02 0. -1.
       -1    1    3    3    0  502 -0.31382559376E+03 -0.63713341419E+02  0.49029132446E+03  0.58560351437E+03  0.50400001928E-02 0.  1.
</event>
<event>
 5   0  0.4598561E-03  0.1073524E+04  0.7818609E-02  0.9231388E-01
       -1   -1    0    0    0  501  0.00000000000E+00  0.00000000000E+00  0.66176817191E+03  0.66176817193E+03  0.50400001928E-02 0. -1.
        1   -1    0    0  501    0  0.00000000000E+00  0.00000000000E+00 -0.43536921667E+03  0.43536921670E+03  0.50400001928E-02 0.  1.
    10030    2    1    2    0    0  0.00000000000E+00  0.00000000000E+00  0.22639895524E+03  0.10971373886E+04  0.10735240857E+04 0.  0.
        2    1    3    3  502    0 -0.33004628646E+03 -0.25663545501E+03  0.45723617644E+03  0.61956212685E+03  0.25500000920E-02 0. -1.
       -2    1    3    3    0  502  0.33004628646E+03  0.25663545501E+03 -0.23083722120E+03  0.47757526179E+03  0.25500000920E-02 0.  1.
</event>
<event>
 5   0  0.7738497E-03  0.1083524E+04  0.7818609E-02  0.9221401E-01
        2   -1    0    0  501    0  0.00000000000E+00  0.00000000000E+00  0.21692860869E+04  0.21692860869E+04  0.25500000920E-02 0. -1.
       -2   -1    0    0    0  501  0.00000000000E+00  0.00000000000E+00 -0.13530067985E+03  0.13530067988E+03  0.25500000920E-02 0.  1.
    10030    2    1    2    0    0  0.00000000000E+00  0.00000000000E+00  0.20339854070E+04  0.23045867668E+04  0.10835236636E+04 0.  0.
        4    1    3    3  502    0 -0.13253903348E+03 -0.47139361098E+03  0.15099914972E+04  0.15874049472E+04  0.12699999809E+01 0.  1.
       -4    1    3    3    0  502  0.13253903348E+03  0.47139361098E+03  0.52399390981E+03  0.71718181955E+03  0.12699999809E+01 0. -1.
</event>
<event>
 5   0  0.4428114E-03  0.1102839E+04  0.7818609E-02  0.9202430E-01
        1   -1    0    0  501    0  0.00000000000E+00  0.00000000000E+00  0.54470316581E+03  0.54470316584E+03  0.50400001928E-02 0. -1.
       -1   -1    0    0    0  501  0.00000000000E+00  0.00000000000E+00 -0.55821823640E+03  0.55821823642E+03  0.50400001928E-02 0.  1.
    10030    2    1    2    0    0  0.00000000000E+00  0.00000000000E+00 -0.13515070581E+02  0.11029214023E+04  0.11028385931E+04 0.  0.
        4    1    3    3  502    0 -0.43108827591E+03  0.15821268399E+03 -0.31205618987E+03  0.55520179533E+03  0.12699999809E+01 0.  1.
       -4    1    3    3    0  502  0.43108827591E+03 -0.15821268399E+03  0.29854111928E+03  0.54771960692E+03  0.12699999809E+01 0. -1.
</event>
<event>
 5   0  0.4298101E-03  0.1077772E+04  0.7818609E-02  0.9227131E-01
       -1   -1    0    0    0  501  0.00000000000E+00  0.00000000000E+00  0.65389221348E+03  0.65389221350E+03  0.50400001928E-02 0. -1.
        1   -1    0    0  501    0  0.00000000000E+00  0.00000000000E+00 -0.44410740109E+03  0.44410740112E+03  0.50400001928E-02 0.  1.
    10030    2    1    2    0    0  0.00000000000E+00  0.00000000000E+00  0.20978481240E+03  0.10979996146E+04  0.10777724649E+04 0.  0.
        3    1    3    3  502    0 -0.40053374221E+03 -0.12510612873E+03  0.44934966124E+03  0.61481212606E+03  0.10100000352E+00 0.  1.
       -3    1    3    3    0  502  0.40053374221E+03  0.12510612873E+03 -0.23956484884E+03  0.48318748856E+03  0.10100000352E+00 0. -1.
</event>
<event>
 5   0  0.7537480E-03  0.1087484E+04  0.7818609E-02  0.9217478E-01
       -2   -1    0    0    0  501  0.00000000000E+00  0.00000000000E+00  0.28118516829E+03  0.28118516830E+03  0.25500000920E-02 0. -1.
        2   -1    0    0  501    0  0.00000000000E+00  0.00000000000E+00 -0.10514610854E+04  0.10514610854E+04  0.25500000920E-02 0.  1.
    10030    2    1    2    0    0  0.00000000000E+00  0.00000000000E+00 -0.77027591712E+03  0.13326462537E+04  0.10874838155E+04 0.  0.
        1    1    3    3  502    0  0.43365920529E+03  0.27943071032E+03 -0.17461379387E+03  0.54463915140E+03  0.50400001928E-02 0. -1.
       -1    1    3    3    0  502 -0.43365920529E+03 -0.27943071032E+03 -0.59566212325E+03  0.78800710232E+03  0.50400001928E-02 0.  1.
</event>
<event>
 5   0  0.7766551E-03  0.1088153E+04  0.7818609E-02  0.9216816E-01
        2   -1    0    0  501    0  0.00000000000E+00  0.00000000000E+00  0.19220063763E+03  0.19220063765E+03  0.25500000920E-02 0.  1.
       -2   -1    0    0    0  501  0.00000000000E+00  0.00000000000E+00 -0.15401570091E+04  0.15401570091E+04  0.25500000920E-02 0. -1.
    10030    2    1    2    0    0  0.00000000000E+00  0.00000000000E+00 -0.13479563715E+04  0.17323576468E+04  0.10881528555E+04 0.  0.
        5    1    3    3  502    0 -0.31780501353E+03  0.23732031304E+03 -0.81123196208E+02  0.40487531484E+03  0.46999998093E+01 0.  1.
       -5    1    3    3    0  502  0.31780501353E+03 -0.23732031304E+03 -0.12668331753E+04  0.13274823320E+04  0.46999998093E+01 0. -1.
</event>
<event>
 5   0  0.4428114E-03  0.1149919E+04  0.7818609E-02  0.9157859E-01
        1   -1    0    0  501    0  0.00000000000E+00  0.00000000000E+00  0.61335108064E+03  0.61335108066E+03  0.50400001928E-02 0. -1.
       -1   -1    0    0    0  501  0.00000000000E+00  0.00000000000E+00 -0.53897061554E+03  0.53897061556E+03  0.50400001928E-02 0.  1.
    10030    2    1    2    0    0  0.00000000000E+00  0.00000000000E+00  0.74380465096E+02  0.11523216962E+04  0.11499186223E+04 0.  0.
        4    1    3    3  502    0  0.51509801245E+03  0.69472373945E+02 -0.20913685417E+03  0.56026084090E+03  0.12699999809E+01 0.  1.
       -4    1    3    3    0  502 -0.51509801245E+03 -0.69472373945E+02  0.28351731927E+03  0.59206085532E+03  0.12699999809E+01 0. -1.
</event>
<event>
 5   0  0.7738497E-03  0.1089429E+04  0.7818609E-02  0.9215557E-01
        2   -1    0    0  501    0  0.00000000000E+00  0.00000000000E+00  0.10739732290E+04  0.10739732290E+04  0.25500000920E-02 0. -1.
       -2   -1    0    0    0  501  0.00000000000E+00  0.00000000000E+00 -0.27627685417E+03  0.27627685418E+03  0.25500000920E-02 0.  1.
    10030    2    1    2    0    0  0.00000000000E+00  0.00000000000E+00  0.79769637484E+03  0.13502500832E+04  0.10894291077E+04 0.  0.
        4    1    3    3  502    0 -0.15547199397E+03  0.50869344560E+03  0.54429697823E+03  0.76105280758E+03  0.12699999809E+01 0. -1.
       -4    1    3    3    0  502  0.15547199397E+03 -0.50869344560E+03  0.25339939661E+03  0.58919727563E+03  0.12699999809E+01 0.  1.
</event>
<event>
 5   0  0.7712816E-03  0.1095481E+04  0.7818609E-02  0.9209608E-01
       -2   -1    0    0    0  501  0.00000000000E+00  0.00000000000E+00  0.14197795746E+04  0.14197795746E+04  0.25500000920E-02 0. -1.
        2   -1    0    0  501    0  0.00000000000E+00  0.00000000000E+00 -0.21131417141E+03  0.21131417142E+03  0.25500000920E-02 0.  1.
    10030    2    1    2    0    0  0.00000000000E+00  0.00000000000E+00  0.12084654032E+04  0.16310937460E+04  0.10954807975E+04 0.  0.
        2    1    3    3  502    0 -0.48298841630E+03  0.23951268251E+02  0.98723236272E+03  0.10993085152E+04  0.25500000920E-02 0. -1.
       -2    1    3    3    0  502  0.48298841630E+03 -0.23951268251E+02  0.22123304045E+03  0.53178523083E+03  0.25500000920E-02 0.  1.
</event>
<event>
 5   0  0.4641021E-03  0.1086728E+04  0.7818609E-02  0.9218225E-01
        1   -1    0    0  501    0  0.00000000000E+00  0.00000000000E+00  0.61415010620E+03  0.61415010622E+03  0.50400001928E-02 0.  1.
       -1   -1    0    0    0  501  0.00000000000E+00  0.00000000000E+00 -0.48073659904E+03  0.48073659907E+03  0.50400001928E-02 0. -1.
    10030    2    1    2    0    0  0.00000000000E+00  0.00000000000E+00  0.13341350716E+03  0.10948867053E+04  0.10867279943E+04 0.  0.
        1    1    3    3  502    0 -0.29246116086E+03  0.39623065822E+03  0.29802173853E+03  0.57562941359E+03  0.50400001928E-02 0.  1.
       -1    1    3    3    0  502  0.29246116086E+03 -0.39623065822E+03 -0.16460823137E+03  0.51925729170E+03  0.50400001928E-02 0. -1.
</event>
<event>
 5   0  0.7712816E-03  0.1098613E+04  0.7818609E-02  0.9206545E-01
       -2   -1    0    0    0  501  0.00000000000E+00  0.00000000000E+00  0.42845218285E+03  0.42845218286E+03  0.25500000920E-02 0. -1.
        2   -1    0    0  501    0  0.00000000000E+00  0.00000000000E+00 -0.70425000913E+03  0.70425000913E+03  0.25500000920E-02 0.  1.
    10030    2    1    2    0    0  0.00000000000E+00  0.00000000000E+00 -0.27579782627E+03  0.11327021920E+04  0.10986126773E+04 0.  0.
        2    1    3    3  502    0 -0.30316215696E+03 -0.34247534080E+03 -0.45154347535E+03  0.64271934980E+03  0.25500000920E-02 0.  1.
       -2    1    3    3    0  502  0.30316215696E+03  0.34247534080E+03  0.17574564908E+03  0.48998284219E+03  0.25500000920E-02 0. -1.
</event>
<event>
 5   0  0.4598561E-03  0.6756983E+03  0.7818609E-02  0.9759718E-01
        1   -1    0    0  501    0  0.00000000000E+00  0.00000000000E+00  0.27334911664E+03  0.27334911669E+03  0.50400001928E-02 0.  1.
       -1   -1    0    0    0  501  0.00000000000E+00  0.00000000000E+00 -0.41756871460E+03  0.41756871463E+03  0.50400001928E-02 0. -1.
    10030    2    1    2    0    0  0.00000000000E+00  0.00000000000E+00 -0.14421959796E+03  0.69091783132E+03  0.67569827378E+03 0.  0.
        2    1    3    3  502    0  0.31715056919E+03  0.11612717708E+03 -0.63431315233E+02  0.34364740149E+03  0.25500000920E-02 0.  1.
       -2    1    3    3    0  502 -0.31715056919E+03 -0.11612717708E+03 -0.80788282725E+02  0.34727042982E+03  0.25500000920E-02 0. -1.
</event>
<event>
 5   0  0.4428114E-03  0.1090795E+04  0.7818609E-02  0.9214210E-01
       -1   -1    0    0    0  501  0.00000000000E+00  0.00000000000E+00  0.66284873014E+03  0.66284873016E+03  0.50400001928E-02 0. -1.
        1   -1    0    0  501    0  0.00000000000E+00  0.00000000000E+00 -0.44875803305E+03  0.44875803308E+03  0.50400001928E-02 0.  1.
    10030    2    1    2    0    0  0.00000000000E+00  0.00000000000E+00  0.21409069709E+03  0.11116067632E+04  0.10907954756E+04 0.  0.
        4    1    3    3  502    0  0.25567912244E+02  0.33537035530E+03 -0.33048276655E+03  0.47153734235E+03  0.12699999809E+01 0.  1.
       -4    1    3    3    0  502 -0.25567912244E+02 -0.33537035530E+03  0.54457346364E+03  0.64006942089E+03  0.12699999809E+01 0. -1.
</event>
<event>
 5   0  0.7537480E-03  0.1038855E+04  0.7818609E-02  0.9266927E-01
        2   -1    0    0  501    0  0.00000000000E+00  0.00000000000E+00  0.16499248942E+04  0.16499248942E+04  0.25500000920E-02 0. -1.
       -2   -1    0    0    0  501  0.00000000000E+00  0.00000000000E+00 -0.16352546501E+03  0.16352546503E+03  0.25500000920E-02 0.  1.
    10030    2    1    2    0    0  0.00000000000E+00  0.00000000000E+00  0.14863994292E+04  0.18134503593E+04  0.10388546300E+04 0.  0.
        1    1    3    3  502    0 -0.43640857676E+02  0.28975239550E+03 -0.54754425866E+01  0.29307158793E+03  0.50400001928E-02 0.  1.
       -1    1    3    3    0  502  0.43640857676E+02 -0.28975239550E+03  0.14918748718E+04  0.15203787713E+04  0.50400001928E-02 0. -1.
</event>
<event>
 5   0  0.7712816E-03  0.1162911E+04  0.7818609E-02  0.9145954E-01
       -2   -1    0    0    0  501  0.00000000000E+00  0.00000000000E+00  0.21064761664E+03  0.21064761665E+03  0.25500000920E-02 0. -1.
        2   -1    0    0  501    0  0.00000000000E+00  0.00000000000E+00 -0.16050060720E+04  0.16050060720E+04  0.25500000920E-02 0.  1.
    10030    2    1    2    0    0  0.00000000000E+00  0.00000000000E+00 -0.13943584553E+04  0.18156536886E+04  0.11629113530E+04 0.  0.
        2    1    3    3  502    0 -0.36071627017E+03 -0.20330490627E+03 -0.13345294005E+04  0.13972894594E+04  0.25500000920E-02 0.  1.
       -2    1    3    3    0  502  0.36071627017E+03  0.20330490627E+03 -0.59829054800E+02  0.41836422921E+03  0.25500000920E-02 0. -1.
</event>
<event>
 5   0  0.4641021E-03  0.1115794E+04  0.7818609E-02  0.9189933E-01
       -1   -1    0    0    0  501  0.00000000000E+00  0.00000000000E+00  0.81069058077E+03  0.81069058078E+03  0.50400001928E-02 0. -1.
        1   -1    0    0  501    0  0.00000000000E+00  0.00000000000E+00 -0.38393060780E+03  0.38393060783E+03  0.50400001928E-02 0.  1.
    10030    2    1    2    0    0  0.00000000000E+00  0.00000000000E+00  0.42675997297E+03  0.11946211886E+04  0.11157937577E+04 0.  0.
        1    1    3    3  502    0 -0.52753970405E+03 -0.16281151046E+03  0.29932033216E+03  0.62801145575E+03  0.50400001928E-02 0. -1.
       -1    1    3    3    0  502  0.52753970405E+03  0.16281151046E+03  0.12743964081E+03  0.56660973286E+03  0.50400001928E-02 0.  1.
</event>
<event>
 5   0  0.4598561E-03  0.1128086E+04  0.7818609E-02  0.9178241E-01
       -1   -1    0    0    0  501  0.00000000000E+00  0.00000000000E+00  0.10038982719E+04  0.10038982719E+04  0.50400001928E-02 0. -1.
        1   -1    0    0  501    0  0.00000000000E+00  0.00000000000E+00 -0.31690924652E+03  0.31690924656E+03  0.50400001928E-02 0.  1.
    10030    2    1    2    0    0  0.00000000000E+00  0.00000000000E+00  0.68698902534E+03  0.13208075184E+04  0.11280862466E+04 0.  0.
        2    1    3    3  502    0 -0.54442082620E+03  0.14701435724E+03  0.35721821174E+03  0.66754183991E+03  0.25500000920E-02 0.  1.
       -2    1    3    3    0  502  0.54442082620E+03 -0.14701435724E+03  0.32977081360E+03  0.65326567853E+03  0.25500000920E-02 0. -1.
</event>
<event>
 5   0  0.7537480E-03  0.1086974E+04  0.7818609E-02  0.9217982E-01
        2   -1    0    0  501    0  0.00000000000E+00  0.00000000000E+00  0.94779824616E+03  0.94779824617E+03  0.25500000920E-02 0.  1.
       -2   -1    0    0    0  501  0.00000000000E+00  0.00000000000E+00 -0.31164644168E+03  0.31164644169E+03  0.25500000920E-02 0. -1.
    10030    2    1    2    0    0  0.00000000000E+00  0.00000000000E+00  0.63615180448E+03  0.12594446879E+04  0.10869736903E+04 0.  0.
        1    1    3    3  502    0 -0.66885791021E+02 -0.28126235711E+03  0.85131092359E+03  0.89906201745E+03  0.50400001928E-02 0.  1.
       -1    1    3    3    0  502  0.66885791021E+02  0.28126235711E+03 -0.21515911911E+03  0.36038267041E+03  0.50400001928E-02 0. -1.
</event>
<event>
 5   0  0.4598561E-03  0.1187573E+04  0.7818609E-02  0.9123804E-01
        1   -1    0    0  501    0  0.00000000000E+00  0.00000000000E+00  0.11274131515E+04  0.11274131515E+04  0.50400001928E-02 0.  1.
       -1   -1    0    0    0  501  0.00000000000E+00  0.00000000000E+00 -0.31273564574E+03  0.31273564578E+03  0.50400001928E-02 0. -1.
    10030    2    1    2    0    0  0.00000000000E+00  0.00000000000E+00  0.81467750579E+03  0.14401487973E+04  0.11875727851E+04 0.  0.
        2    1    3    3  502    0  0.68536350586E+02 -0.42870484325E+03 -0.83905771736E+02  0.44218237472E+03  0.25500000920E-02 0. -1.
       -2    1    3    3    0  502 -0.68536350586E+02  0.42870484325E+03  0.89858327753E+03  0.99796642260E+03  0.25500000920E-02 0.  1.
</event>
<event>
 5   0  0.4298101E-03  0.1101313E+04  0.7818609E-02  0.9203913E-01
       -1   -1    0    0    0  501  0.00000000000E+00  0.00000000000E+00  0.51371575965E+03  0.51371575967E+03  0.50400001928E-02 0. -1.
        1   -1    0    0  501    0  0.00000000000E+00  0.00000000000E+00 -0.59025393575E+03  0.59025393578E+03  0.50400001928E-02 0.  1.
    10030    2    1    2    0    0  0.00000000000E+00  0.00000000000E+00 -0.76538176105E+02  0.11039696954E+04  0.11013133051E+04 0.  0.
        3    1    3    3  502    0 -0.54849359830E+03  0.20379156635E+02  0.61344993021E+01  0.54890634874E+03  0.10100000352E+00 0.  1.
       -3    1    3    3    0  502  0.54849359830E+03 -0.20379156635E+02 -0.82672675407E+02  0.55506334671E+03  0.10100000352E+00 0. -1.
</event>
<event>
 5   0  0.7738497E-03  0.1081831E+04  0.7818609E-02  0.9223083E-01
       -2   -1    0    0    0  501  0.00000000000E+00  0.00000000000E+00  0.10409023834E+04  0.10409023834E+04  0.25500000920E-02 0.  1.
        2   -1    0    0  501    0  0.00000000000E+00  0.00000000000E+00 -0.28109237255E+03  0.28109237256E+03  0.25500000920E-02 0. -1.
    10030    2    1    2    0    0  0.00000000000E+00  0.00000000000E+00  0.75981001089E+03  0.13219947560E+04  0.10818312633E+04 0.  0.
        4    1    3    3  502    0  0.39000354788E+03  0.80725577553E+02 -0.67367200054E+02  0.40392986863E+03  0.12699999809E+01 0. -1.
       -4    1    3    3    0  502 -0.39000354788E+03 -0.80725577553E+02  0.82717721095E+03  0.91806488738E+03  0.12699999809E+01 0.  1.
</event>
<event>
 5   0  0.7738497E-03  0.1109862E+04  0.7818609E-02  0.9195633E-01
        2   -1    0    0  501    0  0.00000000000E+00  0.00000000000E+00  0.50631572961E+03  0.50631572962E+03  0.25500000920E-02 0. -1.
       -2   -1    0    0    0  501  0.00000000000E+00  0.00000000000E+00 -0.60821378626E+03  0.60821378627E+03  0.25500000920E-02 0.  1.
    10030    2    1    2    0    0  0.00000000000E+00  0.00000000000E+00 -0.10189805665E+03  0.11145295159E+04  0.11098616255E+04 0.  0.
        4    1    3    3  502    0  0.41263390293E+03  0.17086504550E+03  0.27980684918E+03  0.52702475024E+03  0.12699999809E+01 0. -1.
       -4    1    3    3    0  502 -0.41263390293E+03 -0.17086504550E+03 -0.38170490583E+03  0.58750476565E+03  0.12699999809E+01 0.  1.
</event>
<event>
 5   0  0.7738497E-03  0.1112532E+04  0.7818609E-02  0.9193063E-01
       -2   -1    0    0    0  501  0.00000000000E+00  0.00000000000E+00  0.62122239973E+03  0.62122239973E+03  0.25500000920E-02 0. -1.
        2   -1    0    0  501    0  0.00000000000E+00  0.00000000000E+00 -0.49810144685E+03  0.49810144685E+03  0.25500000920E-02 0.  1.
    10030    2    1    2    0    0  0.00000000000E+00  0.00000000000E+00  0.12312095288E+03  0.11193238466E+04  0.11125318443E+04 0.  0.
        4    1    3    3  502    0 -0.54954531533E+03 -0.13559965335E+02 -0.24084041928E+02  0.55024138361E+03  0.12699999809E+01 0.  1.
       -4    1    3    3    0  502  0.54954531533E+03  0.13559965335E+02  0.14720499481E+03  0.56908246297E+03  0.12699999809E+01 0. -1.
</event>
<event>
 5   0  0.7952121E-03  0.1183418E+04  0.7818609E-02  0.9127496E-01
       -2   -1    0    0    0  501  0.00000000000E+00  0.00000000000E+00  0.52007732401E+03  0.52007732402E+03  0.25500000920E-02 0.  1.
        2   -1    0    0  501    0  0.00000000000E+00  0.00000000000E+00 -0.67320632530E+03  0.67320632531E+03  0.25500000920E-02 0. -1.
    10030    2    1    2    0    0  0.00000000000E+00  0.00000000000E+00 -0.15312900129E+03  0.11932836493E+04  0.11834176679E+04 0.  0.
        3    1    3    3  502    0 -0.41019916692E+02  0.39663848867E+03  0.36424666338E+03  0.54007440807E+03  0.10100000352E+00 0.  1.
       -3    1    3    3    0  502  0.41019916692E+02 -0.39663848867E+03 -0.51737566468E+03  0.65320924126E+03  0.10100000352E+00 0. -1.
</event>
<event>
 5   0  0.4641021E-03  0.1090462E+04  0.7818609E-02  0.9214539E-01
       -1   -1    0    0    0  501  0.00000000000E+00  0.00000000000E+00  0.44232139985E+03  0.44232139987E+03  0.50400001928E-02 0.  1.
        1   -1    0    0  501    0  0.00000000000E+00  0.00000000000E+00 -0.67208274388E+03  0.67208274390E+03  0.50400001928E-02 0. -1.
    10030    2    1    2    0    0  0.00000000000E+00  0.00000000000E+00 -0.22976134403E+03  0.11144041438E+04  0.10904615172E+04 0.  0.
        1    1    3    3  502    0 -0.43537461400E+03 -0.16350908443E+03  0.17595581583E+03  0.49723910180E+03  0.50400001928E-02 0.  1.
       -1    1    3    3    0  502  0.43537461400E+03  0.16350908443E+03 -0.40571715987E+03  0.61716504198E+03  0.50400001928E-02 0. -1.
</event>
<event>
 5   0  0.7712816E-03  0.1092843E+04  0.7818609E-02  0.9212196E-01
       -2   -1    0    0    0  501  0.00000000000E+00  0.00000000000E+00  0.25570124230E+03  0.25570124231E+03  0.25500000920E-02 0.  1.
        2   -1    0    0  501    0  0.00000000000E+00  0.00000000000E+00 -0.11676761902E+04  0.11676761902E+04  0.25500000920E-02 0. -1.
    10030    2    1    2    0    0  0.00000000000E+00  0.00000000000E+00 -0.91197494794E+03  0.14233774325E+04  0.10928426281E+04 0.  0.
        2    1    3    3  502    0 -0.13970030927E+03  0.10253952527E+03  0.21896247344E+03  0.27924021100E+03  0.25500000920E-02 0.  1.
       -2    1    3    3    0  502  0.13970030927E+03 -0.10253952527E+03 -0.11309374214E+04  0.11441372216E+04  0.25500000920E-02 0. -1.
</event>
<event>
 5   0  0.7537480E-03  0.1118090E+04  0.7818609E-02  0.9187737E-01
        2   -1    0    0  501    0  0.00000000000E+00  0.00000000000E+00  0.50441419621E+03  0.50441419622E+03  0.25500000920E-02 0. -1.
       -2   -1    0    0    0  501  0.00000000000E+00  0.00000000000E+00 -0.61959272419E+03  0.61959272419E+03  0.25500000920E-02 0.  1.
    10030    2    1    2    0    0  0.00000000000E+00  0.00000000000E+00 -0.11517852797E+03  0.11240069204E+04  0.11180900965E+04 0.  0.
        1    1    3    3  502    0  0.61452034929E+02 -0.31382722251E+03 -0.51856519207E+03  0.60924029466E+03  0.50400001928E-02 0.  1.
       -1    1    3    3    0  502 -0.61452034929E+02  0.31382722251E+03  0.40338666410E+03  0.51476662575E+03  0.50400001928E-02 0. -1.
</event>
<event>
 5   0  0.4598561E-03  0.1108353E+04  0.7818609E-02  0.9197088E-01
        1   -1    0    0  501    0  0.00000000000E+00  0.00000000000E+00  0.16130944483E+04  0.16130944483E+04  0.50400001928E-02 0. -1.
       -1   -1    0    0    0  501  0.00000000000E+00  0.00000000000E+00 -0.19038664175E+03  0.19038664182E+03  0.50400001928E-02 0.  1.
    10030    2    1    2    0    0  0.00000000000E+00  0.00000000000E+00  0.14227078066E+04  0.18034810902E+04  0.11083530754E+04 0.  0.
        2    1    3    3  502    0 -0.29051548141E+03  0.34263559576E+03  0.18330402563E+03  0.48517910326E+03  0.25500000920E-02 0.  1.
       -2    1    3    3    0  502  0.29051548141E+03 -0.34263559576E+03  0.12394037809E+04  0.13183019869E+04  0.25500000920E-02 0. -1.
</event>
<event>
 5   0  0.4598561E-03  0.1081715E+04  0.7818609E-02  0.9223199E-01
        1   -1    0    0  501    0  0.00000000000E+00  0.00000000000E+00  0.31107389403E+03  0.31107389407E+03  0.50400001928E-02 0.  1.
       -1   -1    0    0    0  501  0.00000000000E+00  0.00000000000E+00 -0.94037685302E+03  0.94037685303E+03  0.50400001928E-02 0. -1.
    10030    2    1    2    0    0  0.00000000000E+00  0.00000000000E+00 -0.62930295899E+03  0.12514507471E+04  0.10817147305E+04 0.  0.
        2    1    3    3  502    0 -0.16177243146E+03 -0.59558555363E+00 -0.91173113367E+03  0.92597210239E+03  0.25500000920E-02 0. -1.
       -2    1    3    3    0  502  0.16177243146E+03  0.59558555363E+00  0.28242817468E+03  0.32547864471E+03  0.25500000920E-02 0.  1.
</event>
<event>
 5   0  0.7537480E-03  0.1105970E+04  0.7818609E-02  0.9199392E-01
        2   -1    0    0  501    0  0.00000000000E+00  0.00000000000E+00  0.59248878774E+03  0.59248878775E+03  0.25500000920E-02 0.  1.
       -2   -1    0    0    0  501  0.00000000000E+00  0.00000000000E+00 -0.51611531578E+03  0.51611531579E+03  0.25500000920E-02 0. -1.
    10030    2    1    2    0    0  0.00000000000E+00  0.00000000000E+00  0.76373471959E+02  0.11086041035E+04  0.11059702307E+04 0.  0.
        1    1    3    3  502    0  0.35580061235E+03 -0.42204651077E+03  0.53183306271E+01  0.55203769588E+03  0.50400001928E-02 0. -1.
       -1    1    3    3    0  502 -0.35580061235E+03  0.42204651077E+03  0.71055141332E+02  0.55656640766E+03  0.50400001928E-02 0.  1.
</event>
<event>
 5   0  0.7738497E-03  0.1088973E+04  0.7818609E-02  0.9216006E-01
        2   -1    0    0  501    0  0.00000000000E+00  0.00000000000E+00  0.79239947085E+03  0.79239947086E+03  0.25500000920E-02 0. -1.
       -2   -1    0    0    0  501  0.00000000000E+00  0.00000000000E+00 -0.37413661274E+03  0.37413661275E+03  0.25500000920E-02 0.  1.
    10030    2    1    2    0    0  0.00000000000E+00  0.00000000000E+00  0.41826285811E+03  0.11665360836E+04  0.10889731934E+04 0.  0.
        4    1    3    3  502    0 -0.41761769375E+03 -0.34792921805E+03  0.17517573412E+03  0.57109318822E+03  0.12699999809E+01 0.  1.
       -4    1    3    3    0  502  0.41761769375E+03  0.34792921805E+03  0.24308712400E+03  0.59544289538E+03  0.12699999809E+01 0. -1.
</event>
<event>
 5   0  0.7738497E-03  0.1110688E+04  0.7818609E-02  0.9194837E-01
        2   -1    0    0  501    0  0.00000000000E+00  0.00000000000E+00  0.15008508247E+04  0.15008508247E+04  0.25500000920E-02 0.  1.
       -2   -1    0    0    0  501  0.00000000000E+00  0.00000000000E+00 -0.20548802073E+03  0.20548802075E+03  0.25500000920E-02 0. -1.
    10030    2    1    2    0    0  0.00000000000E+00  0.00000000000E+00  0.12953628040E+04  0.17063388455E+04  0.11106878327E+04 0.  0.
        4    1    3    3  502    0 -0.53052892239E+03 -0.12343063931E+03  0.81392186224E+03  0.97937044622E+03  0.12699999809E+01 0.  1.
       -4    1    3    3    0  502  0.53052892239E+03  0.12343063931E+03  0.48144094177E+03  0.72696839926E+03  0.12699999809E+01 0. -1.
</event>
<event>
 5   0  0.4298101E-03  0.1100463E+04  0.7818609E-02  0.9204741E-01
        1   -1    0    0  501    0  0.00000000000E+00  0.00000000000E+00  0.10700494426E+04  0.10700494426E+04  0.50400001928E-02 0.  1.
       -1   -1    0    0    0  501  0.00000000000E+00  0.00000000000E+00 -0.28293525633E+03  0.28293525638E+03  0.50400001928E-02 0. -1.
    10030    2    1    2    0    0  0.00000000000E+00  0.00000000000E+00  0.78711418630E+03  0.13529846990E+04  0.11004630178E+04 0.  0.
        3    1    3    3  502    0 -0.36246476419E+02 -0.30655999724E+03  0.95355521569E+03  0.10022776055E+04  0.10100000352E+00 0.  1.
       -3    1    3    3    0  502  0.36246476419E+02  0.30655999724E+03 -0.16644102940E+03  0.35070709350E+03  0.10100000352E+00 0. -1.
</event>
<event>
 5   0  0.2992375E-03  0.1120566E+04  0.7818609E-02  0.9185375E-01
        3   -1    0    0  501    0  0.00000000000E+00  0.00000000000E+00  0.98202344966E+03  0.98202345485E+03  0.10100000352E+00 0. -1.
       -3   -1    0    0    0  501  0.00000000000E+00  0.00000000000E+00 -0.31966364810E+03  0.31966366406E+03  0.10100000352E+00 0.  1.
    10030    2    1    2    0    0  0.00000000000E+00  0.00000000000E+00  0.66235980155E+03  0.13016871189E+04  0.11205663072E+04 0.  0.
        3    1    3    3  502    0  0.60695098251E+02  0.46074868285E+03 -0.32364845545E+02  0.46585484555E+03  0.10100000352E+00 0.  1.
       -3    1    3    3    0  502 -0.60695098251E+02 -0.46074868285E+03  0.69472464710E+03  0.83583227336E+03  0.10100000352E+00 0. -1.
</event>
<event>
 5   0  0.4298101E-03  0.1094285E+04  0.7818609E-02  0.9210780E-01
        1   -1    0    0  501    0  0.00000000000E+00  0.00000000000E+00  0.64440422442E+03  0.64440422443E+03  0.50400001928E-02 0.  1.
       -1   -1    0    0    0  501  0.00000000000E+00  0.00000000000E+00 -0.46456079993E+03  0.46456079996E+03  0.50400001928E-02 0. -1.
    10030    2    1    2    0    0  0.00000000000E+00  0.00000000000E+00  0.17984342449E+03  0.11089650244E+04  0.10942850488E+04 0.  0.
        3    1    3    3  502    0 -0.53298478576E+03  0.91344250171E+02  0.54465374610E+01  0.54078297760E+03  0.10100000352E+00 0. -1.
       -3    1    3    3    0  502  0.53298478576E+03 -0.91344250171E+02  0.17439688703E+03  0.56818204679E+03  0.10100000352E+00 0.  1.
</event>
<event>
 5   0  0.7712816E-03  0.1080312E+04  0.7818609E-02  0.9224596E-01
        2   -1    0    0  501    0  0.00000000000E+00  0.00000000000E+00  0.23770854657E+04  0.23770854657E+04  0.25500000920E-02 0.  1.
       -2   -1    0    0    0  501  0.00000000000E+00  0.00000000000E+00 -0.12274215681E+03  0.12274215684E+03  0.25500000920E-02 0. -1.
    10030    2    1    2    0    0  0.00000000000E+00  0.00000000000E+00  0.22543433088E+04  0.24998276225E+04  0.10803121716E+04 0.  0.
        2    1    3    3  502    0  0.27263411284E+03  0.15454523436E+03  0.21452073354E+04  0.21679778829E+04  0.25500000920E-02 0.  1.
       -2    1    3    3    0  502 -0.27263411284E+03 -0.15454523436E+03  0.10913597343E+03  0.33184973957E+03  0.25500000920E-02 0. -1.
</event>
<event>
 5   0  0.4598561E-03  0.1045880E+04  0.7818609E-02  0.9259608E-01
        1   -1    0    0  501    0  0.00000000000E+00  0.00000000000E+00  0.14969810987E+04  0.14969810987E+04  0.50400001928E-02 0. -1.
       -1   -1    0    0    0  501  0.00000000000E+00  0.00000000000E+00 -0.18267862604E+03  0.18267862611E+03  0.50400001928E-02 0.  1.
    10030    2    1    2    0    0  0.00000000000E+00  0.00000000000E+00  0.13143024726E+04  0.16796597248E+04  0.10458803954E+04 0.  0.
        2    1    3    3  502    0 -0.44452221215E+03 -0.87904174161E+02  0.10763675264E+04  0.11678588069E+04  0.25500000920E-02 0. -1.
       -2    1    3    3    0  502  0.44452221215E+03  0.87904174161E+02  0.23793494624E+03  0.51180091792E+03  0.25500000920E-02 0.  1.
</event>
<event>
 5   0  0.4598561E-03  0.1183441E+04  0.7818609E-02  0.9127475E-01
        1   -1    0    0  501    0  0.00000000000E+00  0.00000000000E+00  0.31315416461E+03  0.31315416465E+03  0.50400001928E-02 0.  1.
       -1   -1    0    0    0  501  0.00000000000E+00  0.00000000000E+00 -0.11180859044E+04  0.11180859044E+04  0.50400001928E-02 0. -1.
    10030    2    1    2    0    0  0.00000000000E+00  0.00000000000E+00 -0.80493173975E+03  0.14312400690E+04  0.11834411813E+04 0.  0.
        2    1    3    3  502    0 -0.26020945236E+03  0.40374685463E+03 -0.82038399330E+03  0.95065786600E+03  0.25500000920E-02 0. -1.
       -2    1    3    3    0  502  0.26020945236E+03 -0.40374685463E+03  0.15452253541E+02  0.48058220303E+03  0.25500000920E-02 0.  1.
</event>
<event>
 5   0  0.4641021E-03  0.1438522E+04  0.7818609E-02  0.8926397E-01
       -1   -1    0    0    0  501  0.00000000000E+00  0.00000000000E+00  0.35239532889E+03  0.35239532893E+03  0.50400001928E-02 0.  1.
        1   -1    0    0  501    0  0.00000000000E+00  0.00000000000E+00 -0.14680565851E+04  0.14680565851E+04  0.50400001928E-02 0. -1.
    10030    2    1    2    0    0  0.00000000000E+00  0.00000000000E+00 -0.11156612562E+04  0.18204519141E+04  0.14385218569E+04 0.  0.
        1    1    3    3  502    0 -0.50470151399E+03  0.44348644040E+02  0.88252150038E+02  0.51427508443E+03  0.50400001928E-02 0.  1.
       -1    1    3    3    0  502  0.50470151399E+03 -0.44348644040E+02 -0.12039134063E+04  0.13061768296E+04  0.50400001928E-02 0. -1.
</event>
<event>
 5   0  0.7712816E-03  0.1133546E+04  0.7818609E-02  0.9173098E-01
       -2   -1    0    0    0  501  0.00000000000E+00  0.00000000000E+00  0.48365088599E+03  0.48365088599E+03  0.25500000920E-02 0.  1.
        2   -1    0    0  501    0  0.00000000000E+00  0.00000000000E+00 -0.66418106237E+03  0.66418106238E+03  0.25500000920E-02 0. -1.
    10030    2    1    2    0    0  0.00000000000E+00  0.00000000000E+00 -0.18053017639E+03  0.11478319484E+04  0.11335462219E+04 0.  0.
        2    1    3    3  502    0 -0.80566995804E+02  0.13907851649E+03 -0.64061989678E+03  0.66047537934E+03  0.25500000920E-02 0. -1.
       -2    1    3    3    0  502  0.80566995804E+02 -0.13907851649E+03  0.46008972039E+03  0.48735656903E+03  0.25500000920E-02 0.  1.
</event>
<event>
 5   0  0.7738497E-03  0.1109654E+04  0.7818609E-02  0.9195834E-01
        2   -1    0    0  501    0  0.00000000000E+00  0.00000000000E+00  0.16300953097E+04  0.16300953097E+04  0.25500000920E-02 0. -1.
       -2   -1    0    0    0  501  0.00000000000E+00  0.00000000000E+00 -0.18884342452E+03  0.18884342454E+03  0.25500000920E-02 0.  1.
    10030    2    1    2    0    0  0.00000000000E+00  0.00000000000E+00  0.14412518852E+04  0.18189387343E+04  0.11096536047E+04 0.  0.
        4    1    3    3  502    0  0.26207315967E+03  0.47044560523E+03  0.50174730241E+03  0.73603897782E+03  0.12699999809E+01 0.  1.
       -4    1    3    3    0  502 -0.26207315967E+03 -0.47044560523E+03  0.93950458281E+03  0.10828997565E+04  0.12699999809E+01 0. -1.
</event>
<event>
 5   0  0.4641021E-03  0.1073876E+04  0.7818609E-02  0.9231035E-01
        1   -1    0    0  501    0  0.00000000000E+00  0.00000000000E+00  0.11732054282E+04  0.11732054282E+04  0.50400001928E-02 0. -1.
       -1   -1    0    0    0  501  0.00000000000E+00  0.00000000000E+00 -0.24573912405E+03  0.24573912410E+03  0.50400001928E-02 0.  1.
    10030    2    1    2    0    0  0.00000000000E+00  0.00000000000E+00  0.92746630414E+03  0.14189445523E+04  0.10738761089E+04 0.  0.
        1    1    3    3  502    0  0.37915244661E+03  0.30142277198E+03  0.76990044333E+03  0.90959274288E+03  0.50400001928E-02 0. -1.
       -1    1    3    3    0  502 -0.37915244661E+03 -0.30142277198E+03  0.15756586081E+03  0.50935180941E+03  0.50400001928E-02 0.  1.
</event>
<event>
 5   0  0.7537480E-03  0.1103057E+04  0.7818609E-02  0.9202218E-01
       -2   -1    0    0    0  501  0.00000000000E+00  0.00000000000E+00  0.11669926060E+04  0.11669926060E+04  0.25500000920E-02 0. -1.
        2   -1    0    0  501    0  0.00000000000E+00  0.00000000000E+00 -0.26065586014E+03  0.26065586015E+03  0.25500000920E-02 0.  1.
    10030    2    1    2    0    0  0.00000000000E+00  0.00000000000E+00  0.90633674590E+03  0.14276484662E+04  0.11030565924E+04 0.  0.
        1    1    3    3  502    0 -0.13228010728E+03  0.53541613954E+03  0.45817974425E+03  0.71700568151E+03  0.50400001928E-02 0.  1.
       -1    1    3    3    0  502  0.13228010728E+03 -0.53541613954E+03  0.44815700166E+03  0.71064278468E+03  0.50400001928E-02 0. -1.
</event>
<event>
 5   0  0.4598561E-03  0.1083177E+04  0.7818609E-02  0.9221746E-01
        1   -1    0    0  501    0  0.00000000000E+00  0.00000000000E+00  0.96515593360E+03  0.96515593362E+03  0.50400001928E-02 0.  1.
       -1   -1    0    0    0  501  0.00000000000E+00  0.00000000000E+00 -0.30390749051E+03  0.30390749055E+03  0.50400001928E-02 0. -1.
    10030    2    1    2    0    0  0.00000000000E+00  0.00000000000E+00  0.66124844310E+03  0.12690634242E+04  0.10831770266E+04 0.  0.
        2    1    3    3  502    0  0.30318586116E+03 -0.23377530199E+03  0.77943819649E+03  0.86838727558E+03  0.25500000920E-02 0.  1.
       -2    1    3    3    0  502 -0.30318586116E+03  0.23377530199E+03 -0.11818975339E+03  0.40067614859E+03  0.25500000920E-02 0. -1.
</event>
<event>
 5   0  0.4641021E-03  0.1096941E+04  0.7818609E-02  0.9208179E-01
       -1   -1    0    0    0  501  0.00000000000E+00  0.00000000000E+00  0.50639638566E+03  0.50639638569E+03  0.50400001928E-02 0.  1.
        1   -1    0    0  501    0  0.00000000000E+00  0.00000000000E+00 -0.59403990955E+03  0.59403990957E+03  0.50400001928E-02 0. -1.
    10030    2    1    2    0    0  0.00000000000E+00  0.00000000000E+00 -0.87643523884E+02  0.11004362953E+04  0.10969405876E+04 0.  0.
        1    1    3    3  502    0  0.25388292457E+03 -0.48550891455E+03 -0.18359433967E+02  0.54819021729E+03  0.50400001928E-02 0.  1.
       -1    1    3    3    0  502 -0.25388292457E+03  0.48550891455E+03 -0.69284089917E+02  0.55224607797E+03  0.50400001928E-02 0. -1.
</event>
<event>
 5   0  0.4641021E-03  0.1109736E+04  0.7818609E-02  0.9195754E-01
       -1   -1    0    0    0  501  0.00000000000E+00  0.00000000000E+00  0.15208930480E+03  0.15208930488E+03  0.50400001928E-02 0. -1.
        1   -1    0    0  501    0  0.00000000000E+00  0.00000000000E+00 -0.20243261739E+04  0.20243261739E+04  0.50400001928E-02 0.  1.
    10030    2    1    2    0    0  0.00000000000E+00  0.00000000000E+00 -0.18722368691E+04  0.21764154788E+04  0.11097357534E+04 0.  0.
        1    1    3    3  502    0 -0.30685924288E+03 -0.42354368874E+03 -0.12994783775E+04  0.14007840322E+04  0.50400001928E-02 0. -1.
       -1    1    3    3    0  502  0.30685924288E+03  0.42354368874E+03 -0.57275849157E+03  0.77563144657E+03  0.50400001928E-02 0.  1.
</event>
<event>
 5   0  0.4641021E-03  0.1085802E+04  0.7818609E-02  0.9219142E-01
        1   -1    0    0  501    0  0.00000000000E+00  0.00000000000E+00  0.80216996948E+03  0.80216996950E+03  0.50400001928E-02 0. -1.
       -1   -1    0    0    0  501  0.00000000000E+00  0.00000000000E+00 -0.36743000558E+03  0.36743000562E+03  0.50400001928E-02 0.  1.
    10030    2    1    2    0    0  0.00000000000E+00  0.00000000000E+00  0.43473996390E+03  0.11695999751E+04  0.10858016695E+04 0.  0.
        1    1    3    3  502    0  0.14090732492E+03 -0.39524859545E+03 -0.15369344285E+03  0.44687582260E+03  0.50400001928E-02 0.  1.
       -1    1    3    3    0  502 -0.14090732492E+03  0.39524859545E+03  0.58843340676E+03  0.72272415252E+03  0.50400001928E-02 0. -1.
</event>
<event>
 5   0  0.4641021E-03  0.1173382E+04  0.7818609E-02  0.9136479E-01
        1   -1    0    0  501    0  0.00000000000E+00  0.00000000000E+00  0.94508133853E+03  0.94508133854E+03  0.50400001928E-02 0.  1.
       -1   -1    0    0    0  501  0.00000000000E+00  0.00000000000E+00 -0.36420836409E+03  0.36420836413E+03  0.50400001928E-02 0. -1.
    10030    2    1    2    0    0  0.00000000000E+00  0.00000000000E+00  0.58087297443E+03  0.13092897027E+04  0.11733823388E+04 0.  0.
        1    1    3    3  502    0 -0.63792151540E+02  0.40245043094E+03  0.76142942727E+03  0.86360324265E+03  0.50400001928E-02 0.  1.
       -1    1    3    3    0  502  0.63792151540E+02 -0.40245043094E+03 -0.18055645284E+03  0.44568646003E+03  0.50400001928E-02 0. -1.
</event>
<event>
 5   0  0.4598561E-03  0.7708092E+03  0.7818609E-02  0.9603258E-01
        1   -1    0    0  501    0  0.00000000000E+00  0.00000000000E+00  0.51472868845E+03  0.51472868847E+03  0.50400001928E-02 0.  1.
       -1   -1    0    0    0  501  0.00000000000E+00  0.00000000000E+00 -0.28857278827E+03  0.28857278832E+03  0.50400001928E-02 0. -1.
    10030    2    1    2    0    0  0.00000000000E+00  0.00000000000E+00  0.22615590018E+03  0.80330147679E+03  0.77080916668E+03 0.  0.
        2    1    3    3  502    0  0.26357711607E+03 -0.24747429482E+03  0.25219771535E+03  0.44081754769E+03  0.25500000920E-02 0.  1.
       -2    1    3    3    0  502 -0.26357711607E+03  0.24747429482E+03 -0.26041815172E+02  0.36248392910E+03  0.25500000920E-02 0. -1.
</event>
<event>
 5   0  0.4428114E-03  0.1088052E+04  0.7818609E-02  0.9216916E-01
       -1   -1    0    0    0  501  0.00000000000E+00  0.00000000000E+00  0.13318939949E+03  0.13318939958E+03  0.50400001928E-02 0.  1.
        1   -1    0    0  501    0  0.00000000000E+00  0.00000000000E+00 -0.22221317755E+04  0.22221317755E+04  0.50400001928E-02 0. -1.
    10030    2    1    2    0    0  0.00000000000E+00  0.00000000000E+00 -0.20889423760E+04  0.23553211750E+04  0.10880521989E+04 0.  0.
        4    1    3    3  502    0  0.11424007905E+03  0.35031473962E+03 -0.17806761117E+03  0.40924430296E+03  0.12699999809E+01 0.  1.
       -4    1    3    3    0  502 -0.11424007905E+03 -0.35031473962E+03 -0.19108747648E+04  0.19460768721E+04  0.12699999809E+01 0. -1.
</event>
<event>
 5   0  0.7712816E-03  0.1114275E+04  0.7818609E-02  0.9191389E-01
        2   -1    0    0  501    0  0.00000000000E+00  0.00000000000E+00  0.14372804298E+04  0.14372804298E+04  0.25500000920E-02 0. -1.
       -2   -1    0    0    0  501  0.00000000000E+00  0.00000000000E+00 -0.21596480622E+03  0.21596480624E+03  0.25500000920E-02 0.  1.
    10030    2    1    2    0    0  0.00000000000E+00  0.00000000000E+00  0.12213156236E+04  0.16532452360E+04  0.11142746332E+04 0.  0.
        2    1    3    3  502    0 -0.11685872349E+03  0.33339714824E+03  0.12498406337E+04  0.12988114680E+04  0.25500000920E-02 0. -1.
       -2    1    3    3    0  502  0.11685872349E+03 -0.33339714824E+03 -0.28525010153E+02  0.35443376803E+03  0.25500000920E-02 0.  1.
</event>
<event>
 5   0  0.4598561E-03  0.1095076E+04  0.7818609E-02  0.9210004E-01
        1   -1    0    0  501    0  0.00000000000E+00  0.00000000000E+00  0.13614285509E+04  0.13614285509E+04  0.50400001928E-02 0. -1.
       -1   -1    0    0    0  501  0.00000000000E+00  0.00000000000E+00 -0.22020830583E+03  0.22020830589E+03  0.50400001928E-02 0.  1.
    10030    2    1    2    0    0  0.00000000000E+00  0.00000000000E+00  0.11412202450E+04  0.15816368568E+04  0.10950760243E+04 0.  0.
        2    1    3    3  502    0 -0.39978551291E+03  0.42991784769E+02  0.11073854672E+04  0.11781253426E+04  0.25500000920E-02 0. -1.
       -2    1    3    3    0  502  0.39978551291E+03 -0.42991784769E+02  0.33834777861E+02  0.40351151420E+03  0.25500000920E-02 0.  1.
</event>
<event>
 5   0  0.4504740E-03  0.1091396E+04  0.7818609E-02  0.9213618E-01
       -1   -1    0    0    0  501  0.00000000000E+00  0.00000000000E+00  0.55475177490E+03  0.55475177492E+03  0.50400001928E-02 0. -1.
        1   -1    0    0  501    0  0.00000000000E+00  0.00000000000E+00 -0.53679237190E+03  0.53679237192E+03  0.50400001928E-02 0.  1.
    10030    2    1    2    0    0  0.00000000000E+00  0.00000000000E+00  0.17959402998E+02  0.10915441468E+04  0.10913963919E+04 0.  0.
        5    1    3    3  502    0  0.52031617879E+03 -0.13326199414E+03  0.10530860717E+03  0.54735699295E+03  0.46999998093E+01 0.  1.
       -5    1    3    3    0  502 -0.52031617879E+03  0.13326199414E+03 -0.87349204169E+02  0.54418715389E+03  0.46999998093E+01 0. -1.
</event>
<event>
 5   0  0.7537480E-03  0.1168903E+04  0.7818609E-02  0.9140520E-01
       -2   -1    0    0    0  501  0.00000000000E+00  0.00000000000E+00  0.57782898819E+03  0.57782898819E+03  0.25500000920E-02 0. -1.
        2   -1    0    0  501    0  0.00000000000E+00  0.00000000000E+00 -0.59115011518E+03  0.59115011518E+03  0.25500000920E-02 0.  1.
    10030    2    1    2    0    0  0.00000000000E+00  0.00000000000E+00 -0.13321126988E+02  0.11689791034E+04  0.11689032003E+04 0.  0.
        1    1    3    3  502    0 -0.23016692228E+03 -0.34538010570E+03  0.40485059516E+03  0.57980016726E+03  0.50400001928E-02 0.  1.
       -1    1    3    3    0  502  0.23016692228E+03  0.34538010570E+03 -0.41817172215E+03  0.58917893611E+03  0.50400001928E-02 0. -1.
</event>
<event>
 5   0  0.7537480E-03  0.1096721E+04  0.7818609E-02  0.9208394E-01
       -2   -1    0    0    0  501  0.00000000000E+00  0.00000000000E+00  0.27642586791E+03  0.27642586792E+03  0.25500000920E-02 0.  1.
        2   -1    0    0  501    0  0.00000000000E+00  0.00000000000E+00 -0.10878112939E+04  0.10878112939E+04  0.25500000920E-02 0. -1.
    10030    2    1    2    0    0  0.00000000000E+00  0.00000000000E+00 -0.81138542598E+03  0.13642371618E+04  0.10967208962E+04 0.  0.
        1    1    3    3  502    0  0.24536133468E+03 -0.51858535007E+02 -0.10122987153E+04  0.10428998903E+04  0.50400001928E-02 0. -1.
       -1    1    3    3    0  502 -0.24536133468E+03  0.51858535007E+02  0.20091328931E+03  0.32133727150E+03  0.50400001928E-02 0.  1.
</event>
<event>
 5   0  0.7712816E-03  0.1128324E+04  0.7818609E-02  0.9178017E-01
       -2   -1    0    0    0  501  0.00000000000E+00  0.00000000000E+00  0.22576222221E+03  0.22576222223E+03  0.25500000920E-02 0.  1.
        2   -1    0    0  501    0  0.00000000000E+00  0.00000000000E+00 -0.14097961850E+04  0.14097961850E+04  0.25500000920E-02 0. -1.
    10030    2    1    2    0    0  0.00000000000E+00  0.00000000000E+00 -0.11840339628E+04  0.16355584072E+04  0.11283239244E+04 0.  0.
        2    1    3    3  502    0  0.11968709129E+03 -0.48573468695E+03 -0.21397823357E+03  0.54410465021E+03  0.25500000920E-02 0.  1.
       -2    1    3    3    0  502 -0.11968709129E+03  0.48573468695E+03 -0.97005572922E+03  0.10914537570E+04  0.25500000920E-02 0. -1.
</event>
<event>
 5   0  0.7766551E-03  0.1102445E+04  0.7818609E-02  0.9202812E-01
       -2   -1    0    0    0  501  0.00000000000E+00  0.00000000000E+00  0.28205772044E+03  0.28205772045E+03  0.25500000920E-02 0.  1.
        2   -1    0    0  501    0  0.00000000000E+00  0.00000000000E+00 -0.10772485377E+04  0.10772485377E+04  0.25500000920E-02 0. -1.
    10030    2    1    2    0    0  0.00000000000E+00  0.00000000000E+00 -0.79519081727E+03  0.13593062582E+04  0.11024450406E+04 0.  0.
        5    1    3    3  502    0 -0.11624593438E+03 -0.46063320277E+03 -0.74223410068E+03  0.88126591615E+03  0.46999998093E+01 0.  1.
       -5    1    3    3    0  502  0.11624593438E+03  0.46063320277E+03 -0.52956716589E+02  0.47804034201E+03  0.46999998093E+01 0. -1.
</event>
<event>
 5   0  0.4428114E-03  0.1095243E+04  0.7818609E-02  0.9209841E-01
       -1   -1    0    0    0  501  0.00000000000E+00  0.00000000000E+00  0.72447330917E+03  0.72447330919E+03  0.50400001928E-02 0. -1.
        1   -1    0    0  501    0  0.00000000000E+00  0.00000000000E+00 -0.41394084643E+03  0.41394084646E+03  0.50400001928E-02 0.  1.
    10030    2    1    2    0    0  0.00000000000E+00  0.00000000000E+00  0.31053246275E+03  0.11384141557E+04  0.10952426121E+04 0.  0.
        4    1    3    3  502    0 -0.54594595778E+03 -0.41800981702E+02  0.14578693599E+03  0.56662135019E+03  0.12699999809E+01 0.  1.
       -4    1    3    3    0  502  0.54594595778E+03  0.41800981702E+02  0.16474552676E+03  0.57179280546E+03  0.12699999809E+01 0. -1.
</event>
<event>
 5   0  0.7537480E-03  0.1074256E+04  0.7818609E-02  0.9230654E-01
        2   -1    0    0  501    0  0.00000000000E+00  0.00000000000E+00  0.84686912593E+03  0.84686912594E+03  0.25500000920E-02 0. -1.
       -2   -1    0    0    0  501  0.00000000000E+00  0.00000000000E+00 -0.34067402794E+03  0.34067402795E+03  0.25500000920E-02 0.  1.
    10030    2    1    2    0    0  0.00000000000E+00  0.00000000000E+00  0.50619509799E+03  0.11875431539E+04  0.10742556796E+04 0.  0.
        1    1    3    3  502    0 -0.42112716825E+02 -0.41651089882E+03 -0.11892026438E+03  0.43519747134E+03  0.50400001928E-02 0.  1.
       -1    1    3    3    0  502  0.42112716825E+02  0.41651089882E+03  0.62511536237E+03  0.75234568255E+03  0.50400001928E-02 0. -1.
</event>
<event>
 5   0  0.4641021E-03  0.1089688E+04  0.7818609E-02  0.9215301E-01
       -1   -1    0    0    0  501  0.00000000000E+00  0.00000000000E+00  0.28972145083E+03  0.28972145087E+03  0.50400001928E-02 0.  1.
        1   -1    0    0  501    0  0.00000000000E+00  0.00000000000E+00 -0.10246224558E+04  0.10246224559E+04  0.50400001928E-02 0. -1.
    10030    2    1    2    0    0  0.00000000000E+00  0.00000000000E+00 -0.73490100501E+03  0.13143439067E+04  0.10896882205E+04 0.  0.
        1    1    3    3  502    0  0.20282022116E+03 -0.20911724943E+03  0.18789525983E+03  0.34665645070E+03  0.50400001928E-02 0.  1.
       -1    1    3    3    0  502 -0.20282022116E+03  0.20911724943E+03 -0.92279626484E+03  0.96768745602E+03  0.50400001928E-02 0. -1.
</event>
<event>
 5   0  0.2992375E-03  0.1103611E+04  0.7818609E-02  0.9201680E-01
       -4   -1    0    0    0  501  0.00000000000E+00  0.00000000000E+00  0.10751988782E+04  0.10751996282E+04  0.12699999809E+01 0. -1.
        4   -1    0    0  501    0  0.00000000000E+00  0.00000000000E+00 -0.28319096024E+03  0.28319380795E+03  0.12699999809E+01 0.  1.
    10030    2    1    2    0    0  0.00000000000E+00  0.00000000000E+00  0.79200791796E+03  0.13583934362E+04  0.11036105225E+04 0.  0.
        5    1    3    3  502    0  0.50952114658E+03  0.13328119632E+03  0.19341092602E+03  0.56107535359E+03  0.46999998093E+01 0.  1.
       -5    1    3    3    0  502 -0.50952114658E+03 -0.13328119632E+03  0.59859699193E+03  0.79731808261E+03  0.46999998093E+01 0. -1.
</event>
<event>
 5   0  0.4641021E-03  0.1117175E+04  0.7818609E-02  0.9188611E-01
        1   -1    0    0  501    0  0.00000000000E+00  0.00000000000E+00  0.57393031410E+03  0.57393031412E+03  0.50400001928E-02 0. -1.
       -1   -1    0    0    0  501  0.00000000000E+00  0.00000000000E+00 -0.54365526218E+03  0.54365526221E+03  0.50400001928E-02 0.  1.
    10030    2    1    2    0    0  0.00000000000E+00  0.00000000000E+00  0.30275051917E+02  0.11175855763E+04  0.11171754301E+04 0.  0.
        1    1    3    3  502    0  0.15471743485E+03 -0.16686719920E+02  0.55180843523E+03  0.57333103918E+03  0.50400001928E-02 0. -1.
       -1    1    3    3    0  502 -0.15471743485E+03  0.16686719920E+02 -0.52153338332E+03  0.54425453715E+03  0.50400001928E-02 0.  1.
</event>
<event>
 5   0  0.4504740E-03  0.1116272E+04  0.7818609E-02  0.9189476E-01
        1   -1    0    0  501    0  0.00000000000E+00  0.00000000000E+00  0.10904471441E+04  0.10904471441E+04  0.50400001928E-02 0.  1.
       -1   -1    0    0    0  501  0.00000000000E+00  0.00000000000E+00 -0.28567685936E+03  0.28567685940E+03  0.50400001928E-02 0. -1.
    10030    2    1    2    0    0  0.00000000000E+00  0.00000000000E+00  0.80477028469E+03  0.13761240035E+04  0.11162715000E+04 0.  0.
        5    1    3    3  502    0 -0.37125250971E+02 -0.24499806984E+03 -0.21412019462E+03  0.32752387123E+03  0.46999998093E+01 0. -1.
       -5    1    3    3    0  502  0.37125250971E+02  0.24499806984E+03  0.10188904793E+04  0.10486001322E+04  0.46999998093E+01 0.  1.
</event>
<event>
 5   0  0.4598561E-03  0.1080695E+04  0.7818609E-02  0.9224215E-01
       -1   -1    0    0    0  501  0.00000000000E+00  0.00000000000E+00  0.15502219825E+03  0.15502219833E+03  0.50400001928E-02 0. -1.
        1   -1    0    0  501    0  0.00000000000E+00  0.00000000000E+00 -0.18834429927E+04  0.18834429927E+04  0.50400001928E-02 0.  1.
    10030    2    1    2    0    0  0.00000000000E+00  0.00000000000E+00 -0.17284207944E+04  0.20384651910E+04  0.10806950969E+04 0.  0.
        2    1    3    3  502    0  0.22344976243E+03  0.49091376795E+03 -0.80310773446E+03  0.96742346315E+03  0.25500000920E-02 0. -1.
       -2    1    3    3    0  502 -0.22344976243E+03 -0.49091376795E+03 -0.92531305999E+03  0.10710417279E+04  0.25500000920E-02 0.  1.
</event>
<event>
 5   0  0.7537480E-03  0.1099147E+04  0.7818609E-02  0.9206023E-01
       -2   -1    0    0    0  501  0.00000000000E+00  0.00000000000E+00  0.90030481736E+03  0.90030481736E+03  0.25500000920E-02 0.  1.
        2   -1    0    0  501    0  0.00000000000E+00  0.00000000000E+00 -0.33547667220E+03  0.33547667221E+03  0.25500000920E-02 0. -1.
    10030    2    1    2    0    0  0.00000000000E+00  0.00000000000E+00  0.56482814516E+03  0.12357814896E+04  0.10991474225E+04 0.  0.
        1    1    3    3  502    0  0.20366758305E+03  0.16183920575E+03  0.82669914078E+03  0.86666249619E+03  0.50400001928E-02 0.  1.
       -1    1    3    3    0  502 -0.20366758305E+03 -0.16183920575E+03 -0.26187099562E+03  0.36911899338E+03  0.50400001928E-02 0. -1.
</event>
<event>
 5   0  0.7952121E-03  0.1110846E+04  0.7818609E-02  0.9194685E-01
       -2   -1    0    0    0  501  0.00000000000E+00  0.00000000000E+00  0.18589897555E+03  0.18589897557E+03  0.25500000920E-02 0.  1.
        2   -1    0    0  501    0  0.00000000000E+00  0.00000000000E+00 -0.16594754733E+04  0.16594754733E+04  0.25500000920E-02 0. -1.
    10030    2    1    2    0    0  0.00000000000E+00  0.00000000000E+00 -0.14735764977E+04  0.18453744489E+04  0.11108461468E+04 0.  0.
        3    1    3    3  502    0  0.35146051318E+03  0.22995761378E+03 -0.13302704242E+03  0.44056917808E+03  0.10100000352E+00 0.  1.
       -3    1    3    3    0  502 -0.35146051318E+03 -0.22995761378E+03 -0.13405494553E+04  0.14048052708E+04  0.10100000352E+00 0. -1.
</event>
<event>
 5   0  0.4641021E-03  0.1104733E+04  0.7818609E-02  0.9200591E-01
        1   -1    0    0  501    0  0.00000000000E+00  0.00000000000E+00  0.38914837697E+03  0.38914837700E+03  0.50400001928E-02 0. -1.
       -1   -1    0    0    0  501  0.00000000000E+00  0.00000000000E+00 -0.78404199803E+03  0.78404199805E+03  0.50400001928E-02 0.  1.
    10030    2    1    2    0    0  0.00000000000E+00  0.00000000000E+00 -0.39489362107E+03  0.11731903751E+04  0.11047328565E+04 0.  0.
        1    1    3    3  502    0  0.11351520914E+03 -0.60800310650E+02  0.37298523695E+03  0.39458885881E+03  0.50400001928E-02 0. -1.
       -1    1    3    3    0  502 -0.11351520914E+03  0.60800310650E+02 -0.76787885802E+03  0.77860151625E+03  0.50400001928E-02 0.  1.
</event>
<event>
 5   0  0.4598561E-03  0.1108942E+04  0.7818609E-02  0.9196520E-01
        1   -1    0    0  501    0  0.00000000000E+00  0.00000000000E+00  0.45614973727E+03  0.45614973730E+03  0.50400001928E-02 0.  1.
       -1   -1    0    0    0  501  0.00000000000E+00  0.00000000000E+00 -0.67398489691E+03  0.67398489692E+03  0.50400001928E-02 0. -1.
    10030    2    1    2    0    0  0.00000000000E+00  0.00000000000E+00 -0.21783515963E+03  0.11301346342E+04  0.11089418987E+04 0.  0.
        2    1    3    3  502    0 -0.26279587696E+03  0.48710006586E+03 -0.74965945268E+02  0.55852308821E+03  0.25500000920E-02 0.  1.
       -2    1    3    3    0  502  0.26279587696E+03 -0.48710006586E+03 -0.14286921437E+03  0.57161154601E+03  0.25500000920E-02 0. -1.
</event>
<event>
 5   0  0.2992375E-03  0.1112679E+04  0.7818609E-02  0.9192921E-01
       -3   -1    0    0    0  501  0.00000000000E+00  0.00000000000E+00  0.64824590806E+03  0.64824591593E+03  0.10100000352E+00 0. -1.
        3   -1    0    0  501    0  0.00000000000E+00  0.00000000000E+00 -0.47746369721E+03  0.47746370789E+03  0.10100000352E+00 0.  1.
    10030    2    1    2    0    0  0.00000000000E+00  0.00000000000E+00  0.17078221086E+03  0.11257096238E+04  0.11126794658E+04 0.  0.
        1    1    3    3  502    0  0.91306917422E+02  0.52288253228E+03  0.25398836908E+03  0.58843282317E+03  0.50400001928E-02 0.  1.
       -1    1    3    3    0  502 -0.91306917422E+02 -0.52288253228E+03 -0.83206158226E+02  0.53727680065E+03  0.50400001928E-02 0. -1.
</event>
<event>
 5   0  0.4428114E-03  0.1067193E+04  0.7818609E-02  0.9237771E-01
        1   -1    0    0  501    0  0.00000000000E+00  0.00000000000E+00  0.12917248908E+04  0.12917248909E+04  0.50400001928E-02 0. -1.
       -1   -1    0    0    0  501  0.00000000000E+00  0.00000000000E+00 -0.22042256994E+03  0.22042257000E+03  0.50400001928E-02 0.  1.
    10030    2    1    2    0    0  0.00000000000E+00  0.00000000000E+00  0.10713023209E+04  0.15121474609E+04  0.10671931787E+04 0.  0.
        4    1    3    3  502    0  0.36160872390E+03 -0.33040760633E+03  0.83553933349E+03  0.96853376102E+03  0.12699999809E+01 0.  1.
       -4    1    3    3    0  502 -0.36160872390E+03  0.33040760633E+03  0.23576298741E+03  0.54361369984E+03  0.12699999809E+01 0. -1.
</event>
<event>
 5   0  0.4598561E-03  0.1097805E+04  0.7818609E-02  0.9207334E-01
       -1   -1    0    0    0  501  0.00000000000E+00  0.00000000000E+00  0.54622590296E+03  0.54622590298E+03  0.50400001928E-02 0.  1.
        1   -1    0    0  501    0  0.00000000000E+00  0.00000000000E+00 -0.55159229644E+03  0.55159229646E+03  0.50400001928E-02 0. -1.
    10030    2    1    2    0    0  0.00000000000E+00  0.00000000000E+00 -0.53663934821E+01  0.10978181994E+04  0.10978050833E+04 0.  0.
        2    1    3    3  502    0  0.20407010337E+03  0.45835483544E+03 -0.22530714470E+03  0.54999733792E+03  0.25500000920E-02 0.  1.
       -2    1    3    3    0  502 -0.20407010337E+03 -0.45835483544E+03  0.21994075121E+03  0.54782086152E+03  0.25500000920E-02 0. -1.
</event>
<event>
 5   0  0.4298101E-03  0.1098566E+04  0.7818609E-02  0.9206591E-01
       -1   -1    0    0    0  501  0.00000000000E+00  0.00000000000E+00  0.24902787913E+03  0.24902787918E+03  0.50400001928E-02 0.  1.
        1   -1    0    0  501    0  0.00000000000E+00  0.00000000000E+00 -0.12115582640E+04  0.12115582640E+04  0.50400001928E-02 0. -1.
    10030    2    1    2    0    0  0.00000000000E+00  0.00000000000E+00 -0.96253038483E+03  0.14605861432E+04  0.10985659470E+04 0.  0.
        3    1    3    3  502    0  0.44534044745E+03 -0.17242558865E+03 -0.12044029994E+03  0.49250845049E+03  0.10100000352E+00 0. -1.
       -3    1    3    3    0  502 -0.44534044745E+03  0.17242558865E+03 -0.84209008489E+03  0.96807769266E+03  0.10100000352E+00 0.  1.
</event>
<event>
 5   0  0.7537480E-03  0.1054498E+04  0.7818609E-02  0.9250712E-01
       -2   -1    0    0    0  501  0.00000000000E+00  0.00000000000E+00  0.96523108749E+02  0.96523108783E+02  0.25500000920E-02 0.  1.
        2   -1    0    0  501    0  0.00000000000E+00  0.00000000000E+00 -0.28800520807E+04  0.28800520807E+04  0.25500000920E-02 0. -1.
    10030    2    1    2    0    0  0.00000000000E+00  0.00000000000E+00 -0.27835289719E+04  0.29765751895E+04  0.10544981370E+04 0.  0.
        1    1    3    3  502    0 -0.11003562953E+03  0.19821701052E+03 -0.48087091037E+02  0.23175459300E+03  0.50400001928E-02 0.  1.
       -1    1    3    3    0  502  0.11003562953E+03 -0.19821701052E+03 -0.27354418809E+04  0.27448205965E+04  0.50400001928E-02 0. -1.
</event>
<event>
 5   0  0.4504740E-03  0.1111204E+04  0.7818609E-02  0.9194340E-01
        1   -1    0    0  501    0  0.00000000000E+00  0.00000000000E+00  0.79979596025E+03  0.79979596027E+03  0.50400001928E-02 0.  1.
       -1   -1    0    0    0  501  0.00000000000E+00  0.00000000000E+00 -0.38596517517E+03  0.38596517521E+03  0.50400001928E-02 0. -1.
    10030    2    1    2    0    0  0.00000000000E+00  0.00000000000E+00  0.41383078508E+03  0.11857611355E+04  0.11112036500E+04 0.  0.
        5    1    3    3  502    0 -0.36489428832E+03 -0.40893307062E+03  0.30411607916E+03  0.62680361956E+03  0.46999998093E+01 0.  1.
       -5    1    3    3    0  502  0.36489428832E+03  0.40893307062E+03  0.10971470592E+03  0.55895751591E+03  0.46999998093E+01 0. -1.
</event>
<event>
 5   0  0.7712816E-03  0.1093967E+04  0.7818609E-02  0.9211092E-01
        2   -1    0    0  501    0  0.00000000000E+00  0.00000000000E+00  0.37320553442E+03  0.37320553443E+03  0.25500000920E-02 0.  1.
       -2   -1    0    0    0  501  0.00000000000E+00  0.00000000000E+00 -0.80167864663E+03  0.80167864664E+03  0.25500000920E-02 0. -1.
    10030    2    1    2    0    0  0.00000000000E+00  0.00000000000E+00 -0.42847311222E+03  0.11748841811E+04  0.10939669241E+04 0.  0.
        2    1    3    3  502    0  0.37571028470E+03 -0.50408779800E+02  0.20925464712E+03  0.43299742546E+03  0.25500000920E-02 0.  1.
       -2    1    3    3    0  502 -0.37571028470E+03  0.50408779800E+02 -0.63772775933E+03  0.74188675560E+03  0.25500000920E-02 0. -1.
</event>
<event>
 5   0  0.4598561E-03  0.1066553E+04  0.7818609E-02  0.9238419E-01
       -1   -1    0    0    0  501  0.00000000000E+00  0.00000000000E+00  0.24860157641E+03  0.24860157646E+03  0.50400001928E-02 0. -1.
        1   -1    0    0  501    0  0.00000000000E+00  0.00000000000E+00 -0.11439342865E+04  0.11439342865E+04  0.50400001928E-02 0.  1.
    10030    2    1    2    0    0  0.00000000000E+00  0.00000000000E+00 -0.89533271010E+03  0.13925358630E+04  0.10665530779E+04 0.  0.
        2    1    3    3  502    0 -0.22014740967E+03 -0.24834299563E+03  0.97342747286E+02  0.34585363366E+03  0.25500000920E-02 0. -1.
       -2    1    3    3    0  502  0.22014740967E+03  0.24834299563E+03 -0.99267545738E+03  0.10466822293E+04  0.25500000920E-02 0.  1.
</event>
<event>
 5   0  0.7952121E-03  0.1113010E+04  0.7818609E-02  0.9192603E-01
        2   -1    0    0  501    0  0.00000000000E+00  0.00000000000E+00  0.82169048431E+03  0.82169048431E+03  0.25500000920E-02 0.  1.
       -2   -1    0    0    0  501  0.00000000000E+00  0.00000000000E+00 -0.37690342172E+03  0.37690342173E+03  0.25500000920E-02 0. -1.
    10030    2    1    2    0    0  0.00000000000E+00  0.00000000000E+00  0.44478706259E+03  0.11985939060E+04  0.11130102518E+04 0.  0.
        3    1    3    3  502    0  0.16379939233E+03 -0.10040068983E+03  0.78484500409E+03  0.80801746893E+03  0.10100000352E+00 0.  1.
       -3    1    3    3    0  502 -0.16379939233E+03  0.10040068983E+03 -0.34005794151E+03  0.39057643711E+03  0.10100000352E+00 0. -1.
</event>
<event>
 5   0  0.4641021E-03  0.1117621E+04  0.7818609E-02  0.9188186E-01
       -1   -1    0    0    0  501  0.00000000000E+00  0.00000000000E+00  0.38792848907E+03  0.38792848910E+03  0.50400001928E-02 0. -1.
        1   -1    0    0  501    0  0.00000000000E+00  0.00000000000E+00 -0.80496532579E+03  0.80496532581E+03  0.50400001928E-02 0.  1.
    10030    2    1    2    0    0  0.00000000000E+00  0.00000000000E+00 -0.41703683672E+03  0.11928938149E+04  0.11176206559E+04 0.  0.
        1    1    3    3  502    0  0.10114875271E+03  0.21729575162E+03 -0.74731461591E+03  0.78481058162E+03  0.50400001928E-02 0.  1.
       -1    1    3    3    0  502 -0.10114875271E+03 -0.21729575162E+03  0.33027777919E+03  0.40808323329E+03  0.50400001928E-02 0. -1.
</event>
<event>
 5   0  0.7952121E-03  0.1053868E+04  0.7818609E-02  0.9251360E-01
        2   -1    0    0  501    0  0.00000000000E+00  0.00000000000E+00  0.42473803152E+03  0.42473803153E+03  0.25500000920E-02 0.  1.
       -2   -1    0    0    0  501  0.00000000000E+00  0.00000000000E+00 -0.65371902121E+03  0.65371902122E+03  0.25500000920E-02 0. -1.
    10030    2    1    2    0    0  0.00000000000E+00  0.00000000000E+00 -0.22898098969E+03  0.10784570527E+04  0.10538677910E+04 0.  0.
        3    1    3    3  502    0  0.10777432322E+03 -0.42077136513E+03 -0.41977213241E+03  0.60404676955E+03  0.10100000352E+00 0. -1.
       -3    1    3    3    0  502 -0.10777432322E+03  0.42077136513E+03  0.19079114272E+03  0.47441028319E+03  0.10100000352E+00 0.  1.
</event>
<event>
 5   0  0.4298101E-03  0.1083351E+04  0.7818609E-02  0.9221573E-01
        1   -1    0    0  501    0  0.00000000000E+00  0.00000000000E+00  0.43090807601E+03  0.43090807604E+03  0.50400001928E-02 0. -1.
       -1   -1    0    0    0  501  0.00000000000E+00  0.00000000000E+00 -0.68091634318E+03  0.68091634320E+03  0.50400001928E-02 0.  1.
    10030    2    1    2    0    0  0.00000000000E+00  0.00000000000E+00 -0.25000826717E+03  0.11118244192E+04  0.10833510076E+04 0.  0.
        3    1    3    3  502    0 -0.53525712956E+03 -0.72359001311E+02 -0.16702312837E+03  0.56536073035E+03  0.10100000352E+00 0. -1.
       -3    1    3    3    0  502  0.53525712956E+03  0.72359001311E+02 -0.82985138799E+02  0.54646368889E+03  0.10100000352E+00 0.  1.
</event>
<event>
 5   0  0.4504740E-03  0.1105482E+04  0.7818609E-02  0.9199865E-01
        1   -1    0    0  501    0  0.00000000000E+00  0.00000000000E+00  0.23025065088E+03  0.23025065094E+03  0.50400001928E-02 0. -1.
       -1   -1    0    0    0  501  0.00000000000E+00  0.00000000000E+00 -0.13269139912E+04  0.13269139912E+04  0.50400001928E-02 0.  1.
    10030    2    1    2    0    0  0.00000000000E+00  0.00000000000E+00 -0.10966633403E+04  0.15571646421E+04  0.11054823566E+04 0.  0.
        5    1    3    3  502    0  0.36270165554E+03  0.40831008011E+03 -0.66811189769E+03  0.86293986481E+03  0.46999998093E+01 0.  1.
       -5    1    3    3    0  502 -0.36270165554E+03 -0.40831008011E+03 -0.42855144259E+03  0.69422477728E+03  0.46999998093E+01 0. -1.
</event>
<event>
 5   0  0.4298101E-03  0.1089447E+04  0.7818609E-02  0.9215539E-01
        1   -1    0    0  501    0  0.00000000000E+00  0.00000000000E+00  0.58859450773E+03  0.58859450775E+03  0.50400001928E-02 0.  1.
       -1   -1    0    0    0  501  0.00000000000E+00  0.00000000000E+00 -0.50412237434E+03  0.50412237437E+03  0.50400001928E-02 0. -1.
    10030    2    1    2    0    0  0.00000000000E+00  0.00000000000E+00  0.84472133384E+02  0.10927168821E+04  0.10894469437E+04 0.  0.
        3    1    3    3  502    0  0.53776325185E+03  0.75518915133E+02  0.85157369628E+02  0.54967645882E+03  0.10100000352E+00 0.  1.
       -3    1    3    3    0  502 -0.53776325185E+03 -0.75518915133E+02 -0.68523624339E+00  0.54304042329E+03  0.10100000352E+00 0. -1.
</event>
<event>
 5   0  0.7766551E-03  0.1120988E+04  0.7818609E-02  0.9184974E-01
        2   -1    0    0  501    0  0.00000000000E+00  0.00000000000E+00  0.15689968545E+04  0.15689968545E+04  0.25500000920E-02 0. -1.
       -2   -1    0    0    0  501  0.00000000000E+00  0.00000000000E+00 -0.20022556826E+03  0.20022556827E+03  0.25500000920E-02 0.  1.
    10030    2    1    2    0    0  0.00000000000E+00  0.00000000000E+00  0.13687712862E+04  0.17692224228E+04  0.11209875767E+04 0.  0.
        5    1    3    3  502    0  0.42540016074E+03  0.19424297287E+03  0.19681587913E+03  0.50739945757E+03  0.46999998093E+01 0.  1.
       -5    1    3    3    0  502 -0.42540016074E+03 -0.19424297287E+03  0.11719554071E+04  0.12618229652E+04  0.46999998093E+01 0. -1.
</event>
<event>
 5   0  0.7537480E-03  0.1129502E+04  0.7818609E-02  0.9176905E-01
       -2   -1    0    0    0  501  0.00000000000E+00  0.00000000000E+00  0.10496963452E+04  0.10496963452E+04  0.25500000920E-02 0. -1.
        2   -1    0    0  501    0  0.00000000000E+00  0.00000000000E+00 -0.30384355546E+03  0.30384355547E+03  0.25500000920E-02 0.  1.
    10030    2    1    2    0    0  0.00000000000E+00  0.00000000000E+00  0.74585278976E+03  0.13535399007E+04  0.11295016064E+04 0.  0.
        1    1    3    3  502    0  0.50009138135E+03  0.26200294799E+03  0.39014830277E+03  0.68625988710E+03  0.50400001928E-02 0. -1.
       -1    1    3    3    0  502 -0.50009138135E+03 -0.26200294799E+03  0.35570448698E+03  0.66728001359E+03  0.50400001928E-02 0.  1.
</event>
<event>
 5   0  0.7537480E-03  0.1117483E+04  0.7818609E-02  0.9188318E-01
        2   -1    0    0  501    0  0.00000000000E+00  0.00000000000E+00  0.18537327127E+04  0.18537327127E+04  0.25500000920E-02 0. -1.
       -2   -1    0    0    0  501  0.00000000000E+00  0.00000000000E+00 -0.16841253726E+03  0.16841253728E+03  0.25500000920E-02 0.  1.
    10030    2    1    2    0    0  0.00000000000E+00  0.00000000000E+00  0.16853201755E+04  0.20221452500E+04  0.11174825808E+04 0.  0.
        1    1    3    3  502    0 -0.18177382223E+03 -0.63522369172E+02  0.17917967143E+04  0.18021132815E+04  0.50400001928E-02 0. -1.
       -1    1    3    3    0  502  0.18177382223E+03  0.63522369172E+02 -0.10647653883E+03  0.22003196854E+03  0.50400001928E-02 0.  1.
</event>
<event>
 5   0  0.4598561E-03  0.1040699E+04  0.7818609E-02  0.9265000E-01
        1   -1    0    0  501    0  0.00000000000E+00  0.00000000000E+00  0.66796020428E+03  0.66796020430E+03  0.50400001928E-02 0. -1.
       -1   -1    0    0    0  501  0.00000000000E+00  0.00000000000E+00 -0.40535895803E+03  0.40535895806E+03  0.50400001928E-02 0.  1.
    10030    2    1    2    0    0  0.00000000000E+00  0.00000000000E+00  0.26260124625E+03  0.10733191624E+04  0.10406990966E+04 0.  0.
        2    1    3    3  502    0  0.44804318700E+03 -0.23677931982E+03  0.94600029114E+01  0.50684971676E+03  0.25500000920E-02 0.  1.
       -2    1    3    3    0  502 -0.44804318700E+03  0.23677931982E+03  0.25314124334E+03  0.56646944560E+03  0.25500000920E-02 0. -1.
</event>
<event>
 5   0  0.2992375E-03  0.1018967E+04  0.7818609E-02  0.9287983E-01
        4   -1    0    0  501    0  0.00000000000E+00  0.00000000000E+00  0.81540911784E+03  0.81541010686E+03  0.12699999809E+01 0. -1.
       -4   -1    0    0    0  501  0.00000000000E+00  0.00000000000E+00 -0.31833281159E+03  0.31833534494E+03  0.12699999809E+01 0.  1.
    10030    2    1    2    0    0  0.00000000000E+00  0.00000000000E+00  0.49707630625E+03  0.11337454518E+04  0.10189670727E+04 0.  0.
        4    1    3    3  502    0  0.15283390450E+03  0.28679338079E+03 -0.18804190424E+03  0.37545973989E+03  0.12699999809E+01 0.  1.
       -4    1    3    3    0  502 -0.15283390450E+03 -0.28679338079E+03  0.68511821049E+03  0.75828571190E+03  0.12699999809E+01 0. -1.
</event>
<event>
 5   0  0.7712816E-03  0.1164632E+04  0.7818609E-02  0.9144390E-01
       -2   -1    0    0    0  501  0.00000000000E+00  0.00000000000E+00  0.13894417333E+03  0.13894417336E+03  0.25500000920E-02 0. -1.
        2   -1    0    0  501    0  0.00000000000E+00  0.00000000000E+00 -0.24404924686E+04  0.24404924686E+04  0.25500000920E-02 0.  1.
    10030    2    1    2    0    0  0.00000000000E+00  0.00000000000E+00 -0.23015482953E+04  0.25794366420E+04  0.11646324890E+04 0.  0.
        2    1    3    3  502    0 -0.49411509589E+03  0.89267803774E+02 -0.18039498729E+04  0.18725259978E+04  0.25500000920E-02 0.  1.
       -2    1    3    3    0  502  0.49411509589E+03 -0.89267803774E+02 -0.49759842240E+03  0.70691064411E+03  0.25500000920E-02 0. -1.
</event>
<event>
 5   0  0.4504740E-03  0.1059720E+04  0.7818609E-02  0.9245366E-01
       -1   -1    0    0    0  501  0.00000000000E+00  0.00000000000E+00  0.92935690218E+03  0.92935690219E+03  0.50400001928E-02 0.  1.
        1   -1    0    0  501    0  0.00000000000E+00  0.00000000000E+00 -0.30209208461E+03  0.30209208465E+03  0.50400001928E-02 0. -1.
    10030    2    1    2    0    0  0.00000000000E+00  0.00000000000E+00  0.62726481757E+03  0.12314489868E+04  0.10597195175E+04 0.  0.
        5    1    3    3  502    0 -0.52399042506E+03  0.57082730559E+02  0.37626333932E+03  0.64762689428E+03  0.46999998093E+01 0. -1.
       -5    1    3    3    0  502  0.52399042506E+03 -0.57082730559E+02  0.25100147825E+03  0.58382209256E+03  0.46999998093E+01 0.  1.
</event>
<event>
 5   0  0.4428114E-03  0.1084918E+04  0.7818609E-02  0.9220018E-01
       -1   -1    0    0    0  501  0.00000000000E+00  0.00000000000E+00  0.68194037740E+03  0.68194037742E+03  0.50400001928E-02 0. -1.
        1   -1    0    0  501    0  0.00000000000E+00  0.00000000000E+00 -0.43150653768E+03  0.43150653770E+03  0.50400001928E-02 0.  1.
    10030    2    1    2    0    0  0.00000000000E+00  0.00000000000E+00  0.25043383972E+03  0.11134469151E+04  0.10849179346E+04 0.  0.
        4    1    3    3  502    0 -0.25091238925E+03  0.43253116161E+03 -0.90597984647E+02  0.50818288102E+03  0.12699999809E+01 0.  1.
       -4    1    3    3    0  502  0.25091238925E+03 -0.43253116161E+03  0.34103182437E+03  0.60526403410E+03  0.12699999809E+01 0. -1.
</event>
<event>
 5   0  0.4298101E-03  0.1093578E+04  0.7818609E-02  0.9211474E-01
       -1   -1    0    0    0  501  0.00000000000E+00  0.00000000000E+00  0.37453202727E+03  0.37453202730E+03  0.50400001928E-02 0. -1.
        1   -1    0    0  501    0  0.00000000000E+00  0.00000000000E+00 -0.79827124937E+03  0.79827124938E+03  0.50400001928E-02 0.  1.
    10030    2    1    2    0    0  0.00000000000E+00  0.00000000000E+00 -0.42373922210E+03  0.11728032767E+04  0.10935778881E+04 0.  0.
        3    1    3    3  502    0 -0.25959379398E+03 -0.26390790311E+03  0.21970407622E+03  0.43047207866E+03  0.10100000352E+00 0. -1.
       -3    1    3    3    0  502  0.25959379398E+03  0.26390790311E+03 -0.64344329832E+03  0.74233119802E+03  0.10100000352E+00 0.  1.
</event>
<event>
 5   0  0.4504740E-03  0.1107267E+04  0.7818609E-02  0.9198138E-01
        1   -1    0    0  501    0  0.00000000000E+00  0.00000000000E+00  0.44307510521E+03  0.44307510524E+03  0.50400001928E-02 0. -1.
       -1   -1    0    0    0  501  0.00000000000E+00  0.00000000000E+00 -0.69177907154E+03  0.69177907156E+03  0.50400001928E-02 0.  1.
    10030    2    1    2    0    0  0.00000000000E+00  0.00000000000E+00 -0.24870396633E+03  0.11348541768E+04  0.11072670589E+04 0.  0.
        5    1    3    3  502    0  0.52076928435E+03  0.18455377457E+03 -0.16025694768E+03  0.57529568268E+03  0.46999998093E+01 0.  1.
       -5    1    3    3    0  502 -0.52076928435E+03 -0.18455377457E+03 -0.88447018650E+02  0.55955849412E+03  0.46999998093E+01 0. -1.
</event>
<event>
 5   0  0.7712816E-03  0.1059433E+04  0.7818609E-02  0.9245659E-01
        2   -1    0    0  501    0  0.00000000000E+00  0.00000000000E+00  0.63371815040E+03  0.63371815041E+03  0.25500000920E-02 0. -1.
       -2   -1    0    0    0  501  0.00000000000E+00  0.00000000000E+00 -0.44278288674E+03  0.44278288675E+03  0.25500000920E-02 0.  1.
    10030    2    1    2    0    0  0.00000000000E+00  0.00000000000E+00  0.19093526366E+03  0.10765010372E+04  0.10594329654E+04 0.  0.
        2    1    3    3  502    0 -0.51271221249E+03 -0.12059968271E+03  0.15278073333E+03  0.54841594506E+03  0.25500000920E-02 0. -1.
       -2    1    3    3    0  502  0.51271221249E+03  0.12059968271E+03  0.38154530325E+02  0.52808509210E+03  0.25500000920E-02 0.  1.
</event>
<event>
 5   0  0.7712816E-03  0.1094967E+04  0.7818609E-02  0.9210111E-01
        2   -1    0    0  501    0  0.00000000000E+00  0.00000000000E+00  0.44829433371E+03  0.44829433372E+03  0.25500000920E-02 0. -1.
       -2   -1    0    0    0  501  0.00000000000E+00  0.00000000000E+00 -0.66861972091E+03  0.66861972092E+03  0.25500000920E-02 0.  1.
    10030    2    1    2    0    0  0.00000000000E+00  0.00000000000E+00 -0.22032538720E+03  0.11169140546E+04  0.10949674558E+04 0.  0.
        2    1    3    3  502    0  0.38303046239E+03 -0.39094035840E+03 -0.96038379382E+02  0.55567082816E+03  0.25500000920E-02 0. -1.
       -2    1    3    3    0  502 -0.38303046239E+03  0.39094035840E+03 -0.12428700782E+03  0.56124322648E+03  0.25500000920E-02 0.  1.
</event>
<event>
 5   0  0.4428114E-03  0.1110136E+04  0.7818609E-02  0.9195369E-01
       -1   -1    0    0    0  501  0.00000000000E+00  0.00000000000E+00  0.96109351295E+03  0.96109351296E+03  0.50400001928E-02 0.  1.
        1   -1    0    0  501    0  0.00000000000E+00  0.00000000000E+00 -0.32057276844E+03  0.32057276848E+03  0.50400001928E-02 0. -1.
    10030    2    1    2    0    0  0.00000000000E+00  0.00000000000E+00  0.64052074451E+03  0.12816662814E+04  0.11101358623E+04 0.  0.
        4    1    3    3  502    0  0.12068921002E+03 -0.29683681908E+03 -0.20300385806E+03  0.37932856716E+03  0.12699999809E+01 0. -1.
       -4    1    3    3    0  502 -0.12068921002E+03  0.29683681908E+03  0.84352460256E+03  0.90233771428E+03  0.12699999809E+01 0.  1.
</event>
<event>
 5   0  0.4641021E-03  0.9803030E+03  0.7818609E-02  0.9330416E-01
        1   -1    0    0  501    0  0.00000000000E+00  0.00000000000E+00  0.95960361460E+03  0.95960361461E+03  0.50400001928E-02 0. -1.
       -1   -1    0    0    0  501  0.00000000000E+00  0.00000000000E+00 -0.25036220340E+03  0.25036220345E+03  0.50400001928E-02 0.  1.
    10030    2    1    2    0    0  0.00000000000E+00  0.00000000000E+00  0.70924141120E+03  0.12099658181E+04  0.98030296414E+03 0.  0.
        1    1    3    3  502    0 -0.33549848885E+03 -0.55057087716E+02 -0.81164805892E+02  0.34954004730E+03  0.50400001928E-02 0.  1.
       -1    1    3    3    0  502  0.33549848885E+03  0.55057087716E+02  0.79040621709E+03  0.86042577075E+03  0.50400001928E-02 0. -1.
</event>
<event>
 5   0  0.4641021E-03  0.1102889E+04  0.7818609E-02  0.9202381E-01
        1   -1    0    0  501    0  0.00000000000E+00  0.00000000000E+00  0.27046022335E+03  0.27046022340E+03  0.50400001928E-02 0.  1.
       -1   -1    0    0    0  501  0.00000000000E+00  0.00000000000E+00 -0.11243459317E+04  0.11243459317E+04  0.50400001928E-02 0. -1.
    10030    2    1    2    0    0  0.00000000000E+00  0.00000000000E+00 -0.85388570836E+03  0.13948061551E+04  0.11028886650E+04 0.  0.
        1    1    3    3  502    0 -0.40091127113E+03 -0.12757118356E+03 -0.87779283797E+03  0.97340871201E+03  0.50400001928E-02 0. -1.
       -1    1    3    3    0  502  0.40091127113E+03  0.12757118356E+03  0.23907129611E+02  0.42139744312E+03  0.50400001928E-02 0.  1.
</event>
<event>
 5   0  0.2992375E-03  0.1082363E+04  0.7818609E-02  0.9222555E-01
        3   -1    0    0  501    0  0.00000000000E+00  0.00000000000E+00  0.30042761973E+03  0.30042763671E+03  0.10100000352E+00 0.  1.
       -3   -1    0    0    0  501  0.00000000000E+00  0.00000000000E+00 -0.97486847318E+03  0.97486847841E+03  0.10100000352E+00 0. -1.
    10030    2    1    2    0    0  0.00000000000E+00  0.00000000000E+00 -0.67444085345E+03  0.12752961151E+04  0.10823630243E+04 0.  0.
        1    1    3    3  502    0  0.36513280911E+03 -0.38659924571E+03 -0.21882820511E+03  0.57503628447E+03  0.50400001928E-02 0. -1.
       -1    1    3    3    0  502 -0.36513280911E+03  0.38659924571E+03 -0.45561264834E+03  0.70025983065E+03  0.50400001928E-02 0.  1.
</event>
<event>
 5   0  0.4504740E-03  0.1066946E+04  0.7818609E-02  0.9238021E-01
        1   -1    0    0  501    0  0.00000000000E+00  0.00000000000E+00  0.55286863498E+03  0.55286863500E+03  0.50400001928E-02 0. -1.
       -1   -1    0    0    0  501  0.00000000000E+00  0.00000000000E+00 -0.51475758583E+03  0.51475758586E+03  0.50400001928E-02 0.  1.
    10030    2    1    2    0    0  0.00000000000E+00  0.00000000000E+00  0.38111049150E+02  0.10676262209E+04  0.10669457790E+04 0.  0.
        5    1    3    3  502    0 -0.36379041088E+03  0.10292989344E+03  0.39563741188E+03  0.54725595263E+03  0.46999998093E+01 0.  1.
       -5    1    3    3    0  502  0.36379041088E+03 -0.10292989344E+03 -0.35752636273E+03  0.52037026823E+03  0.46999998093E+01 0. -1.
</event>
<event>
 5   0  0.7738497E-03  0.9798464E+03  0.7818609E-02  0.9330929E-01
        2   -1    0    0  501    0  0.00000000000E+00  0.00000000000E+00  0.92795145102E+03  0.92795145102E+03  0.25500000920E-02 0.  1.
       -2   -1    0    0    0  501  0.00000000000E+00  0.00000000000E+00 -0.25866089749E+03  0.25866089750E+03  0.25500000920E-02 0. -1.
    10030    2    1    2    0    0  0.00000000000E+00  0.00000000000E+00  0.66929055353E+03  0.11866123485E+04  0.97984642705E+03 0.  0.
        4    1    3    3  502    0  0.26520101263E+03  0.39286901910E+03  0.18462797234E+03  0.50869120725E+03  0.12699999809E+01 0. -1.
       -4    1    3    3    0  502 -0.26520101263E+03 -0.39286901910E+03  0.48466258120E+03  0.67792114127E+03  0.12699999809E+01 0.  1.
</event>
<event>
 5   0  0.7952121E-03  0.1139763E+04  0.7818609E-02  0.9167280E-01
        2   -1    0    0  501    0  0.00000000000E+00  0.00000000000E+00  0.53330664931E+03  0.53330664931E+03  0.25500000920E-02 0.  1.
       -2   -1    0    0    0  501  0.00000000000E+00  0.00000000000E+00 -0.60896474373E+03  0.60896474374E+03  0.25500000920E-02 0. -1.
    10030    2    1    2    0    0  0.00000000000E+00  0.00000000000E+00 -0.75658094427E+02  0.11422713931E+04  0.11397630403E+04 0.  0.
        3    1    3    3  502    0  0.38210443870E+03  0.42269462346E+03 -0.47357339149E+02  0.57176680085E+03  0.10100000352E+00 0. -1.
       -3    1    3    3    0  502 -0.38210443870E+03 -0.42269462346E+03 -0.28300755278E+02  0.57050459221E+03  0.10100000352E+00 0.  1.
</event>
<event>
 5   0  0.7537480E-03  0.1028618E+04  0.7818609E-02  0.9277703E-01
        2   -1    0    0  501    0  0.00000000000E+00  0.00000000000E+00  0.52102930040E+03  0.52102930041E+03  0.25500000920E-02 0. -1.
       -2   -1    0    0    0  501  0.00000000000E+00  0.00000000000E+00 -0.50767508231E+03  0.50767508232E+03  0.25500000920E-02 0.  1.
    10030    2    1    2    0    0  0.00000000000E+00  0.00000000000E+00  0.13354218091E+02  0.10287043827E+04  0.10286176996E+04 0.  0.
        1    1    3    3  502    0 -0.49294136254E+03 -0.13053780329E+03  0.73632642419E+02  0.51522138062E+03  0.50400001928E-02 0. -1.
       -1    1    3    3    0  502  0.49294136254E+03  0.13053780329E+03 -0.60278424328E+02  0.51348300211E+03  0.50400001928E-02 0.  1.
</event>
<event>
 5   0  0.7952121E-03  0.1117051E+04  0.7818609E-02  0.9188731E-01
        2   -1    0    0  501    0  0.00000000000E+00  0.00000000000E+00  0.24888009997E+04  0.24888009997E+04  0.25500000920E-02 0. -1.
       -2   -1    0    0    0  501  0.00000000000E+00  0.00000000000E+00 -0.12534173514E+03  0.12534173517E+03  0.25500000920E-02 0.  1.
    10030    2    1    2    0    0  0.00000000000E+00  0.00000000000E+00  0.23634592645E+04  0.26141427348E+04  0.11170508238E+04 0.  0.
        3    1    3    3  502    0  0.40618651018E+03  0.25592817149E+03  0.18496720187E+04  0.19109613541E+04  0.10100000352E+00 0. -1.
       -3    1    3    3    0  502 -0.40618651018E+03 -0.25592817149E+03  0.51378724587E+03  0.70318138075E+03  0.10100000352E+00 0.  1.
</event>
<event>
 5   0  0.7766551E-03  0.1040269E+04  0.7818609E-02  0.9265449E-01
       -2   -1    0    0    0  501  0.00000000000E+00  0.00000000000E+00  0.54549304718E+03  0.54549304719E+03  0.25500000920E-02 0.  1.
        2   -1    0    0  501    0  0.00000000000E+00  0.00000000000E+00 -0.49595446484E+03  0.49595446485E+03  0.25500000920E-02 0. -1.
    10030    2    1    2    0    0  0.00000000000E+00  0.00000000000E+00  0.49538582344E+02  0.10414475120E+04  0.10402686428E+04 0.  0.
        5    1    3    3  502    0  0.12403380901E+03  0.45345251658E+03 -0.19800040485E+03  0.51012725950E+03  0.46999998093E+01 0. -1.
       -5    1    3    3    0  502 -0.12403380901E+03 -0.45345251658E+03  0.24753898720E+03  0.53132025253E+03  0.46999998093E+01 0.  1.
</event>
<event>
 5   0  0.2992375E-03  0.1096032E+04  0.7818609E-02  0.9209068E-01
       -4   -1    0    0    0  501  0.00000000000E+00  0.00000000000E+00  0.12289613946E+04  0.12289620508E+04  0.12699999809E+01 0.  1.
        4   -1    0    0  501    0  0.00000000000E+00  0.00000000000E+00 -0.24436761267E+03  0.24437091280E+03  0.12699999809E+01 0. -1.
    10030    2    1    2    0    0  0.00000000000E+00  0.00000000000E+00  0.98459378194E+03  0.14733329636E+04  0.10960315261E+04 0.  0.
        2    1    3    3  502    0  0.15654478722E+03  0.12584810366E+03  0.11776991654E+04  0.11947047082E+04  0.25500000920E-02 0.  1.
       -2    1    3    3    0  502 -0.15654478722E+03 -0.12584810366E+03 -0.19310538344E+03  0.27862825543E+03  0.25500000920E-02 0. -1.
</event>
<event>
 5   0  0.4641021E-03  0.1076259E+04  0.7818609E-02  0.9228646E-01
        1   -1    0    0  501    0  0.00000000000E+00  0.00000000000E+00  0.61229741976E+03  0.61229741978E+03  0.50400001928E-02 0.  1.
       -1   -1    0    0    0  501  0.00000000000E+00  0.00000000000E+00 -0.47294520304E+03  0.47294520307E+03  0.50400001928E-02 0. -1.
    10030    2    1    2    0    0  0.00000000000E+00  0.00000000000E+00  0.13935221672E+03  0.10852426229E+04  0.10762585703E+04 0.  0.
        1    1    3    3  502    0  0.43535257294E+03 -0.28004832084E+03 -0.78603104466E+02  0.52358129534E+03  0.50400001928E-02 0. -1.
       -1    1    3    3    0  502 -0.43535257294E+03  0.28004832084E+03  0.21795532119E+03  0.56166132752E+03  0.50400001928E-02 0.  1.
</event>
<event>
 5   0  0.7537480E-03  0.1114151E+04  0.7818609E-02  0.9191508E-01
        2   -1    0    0  501    0  0.00000000000E+00  0.00000000000E+00  0.10460971911E+04  0.10460971911E+04  0.25500000920E-02 0.  1.
       -2   -1    0    0    0  501  0.00000000000E+00  0.00000000000E+00 -0.29665787238E+03  0.29665787239E+03  0.25500000920E-02 0. -1.
    10030    2    1    2    0    0  0.00000000000E+00  0.00000000000E+00  0.74943931872E+03  0.13427550635E+04  0.11141507385E+04 0.  0.
        1    1    3    3  502    0 -0.12922622632E+02 -0.46150267350E+03 -0.98285218812E+00  0.46168460863E+03  0.50400001928E-02 0. -1.
       -1    1    3    3    0  502  0.12922622632E+02  0.46150267350E+03  0.75042217091E+03  0.88107045487E+03  0.50400001928E-02 0.  1.
</event>
<event>
 5   0  0.4298101E-03  0.1100806E+04  0.7818609E-02  0.9204407E-01
       -1   -1    0    0    0  501  0.00000000000E+00  0.00000000000E+00  0.16036815565E+04  0.16036815565E+04  0.50400001928E-02 0.  1.
        1   -1    0    0  501    0  0.00000000000E+00  0.00000000000E+00 -0.18890483535E+03  0.18890483542E+03  0.50400001928E-02 0. -1.
    10030    2    1    2    0    0  0.00000000000E+00  0.00000000000E+00  0.14147767211E+04  0.17925863919E+04  0.11008055240E+04 0.  0.
        3    1    3    3  502    0  0.58466914210E+02 -0.54655793165E+03  0.75342540483E+03  0.93262736586E+03  0.10100000352E+00 0.  1.
       -3    1    3    3    0  502 -0.58466914210E+02  0.54655793165E+03  0.66135131628E+03  0.85995902603E+03  0.10100000352E+00 0. -1.
</event>
<event>
 5   0  0.4598561E-03  0.1110537E+04  0.7818609E-02  0.9194982E-01
        1   -1    0    0  501    0  0.00000000000E+00  0.00000000000E+00  0.52937428779E+03  0.52937428781E+03  0.50400001928E-02 0. -1.
       -1   -1    0    0    0  501  0.00000000000E+00  0.00000000000E+00 -0.58242970059E+03  0.58242970062E+03  0.50400001928E-02 0.  1.
    10030    2    1    2    0    0  0.00000000000E+00  0.00000000000E+00 -0.53055412805E+02  0.11118039884E+04  0.11105373618E+04 0.  0.
        2    1    3    3  502    0  0.90252452809E+02 -0.30699889330E+03 -0.48083982057E+03  0.57758181998E+03  0.25500000920E-02 0.  1.
       -2    1    3    3    0  502 -0.90252452809E+02  0.30699889330E+03  0.42778440776E+03  0.53422216844E+03  0.25500000920E-02 0. -1.
</event>
<event>
 5   0  0.4428114E-03  0.1087769E+04  0.7818609E-02  0.9217196E-01
       -1   -1    0    0    0  501  0.00000000000E+00  0.00000000000E+00  0.49515877323E+03  0.49515877325E+03  0.50400001928E-02 0.  1.
        1   -1    0    0  501    0  0.00000000000E+00  0.00000000000E+00 -0.59740450289E+03  0.59740450291E+03  0.50400001928E-02 0. -1.
    10030    2    1    2    0    0  0.00000000000E+00  0.00000000000E+00 -0.10224572966E+03  0.10925632762E+04  0.10877685062E+04 0.  0.
        4    1    3    3  502    0  0.23702466168E+03 -0.23814720019E+03 -0.48069215083E+03  0.58648217021E+03  0.12699999809E+01 0. -1.
       -4    1    3    3    0  502 -0.23702466168E+03  0.23814720019E+03  0.37844642117E+03  0.50608110595E+03  0.12699999809E+01 0.  1.
</event>
<event>
 5   0  0.7738497E-03  0.1108713E+04  0.7818609E-02  0.9196741E-01
        2   -1    0    0  501    0  0.00000000000E+00  0.00000000000E+00  0.21699898952E+04  0.21699898952E+04  0.25500000920E-02 0. -1.
       -2   -1    0    0    0  501  0.00000000000E+00  0.00000000000E+00 -0.14161873312E+03  0.14161873314E+03  0.25500000920E-02 0.  1.
    10030    2    1    2    0    0  0.00000000000E+00  0.00000000000E+00  0.20283711621E+04  0.23116086283E+04  0.11087131637E+04 0.  0.
        4    1    3    3  502    0  0.22179342612E+01 -0.51449103225E+03  0.58383877323E+03  0.77818716741E+03  0.12699999809E+01 0. -1.
       -4    1    3    3    0  502 -0.22179342612E+01  0.51449103225E+03  0.14445323888E+04  0.15334214609E+04  0.12699999809E+01 0.  1.
</event>
<event>
 5   0  0.4504740E-03  0.1310458E+04  0.7818609E-02  0.9021313E-01
       -1   -1    0    0    0  501  0.00000000000E+00  0.00000000000E+00  0.18401203107E+04  0.18401203107E+04  0.50400001928E-02 0. -1.
        1   -1    0    0  501    0  0.00000000000E+00  0.00000000000E+00 -0.23331353661E+03  0.23331353667E+03  0.50400001928E-02 0.  1.
    10030    2    1    2    0    0  0.00000000000E+00  0.00000000000E+00  0.16068067741E+04  0.20734338474E+04  0.13104579010E+04 0.  0.
        5    1    3    3  502    0 -0.64998063962E+03 -0.48667360193E+02  0.90906380465E+03  0.11185984243E+04  0.46999998093E+01 0.  1.
       -5    1    3    3    0  502  0.64998063962E+03  0.48667360193E+02  0.69774296945E+03  0.95483542312E+03  0.46999998093E+01 0. -1.
</event>
<event>
 5   0  0.4504740E-03  0.1108967E+04  0.7818609E-02  0.9196496E-01
        1   -1    0    0  501    0  0.00000000000E+00  0.00000000000E+00  0.13439374018E+04  0.13439374018E+04  0.50400001928E-02 0. -1.
       -1   -1    0    0    0  501  0.00000000000E+00  0.00000000000E+00 -0.22876943370E+03  0.22876943376E+03  0.50400001928E-02 0.  1.
    10030    2    1    2    0    0  0.00000000000E+00  0.00000000000E+00  0.11151679681E+04  0.15727068356E+04  0.11089667234E+04 0.  0.
        5    1    3    3  502    0 -0.41623581014E+03  0.27473793472E+02  0.39566951094E+02  0.41904020402E+03  0.46999998093E+01 0.  1.
       -5    1    3    3    0  502  0.41623581014E+03 -0.27473793472E+02  0.10756010170E+04  0.11536666316E+04  0.46999998093E+01 0. -1.
</event>
<event>
 5   0  0.4504740E-03  0.1142793E+04  0.7818609E-02  0.9164458E-01
       -1   -1    0    0    0  501  0.00000000000E+00  0.00000000000E+00  0.54522551332E+03  0.54522551335E+03  0.50400001928E-02 0.  1.
        1   -1    0    0  501    0  0.00000000000E+00  0.00000000000E+00 -0.59882394584E+03  0.59882394586E+03  0.50400001928E-02 0. -1.
    10030    2    1    2    0    0  0.00000000000E+00  0.00000000000E+00 -0.53598432519E+02  0.11440494592E+04  0.11427932329E+04 0.  0.
        5    1    3    3  502    0  0.14507489777E+03  0.40995616807E+03  0.34423093726E+03  0.55464205923E+03  0.46999998093E+01 0.  1.
       -5    1    3    3    0  502 -0.14507489777E+03 -0.40995616807E+03 -0.39782936978E+03  0.58940739998E+03  0.46999998093E+01 0. -1.
</event>
<event>
 5   0  0.7766551E-03  0.1105477E+04  0.7818609E-02  0.9199870E-01
        2   -1    0    0  501    0  0.00000000000E+00  0.00000000000E+00  0.76926121120E+03  0.76926121121E+03  0.25500000920E-02 0. -1.
       -2   -1    0    0    0  501  0.00000000000E+00  0.00000000000E+00 -0.39716034357E+03  0.39716034358E+03  0.25500000920E-02 0.  1.
    10030    2    1    2    0    0  0.00000000000E+00  0.00000000000E+00  0.37210086763E+03  0.11664215548E+04  0.11054773574E+04 0.  0.
        5    1    3    3  502    0  0.16913531082E+03 -0.88791590200E+02  0.73330284403E+03  0.75779011007E+03  0.46999998093E+01 0. -1.
       -5    1    3    3    0  502 -0.16913531082E+03  0.88791590200E+02 -0.36120197640E+03  0.40863144472E+03  0.46999998093E+01 0.  1.
</event>
<event>
 5   0  0.7537480E-03  0.1092171E+04  0.7818609E-02  0.9212856E-01
       -2   -1    0    0    0  501  0.00000000000E+00  0.00000000000E+00  0.74919402322E+03  0.74919402323E+03  0.25500000920E-02 0.  1.
        2   -1    0    0  501    0  0.00000000000E+00  0.00000000000E+00 -0.39804035959E+03  0.39804035960E+03  0.25500000920E-02 0. -1.
    10030    2    1    2    0    0  0.00000000000E+00  0.00000000000E+00  0.35115366363E+03  0.11472343828E+04  0.10921711558E+04 0.  0.
        1    1    3    3  502    0 -0.24252563467E+03 -0.37608389781E+03 -0.15317440019E+03  0.47299067492E+03  0.50400001928E-02 0. -1.
       -1    1    3    3    0  502  0.24252563467E+03  0.37608389781E+03  0.50432806382E+03  0.67424370790E+03  0.50400001928E-02 0.  1.
</event>
<event>
 5   0  0.4598561E-03  0.1092004E+04  0.7818609E-02  0.9213020E-01
       -1   -1    0    0    0  501  0.00000000000E+00  0.00000000000E+00  0.13234578592E+03  0.13234578601E+03  0.50400001928E-02 0.  1.
        1   -1    0    0  501    0  0.00000000000E+00  0.00000000000E+00 -0.22525711101E+04  0.22525711101E+04  0.50400001928E-02 0. -1.
    10030    2    1    2    0    0  0.00000000000E+00  0.00000000000E+00 -0.21202253242E+04  0.23849168961E+04  0.10920042015E+04 0.  0.
        2    1    3    3  502    0  0.24871257147E+03 -0.10574312544E+03 -0.20962472725E+04  0.21135969765E+04  0.25500000920E-02 0. -1.
       -2    1    3    3    0  502 -0.24871257147E+03  0.10574312544E+03 -0.23978051681E+02  0.27131991957E+03  0.25500000920E-02 0.  1.
</event>
<event>
 5   0  0.2992375E-03  0.1123838E+04  0.7818609E-02  0.9182264E-01
        4   -1    0    0  501    0  0.00000000000E+00  0.00000000000E+00  0.60460457367E+03  0.60460590752E+03  0.12699999809E+01 0. -1.
       -4   -1    0    0    0  501  0.00000000000E+00  0.00000000000E+00 -0.52224468299E+03  0.52224622719E+03  0.12699999809E+01 0.  1.
    10030    2    1    2    0    0  0.00000000000E+00  0.00000000000E+00  0.82359890675E+02  0.11268521347E+04  0.11238383255E+04 0.  0.
        2    1    3    3  502    0  0.31229645381E+03 -0.46694123879E+03  0.54999137430E+02  0.56443609087E+03  0.25500000920E-02 0. -1.
       -2    1    3    3    0  502 -0.31229645381E+03  0.46694123879E+03  0.27360753245E+02  0.56241604384E+03  0.25500000920E-02 0.  1.
</event>
<event>
 5   0  0.7537480E-03  0.1095199E+04  0.7818609E-02  0.9209884E-01
        2   -1    0    0  501    0  0.00000000000E+00  0.00000000000E+00  0.16039404852E+04  0.16039404852E+04  0.25500000920E-02 0. -1.
       -2   -1    0    0    0  501  0.00000000000E+00  0.00000000000E+00 -0.18695530014E+03  0.18695530015E+03  0.25500000920E-02 0.  1.
    10030    2    1    2    0    0  0.00000000000E+00  0.00000000000E+00  0.14169851850E+04  0.17908957853E+04  0.10951989314E+04 0.  0.
        1    1    3    3  502    0 -0.23374062288E+03  0.38161801802E+03  0.12245559383E+04  0.13037654070E+04  0.50400001928E-02 0. -1.
       -1    1    3    3    0  502  0.23374062288E+03 -0.38161801802E+03  0.19242924675E+03  0.48713037833E+03  0.50400001928E-02 0.  1.
</event>
<event>
 5   0  0.2992375E-03  0.1080996E+04  0.7818609E-02  0.9223915E-01
       -3   -1    0    0    0  501  0.00000000000E+00  0.00000000000E+00  0.53676055268E+03  0.53676056218E+03  0.10100000352E+00 0. -1.
        3   -1    0    0  501    0  0.00000000000E+00  0.00000000000E+00 -0.54426143560E+03  0.54426144498E+03  0.10100000352E+00 0.  1.
    10030    2    1    2    0    0  0.00000000000E+00  0.00000000000E+00 -0.75008829247E+01  0.10810220072E+04  0.10809959837E+04 0.  0.
        4    1    3    3  502    0 -0.64365433255E+02 -0.33328346826E+03 -0.42437403230E+03  0.54342958275E+03  0.12699999809E+01 0.  1.
       -4    1    3    3    0  502  0.64365433255E+02  0.33328346826E+03  0.41687314938E+03  0.53759242441E+03  0.12699999809E+01 0. -1.
</event>
<event>
 5   0  0.7537480E-03  0.1044477E+04  0.7818609E-02  0.9261065E-01
       -2   -1    0    0    0  501  0.00000000000E+00  0.00000000000E+00  0.22854313533E+03  0.22854313535E+03  0.25500000920E-02 0. -1.
        2   -1    0    0  501    0  0.00000000000E+00  0.00000000000E+00 -0.11933539342E+04  0.11933539342E+04  0.25500000920E-02 0.  1.
    10030    2    1    2    0    0  0.00000000000E+00  0.00000000000E+00 -0.96481079887E+03  0.14218970696E+04  0.10444766148E+04 0.  0.
        1    1    3    3  502    0 -0.41930402618E+03 -0.19785761209E+03 -0.15520172374E+03  0.48892849796E+03  0.50400001928E-02 0.  1.
       -1    1    3    3    0  502  0.41930402618E+03  0.19785761209E+03 -0.80960907513E+03  0.93296857160E+03  0.50400001928E-02 0. -1.
</event>
<event>
 5   0  0.7952121E-03  0.1093057E+04  0.7818609E-02  0.9211986E-01
        2   -1    0    0  501    0  0.00000000000E+00  0.00000000000E+00  0.13192637272E+04  0.13192637272E+04  0.25500000920E-02 0.  1.
       -2   -1    0    0    0  501  0.00000000000E+00  0.00000000000E+00 -0.22640896904E+03  0.22640896906E+03  0.25500000920E-02 0. -1.
    10030    2    1    2    0    0  0.00000000000E+00  0.00000000000E+00  0.10928547582E+04  0.15456726963E+04  0.10930565226E+04 0.  0.
        3    1    3    3  502    0  0.49713322466E+03  0.19448097431E+03  0.38073909451E+03  0.65568785311E+03  0.10100000352E+00 0. -1.
       -3    1    3    3    0  502 -0.49713322466E+03 -0.19448097431E+03  0.71211566364E+03  0.88998484314E+03  0.10100000352E+00 0.  1.
</event>
<event>
 5   0  0.4428114E-03  0.1097493E+04  0.7818609E-02  0.9207639E-01
        1   -1    0    0  501    0  0.00000000000E+00  0.00000000000E+00  0.10133278854E+04  0.10133278855E+04  0.50400001928E-02 0.  1.
       -1   -1    0    0    0  501  0.00000000000E+00  0.00000000000E+00 -0.29716226752E+03  0.29716226757E+03  0.50400001928E-02 0. -1.
    10030    2    1    2    0    0  0.00000000000E+00  0.00000000000E+00  0.71616561793E+03  0.13104901530E+04  0.10974931658E+04 0.  0.
        4    1    3    3  502    0  0.21064608375E+03 -0.28063850361E+02  0.96219771985E+03  0.98538592302E+03  0.12699999809E+01 0.  1.
       -4    1    3    3    0  502 -0.21064608375E+03  0.28063850361E+02 -0.24603210192E+03  0.32510423001E+03  0.12699999809E+01 0. -1.
</event>
<event>
 5   0  0.4428114E-03  0.1118550E+04  0.7818609E-02  0.9187298E-01
       -1   -1    0    0    0  501  0.00000000000E+00  0.00000000000E+00  0.25941524609E+03  0.25941524614E+03  0.50400001928E-02 0. -1.
        1   -1    0    0  501    0  0.00000000000E+00  0.00000000000E+00 -0.12057449204E+04  0.12057449204E+04  0.50400001928E-02 0.  1.
    10030    2    1    2    0    0  0.00000000000E+00  0.00000000000E+00 -0.94632967430E+03  0.14651601665E+04  0.11185501603E+04 0.  0.
        4    1    3    3  502    0  0.16292268776E+03  0.18922741790E+02 -0.11735314294E+04  0.11849386064E+04  0.12699999809E+01 0.  1.
       -4    1    3    3    0  502 -0.16292268776E+03 -0.18922741790E+02  0.22720175508E+03  0.28022156012E+03  0.12699999809E+01 0. -1.
</event>
<event>
 5   0  0.4641021E-03  0.8387677E+03  0.7818609E-02  0.9505538E-01
       -1   -1    0    0    0  501  0.00000000000E+00  0.00000000000E+00  0.45162483221E+03  0.45162483224E+03  0.50400001928E-02 0.  1.
        1   -1    0    0  501    0  0.00000000000E+00  0.00000000000E+00 -0.38944450239E+03  0.38944450242E+03  0.50400001928E-02 0. -1.
    10030    2    1    2    0    0  0.00000000000E+00  0.00000000000E+00  0.62180329819E+02  0.84106933466E+03  0.83876768672E+03 0.  0.
        1    1    3    3  502    0 -0.15341912970E+03 -0.29067258188E+03 -0.23011423458E+03  0.40122380312E+03  0.50400001928E-02 0.  1.
       -1    1    3    3    0  502  0.15341912970E+03  0.29067258188E+03  0.29229456439E+03  0.43984553154E+03  0.50400001928E-02 0. -1.
</event>
<event>
 5   0  0.7766551E-03  0.9695276E+03  0.7818609E-02  0.9342613E-01
        2   -1    0    0  501    0  0.00000000000E+00  0.00000000000E+00  0.32872057452E+03  0.32872057453E+03  0.25500000920E-02 0. -1.
       -2   -1    0    0    0  501  0.00000000000E+00  0.00000000000E+00 -0.71488055405E+03  0.71488055406E+03  0.25500000920E-02 0.  1.
    10030    2    1    2    0    0  0.00000000000E+00  0.00000000000E+00 -0.38615997953E+03  0.10436011286E+04  0.96952760961E+03 0.  0.
        5    1    3    3  502    0 -0.32086991968E+03  0.13512525596E+03  0.16996831203E+03  0.38746310437E+03  0.46999998093E+01 0. -1.
       -5    1    3    3    0  502  0.32086991968E+03 -0.13512525596E+03 -0.55612829156E+03  0.65613802422E+03  0.46999998093E+01 0.  1.
</event>
<event>
 5   0  0.4641021E-03  0.1131665E+04  0.7818609E-02  0.9174867E-01
       -1   -1    0    0    0  501  0.00000000000E+00  0.00000000000E+00  0.48483001621E+03  0.48483001623E+03  0.50400001928E-02 0. -1.
        1   -1    0    0  501    0  0.00000000000E+00  0.00000000000E+00 -0.66036858850E+03  0.66036858852E+03  0.50400001928E-02 0.  1.
    10030    2    1    2    0    0  0.00000000000E+00  0.00000000000E+00 -0.17553857229E+03  0.11451986048E+04  0.11316651687E+04 0.  0.
        1    1    3    3  502    0  0.47057340349E+02  0.25118916122E+03 -0.59863928517E+03  0.65090658452E+03  0.50400001928E-02 0.  1.
       -1    1    3    3    0  502 -0.47057340349E+02 -0.25118916122E+03  0.42310071289E+03  0.49429202023E+03  0.50400001928E-02 0. -1.
</event>
<event>
 5   0  0.2992375E-03  0.8082421E+03  0.7818609E-02  0.9548163E-01
        3   -1    0    0  501    0  0.00000000000E+00  0.00000000000E+00  0.30569056233E+03  0.30569057902E+03  0.10100000352E+00 0.  1.
       -3   -1    0    0    0  501  0.00000000000E+00  0.00000000000E+00 -0.53424548281E+03  0.53424549236E+03  0.10100000352E+00 0. -1.
    10030    2    1    2    0    0  0.00000000000E+00  0.00000000000E+00 -0.22855492048E+03  0.83993607138E+03  0.80824207533E+03 0.  0.
        1    1    3    3  502    0 -0.20450951352E+03  0.19276702434E+03 -0.41606217155E+03  0.50208664334E+03  0.50400001928E-02 0. -1.
       -1    1    3    3    0  502  0.20450951352E+03 -0.19276702434E+03  0.18750725108E+03  0.33784942804E+03  0.50400001928E-02 0.  1.
</event>
<event>
 5   0  0.7766551E-03  0.1097624E+04  0.7818609E-02  0.9207511E-01
        2   -1    0    0  501    0  0.00000000000E+00  0.00000000000E+00  0.83493399856E+03  0.83493399856E+03  0.25500000920E-02 0.  1.
       -2   -1    0    0    0  501  0.00000000000E+00  0.00000000000E+00 -0.36074058028E+03  0.36074058029E+03  0.25500000920E-02 0. -1.
    10030    2    1    2    0    0  0.00000000000E+00  0.00000000000E+00  0.47419341828E+03  0.11956745788E+04  0.10976239340E+04 0.  0.
        5    1    3    3  502    0  0.98224091207E+02 -0.10739273230E+03 -0.33931355656E+03  0.36923833862E+03  0.46999998093E+01 0. -1.
       -5    1    3    3    0  502 -0.98224091207E+02  0.10739273230E+03  0.81350697484E+03  0.82643624022E+03  0.46999998093E+01 0.  1.
</event>
<event>
 5   0  0.7537480E-03  0.1115786E+04  0.7818609E-02  0.9189941E-01
        2   -1    0    0  501    0  0.00000000000E+00  0.00000000000E+00  0.14981359979E+04  0.14981359979E+04  0.25500000920E-02 0.  1.
       -2   -1    0    0    0  501  0.00000000000E+00  0.00000000000E+00 -0.20775455521E+03  0.20775455522E+03  0.25500000920E-02 0. -1.
    10030    2    1    2    0    0  0.00000000000E+00  0.00000000000E+00  0.12903814427E+04  0.17058905532E+04  0.11157859614E+04 0.  0.
        1    1    3    3  502    0 -0.99313775855E+02 -0.54851570351E+03  0.67978084779E+03  0.87911017746E+03  0.50400001928E-02 0.  1.
       -1    1    3    3    0  502  0.99313775855E+02  0.54851570351E+03  0.61060059493E+03  0.82678037569E+03  0.50400001928E-02 0. -1.
</event>
<event>
 5   0  0.7738497E-03  0.1170289E+04  0.7818609E-02  0.9139267E-01
       -2   -1    0    0    0  501  0.00000000000E+00  0.00000000000E+00  0.59101687113E+03  0.59101687113E+03  0.25500000920E-02 0.  1.
        2   -1    0    0  501    0  0.00000000000E+00  0.00000000000E+00 -0.57933054726E+03  0.57933054727E+03  0.25500000920E-02 0. -1.
    10030    2    1    2    0    0  0.00000000000E+00  0.00000000000E+00  0.11686323867E+02  0.11703474184E+04  0.11702890710E+04 0.  0.
        4    1    3    3  502    0  0.42190805746E+03 -0.37373863867E+03 -0.15134462089E+03  0.58360413481E+03  0.12699999809E+01 0.  1.
       -4    1    3    3    0  502 -0.42190805746E+03  0.37373863867E+03  0.16303094476E+03  0.58674328359E+03  0.12699999809E+01 0. -1.
</event>
<event>
 5   0  0.7766551E-03  0.1083034E+04  0.7818609E-02  0.9221888E-01
       -2   -1    0    0    0  501  0.00000000000E+00  0.00000000000E+00  0.33549753810E+03  0.33549753811E+03  0.25500000920E-02 0.  1.
        2   -1    0    0  501    0  0.00000000000E+00  0.00000000000E+00 -0.87404708890E+03  0.87404708890E+03  0.25500000920E-02 0. -1.
    10030    2    1    2    0    0  0.00000000000E+00  0.00000000000E+00 -0.53854955080E+03  0.12095446270E+04  0.10830339727E+04 0.  0.
        5    1    3    3  502    0 -0.53090046819E+03 -0.10606262722E+03 -0.25735214088E+03  0.59946376240E+03  0.46999998093E+01 0. -1.
       -5    1    3    3    0  502  0.53090046819E+03  0.10606262722E+03 -0.28119740992E+03  0.61008086461E+03  0.46999998093E+01 0.  1.
</event>
<event>
 5   0  0.4428114E-03  0.1080434E+04  0.7818609E-02  0.9224475E-01
       -1   -1    0    0    0  501  0.00000000000E+00  0.00000000000E+00  0.66195529210E+03  0.66195529212E+03  0.50400001928E-02 0. -1.
        1   -1    0    0  501    0  0.00000000000E+00  0.00000000000E+00 -0.44086707604E+03  0.44086707607E+03  0.50400001928E-02 0.  1.
    10030    2    1    2    0    0  0.00000000000E+00  0.00000000000E+00  0.22108821607E+03  0.11028223682E+04  0.10804337909E+04 0.  0.
        4    1    3    3  502    0  0.20886662259E+02  0.37818746488E+03  0.50371507140E+03  0.63023209797E+03  0.12699999809E+01 0.  1.
       -4    1    3    3    0  502 -0.20886662259E+02 -0.37818746488E+03 -0.28262685533E+03  0.47259027022E+03  0.12699999809E+01 0. -1.
</event>
<event>
 5   0  0.7537480E-03  0.1071192E+04  0.7818609E-02  0.9233734E-01
        2   -1    0    0  501    0  0.00000000000E+00  0.00000000000E+00  0.47276206417E+03  0.47276206418E+03  0.25500000920E-02 0.  1.
       -2   -1    0    0    0  501  0.00000000000E+00  0.00000000000E+00 -0.60678162196E+03  0.60678162197E+03  0.25500000920E-02 0. -1.
    10030    2    1    2    0    0  0.00000000000E+00  0.00000000000E+00 -0.13401955779E+03  0.10795436861E+04  0.10711924796E+04 0.  0.
        1    1    3    3  502    0  0.19029590981E+03  0.50057527642E+03 -0.75748680816E+02  0.54085673087E+03  0.50400001928E-02 0. -1.
       -1    1    3    3    0  502 -0.19029590981E+03 -0.50057527642E+03 -0.58270876974E+02  0.53868695528E+03  0.50400001928E-02 0.  1.
</event>
<event>
 5   0  0.4428114E-03  0.1108880E+04  0.7818609E-02  0.9196580E-01
        1   -1    0    0  501    0  0.00000000000E+00  0.00000000000E+00  0.66666574494E+03  0.66666574495E+03  0.50400001928E-02 0.  1.
       -1   -1    0    0    0  501  0.00000000000E+00  0.00000000000E+00 -0.46110629795E+03  0.46110629797E+03  0.50400001928E-02 0. -1.
    10030    2    1    2    0    0  0.00000000000E+00  0.00000000000E+00  0.20555944699E+03  0.11277720429E+04  0.11088801083E+04 0.  0.
        4    1    3    3  502    0 -0.24580905208E+03 -0.33428955943E+03  0.47678192316E+03  0.63205554723E+03  0.12699999809E+01 0.  1.
       -4    1    3    3    0  502  0.24580905208E+03  0.33428955943E+03 -0.27122247618E+03  0.49571649570E+03  0.12699999809E+01 0. -1.
</event>
<event>
 5   0  0.4598561E-03  0.1110047E+04  0.7818609E-02  0.9195455E-01
       -1   -1    0    0    0  501  0.00000000000E+00  0.00000000000E+00  0.37849551941E+03  0.37849551944E+03  0.50400001928E-02 0. -1.
        1   -1    0    0  501    0  0.00000000000E+00  0.00000000000E+00 -0.81388263394E+03  0.81388263396E+03  0.50400001928E-02 0.  1.
    10030    2    1    2    0    0  0.00000000000E+00  0.00000000000E+00 -0.43538711454E+03  0.11923781534E+04  0.11100467203E+04 0.  0.
        2    1    3    3  502    0  0.41668198747E+03 -0.77040672246E+02 -0.60273762430E+03  0.73678476343E+03  0.25500000920E-02 0.  1.
       -2    1    3    3    0  502 -0.41668198747E+03  0.77040672246E+02  0.16735050976E+03  0.45559338997E+03  0.25500000920E-02 0. -1.
</event>
<event>
 5   0  0.2992375E-03  0.1105948E+04  0.7818609E-02  0.9199414E-01
        4   -1    0    0  501    0  0.00000000000E+00  0.00000000000E+00  0.19350478194E+03  0.19350894950E+03  0.12699999809E+01 0. -1.
       -4   -1    0    0    0  501  0.00000000000E+00  0.00000000000E+00 -0.15801991882E+04  0.15801996986E+04  0.12699999809E+01 0.  1.
    10030    2    1    2    0    0  0.00000000000E+00  0.00000000000E+00 -0.13866944063E+04  0.17737086481E+04  0.11059480059E+04 0.  0.
        3    1    3    3  502    0 -0.11325181200E+03  0.30342702997E+02  0.17334317217E+03  0.20927139815E+03  0.10100000352E+00 0. -1.
       -3    1    3    3    0  502  0.11325181200E+03 -0.30342702997E+02 -0.15600375785E+04  0.15644372499E+04  0.10100000352E+00 0.  1.
</event>
<event>
 5   0  0.4641021E-03  0.1086530E+04  0.7818609E-02  0.9218421E-01
        1   -1    0    0  501    0  0.00000000000E+00  0.00000000000E+00  0.83221976565E+03  0.83221976566E+03  0.50400001928E-02 0.  1.
       -1   -1    0    0    0  501  0.00000000000E+00  0.00000000000E+00 -0.35463828786E+03  0.35463828790E+03  0.50400001928E-02 0. -1.
    10030    2    1    2    0    0  0.00000000000E+00  0.00000000000E+00  0.47758147779E+03  0.11868580536E+04  0.10865302441E+04 0.  0.
        1    1    3    3  502    0 -0.15709385045E+03  0.14231483931E+03 -0.30760204474E+03  0.37356526778E+03  0.50400001928E-02 0. -1.
       -1    1    3    3    0  502  0.15709385045E+03 -0.14231483931E+03  0.78518352252E+03  0.81329278578E+03  0.50400001928E-02 0.  1.
</event>
<event>
 5   0  0.4428114E-03  0.1137065E+04  0.7818609E-02  0.9169800E-01
        1   -1    0    0  501    0  0.00000000000E+00  0.00000000000E+00  0.72842315155E+03  0.72842315156E+03  0.50400001928E-02 0. -1.
       -1   -1    0    0    0  501  0.00000000000E+00  0.00000000000E+00 -0.44373813754E+03  0.44373813757E+03  0.50400001928E-02 0.  1.
    10030    2    1    2    0    0  0.00000000000E+00  0.00000000000E+00  0.28468501400E+03  0.11721612891E+04  0.11370648753E+04 0.  0.
        4    1    3    3  502    0 -0.56849945691E+03  0.59255103787E+01  0.14143466519E+03  0.58586015532E+03  0.12699999809E+01 0.  1.
       -4    1    3    3    0  502  0.56849945691E+03 -0.59255103787E+01  0.14325034881E+03  0.58630113381E+03  0.12699999809E+01 0. -1.
</event>
<event>
 5   0  0.7738497E-03  0.1104549E+04  0.7818609E-02  0.9200769E-01
        2   -1    0    0  501    0  0.00000000000E+00  0.00000000000E+00  0.73288390534E+03  0.73288390534E+03  0.25500000920E-02 0.  1.
       -2   -1    0    0    0  501  0.00000000000E+00  0.00000000000E+00 -0.41617397324E+03  0.41617397325E+03  0.25500000920E-02 0. -1.
    10030    2    1    2    0    0  0.00000000000E+00  0.00000000000E+00  0.31670993209E+03  0.11490578786E+04  0.11045491511E+04 0.  0.
        4    1    3    3  502    0 -0.31878376684E+03  0.30982479425E+03 -0.18255602691E+03  0.48056509340E+03  0.12699999809E+01 0. -1.
       -4    1    3    3    0  502  0.31878376684E+03 -0.30982479425E+03  0.49926595901E+03  0.66849278519E+03  0.12699999809E+01 0.  1.
</event>
<event>
 5   0  0.7738497E-03  0.8991099E+03  0.7818609E-02  0.9426695E-01
        2   -1    0    0  501    0  0.00000000000E+00  0.00000000000E+00  0.49575472305E+03  0.49575472305E+03  0.25500000920E-02 0.  1.
       -2   -1    0    0    0  501  0.00000000000E+00  0.00000000000E+00 -0.40766058083E+03  0.40766058084E+03  0.25500000920E-02 0. -1.
    10030    2    1    2    0    0  0.00000000000E+00  0.00000000000E+00  0.88094142215E+02  0.90341530389E+03  0.89910991176E+03 0.  0.
        4    1    3    3  502    0  0.13523982951E+03 -0.10174941736E+03  0.46252102527E+03  0.49251402734E+03  0.12699999809E+01 0.  1.
       -4    1    3    3    0  502 -0.13523982951E+03  0.10174941736E+03 -0.37442688305E+03  0.41090127655E+03  0.12699999809E+01 0. -1.
</event>
<event>
 5   0  0.4504740E-03  0.1077663E+04  0.7818609E-02  0.9227241E-01
       -1   -1    0    0    0  501  0.00000000000E+00  0.00000000000E+00  0.27775748446E+03  0.27775748450E+03  0.50400001928E-02 0. -1.
        1   -1    0    0  501    0  0.00000000000E+00  0.00000000000E+00 -0.10452981987E+04  0.10452981987E+04  0.50400001928E-02 0.  1.
    10030    2    1    2    0    0  0.00000000000E+00  0.00000000000E+00 -0.76754071420E+03  0.13230556832E+04  0.10776630238E+04 0.  0.
        5    1    3    3  502    0  0.27606616889E+03  0.36044200016E+03 -0.73998844108E+03  0.86817967497E+03  0.46999998093E+01 0.  1.
       -5    1    3    3    0  502 -0.27606616889E+03 -0.36044200016E+03 -0.27552273116E+02  0.45487600821E+03  0.46999998093E+01 0. -1.
</event>
<event>
 5   0  0.7712816E-03  0.1091356E+04  0.7818609E-02  0.9213658E-01
        2   -1    0    0  501    0  0.00000000000E+00  0.00000000000E+00  0.41460305953E+03  0.41460305954E+03  0.25500000920E-02 0.  1.
       -2   -1    0    0    0  501  0.00000000000E+00  0.00000000000E+00 -0.71819205332E+03  0.71819205332E+03  0.25500000920E-02 0. -1.
    10030    2    1    2    0    0  0.00000000000E+00  0.00000000000E+00 -0.30358899378E+03  0.11327951129E+04  0.10913562620E+04 0.  0.
        2    1    3    3  502    0  0.17865892972E+03 -0.32938578726E+03 -0.56353068653E+03  0.67674282019E+03  0.25500000920E-02 0. -1.
       -2    1    3    3    0  502 -0.17865892972E+03  0.32938578726E+03  0.25994169274E+03  0.45605229267E+03  0.25500000920E-02 0.  1.
</event>
<event>
 5   0  0.4504740E-03  0.1102884E+04  0.7818609E-02  0.9202385E-01
       -1   -1    0    0    0  501  0.00000000000E+00  0.00000000000E+00  0.26132566261E+03  0.26132566266E+03  0.50400001928E-02 0.  1.
        1   -1    0    0  501    0  0.00000000000E+00  0.00000000000E+00 -0.11636382687E+04  0.11636382687E+04  0.50400001928E-02 0. -1.
    10030    2    1    2    0    0  0.00000000000E+00  0.00000000000E+00 -0.90231260608E+03  0.14249639314E+04  0.11028844756E+04 0.  0.
        5    1    3    3  502    0  0.37657006872E+03 -0.13364838368E+03 -0.94212834218E+03  0.10233742279E+04  0.46999998093E+01 0. -1.
       -5    1    3    3    0  502 -0.37657006872E+03  0.13364838368E+03  0.39815736094E+02  0.40158970350E+03  0.46999998093E+01 0.  1.
</event>
<event>
 5   0  0.7537480E-03  0.1095729E+04  0.7818609E-02  0.9209365E-01
        2   -1    0    0  501    0  0.00000000000E+00  0.00000000000E+00  0.50903737395E+03  0.50903737396E+03  0.25500000920E-02 0.  1.
       -2   -1    0    0    0  501  0.00000000000E+00  0.00000000000E+00 -0.58965309965E+03  0.58965309966E+03  0.25500000920E-02 0. -1.
    10030    2    1    2    0    0  0.00000000000E+00  0.00000000000E+00 -0.80615725703E+02  0.10986904736E+04  0.10957289179E+04 0.  0.
        1    1    3    3  502    0  0.14462717952E+03 -0.21561502121E+03  0.44343634787E+03  0.51385080818E+03  0.50400001928E-02 0.  1.
       -1    1    3    3    0  502 -0.14462717952E+03  0.21561502121E+03 -0.52405207357E+03  0.58483966544E+03  0.50400001928E-02 0. -1.
</event>
<event>
 5   0  0.7738497E-03  0.1090581E+04  0.7818609E-02  0.9214422E-01
        2   -1    0    0  501    0  0.00000000000E+00  0.00000000000E+00  0.52439907066E+03  0.52439907067E+03  0.25500000920E-02 0.  1.
       -2   -1    0    0    0  501  0.00000000000E+00  0.00000000000E+00 -0.56701376821E+03  0.56701376822E+03  0.25500000920E-02 0. -1.
    10030    2    1    2    0    0  0.00000000000E+00  0.00000000000E+00 -0.42614697552E+02  0.10914128389E+04  0.10905805667E+04 0.  0.
        4    1    3    3  502    0 -0.13786096577E+03  0.12638858334E+03  0.49129459361E+03  0.52569164963E+03  0.12699999809E+01 0.  1.
       -4    1    3    3    0  502  0.13786096577E+03 -0.12638858334E+03 -0.53390929116E+03  0.56572118925E+03  0.12699999809E+01 0. -1.
</event>
<event>
 5   0  0.4298101E-03  0.1094076E+04  0.7818609E-02  0.9210986E-01
       -1   -1    0    0    0  501  0.00000000000E+00  0.00000000000E+00  0.26757089584E+03  0.26757089589E+03  0.50400001928E-02 0.  1.
        1   -1    0    0  501    0  0.00000000000E+00  0.00000000000E+00 -0.11183964208E+04  0.11183964208E+04  0.50400001928E-02 0. -1.
    10030    2    1    2    0    0  0.00000000000E+00  0.00000000000E+00 -0.85082552497E+03  0.13859673167E+04  0.10940755591E+04 0.  0.
        3    1    3    3  502    0  0.15145022231E+03  0.28695035478E+03  0.13251236061E+03  0.35048140017E+03  0.10100000352E+00 0.  1.
       -3    1    3    3    0  502 -0.15145022231E+03 -0.28695035478E+03 -0.98333788558E+03  0.10354859165E+04  0.10100000352E+00 0. -1.
</event>
<event>
 5   0  0.7738497E-03  0.1099737E+04  0.7818609E-02  0.9205448E-01
        2   -1    0    0  501    0  0.00000000000E+00  0.00000000000E+00  0.12813726654E+04  0.12813726654E+04  0.25500000920E-02 0.  1.
       -2   -1    0    0    0  501  0.00000000000E+00  0.00000000000E+00 -0.23596227338E+03  0.23596227339E+03  0.25500000920E-02 0. -1.
    10030    2    1    2    0    0  0.00000000000E+00  0.00000000000E+00  0.10454103920E+04  0.15173349388E+04  0.10997374363E+04 0.  0.
        4    1    3    3  502    0  0.43251954396E+03  0.12707866326E+03  0.95711444005E+03  0.10579658817E+04  0.12699999809E+01 0.  1.
       -4    1    3    3    0  502 -0.43251954396E+03 -0.12707866326E+03  0.88295951935E+02  0.45936905707E+03  0.12699999809E+01 0. -1.
</event>
<event>
 5   0  0.7766551E-03  0.1095491E+04  0.7818609E-02  0.9209598E-01
       -2   -1    0    0    0  501  0.00000000000E+00  0.00000000000E+00  0.22248067149E+03  0.22248067151E+03  0.25500000920E-02 0. -1.
        2   -1    0    0  501    0  0.00000000000E+00  0.00000000000E+00 -0.13485451803E+04  0.13485451803E+04  0.25500000920E-02 0.  1.
    10030    2    1    2    0    0  0.00000000000E+00  0.00000000000E+00 -0.11260645088E+04  0.15710258518E+04  0.10954911908E+04 0.  0.
        5    1    3    3  502    0 -0.52340164245E+03  0.13878899863E+03 -0.44484879114E+03  0.70080254169E+03  0.46999998093E+01 0.  1.
       -5    1    3    3    0  502  0.52340164245E+03 -0.13878899863E+03 -0.68121571764E+03  0.87022331009E+03  0.46999998093E+01 0. -1.
</event>
<event>
 5   0  0.7537480E-03  0.1103597E+04  0.7818609E-02  0.9201693E-01
       -2   -1    0    0    0  501  0.00000000000E+00  0.00000000000E+00  0.50353944354E+03  0.50353944355E+03  0.25500000920E-02 0.  1.
        2   -1    0    0  501    0  0.00000000000E+00  0.00000000000E+00 -0.60468285868E+03  0.60468285869E+03  0.25500000920E-02 0. -1.
    10030    2    1    2    0    0  0.00000000000E+00  0.00000000000E+00 -0.10114341514E+03  0.11082223022E+04  0.11035971551E+04 0.  0.
        1    1    3    3  502    0 -0.47202082612E+03 -0.26364476364E+03 -0.16134925904E+03  0.56422141496E+03  0.50400001928E-02 0. -1.
       -1    1    3    3    0  502  0.47202082612E+03  0.26364476364E+03  0.60205843902E+02  0.54400088727E+03  0.50400001928E-02 0.  1.
</event>
<event>
 5   0  0.4428114E-03  0.1189475E+04  0.7818609E-02  0.9122119E-01
       -1   -1    0    0    0  501  0.00000000000E+00  0.00000000000E+00  0.34852557559E+03  0.34852557562E+03  0.50400001928E-02 0. -1.
        1   -1    0    0  501    0  0.00000000000E+00  0.00000000000E+00 -0.10148825301E+04  0.10148825301E+04  0.50400001928E-02 0.  1.
    10030    2    1    2    0    0  0.00000000000E+00  0.00000000000E+00 -0.66635695450E+03  0.13634081057E+04  0.11894747042E+04 0.  0.
        4    1    3    3  502    0  0.59418487563E+03 -0.89682395543E+01 -0.30569747497E+03  0.66827288951E+03  0.12699999809E+01 0.  1.
       -4    1    3    3    0  502 -0.59418487563E+03  0.89682395543E+01 -0.36065947953E+03  0.69513521621E+03  0.12699999809E+01 0. -1.
</event>
<event>
 5   0  0.7537480E-03  0.1098206E+04  0.7818609E-02  0.9206942E-01
       -2   -1    0    0    0  501  0.00000000000E+00  0.00000000000E+00  0.45040388223E+03  0.45040388224E+03  0.25500000920E-02 0. -1.
        2   -1    0    0  501    0  0.00000000000E+00  0.00000000000E+00 -0.66943058028E+03  0.66943058028E+03  0.25500000920E-02 0.  1.
    10030    2    1    2    0    0  0.00000000000E+00  0.00000000000E+00 -0.21902669805E+03  0.11198344625E+04  0.10982060503E+04 0.  0.
        1    1    3    3  502    0  0.46658566284E+03 -0.25789224692E+03  0.24620220680E+02  0.53368225292E+03  0.50400001928E-02 0. -1.
       -1    1    3    3    0  502 -0.46658566284E+03  0.25789224692E+03 -0.24364691873E+03  0.58615220960E+03  0.50400001928E-02 0.  1.
</event>
<event>
 5   0  0.4598561E-03  0.1120346E+04  0.7818609E-02  0.9185585E-01
       -1   -1    0    0    0  501  0.00000000000E+00  0.00000000000E+00  0.30013913989E+03  0.30013913993E+03  0.50400001928E-02 0. -1.
        1   -1    0    0  501    0  0.00000000000E+00  0.00000000000E+00 -0.10454952092E+04  0.10454952092E+04  0.50400001928E-02 0.  1.
    10030    2    1    2    0    0  0.00000000000E+00  0.00000000000E+00 -0.74535606927E+03  0.13456343491E+04  0.11203464337E+04 0.  0.
        2    1    3    3  502    0  0.22452805915E+03 -0.20137703164E+03 -0.93964802476E+03  0.98686572980E+03  0.25500000920E-02 0.  1.
       -2    1    3    3    0  502 -0.22452805915E+03  0.20137703164E+03  0.19429195549E+03  0.35876861930E+03  0.25500000920E-02 0. -1.
</event>
<event>
 5   0  0.7952121E-03  0.1090908E+04  0.7818609E-02  0.9214099E-01
       -2   -1    0    0    0  501  0.00000000000E+00  0.00000000000E+00  0.15383707866E+03  0.15383707868E+03  0.25500000920E-02 0. -1.
        2   -1    0    0  501    0  0.00000000000E+00  0.00000000000E+00 -0.19339959113E+04  0.19339959113E+04  0.25500000920E-02 0.  1.
    10030    2    1    2    0    0  0.00000000000E+00  0.00000000000E+00 -0.17801588326E+04  0.20878329900E+04  0.10909083943E+04 0.  0.
        3    1    3    3  502    0 -0.35546362796E+03 -0.41138383514E+03 -0.80601767372E+03  0.97224253721E+03  0.10100000352E+00 0.  1.
       -3    1    3    3    0  502  0.35546362796E+03  0.41138383514E+03 -0.97414115892E+03  0.11155904528E+04  0.10100000352E+00 0. -1.
</event>
<event>
 5   0  0.4428114E-03  0.1077926E+04  0.7818609E-02  0.9226978E-01
        1   -1    0    0  501    0  0.00000000000E+00  0.00000000000E+00  0.17611398413E+04  0.17611398413E+04  0.50400001928E-02 0.  1.
       -1   -1    0    0    0  501  0.00000000000E+00  0.00000000000E+00 -0.16493924841E+03  0.16493924849E+03  0.50400001928E-02 0. -1.
    10030    2    1    2    0    0  0.00000000000E+00  0.00000000000E+00  0.15962005929E+04  0.19260790898E+04  0.10779259378E+04 0.  0.
        4    1    3    3  502    0 -0.44497234038E+02 -0.50110362445E+03  0.11436334881E+04  0.12493934586E+04  0.12699999809E+01 0.  1.
       -4    1    3    3    0  502  0.44497234038E+02  0.50110362445E+03  0.45256710475E+03  0.67668563120E+03  0.12699999809E+01 0. -1.
</event>
<event>
 5   0  0.4428114E-03  0.1180131E+04  0.7818609E-02  0.9130427E-01
        1   -1    0    0  501    0  0.00000000000E+00  0.00000000000E+00  0.11740653790E+04  0.11740653790E+04  0.50400001928E-02 0. -1.
       -1   -1    0    0    0  501  0.00000000000E+00  0.00000000000E+00 -0.29655716243E+03  0.29655716247E+03  0.50400001928E-02 0.  1.
    10030    2    1    2    0    0  0.00000000000E+00  0.00000000000E+00  0.87750821657E+03  0.14706225415E+04  0.11801313441E+04 0.  0.
        4    1    3    3  502    0  0.36275687343E+03  0.35930738728E+03  0.80733182449E+03  0.95523852284E+03  0.12699999809E+01 0. -1.
       -4    1    3    3    0  502 -0.36275687343E+03 -0.35930738728E+03  0.70176392076E+02  0.51538401865E+03  0.12699999809E+01 0.  1.
</event>
<event>
 5   0  0.7537480E-03  0.1068336E+04  0.7818609E-02  0.9236616E-01
       -2   -1    0    0    0  501  0.00000000000E+00  0.00000000000E+00  0.26122431462E+03  0.26122431463E+03  0.25500000920E-02 0.  1.
        2   -1    0    0  501    0  0.00000000000E+00  0.00000000000E+00 -0.10923001998E+04  0.10923001998E+04  0.25500000920E-02 0. -1.
    10030    2    1    2    0    0  0.00000000000E+00  0.00000000000E+00 -0.83107588520E+03  0.13535245144E+04  0.10683358481E+04 0.  0.
        1    1    3    3  502    0  0.10016122435E+03 -0.18831152141E+03 -0.10360079973E+04  0.10577362953E+04  0.50400001928E-02 0. -1.
       -1    1    3    3    0  502 -0.10016122435E+03  0.18831152141E+03  0.20493211211E+03  0.29578821910E+03  0.50400001928E-02 0.  1.
</event>
<event>
 5   0  0.7738497E-03  0.1092273E+04  0.7818609E-02  0.9212756E-01
       -2   -1    0    0    0  501  0.00000000000E+00  0.00000000000E+00  0.29684378833E+03  0.29684378834E+03  0.25500000920E-02 0. -1.
        2   -1    0    0  501    0  0.00000000000E+00  0.00000000000E+00 -0.10047884399E+04  0.10047884399E+04  0.25500000920E-02 0.  1.
    10030    2    1    2    0    0  0.00000000000E+00  0.00000000000E+00 -0.70794465156E+03  0.13016322282E+04  0.10922732387E+04 0.  0.
        4    1    3    3  502    0 -0.10767824136E+03 -0.36834840619E+02  0.28255515713E+03  0.30461523086E+03  0.12699999809E+01 0. -1.
       -4    1    3    3    0  502  0.10767824136E+03  0.36834840619E+02 -0.99049980869E+03  0.99701699738E+03  0.12699999809E+01 0.  1.
</event>
<event>
 5   0  0.4504740E-03  0.1046191E+04  0.7818609E-02  0.9259286E-01
        1   -1    0    0  501    0  0.00000000000E+00  0.00000000000E+00  0.14972539646E+04  0.14972539646E+04  0.50400001928E-02 0.  1.
       -1   -1    0    0    0  501  0.00000000000E+00  0.00000000000E+00 -0.18275372714E+03  0.18275372721E+03  0.50400001928E-02 0. -1.
    10030    2    1    2    0    0  0.00000000000E+00  0.00000000000E+00  0.13145002374E+04  0.16800076918E+04  0.10461906950E+04 0.  0.
        5    1    3    3  502    0 -0.45636869752E+03  0.73811998443E+02  0.26427661983E+03  0.53252682653E+03  0.46999998093E+01 0. -1.
       -5    1    3    3    0  502  0.45636869752E+03 -0.73811998443E+02  0.10502236176E+04  0.11474808653E+04  0.46999998093E+01 0.  1.
</event>
<event>
 5   0  0.7537480E-03  0.1115486E+04  0.7818609E-02  0.9190228E-01
        2   -1    0    0  501    0  0.00000000000E+00  0.00000000000E+00  0.20227370101E+04  0.20227370101E+04  0.25500000920E-02 0. -1.
       -2   -1    0    0    0  501  0.00000000000E+00  0.00000000000E+00 -0.15379031986E+03  0.15379031988E+03  0.25500000920E-02 0.  1.
    10030    2    1    2    0    0  0.00000000000E+00  0.00000000000E+00  0.18689466903E+04  0.21765273300E+04  0.11154862111E+04 0.  0.
        1    1    3    3  502    0 -0.45482689499E+02 -0.34098685613E+03  0.77865428547E+02  0.35270913808E+03  0.50400001928E-02 0.  1.
       -1    1    3    3    0  502  0.45482689499E+02  0.34098685613E+03  0.17910812617E+04  0.18238181919E+04  0.50400001928E-02 0. -1.
</event>
<event>
 5   0  0.7952121E-03  0.1089905E+04  0.7818609E-02  0.9215087E-01
        2   -1    0    0  501    0  0.00000000000E+00  0.00000000000E+00  0.26041220369E+04  0.26041220369E+04  0.25500000920E-02 0.  1.
       -2   -1    0    0    0  501  0.00000000000E+00  0.00000000000E+00 -0.11403967482E+03  0.11403967485E+03  0.25500000920E-02 0. -1.
    10030    2    1    2    0    0  0.00000000000E+00  0.00000000000E+00  0.24900823621E+04  0.27181617117E+04  0.10899050056E+04 0.  0.
        3    1    3    3  502    0 -0.20763095349E+03 -0.21242194750E+03  0.10560767173E+03  0.31525654181E+03  0.10100000352E+00 0. -1.
       -3    1    3    3    0  502  0.20763095349E+03  0.21242194750E+03  0.23844746903E+04  0.24029051699E+04  0.10100000352E+00 0.  1.
</event>
<event>
 5   0  0.4641021E-03  0.1122875E+04  0.7818609E-02  0.9183179E-01
        1   -1    0    0  501    0  0.00000000000E+00  0.00000000000E+00  0.10300081887E+04  0.10300081887E+04  0.50400001928E-02 0. -1.
       -1   -1    0    0    0  501  0.00000000000E+00  0.00000000000E+00 -0.30602850520E+03  0.30602850524E+03  0.50400001928E-02 0.  1.
    10030    2    1    2    0    0  0.00000000000E+00  0.00000000000E+00  0.72397968353E+03  0.13360366940E+04  0.11228746437E+04 0.  0.
        1    1    3    3  502    0 -0.10564970393E+02  0.31163412101E+03 -0.19353033939E+03  0.36698969504E+03  0.50400001928E-02 0.  1.
       -1    1    3    3    0  502  0.10564970393E+02 -0.31163412101E+03  0.91751002292E+03  0.96904699894E+03  0.50400001928E-02 0. -1.
</event>
<event>
 5   0  0.4428114E-03  0.1183634E+04  0.7818609E-02  0.9127303E-01
        1   -1    0    0  501    0  0.00000000000E+00  0.00000000000E+00  0.61920094167E+03  0.61920094169E+03  0.50400001928E-02 0.  1.
       -1   -1    0    0    0  501  0.00000000000E+00  0.00000000000E+00 -0.56564410238E+03  0.56564410241E+03  0.50400001928E-02 0. -1.
    10030    2    1    2    0    0  0.00000000000E+00  0.00000000000E+00  0.53556839285E+02  0.11848450441E+04  0.11836339990E+04 0.  0.
        4    1    3    3  502    0 -0.84262919980E+01  0.16095677768E+03 -0.54324925965E+03  0.56665638414E+03  0.12699999809E+01 0. -1.
       -4    1    3    3    0  502  0.84262919980E+01 -0.16095677768E+03  0.59680609893E+03  0.61818865996E+03  0.12699999809E+01 0.  1.
</event>
<event>
 5   0  0.4298101E-03  0.1146948E+04  0.7818609E-02  0.9160603E-01
       -1   -1    0    0    0  501  0.00000000000E+00  0.00000000000E+00  0.31770319212E+03  0.31770319216E+03  0.50400001928E-02 0.  1.
        1   -1    0    0  501    0  0.00000000000E+00  0.00000000000E+00 -0.10351570336E+04  0.10351570337E+04  0.50400001928E-02 0. -1.
    10030    2    1    2    0    0  0.00000000000E+00  0.00000000000E+00 -0.71745384152E+03  0.13528602258E+04  0.11469484626E+04 0.  0.
        3    1    3    3  502    0  0.21441420852E+03 -0.29398812539E+03  0.16409932768E+03  0.39916296200E+03  0.10100000352E+00 0.  1.
       -3    1    3    3    0  502 -0.21441420852E+03  0.29398812539E+03 -0.88155316920E+03  0.95369726382E+03  0.10100000352E+00 0. -1.
</event>
<event>
 5   0  0.4504740E-03  0.9739277E+03  0.7818609E-02  0.9337612E-01
        1   -1    0    0  501    0  0.00000000000E+00  0.00000000000E+00  0.85423128036E+03  0.85423128037E+03  0.50400001928E-02 0.  1.
       -1   -1    0    0    0  501  0.00000000000E+00  0.00000000000E+00 -0.27759903936E+03  0.27759903941E+03  0.50400001928E-02 0. -1.
    10030    2    1    2    0    0  0.00000000000E+00  0.00000000000E+00  0.57663224099E+03  0.11318303198E+04  0.97392768285E+03 0.  0.
        5    1    3    3  502    0  0.33102732228E+03  0.11860492958E+03 -0.10314305948E+03  0.36647891908E+03  0.46999998093E+01 0. -1.
       -5    1    3    3    0  502 -0.33102732228E+03 -0.11860492958E+03  0.67977530047E+03  0.76535140070E+03  0.46999998093E+01 0.  1.
</event>
<event>
 5   0  0.2992375E-03  0.1157875E+04  0.7818609E-02  0.9150549E-01
       -3   -1    0    0    0  501  0.00000000000E+00  0.00000000000E+00  0.79858889451E+03  0.79858890090E+03  0.10100000352E+00 0. -1.
        3   -1    0    0  501    0  0.00000000000E+00  0.00000000000E+00 -0.41970104514E+03  0.41970105729E+03  0.10100000352E+00 0.  1.
    10030    2    1    2    0    0  0.00000000000E+00  0.00000000000E+00  0.37888784938E+03  0.12182899582E+04  0.11578749586E+04 0.  0.
        3    1    3    3  502    0  0.29675208463E+03 -0.32920277148E+03  0.58134625291E+03  0.73102649778E+03  0.10100000352E+00 0. -1.
       -3    1    3    3    0  502 -0.29675208463E+03  0.32920277148E+03 -0.20245840354E+03  0.48726346041E+03  0.10100000352E+00 0.  1.
</event>
<event>
 5   0  0.4298101E-03  0.1107865E+04  0.7818609E-02  0.9197559E-01
       -1   -1    0    0    0  501  0.00000000000E+00  0.00000000000E+00  0.47944859439E+03  0.47944859442E+03  0.50400001928E-02 0. -1.
        1   -1    0    0  501    0  0.00000000000E+00  0.00000000000E+00 -0.63998814272E+03  0.63998814274E+03  0.50400001928E-02 0.  1.
    10030    2    1    2    0    0  0.00000000000E+00  0.00000000000E+00 -0.16053954833E+03  0.11194367372E+04  0.11078653627E+04 0.  0.
        3    1    3    3  502    0  0.17187257940E+03  0.25346551962E+03  0.38613170190E+03  0.49283126382E+03  0.10100000352E+00 0. -1.
       -3    1    3    3    0  502 -0.17187257940E+03 -0.25346551962E+03 -0.54667125023E+03  0.62660547334E+03  0.10100000352E+00 0.  1.
</event>
<event>
 5   0  0.7738497E-03  0.1124174E+04  0.7818609E-02  0.9181945E-01
       -2   -1    0    0    0  501  0.00000000000E+00  0.00000000000E+00  0.54212313090E+03  0.54212313090E+03  0.25500000920E-02 0. -1.
        2   -1    0    0  501    0  0.00000000000E+00  0.00000000000E+00 -0.58278631250E+03  0.58278631251E+03  0.25500000920E-02 0.  1.
    10030    2    1    2    0    0  0.00000000000E+00  0.00000000000E+00 -0.40663181606E+02  0.11249094434E+04  0.11241742576E+04 0.  0.
        4    1    3    3  502    0 -0.18727572476E+03 -0.34906162201E+03 -0.41937066051E+03  0.57687917005E+03  0.12699999809E+01 0.  1.
       -4    1    3    3    0  502  0.18727572476E+03  0.34906162201E+03  0.37870747891E+03  0.54803027336E+03  0.12699999809E+01 0. -1.
</event>
<event>
 5   0  0.7537480E-03  0.1082461E+04  0.7818609E-02  0.9222457E-01
       -2   -1    0    0    0  501  0.00000000000E+00  0.00000000000E+00  0.58172769660E+03  0.58172769660E+03  0.25500000920E-02 0. -1.
        2   -1    0    0  501    0  0.00000000000E+00  0.00000000000E+00 -0.50355254471E+03  0.50355254472E+03  0.25500000920E-02 0.  1.
    10030    2    1    2    0    0  0.00000000000E+00  0.00000000000E+00  0.78175151885E+02  0.10852802413E+04  0.10824610145E+04 0.  0.
        1    1    3    3  502    0 -0.30089315208E+03  0.24058748903E+03 -0.34204909501E+03  0.51518599774E+03  0.50400001928E-02 0.  1.
       -1    1    3    3    0  502  0.30089315208E+03 -0.24058748903E+03  0.42022424690E+03  0.57009424357E+03  0.50400001928E-02 0. -1.
</event>
<event>
 5   0  0.4598561E-03  0.1195513E+04  0.7818609E-02  0.9116793E-01
        1   -1    0    0  501    0  0.00000000000E+00  0.00000000000E+00  0.94968475532E+03  0.94968475533E+03  0.50400001928E-02 0.  1.
       -1   -1    0    0    0  501  0.00000000000E+00  0.00000000000E+00 -0.37624382671E+03  0.37624382675E+03  0.50400001928E-02 0. -1.
    10030    2    1    2    0    0  0.00000000000E+00  0.00000000000E+00  0.57344092860E+03  0.13259285821E+04  0.11955133233E+04 0.  0.
        2    1    3    3  502    0  0.31580276075E+02  0.43207846549E+02  0.94702223817E+03  0.94853326322E+03  0.25500000920E-02 0.  1.
       -2    1    3    3    0  502 -0.31580276075E+02 -0.43207846549E+02 -0.37358130956E+03  0.37739531886E+03  0.25500000920E-02 0. -1.
</event>
<event>
 5   0  0.7766551E-03  0.1138728E+04  0.7818609E-02  0.9168246E-01
        2   -1    0    0  501    0  0.00000000000E+00  0.00000000000E+00  0.28664534278E+03  0.28664534279E+03  0.25500000920E-02 0.  1.
       -2   -1    0    0    0  501  0.00000000000E+00  0.00000000000E+00 -0.11309275275E+04  0.11309275275E+04  0.25500000920E-02 0. -1.
    10030    2    1    2    0    0  0.00000000000E+00  0.00000000000E+00 -0.84428218471E+03  0.14175728703E+04  0.11387275509E+04 0.  0.
        5    1    3    3  502    0 -0.31748086092E+03  0.33465390837E+03 -0.67078378665E+01  0.46136148574E+03  0.46999998093E+01 0.  1.
       -5    1    3    3    0  502  0.31748086092E+03 -0.33465390837E+03 -0.83757434685E+03  0.95621138454E+03  0.46999998093E+01 0. -1.
</event>
<event>
 5   0  0.4598561E-03  0.1108404E+04  0.7818609E-02  0.9197040E-01
       -1   -1    0    0    0  501  0.00000000000E+00  0.00000000000E+00  0.55641040523E+03  0.55641040526E+03  0.50400001928E-02 0.  1.
        1   -1    0    0  501    0  0.00000000000E+00  0.00000000000E+00 -0.55200202275E+03  0.55200202277E+03  0.50400001928E-02 0. -1.
    10030    2    1    2    0    0  0.00000000000E+00  0.00000000000E+00  0.44083824867E+01  0.11084124280E+04  0.11084036615E+04 0.  0.
        2    1    3    3  502    0 -0.22370618058E+02 -0.16178047500E+02  0.55572234073E+03  0.55640766868E+03  0.25500000920E-02 0.  1.
       -2    1    3    3    0  502  0.22370618058E+02  0.16178047500E+02 -0.55131395825E+03  0.55200475934E+03  0.25500000920E-02 0. -1.
</event>
<event>
 5   0  0.7712816E-03  0.1114555E+04  0.7818609E-02  0.9191121E-01
        2   -1    0    0  501    0  0.00000000000E+00  0.00000000000E+00  0.11147517406E+04  0.11147517406E+04  0.25500000920E-02 0.  1.
       -2   -1    0    0    0  501  0.00000000000E+00  0.00000000000E+00 -0.27858947907E+03  0.27858947908E+03  0.25500000920E-02 0. -1.
    10030    2    1    2    0    0  0.00000000000E+00  0.00000000000E+00  0.83616226156E+03  0.13933412197E+04  0.11145548111E+04 0.  0.
        2    1    3    3  502    0 -0.35714407219E+03 -0.35519326771E+03  0.12002488927E+03  0.51780316702E+03  0.25500000920E-02 0. -1.
       -2    1    3    3    0  502  0.35714407219E+03  0.35519326771E+03  0.71613737228E+03  0.87553805269E+03  0.25500000920E-02 0.  1.
</event>
<event>
 5   0  0.7952121E-03  0.1096502E+04  0.7818609E-02  0.9208608E-01
        2   -1    0    0  501    0  0.00000000000E+00  0.00000000000E+00  0.23958045547E+04  0.23958045547E+04  0.25500000920E-02 0. -1.
       -2   -1    0    0    0  501  0.00000000000E+00  0.00000000000E+00 -0.12546057960E+03  0.12546057962E+03  0.25500000920E-02 0.  1.
    10030    2    1    2    0    0  0.00000000000E+00  0.00000000000E+00  0.22703439751E+04  0.25212651343E+04  0.10965017612E+04 0.  0.
        3    1    3    3  502    0 -0.26490201732E+03  0.46483750541E+03  0.85989932790E+03  0.10127555725E+04  0.10100000352E+00 0.  1.
       -3    1    3    3    0  502  0.26490201732E+03 -0.46483750541E+03  0.14104446472E+04  0.15085095619E+04  0.10100000352E+00 0. -1.
</event>
<event>
 5   0  0.2992375E-03  0.1148429E+04  0.7818609E-02  0.9159234E-01
       -3   -1    0    0    0  501  0.00000000000E+00  0.00000000000E+00  0.75391336544E+03  0.75391337220E+03  0.10100000352E+00 0.  1.
        3   -1    0    0  501    0  0.00000000000E+00  0.00000000000E+00 -0.43734793329E+03  0.43734794495E+03  0.10100000352E+00 0. -1.
    10030    2    1    2    0    0  0.00000000000E+00  0.00000000000E+00  0.31656543215E+03  0.11912613172E+04  0.11484292982E+04 0.  0.
        4    1    3    3  502    0 -0.29696477028E+03  0.14664468056E+03 -0.32828340166E+03  0.46633072152E+03  0.12699999809E+01 0. -1.
       -4    1    3    3    0  502  0.29696477028E+03 -0.14664468056E+03  0.64484883381E+03  0.72493059564E+03  0.12699999809E+01 0.  1.
</event>
<event>
 5   0  0.7537480E-03  0.1194126E+04  0.7818609E-02  0.9118013E-01
       -2   -1    0    0    0  501  0.00000000000E+00  0.00000000000E+00  0.65293899533E+03  0.65293899533E+03  0.25500000920E-02 0.  1.
        2   -1    0    0  501    0  0.00000000000E+00  0.00000000000E+00 -0.54596902815E+03  0.54596902816E+03  0.25500000920E-02 0. -1.
    10030    2    1    2    0    0  0.00000000000E+00  0.00000000000E+00  0.10696996717E+03  0.11989080235E+04  0.11941264066E+04 0.  0.
        1    1    3    3  502    0 -0.24654694808E+03 -0.33081040787E+03  0.48679576657E+03  0.63811522622E+03  0.50400001928E-02 0.  1.
       -1    1    3    3    0  502  0.24654694808E+03  0.33081040787E+03 -0.37982579940E+03  0.56079279727E+03  0.50400001928E-02 0. -1.
</event>
<event>
 5   0  0.7738497E-03  0.1122255E+04  0.7818609E-02  0.9183768E-01
       -2   -1    0    0    0  501  0.00000000000E+00  0.00000000000E+00  0.19116717583E+03  0.19116717585E+03  0.25500000920E-02 0.  1.
        2   -1    0    0  501    0  0.00000000000E+00  0.00000000000E+00 -0.16470626518E+04  0.16470626518E+04  0.25500000920E-02 0. -1.
    10030    2    1    2    0    0  0.00000000000E+00  0.00000000000E+00 -0.14558954760E+04  0.18382298277E+04  0.11222554354E+04 0.  0.
        4    1    3    3  502    0  0.60377656458E+02 -0.42526375846E+03 -0.13653107766E+03  0.45070730383E+03  0.12699999809E+01 0. -1.
       -4    1    3    3    0  502 -0.60377656458E+02  0.42526375846E+03 -0.13193643983E+04  0.13875225238E+04  0.12699999809E+01 0.  1.
</event>
<event>
 5   0  0.4504740E-03  0.1273972E+04  0.7818609E-02  0.9050464E-01
       -1   -1    0    0    0  501  0.00000000000E+00  0.00000000000E+00  0.50211499894E+03  0.50211499896E+03  0.50400001928E-02 0. -1.
        1   -1    0    0  501    0  0.00000000000E+00  0.00000000000E+00 -0.80808365743E+03  0.80808365745E+03  0.50400001928E-02 0.  1.
    10030    2    1    2    0    0  0.00000000000E+00  0.00000000000E+00 -0.30596865849E+03  0.13101986564E+04  0.12739716242E+04 0.  0.
        5    1    3    3  502    0 -0.52887688560E+03  0.25012586710E+03 -0.41205052509E+03  0.71559865479E+03  0.46999998093E+01 0. -1.
       -5    1    3    3    0  502  0.52887688560E+03 -0.25012586710E+03  0.10608186660E+03  0.59460000162E+03  0.46999998093E+01 0.  1.
</event>
<event>
 5   0  0.4598561E-03  0.1112814E+04  0.7818609E-02  0.9192791E-01
        1   -1    0    0  501    0  0.00000000000E+00  0.00000000000E+00  0.11567610497E+04  0.11567610497E+04  0.50400001928E-02 0.  1.
       -1   -1    0    0    0  501  0.00000000000E+00  0.00000000000E+00 -0.26763431955E+03  0.26763431959E+03  0.50400001928E-02 0. -1.
    10030    2    1    2    0    0  0.00000000000E+00  0.00000000000E+00  0.88912673015E+03  0.14243953693E+04  0.11128143717E+04 0.  0.
        2    1    3    3  502    0 -0.39630349252E+03  0.37760972492E+03  0.31692678776E+03  0.63252521794E+03  0.25500000920E-02 0. -1.
       -2    1    3    3    0  502  0.39630349252E+03 -0.37760972492E+03  0.57219994240E+03  0.79187015136E+03  0.25500000920E-02 0.  1.
</event>
<event>
 5   0  0.4504740E-03  0.1067413E+04  0.7818609E-02  0.9237549E-01
        1   -1    0    0  501    0  0.00000000000E+00  0.00000000000E+00  0.76410685280E+03  0.76410685282E+03  0.50400001928E-02 0.  1.
       -1   -1    0    0    0  501  0.00000000000E+00  0.00000000000E+00 -0.37277851122E+03  0.37277851125E+03  0.50400001928E-02 0. -1.
    10030    2    1    2    0    0  0.00000000000E+00  0.00000000000E+00  0.39132834159E+03  0.11368853641E+04  0.10674129754E+04 0.  0.
        5    1    3    3  502    0 -0.36422878197E+03 -0.43853177362E+02 -0.21716416205E+03  0.42634266742E+03  0.46999998093E+01 0. -1.
       -5    1    3    3    0  502  0.36422878197E+03  0.43853177362E+02  0.60849250364E+03  0.71054269665E+03  0.46999998093E+01 0.  1.
</event>
<event>
 5   0  0.7952121E-03  0.1093458E+04  0.7818609E-02  0.9211592E-01
       -2   -1    0    0    0  501  0.00000000000E+00  0.00000000000E+00  0.13301373886E+03  0.13301373889E+03  0.25500000920E-02 0. -1.
        2   -1    0    0  501    0  0.00000000000E+00  0.00000000000E+00 -0.22472302574E+04  0.22472302574E+04  0.25500000920E-02 0.  1.
    10030    2    1    2    0    0  0.00000000000E+00  0.00000000000E+00 -0.21142165185E+04  0.23802439963E+04  0.10934578157E+04 0.  0.
        3    1    3    3  502    0  0.25888205555E+03 -0.42491474011E+03 -0.15503360273E+04  0.16282242667E+04  0.10100000352E+00 0.  1.
       -3    1    3    3    0  502 -0.25888205555E+03  0.42491474011E+03 -0.56388049127E+03  0.75201972959E+03  0.10100000352E+00 0. -1.
</event>
<event>
 5   0  0.7712816E-03  0.1105844E+04  0.7818609E-02  0.9199514E-01
        2   -1    0    0  501    0  0.00000000000E+00  0.00000000000E+00  0.10719222873E+04  0.10719222873E+04  0.25500000920E-02 0. -1.
       -2   -1    0    0    0  501  0.00000000000E+00  0.00000000000E+00 -0.28521004040E+03  0.28521004041E+03  0.25500000920E-02 0.  1.
    10030    2    1    2    0    0  0.00000000000E+00  0.00000000000E+00  0.78671224686E+03  0.13571323277E+04  0.11058444716E+04 0.  0.
        2    1    3    3  502    0 -0.43708831131E+03 -0.14839497989E+03  0.76691950824E+03  0.89511607854E+03  0.25500000920E-02 0. -1.
       -2    1    3    3    0  502  0.43708831131E+03  0.14839497989E+03  0.19792738615E+02  0.46201624912E+03  0.25500000920E-02 0.  1.
</event>
<event>
 5   0  0.7766551E-03  0.7215379E+03  0.7818609E-02  0.9681092E-01
       -2   -1    0    0    0  501  0.00000000000E+00  0.00000000000E+00  0.15538669690E+03  0.15538669692E+03  0.25500000920E-02 0. -1.
        2   -1    0    0  501    0  0.00000000000E+00  0.00000000000E+00 -0.83761504897E+03  0.83761504897E+03  0.25500000920E-02 0.  1.
    10030    2    1    2    0    0  0.00000000000E+00  0.00000000000E+00 -0.68222835207E+03  0.99300174589E+03  0.72153790128E+03 0.  0.
        5    1    3    3  502    0  0.12502552516E+03  0.18687517159E+03  0.47115346342E+02  0.22977305663E+03  0.46999998093E+01 0. -1.
       -5    1    3    3    0  502 -0.12502552516E+03 -0.18687517159E+03 -0.72934369841E+03  0.76322868926E+03  0.46999998093E+01 0.  1.
</event>
<event>
 5   0  0.4428114E-03  0.1085924E+04  0.7818609E-02  0.9219021E-01
       -1   -1    0    0    0  501  0.00000000000E+00  0.00000000000E+00  0.26522203218E+03  0.26522203223E+03  0.50400001928E-02 0.  1.
        1   -1    0    0  501    0  0.00000000000E+00  0.00000000000E+00 -0.11115512178E+04  0.11115512178E+04  0.50400001928E-02 0. -1.
    10030    2    1    2    0    0  0.00000000000E+00  0.00000000000E+00 -0.84632918565E+03  0.13767732501E+04  0.10859242569E+04 0.  0.
        4    1    3    3  502    0  0.20534034651E+02 -0.35866901495E+03  0.92987937172E+02  0.37109766670E+03  0.12699999809E+01 0.  1.
       -4    1    3    3    0  502 -0.20534034651E+02  0.35866901495E+03 -0.93931712282E+03  0.10056755834E+04  0.12699999809E+01 0. -1.
</event>
<event>
 5   0  0.4641021E-03  0.1093887E+04  0.7818609E-02  0.9211171E-01
        1   -1    0    0  501    0  0.00000000000E+00  0.00000000000E+00  0.87241261293E+03  0.87241261295E+03  0.50400001928E-02 0. -1.
       -1   -1    0    0    0  501  0.00000000000E+00  0.00000000000E+00 -0.34289645811E+03  0.34289645814E+03  0.50400001928E-02 0.  1.
    10030    2    1    2    0    0  0.00000000000E+00  0.00000000000E+00  0.52951615482E+03  0.12153090711E+04  0.10938870052E+04 0.  0.
        1    1    3    3  502    0 -0.31208688607E+02  0.16831563897E+03 -0.31236694126E+03  0.35619831917E+03  0.50400001928E-02 0.  1.
       -1    1    3    3    0  502  0.31208688607E+02 -0.16831563897E+03  0.84188309608E+03  0.85911075192E+03  0.50400001928E-02 0. -1.
</event>
<event>
 5   0  0.7712816E-03  0.6924932E+03  0.7818609E-02  0.9730157E-01
        2   -1    0    0  501    0  0.00000000000E+00  0.00000000000E+00  0.29436429057E+03  0.29436429058E+03  0.25500000920E-02 0. -1.
       -2   -1    0    0    0  501  0.00000000000E+00  0.00000000000E+00 -0.40727328038E+03  0.40727328039E+03  0.25500000920E-02 0.  1.
    10030    2    1    2    0    0  0.00000000000E+00  0.00000000000E+00 -0.11290898981E+03  0.70163757097E+03  0.69249320648E+03 0.  0.
        2    1    3    3  502    0  0.11717809713E+03  0.51346283582E+02 -0.38244768965E+03  0.40327829425E+03  0.25500000920E-02 0.  1.
       -2    1    3    3    0  502 -0.11717809713E+03 -0.51346283582E+02  0.26953869984E+03  0.29835927672E+03  0.25500000920E-02 0. -1.
</event>
<event>
 5   0  0.2992375E-03  0.1112644E+04  0.7818609E-02  0.9192955E-01
        3   -1    0    0  501    0  0.00000000000E+00  0.00000000000E+00  0.73050948893E+03  0.73050949591E+03  0.10100000352E+00 0. -1.
       -3   -1    0    0    0  501  0.00000000000E+00  0.00000000000E+00 -0.42366924408E+03  0.42366925612E+03  0.10100000352E+00 0.  1.
    10030    2    1    2    0    0  0.00000000000E+00  0.00000000000E+00  0.30684024485E+03  0.11541787520E+04  0.11126444427E+04 0.  0.
        4    1    3    3  502    0 -0.28098229118E+02 -0.44226707689E+03  0.50228236698E+03  0.66983495494E+03  0.12699999809E+01 0. -1.
       -4    1    3    3    0  502  0.28098229118E+02  0.44226707689E+03 -0.19544212213E+03  0.48434379709E+03  0.12699999809E+01 0.  1.
</event>
<event>
 5   0  0.4428114E-03  0.1074579E+04  0.7818609E-02  0.9230330E-01
        1   -1    0    0  501    0  0.00000000000E+00  0.00000000000E+00  0.10548613949E+04  0.10548613949E+04  0.50400001928E-02 0. -1.
       -1   -1    0    0    0  501  0.00000000000E+00  0.00000000000E+00 -0.27366610739E+03  0.27366610744E+03  0.50400001928E-02 0.  1.
    10030    2    1    2    0    0  0.00000000000E+00  0.00000000000E+00  0.78119528752E+03  0.13285275024E+04  0.10745786371E+04 0.  0.
        4    1    3    3  502    0 -0.40794146401E+03  0.19756784532E+03  0.33925293511E+02  0.45453474015E+03  0.12699999809E+01 0.  1.
       -4    1    3    3    0  502  0.40794146401E+03 -0.19756784532E+03  0.74726999401E+03  0.87399276221E+03  0.12699999809E+01 0. -1.
</event>
<event>
 5   0  0.7738497E-03  0.1015291E+04  0.7818609E-02  0.9291931E-01
        2   -1    0    0  501    0  0.00000000000E+00  0.00000000000E+00  0.10036990649E+04  0.10036990649E+04  0.25500000920E-02 0.  1.
       -2   -1    0    0    0  501  0.00000000000E+00  0.00000000000E+00 -0.25675445448E+03  0.25675445450E+03  0.25500000920E-02 0. -1.
    10030    2    1    2    0    0  0.00000000000E+00  0.00000000000E+00  0.74694461038E+03  0.12604535194E+04  0.10152914968E+04 0.  0.
        4    1    3    3  502    0 -0.21397853638E+03 -0.45175772319E+03  0.48333176174E+03  0.69532946098E+03  0.12699999809E+01 0.  1.
       -4    1    3    3    0  502  0.21397853638E+03  0.45175772319E+03  0.26361284864E+03  0.56512405839E+03  0.12699999809E+01 0. -1.
</event>
<event>
 5   0  0.4504740E-03  0.1139138E+04  0.7818609E-02  0.9167863E-01
       -1   -1    0    0    0  501  0.00000000000E+00  0.00000000000E+00  0.49422022192E+03  0.49422022194E+03  0.50400001928E-02 0.  1.
        1   -1    0    0  501    0  0.00000000000E+00  0.00000000000E+00 -0.65640509898E+03  0.65640509900E+03  0.50400001928E-02 0. -1.
    10030    2    1    2    0    0  0.00000000000E+00  0.00000000000E+00 -0.16218487706E+03  0.11506253209E+04  0.11391376979E+04 0.  0.
        5    1    3    3  502    0  0.33228459826E+03 -0.46223552490E+03 -0.98929769624E+02  0.57782689799E+03  0.46999998093E+01 0. -1.
       -5    1    3    3    0  502 -0.33228459826E+03  0.46223552490E+03 -0.63255107433E+02  0.57279842295E+03  0.46999998093E+01 0.  1.
</event>
<event>
 5   0  0.7952121E-03  0.1108162E+04  0.7818609E-02  0.9197273E-01
        2   -1    0    0  501    0  0.00000000000E+00  0.00000000000E+00  0.11174810500E+04  0.11174810500E+04  0.25500000920E-02 0. -1.
       -2   -1    0    0    0  501  0.00000000000E+00  0.00000000000E+00 -0.27473012662E+03  0.27473012663E+03  0.25500000920E-02 0.  1.
    10030    2    1    2    0    0  0.00000000000E+00  0.00000000000E+00  0.84275092342E+03  0.13922111767E+04  0.11081619203E+04 0.  0.
        3    1    3    3  502    0  0.13879072772E+03  0.46455555205E+03  0.75832111750E+03  0.90006980534E+03  0.10100000352E+00 0. -1.
       -3    1    3    3    0  502 -0.13879072772E+03 -0.46455555205E+03  0.84429805925E+02  0.49214137133E+03  0.10100000352E+00 0.  1.
</event>
<event>
 5   0  0.7537480E-03  0.1102387E+04  0.7818609E-02  0.9202868E-01
        2   -1    0    0  501    0  0.00000000000E+00  0.00000000000E+00  0.68923816580E+03  0.68923816581E+03  0.25500000920E-02 0. -1.
       -2   -1    0    0    0  501  0.00000000000E+00  0.00000000000E+00 -0.44079750830E+03  0.44079750831E+03  0.25500000920E-02 0.  1.
    10030    2    1    2    0    0  0.00000000000E+00  0.00000000000E+00  0.24844065750E+03  0.11300356741E+04  0.11023873477E+04 0.  0.
        1    1    3    3  502    0 -0.48283843593E+02 -0.52113279374E+03  0.30148441025E+03  0.60398970845E+03  0.50400001928E-02 0. -1.
       -1    1    3    3    0  502  0.48283843593E+02  0.52113279374E+03 -0.53043752749E+02  0.52604596567E+03  0.50400001928E-02 0.  1.
</event>
<event>
 5   0  0.4298101E-03  0.1092070E+04  0.7818609E-02  0.9212956E-01
       -1   -1    0    0    0  501  0.00000000000E+00  0.00000000000E+00  0.19355808919E+03  0.19355808926E+03  0.50400001928E-02 0.  1.
        1   -1    0    0  501    0  0.00000000000E+00  0.00000000000E+00 -0.15403864327E+04  0.15403864327E+04  0.50400001928E-02 0. -1.
    10030    2    1    2    0    0  0.00000000000E+00  0.00000000000E+00 -0.13468283435E+04  0.17339445219E+04  0.10920700611E+04 0.  0.
        3    1    3    3  502    0 -0.20960355977E+03 -0.35939322609E+03 -0.11192824486E+03  0.43084229763E+03  0.10100000352E+00 0.  1.
       -3    1    3    3    0  502  0.20960355977E+03  0.35939322609E+03 -0.12349000986E+04  0.13031022243E+04  0.10100000352E+00 0. -1.
</event>
<event>
 5   0  0.2992375E-03  0.1103501E+04  0.7818609E-02  0.9201786E-01
       -3   -1    0    0    0  501  0.00000000000E+00  0.00000000000E+00  0.78838961123E+03  0.78838961769E+03  0.10100000352E+00 0.  1.
        3   -1    0    0  501    0  0.00000000000E+00  0.00000000000E+00 -0.38613993883E+03  0.38613995204E+03  0.10100000352E+00 0. -1.
    10030    2    1    2    0    0  0.00000000000E+00  0.00000000000E+00  0.40224967240E+03  0.11745295697E+04  0.11035012058E+04 0.  0.
        5    1    3    3  502    0 -0.54534652718E+03  0.80067303541E+02  0.22704450660E+03  0.59614168264E+03  0.46999998093E+01 0. -1.
       -5    1    3    3    0  502  0.54534652718E+03 -0.80067303541E+02  0.17520516579E+03  0.57838788709E+03  0.46999998093E+01 0.  1.
</event>
<event>
 5   0  0.4598561E-03  0.1110272E+04  0.7818609E-02  0.9195237E-01
        1   -1    0    0  501    0  0.00000000000E+00  0.00000000000E+00  0.11166901183E+04  0.11166901183E+04  0.50400001928E-02 0. -1.
       -1   -1    0    0    0  501  0.00000000000E+00  0.00000000000E+00 -0.27597281098E+03  0.27597281102E+03  0.50400001928E-02 0.  1.
    10030    2    1    2    0    0  0.00000000000E+00  0.00000000000E+00  0.84071730731E+03  0.13926629293E+04  0.11102722386E+04 0.  0.
        2    1    3    3  502    0  0.29970260713E+03  0.25807931252E+03  0.90898874342E+03  0.99130576511E+03  0.25500000920E-02 0. -1.
       -2    1    3    3    0  502 -0.29970260713E+03 -0.25807931252E+03 -0.68271436113E+02  0.40135716421E+03  0.25500000920E-02 0.  1.
</event>
<event>
 5   0  0.4428114E-03  0.1133476E+04  0.7818609E-02  0.9173165E-01
        1   -1    0    0  501    0  0.00000000000E+00  0.00000000000E+00  0.49541938012E+03  0.49541938014E+03  0.50400001928E-02 0. -1.
       -1   -1    0    0    0  501  0.00000000000E+00  0.00000000000E+00 -0.64832316278E+03  0.64832316280E+03  0.50400001928E-02 0.  1.
    10030    2    1    2    0    0  0.00000000000E+00  0.00000000000E+00 -0.15290378267E+03  0.11437425429E+04  0.11334758214E+04 0.  0.
        4    1    3    3  502    0  0.24571700553E+03  0.19642153177E+03 -0.55213671350E+03  0.63546426197E+03  0.12699999809E+01 0.  1.
       -4    1    3    3    0  502 -0.24571700553E+03 -0.19642153177E+03  0.39923293083E+03  0.50827828097E+03  0.12699999809E+01 0. -1.
</event>
<event>
 5   0  0.4428114E-03  0.1094009E+04  0.7818609E-02  0.9211051E-01
        1   -1    0    0  501    0  0.00000000000E+00  0.00000000000E+00  0.75521643959E+03  0.75521643961E+03  0.50400001928E-02 0. -1.
       -1   -1    0    0    0  501  0.00000000000E+00  0.00000000000E+00 -0.39619619897E+03  0.39619619900E+03  0.50400001928E-02 0.  1.
    10030    2    1    2    0    0  0.00000000000E+00  0.00000000000E+00  0.35902024063E+03  0.11514126386E+04  0.10940089265E+04 0.  0.
        4    1    3    3  502    0 -0.16512636824E+03 -0.86884573948E+02 -0.36166531945E+03  0.40696322054E+03  0.12699999809E+01 0.  1.
       -4    1    3    3    0  502  0.16512636824E+03  0.86884573948E+02  0.72068556007E+03  0.74444941808E+03  0.12699999809E+01 0. -1.
</event>
<event>
 5   0  0.4641021E-03  0.1096364E+04  0.7818609E-02  0.9208743E-01
       -1   -1    0    0    0  501  0.00000000000E+00  0.00000000000E+00  0.18488801600E+03  0.18488801607E+03  0.50400001928E-02 0. -1.
        1   -1    0    0  501    0  0.00000000000E+00  0.00000000000E+00 -0.16253268082E+04  0.16253268082E+04  0.50400001928E-02 0.  1.
    10030    2    1    2    0    0  0.00000000000E+00  0.00000000000E+00 -0.14404387922E+04  0.18102148243E+04  0.10963638976E+04 0.  0.
        1    1    3    3  502    0  0.46422741214E+03  0.28659909205E+03 -0.63196125582E+03  0.83487793037E+03  0.50400001928E-02 0.  1.
       -1    1    3    3    0  502 -0.46422741214E+03 -0.28659909205E+03 -0.80847753641E+03  0.97533689392E+03  0.50400001928E-02 0. -1.
</event>
<event>
 5   0  0.7766551E-03  0.1124113E+04  0.7818609E-02  0.9182003E-01
       -2   -1    0    0    0  501  0.00000000000E+00  0.00000000000E+00  0.15251467182E+03  0.15251467184E+03  0.25500000920E-02 0.  1.
        2   -1    0    0  501    0  0.00000000000E+00  0.00000000000E+00 -0.20713259123E+04  0.20713259123E+04  0.25500000920E-02 0. -1.
    10030    2    1    2    0    0  0.00000000000E+00  0.00000000000E+00 -0.19188112405E+04  0.22238405842E+04  0.11241131469E+04 0.  0.
        5    1    3    3  502    0  0.23212200184E+03 -0.34792338579E+03 -0.17021384632E+04  0.17527774371E+04  0.46999998093E+01 0. -1.
       -5    1    3    3    0  502 -0.23212200184E+03  0.34792338579E+03 -0.21667277737E+03  0.47106314711E+03  0.46999998093E+01 0.  1.
</event>
<event>
 5   0  0.7712816E-03  0.1096752E+04  0.7818609E-02  0.9208363E-01
       -2   -1    0    0    0  501  0.00000000000E+00  0.00000000000E+00  0.21374932955E+03  0.21374932956E+03  0.25500000920E-02 0.  1.
        2   -1    0    0  501    0  0.00000000000E+00  0.00000000000E+00 -0.14068645966E+04  0.14068645966E+04  0.25500000920E-02 0. -1.
    10030    2    1    2    0    0  0.00000000000E+00  0.00000000000E+00 -0.11931152671E+04  0.16206139262E+04  0.10967522315E+04 0.  0.
        2    1    3    3  502    0 -0.40896138542E+03 -0.33881684752E+03 -0.39465393022E+03  0.66166305290E+03  0.25500000920E-02 0.  1.
       -2    1    3    3    0  502  0.40896138542E+03  0.33881684752E+03 -0.79846133685E+03  0.95895087329E+03  0.25500000920E-02 0. -1.
</event>
<event>
 5   0  0.4598561E-03  0.1088641E+04  0.7818609E-02  0.9216334E-01
        1   -1    0    0  501    0  0.00000000000E+00  0.00000000000E+00  0.13045223224E+04  0.13045223224E+04  0.50400001928E-02 0.  1.
       -1   -1    0    0    0  501  0.00000000000E+00  0.00000000000E+00 -0.22712145060E+03  0.22712145066E+03  0.50400001928E-02 0. -1.
    10030    2    1    2    0    0  0.00000000000E+00  0.00000000000E+00  0.10774008718E+04  0.15316437730E+04  0.10886413592E+04 0.  0.
        2    1    3    3  502    0 -0.51513661198E+03 -0.14664147958E+03  0.40218059300E+03  0.66979002824E+03  0.25500000920E-02 0. -1.
       -2    1    3    3    0  502  0.51513661198E+03  0.14664147958E+03  0.67522027876E+03  0.86185374478E+03  0.25500000920E-02 0.  1.
</event>
<event>
 5   0  0.4641021E-03  0.1081057E+04  0.7818609E-02  0.9223854E-01
        1   -1    0    0  501    0  0.00000000000E+00  0.00000000000E+00  0.46093263343E+03  0.46093263346E+03  0.50400001928E-02 0. -1.
       -1   -1    0    0    0  501  0.00000000000E+00  0.00000000000E+00 -0.63386936277E+03  0.63386936279E+03  0.50400001928E-02 0.  1.
    10030    2    1    2    0    0  0.00000000000E+00  0.00000000000E+00 -0.17293672934E+03  0.10948019962E+04  0.10810570284E+04 0.  0.
        1    1    3    3  502    0 -0.10956707947E+03 -0.19307336142E+03  0.41263526325E+03  0.46856176572E+03  0.50400001928E-02 0. -1.
       -1    1    3    3    0  502  0.10956707947E+03  0.19307336142E+03 -0.58557199259E+03  0.62624023052E+03  0.50400001928E-02 0.  1.
</event>
<event>
 5   0  0.4298101E-03  0.1097340E+04  0.7818609E-02  0.9207789E-01
       -1   -1    0    0    0  501  0.00000000000E+00  0.00000000000E+00  0.84549699028E+03  0.84549699030E+03  0.50400001928E-02 0.  1.
        1   -1    0    0  501    0  0.00000000000E+00  0.00000000000E+00 -0.35604937619E+03  0.35604937622E+03  0.50400001928E-02 0. -1.
    10030    2    1    2    0    0  0.00000000000E+00  0.00000000000E+00  0.48944761410E+03  0.12015463665E+04  0.10973398307E+04 0.  0.
        3    1    3    3  502    0 -0.26421879497E+03 -0.48038252006E+03  0.22124639888E+03  0.59120970595E+03  0.10100000352E+00 0.  1.
       -3    1    3    3    0  502  0.26421879497E+03  0.48038252006E+03  0.26820121522E+03  0.61033666057E+03  0.10100000352E+00 0. -1.
</event>
<event>
 5   0  0.4641021E-03  0.1088587E+04  0.7818609E-02  0.9216388E-01
       -1   -1    0    0    0  501  0.00000000000E+00  0.00000000000E+00  0.19712474275E+03  0.19712474282E+03  0.50400001928E-02 0.  1.
        1   -1    0    0  501    0  0.00000000000E+00  0.00000000000E+00 -0.15028816587E+04  0.15028816587E+04  0.50400001928E-02 0. -1.
    10030    2    1    2    0    0  0.00000000000E+00  0.00000000000E+00 -0.13057569159E+04  0.17000064015E+04  0.10885865338E+04 0.  0.
        1    1    3    3  502    0 -0.78892352985E+02 -0.18661692921E+03 -0.14417974764E+04  0.14559635451E+04  0.50400001928E-02 0. -1.
       -1    1    3    3    0  502  0.78892352985E+02  0.18661692921E+03  0.13604056051E+03  0.24404285639E+03  0.50400001928E-02 0.  1.
</event>
<event>
 5   0  0.4428114E-03  0.1108833E+04  0.7818609E-02  0.9196625E-01
        1   -1    0    0  501    0  0.00000000000E+00  0.00000000000E+00  0.11729598655E+04  0.11729598655E+04  0.50400001928E-02 0. -1.
       -1   -1    0    0    0  501  0.00000000000E+00  0.00000000000E+00 -0.26205311637E+03  0.26205311642E+03  0.50400001928E-02 0.  1.
    10030    2    1    2    0    0  0.00000000000E+00  0.00000000000E+00  0.91090674915E+03  0.14350129819E+04  0.11088332394E+04 0.  0.
        4    1    3    3  502    0 -0.13324929623E+03 -0.47812687483E+03  0.13577765449E+03  0.51458514139E+03  0.12699999809E+01 0.  1.
       -4    1    3    3    0  502  0.13324929623E+03  0.47812687483E+03  0.77512909466E+03  0.92042784056E+03  0.12699999809E+01 0. -1.
</event>
<event>
 5   0  0.4428114E-03  0.1109107E+04  0.7818609E-02  0.9196361E-01
       -1   -1    0    0    0  501  0.00000000000E+00  0.00000000000E+00  0.30979867861E+03  0.30979867865E+03  0.50400001928E-02 0. -1.
        1   -1    0    0  501    0  0.00000000000E+00  0.00000000000E+00 -0.99267535928E+03  0.99267535929E+03  0.50400001928E-02 0.  1.
    10030    2    1    2    0    0  0.00000000000E+00  0.00000000000E+00 -0.68287668066E+03  0.13024740379E+04  0.11091068743E+04 0.  0.
        4    1    3    3  502    0  0.47095160003E+03 -0.23919439563E+03 -0.14312164770E+03  0.54726116929E+03  0.12699999809E+01 0. -1.
       -4    1    3    3    0  502 -0.47095160003E+03  0.23919439563E+03 -0.53975503296E+03  0.75521286866E+03  0.12699999809E+01 0.  1.
</event>
<event>
 5   0  0.4298101E-03  0.7257036E+03  0.7818609E-02  0.9674258E-01
        1   -1    0    0  501    0  0.00000000000E+00  0.00000000000E+00  0.75549676111E+03  0.75549676113E+03  0.50400001928E-02 0. -1.
       -1   -1    0    0    0  501  0.00000000000E+00  0.00000000000E+00 -0.17427135116E+03  0.17427135123E+03  0.50400001928E-02 0.  1.
    10030    2    1    2    0    0  0.00000000000E+00  0.00000000000E+00  0.58122540995E+03  0.92976811236E+03  0.72570363482E+03 0.  0.
        3    1    3    3  502    0  0.25002147455E+03 -0.25848481614E+02 -0.44665489408E+02  0.25529178969E+03  0.10100000352E+00 0.  1.
       -3    1    3    3    0  502 -0.25002147455E+03  0.25848481614E+02  0.62589089936E+03  0.67447632267E+03  0.10100000352E+00 0. -1.
</event>
<event>
 5   0  0.7712816E-03  0.9816011E+03  0.7818609E-02  0.9328958E-01
        2   -1    0    0  501    0  0.00000000000E+00  0.00000000000E+00  0.15948533205E+04  0.15948533205E+04  0.25500000920E-02 0.  1.
       -2   -1    0    0    0  501  0.00000000000E+00  0.00000000000E+00 -0.15103907043E+03  0.15103907045E+03  0.25500000920E-02 0. -1.
    10030    2    1    2    0    0  0.00000000000E+00  0.00000000000E+00  0.14438142501E+04  0.17458923910E+04  0.98160106565E+03 0.  0.
        2    1    3    3  502    0 -0.40583930564E+03  0.27409976415E+03  0.66430243599E+03  0.82530839641E+03  0.25500000920E-02 0. -1.
       -2    1    3    3    0  502  0.40583930564E+03 -0.27409976415E+03  0.77951181410E+03  0.92058399456E+03  0.25500000920E-02 0.  1.
</event>
<event>
 5   0  0.4504740E-03  0.1032002E+04  0.7818609E-02  0.9274126E-01
        1   -1    0    0  501    0  0.00000000000E+00  0.00000000000E+00  0.72589049076E+03  0.72589049078E+03  0.50400001928E-02 0.  1.
       -1   -1    0    0    0  501  0.00000000000E+00  0.00000000000E+00 -0.36680047305E+03  0.36680047309E+03  0.50400001928E-02 0. -1.
    10030    2    1    2    0    0  0.00000000000E+00  0.00000000000E+00  0.35909001771E+03  0.10926909639E+04  0.10320018904E+04 0.  0.
        5    1    3    3  502    0 -0.31200597624E+03  0.67470247717E+02 -0.24967680963E+03  0.40529071393E+03  0.46999998093E+01 0. -1.
       -5    1    3    3    0  502  0.31200597624E+03 -0.67470247717E+02  0.60876682734E+03  0.68740024993E+03  0.46999998093E+01 0.  1.
</event>
<event>
 5   0  0.7537480E-03  0.1101276E+04  0.7818609E-02  0.9203949E-01
       -2   -1    0    0    0  501  0.00000000000E+00  0.00000000000E+00  0.80530565040E+03  0.80530565041E+03  0.25500000920E-02 0. -1.
        2   -1    0    0  501    0  0.00000000000E+00  0.00000000000E+00 -0.37650576152E+03  0.37650576153E+03  0.25500000920E-02 0.  1.
    10030    2    1    2    0    0  0.00000000000E+00  0.00000000000E+00  0.42879988888E+03  0.11818114119E+04  0.11012760184E+04 0.  0.
        1    1    3    3  502    0  0.29375674335E+03 -0.46552686701E+03  0.19945572116E+03  0.58548345228E+03  0.50400001928E-02 0. -1.
       -1    1    3    3    0  502 -0.29375674335E+03  0.46552686701E+03  0.22934416772E+03  0.59632795965E+03  0.50400001928E-02 0.  1.
</event>
<event>
 5   0  0.4298101E-03  0.1091650E+04  0.7818609E-02  0.9213369E-01
        1   -1    0    0  501    0  0.00000000000E+00  0.00000000000E+00  0.22404728222E+04  0.22404728222E+04  0.50400001928E-02 0. -1.
       -1   -1    0    0    0  501  0.00000000000E+00  0.00000000000E+00 -0.13297403357E+03  0.13297403367E+03  0.50400001928E-02 0.  1.
    10030    2    1    2    0    0  0.00000000000E+00  0.00000000000E+00  0.21074987886E+04  0.23734468559E+04  0.10916495928E+04 0.  0.
        3    1    3    3  502    0  0.25731381733E+03  0.22853326609E+03  0.19748616594E+04  0.20046237647E+04  0.10100000352E+00 0. -1.
       -3    1    3    3    0  502 -0.25731381733E+03 -0.22853326609E+03  0.13263712927E+03  0.36882309114E+03  0.10100000352E+00 0.  1.
</event>
<event>
 5   0  0.7537480E-03  0.1126413E+04  0.7818609E-02  0.9179824E-01
        2   -1    0    0  501    0  0.00000000000E+00  0.00000000000E+00  0.68584824358E+03  0.68584824358E+03  0.25500000920E-02 0. -1.
       -2   -1    0    0    0  501  0.00000000000E+00  0.00000000000E+00 -0.46249530182E+03  0.46249530183E+03  0.25500000920E-02 0.  1.
    10030    2    1    2    0    0  0.00000000000E+00  0.00000000000E+00  0.22335294176E+03  0.11483435454E+04  0.11264130511E+04 0.  0.
        1    1    3    3  502    0 -0.22335032761E+03  0.94470753289E+02 -0.40654245529E+03  0.47337813643E+03  0.50400001928E-02 0.  1.
       -1    1    3    3    0  502  0.22335032761E+03 -0.94470753289E+02  0.62989539705E+03  0.67496540898E+03  0.50400001928E-02 0. -1.
</event>
<event>
 5   0  0.4641021E-03  0.1088519E+04  0.7818609E-02  0.9216455E-01
       -1   -1    0    0    0  501  0.00000000000E+00  0.00000000000E+00  0.57681941844E+03  0.57681941846E+03  0.50400001928E-02 0.  1.
        1   -1    0    0  501    0  0.00000000000E+00  0.00000000000E+00 -0.51353733337E+03  0.51353733340E+03  0.50400001928E-02 0. -1.
    10030    2    1    2    0    0  0.00000000000E+00  0.00000000000E+00  0.63282085068E+02  0.10903567519E+04  0.10885188212E+04 0.  0.
        1    1    3    3  502    0 -0.47179840497E+03 -0.27286045821E+02  0.30205990647E+03  0.56087293601E+03  0.50400001928E-02 0.  1.
       -1    1    3    3    0  502  0.47179840497E+03  0.27286045821E+02 -0.23877782140E+03  0.52948381585E+03  0.50400001928E-02 0. -1.
</event>
<event>
 5   0  0.7766551E-03  0.1101019E+04  0.7818609E-02  0.9204199E-01
       -2   -1    0    0    0  501  0.00000000000E+00  0.00000000000E+00  0.32436757502E+03  0.32436757503E+03  0.25500000920E-02 0. -1.
        2   -1    0    0  501    0  0.00000000000E+00  0.00000000000E+00 -0.93431331583E+03  0.93431331584E+03  0.25500000920E-02 0.  1.
    10030    2    1    2    0    0  0.00000000000E+00  0.00000000000E+00 -0.60994574081E+03  0.12586808909E+04  0.11010194269E+04 0.  0.
        5    1    3    3  502    0 -0.33552667587E+03 -0.19042893401E+03 -0.75388295220E+03  0.84687834116E+03  0.46999998093E+01 0.  1.
       -5    1    3    3    0  502  0.33552667587E+03  0.19042893401E+03  0.14393721139E+03  0.41180254971E+03  0.46999998093E+01 0. -1.
</event>
<event>
 5   0  0.4598561E-03  0.1099040E+04  0.7818609E-02  0.9206128E-01
       -1   -1    0    0    0  501  0.00000000000E+00  0.00000000000E+00  0.66303717621E+03  0.66303717623E+03  0.50400001928E-02 0.  1.
        1   -1    0    0  501    0  0.00000000000E+00  0.00000000000E+00 -0.45543764938E+03  0.45543764941E+03  0.50400001928E-02 0. -1.
    10030    2    1    2    0    0  0.00000000000E+00  0.00000000000E+00  0.20759952683E+03  0.11184748256E+04  0.10990397500E+04 0.  0.
        2    1    3    3  502    0 -0.49367769929E+03  0.39297628155E+02  0.34614980093E+03  0.60421987641E+03  0.25500000920E-02 0.  1.
       -2    1    3    3    0  502  0.49367769929E+03 -0.39297628155E+02 -0.13855027410E+03  0.51425494924E+03  0.25500000920E-02 0. -1.
</event>
<event>
 5   0  0.7952121E-03  0.1101422E+04  0.7818609E-02  0.9203807E-01
        2   -1    0    0  501    0  0.00000000000E+00  0.00000000000E+00  0.22472933573E+04  0.22472933573E+04  0.25500000920E-02 0. -1.
       -2   -1    0    0    0  501  0.00000000000E+00  0.00000000000E+00 -0.13495468408E+03  0.13495468410E+03  0.25500000920E-02 0.  1.
    10030    2    1    2    0    0  0.00000000000E+00  0.00000000000E+00  0.21123386733E+04  0.23822480414E+04  0.11014222898E+04 0.  0.
        3    1    3    3  502    0 -0.36597633850E+03  0.35848489460E+02  0.19428432956E+04  0.19773375726E+04  0.10100000352E+00 0. -1.
       -3    1    3    3    0  502  0.36597633850E+03 -0.35848489460E+02  0.16949537767E+03  0.40491046886E+03  0.10100000352E+00 0.  1.
</event>
<event>
 5   0  0.7712816E-03  0.1132829E+04  0.7818609E-02  0.9173772E-01
       -2   -1    0    0    0  501  0.00000000000E+00  0.00000000000E+00  0.24849673726E+03  0.24849673727E+03  0.25500000920E-02 0.  1.
        2   -1    0    0  501    0  0.00000000000E+00  0.00000000000E+00 -0.12910658222E+04  0.12910658222E+04  0.25500000920E-02 0. -1.
    10030    2    1    2    0    0  0.00000000000E+00  0.00000000000E+00 -0.10425690849E+04  0.15395625594E+04  0.11328294565E+04 0.  0.
        2    1    3    3  502    0  0.31929099757E+03  0.19999985395E+03  0.53509741101E+02  0.38053905858E+03  0.25500000920E-02 0.  1.
       -2    1    3    3    0  502 -0.31929099757E+03 -0.19999985395E+03 -0.10960788260E+04  0.11590235009E+04  0.25500000920E-02 0. -1.
</event>
<event>
 5   0  0.2992375E-03  0.1137757E+04  0.7818609E-02  0.9169153E-01
        4   -1    0    0  501    0  0.00000000000E+00  0.00000000000E+00  0.46809528691E+03  0.46809700974E+03  0.12699999809E+01 0.  1.
       -4   -1    0    0    0  501  0.00000000000E+00  0.00000000000E+00 -0.69135695861E+03  0.69135812508E+03  0.12699999809E+01 0. -1.
    10030    2    1    2    0    0  0.00000000000E+00  0.00000000000E+00 -0.22326167170E+03  0.11594551348E+04  0.11377567559E+04 0.  0.
        5    1    3    3  502    0 -0.16008713127E+02  0.44719477876E+03 -0.46955711758E+03  0.64864892332E+03  0.46999998093E+01 0. -1.
       -5    1    3    3    0  502  0.16008713127E+02 -0.44719477876E+03  0.24629544588E+03  0.51080621150E+03  0.46999998093E+01 0.  1.
</event>
<event>
 5   0  0.7766551E-03  0.1099130E+04  0.7818609E-02  0.9206041E-01
        2   -1    0    0  501    0  0.00000000000E+00  0.00000000000E+00  0.17955835731E+04  0.17955835731E+04  0.25500000920E-02 0. -1.
       -2   -1    0    0    0  501  0.00000000000E+00  0.00000000000E+00 -0.16820239489E+03  0.16820239491E+03  0.25500000920E-02 0.  1.
    10030    2    1    2    0    0  0.00000000000E+00  0.00000000000E+00  0.16273811782E+04  0.19637859680E+04  0.10991295779E+04 0.  0.
        5    1    3    3  502    0 -0.19396696953E+03 -0.51322529897E+03  0.75787384664E+03  0.93563788411E+03  0.46999998093E+01 0.  1.
       -5    1    3    3    0  502  0.19396696953E+03  0.51322529897E+03  0.86950733152E+03  0.10281480839E+04  0.46999998093E+01 0. -1.
</event>
<event>
 5   0  0.7766551E-03  0.1087739E+04  0.7818609E-02  0.9217225E-01
       -2   -1    0    0    0  501  0.00000000000E+00  0.00000000000E+00  0.62633900041E+03  0.62633900041E+03  0.25500000920E-02 0. -1.
        2   -1    0    0  501    0  0.00000000000E+00  0.00000000000E+00 -0.47225868856E+03  0.47225868857E+03  0.25500000920E-02 0.  1.
    10030    2    1    2    0    0  0.00000000000E+00  0.00000000000E+00  0.15408031185E+03  0.10985976890E+04  0.10877390035E+04 0.  0.
        5    1    3    3  502    0 -0.47816165139E+03 -0.17499149801E+03 -0.11594680144E+03  0.52223207485E+03  0.46999998093E+01 0.  1.
       -5    1    3    3    0  502  0.47816165139E+03  0.17499149801E+03  0.27002711328E+03  0.57636561413E+03  0.46999998093E+01 0. -1.
</event>
<event>
 5   0  0.7952121E-03  0.1107258E+04  0.7818609E-02  0.9198147E-01
       -2   -1    0    0    0  501  0.00000000000E+00  0.00000000000E+00  0.43344965948E+03  0.43344965949E+03  0.25500000920E-02 0.  1.
        2   -1    0    0  501    0  0.00000000000E+00  0.00000000000E+00 -0.70712919237E+03  0.70712919238E+03  0.25500000920E-02 0. -1.
    10030    2    1    2    0    0  0.00000000000E+00  0.00000000000E+00 -0.27367953289E+03  0.11405788519E+04  0.11072577074E+04 0.  0.
        3    1    3    3  502    0  0.39597363494E+03  0.24656045704E+03  0.17032454809E+03  0.49658598493E+03  0.10100000352E+00 0.  1.
       -3    1    3    3    0  502 -0.39597363494E+03 -0.24656045704E+03 -0.44400408098E+03  0.64399286694E+03  0.10100000352E+00 0. -1.
</event>
<event>
 5   0  0.7537480E-03  0.1113660E+04  0.7818609E-02  0.9191979E-01
        2   -1    0    0  501    0  0.00000000000E+00  0.00000000000E+00  0.20456578873E+04  0.20456578873E+04  0.25500000920E-02 0. -1.
       -2   -1    0    0    0  501  0.00000000000E+00  0.00000000000E+00 -0.15156976991E+03  0.15156976994E+03  0.25500000920E-02 0.  1.
    10030    2    1    2    0    0  0.00000000000E+00  0.00000000000E+00  0.18940881174E+04  0.21972276573E+04  0.11136604426E+04 0.  0.
        1    1    3    3  502    0 -0.41514861534E+03  0.12783560441E+03  0.16343928751E+04  0.16911328702E+04  0.50400001928E-02 0. -1.
       -1    1    3    3    0  502  0.41514861534E+03 -0.12783560441E+03  0.25969524234E+03  0.50609478706E+03  0.50400001928E-02 0.  1.
</event>
<event>
 5   0  0.4504740E-03  0.1009692E+04  0.7818609E-02  0.9297978E-01
       -1   -1    0    0    0  501  0.00000000000E+00  0.00000000000E+00  0.11227411394E+03  0.11227411405E+03  0.50400001928E-02 0. -1.
        1   -1    0    0  501    0  0.00000000000E+00  0.00000000000E+00 -0.22700644800E+04  0.22700644800E+04  0.50400001928E-02 0.  1.
    10030    2    1    2    0    0  0.00000000000E+00  0.00000000000E+00 -0.21577903660E+04  0.23823385940E+04  0.10096919891E+04 0.  0.
        5    1    3    3  502    0  0.25601151860E+03  0.90176933668E+02 -0.74598458517E+02  0.28153294129E+03  0.46999998093E+01 0. -1.
       -5    1    3    3    0  502 -0.25601151860E+03 -0.90176933668E+02 -0.20831919075E+04  0.21008056527E+04  0.46999998093E+01 0.  1.
</event>
<event>
 5   0  0.4641021E-03  0.1230353E+04  0.7818609E-02  0.9086695E-01
        1   -1    0    0  501    0  0.00000000000E+00  0.00000000000E+00  0.97406230177E+03  0.97406230179E+03  0.50400001928E-02 0.  1.
       -1   -1    0    0    0  501  0.00000000000E+00  0.00000000000E+00 -0.38851965902E+03  0.38851965905E+03  0.50400001928E-02 0. -1.
    10030    2    1    2    0    0  0.00000000000E+00  0.00000000000E+00  0.58554264275E+03  0.13625819608E+04  0.12303533694E+04 0.  0.
        1    1    3    3  502    0 -0.17583943090E+03  0.21063945718E+03 -0.31699625602E+03  0.41925542660E+03  0.50400001928E-02 0. -1.
       -1    1    3    3    0  502  0.17583943090E+03 -0.21063945718E+03  0.90253889877E+03  0.94332653424E+03  0.50400001928E-02 0.  1.
</event>
<event>
 5   0  0.2992375E-03  0.1101754E+04  0.7818609E-02  0.9203484E-01
       -3   -1    0    0    0  501  0.00000000000E+00  0.00000000000E+00  0.26346514858E+03  0.26346516794E+03  0.10100000352E+00 0. -1.
        3   -1    0    0  501    0  0.00000000000E+00  0.00000000000E+00 -0.11518244096E+04  0.11518244140E+04  0.10100000352E+00 0.  1.
    10030    2    1    2    0    0  0.00000000000E+00  0.00000000000E+00 -0.88835926098E+03  0.14152895819E+04  0.11017542485E+04 0.  0.
        3    1    3    3  502    0  0.29189681189E+03  0.45631954186E+03 -0.31550153960E+03  0.62687519074E+03  0.10100000352E+00 0.  1.
       -3    1    3    3    0  502 -0.29189681189E+03 -0.45631954186E+03 -0.57285772138E+03  0.78841439118E+03  0.10100000352E+00 0. -1.
</event>
<event>
 5   0  0.7712816E-03  0.1081828E+04  0.7818609E-02  0.9223087E-01
        2   -1    0    0  501    0  0.00000000000E+00  0.00000000000E+00  0.10813100997E+04  0.10813100997E+04  0.25500000920E-02 0.  1.
       -2   -1    0    0    0  501  0.00000000000E+00  0.00000000000E+00 -0.27058663284E+03  0.27058663286E+03  0.25500000920E-02 0. -1.
    10030    2    1    2    0    0  0.00000000000E+00  0.00000000000E+00  0.81072346689E+03  0.13518967326E+04  0.10818281915E+04 0.  0.
        2    1    3    3  502    0 -0.30616918126E+03  0.41326739347E+03  0.61468517097E+03  0.80147823768E+03  0.25500000920E-02 0.  1.
       -2    1    3    3    0  502  0.30616918126E+03 -0.41326739347E+03  0.19603829592E+03  0.55041849491E+03  0.25500000920E-02 0. -1.
</event>
<event>
 5   0  0.4598561E-03  0.1162371E+04  0.7818609E-02  0.9146446E-01
       -1   -1    0    0    0  501  0.00000000000E+00  0.00000000000E+00  0.31210541266E+03  0.31210541270E+03  0.50400001928E-02 0. -1.
        1   -1    0    0  501    0  0.00000000000E+00  0.00000000000E+00 -0.10822522827E+04  0.10822522827E+04  0.50400001928E-02 0.  1.
    10030    2    1    2    0    0  0.00000000000E+00  0.00000000000E+00 -0.77014687005E+03  0.13943576954E+04  0.11623713612E+04 0.  0.
        2    1    3    3  502    0  0.67814051786E+02 -0.15949459050E+03 -0.10505318733E+04  0.10647321198E+04  0.25500000920E-02 0.  1.
       -2    1    3    3    0  502 -0.67814051786E+02  0.15949459050E+03  0.28038500330E+03  0.32962557561E+03  0.25500000920E-02 0. -1.
</event>
<event>
 5   0  0.7537480E-03  0.1138740E+04  0.7818609E-02  0.9168235E-01
       -2   -1    0    0    0  501  0.00000000000E+00  0.00000000000E+00  0.11655804761E+04  0.11655804761E+04  0.25500000920E-02 0. -1.
        2   -1    0    0  501    0  0.00000000000E+00  0.00000000000E+00 -0.27812945876E+03  0.27812945877E+03  0.25500000920E-02 0.  1.
    10030    2    1    2    0    0  0.00000000000E+00  0.00000000000E+00  0.88745101730E+03  0.14437099348E+04  0.11387401230E+04 0.  0.
        1    1    3    3  502    0 -0.17600971912E+03  0.35021402986E+03  0.96730783294E+03  0.10437019362E+04  0.50400001928E-02 0. -1.
       -1    1    3    3    0  502  0.17600971912E+03 -0.35021402986E+03 -0.79856815645E+02  0.40000799863E+03  0.50400001928E-02 0.  1.
</event>
<event>
 5   0  0.7766551E-03  0.1055746E+04  0.7818609E-02  0.9249432E-01
       -2   -1    0    0    0  501  0.00000000000E+00  0.00000000000E+00  0.96637757198E+03  0.96637757198E+03  0.25500000920E-02 0. -1.
        2   -1    0    0  501    0  0.00000000000E+00  0.00000000000E+00 -0.28834454800E+03  0.28834454801E+03  0.25500000920E-02 0.  1.
    10030    2    1    2    0    0  0.00000000000E+00  0.00000000000E+00  0.67803302398E+03  0.12547221200E+04  0.10557456213E+04 0.  0.
        5    1    3    3  502    0  0.49837547557E+03  0.85300500606E+02  0.15888064848E+03  0.53001833979E+03  0.46999998093E+01 0.  1.
       -5    1    3    3    0  502 -0.49837547557E+03 -0.85300500606E+02  0.51915237550E+03  0.72470378020E+03  0.46999998093E+01 0. -1.
</event>
<event>
 5   0  0.2992375E-03  0.1053320E+04  0.7818609E-02  0.9251923E-01
       -3   -1    0    0    0  501  0.00000000000E+00  0.00000000000E+00  0.19498190366E+03  0.19498192982E+03  0.10100000352E+00 0. -1.
        3   -1    0    0  501    0  0.00000000000E+00  0.00000000000E+00 -0.14225465853E+04  0.14225465889E+04  0.10100000352E+00 0.  1.
    10030    2    1    2    0    0  0.00000000000E+00  0.00000000000E+00 -0.12275646816E+04  0.16175285187E+04  0.10533202083E+04 0.  0.
        3    1    3    3  502    0  0.48617485889E+03 -0.19016774327E+03 -0.72062954374E+03  0.88985207395E+03  0.10100000352E+00 0.  1.
       -3    1    3    3    0  502 -0.48617485889E+03  0.19016774327E+03 -0.50693513788E+03  0.72767644473E+03  0.10100000352E+00 0. -1.
</event>
<event>
 5   0  0.4298101E-03  0.1116989E+04  0.7818609E-02  0.9188789E-01
        1   -1    0    0  501    0  0.00000000000E+00  0.00000000000E+00  0.38132404840E+03  0.38132404844E+03  0.50400001928E-02 0. -1.
       -1   -1    0    0    0  501  0.00000000000E+00  0.00000000000E+00 -0.81798216807E+03  0.81798216808E+03  0.50400001928E-02 0.  1.
    10030    2    1    2    0    0  0.00000000000E+00  0.00000000000E+00 -0.43665811966E+03  0.11993062165E+04  0.11169892961E+04 0.  0.
        3    1    3    3  502    0 -0.37198716552E+03  0.26904920881E+03  0.12315726778E+03  0.47532057696E+03  0.10100000352E+00 0. -1.
       -3    1    3    3    0  502  0.37198716552E+03 -0.26904920881E+03 -0.55981538744E+03  0.72398563956E+03  0.10100000352E+00 0.  1.
</event>
<event>
 5   0  0.4504740E-03  0.9588029E+03  0.7818609E-02  0.9354920E-01
        1   -1    0    0  501    0  0.00000000000E+00  0.00000000000E+00  0.54449526827E+03  0.54449526830E+03  0.50400001928E-02 0.  1.
       -1   -1    0    0    0  501  0.00000000000E+00  0.00000000000E+00 -0.42208955876E+03  0.42208955879E+03  0.50400001928E-02 0. -1.
    10030    2    1    2    0    0  0.00000000000E+00  0.00000000000E+00  0.12240570952E+03  0.96658482708E+03  0.95880293608E+03 0.  0.
        5    1    3    3  502    0  0.41751170087E+03 -0.22189389906E+03  0.14090625479E+03  0.49338583831E+03  0.46999998093E+01 0. -1.
       -5    1    3    3    0  502 -0.41751170087E+03  0.22189389906E+03 -0.18500545277E+02  0.47319898878E+03  0.46999998093E+01 0.  1.
</event>
<event>
 5   0  0.7537480E-03  0.1124273E+04  0.7818609E-02  0.9181852E-01
        2   -1    0    0  501    0  0.00000000000E+00  0.00000000000E+00  0.15656912040E+04  0.15656912040E+04  0.25500000920E-02 0.  1.
       -2   -1    0    0    0  501  0.00000000000E+00  0.00000000000E+00 -0.20182612714E+03  0.20182612716E+03  0.25500000920E-02 0. -1.
    10030    2    1    2    0    0  0.00000000000E+00  0.00000000000E+00  0.13638650768E+04  0.17675173311E+04  0.11242729064E+04 0.  0.
        1    1    3    3  502    0 -0.28498071749E+03 -0.38119004435E+03  0.21166073915E+03  0.52088398687E+03  0.50400001928E-02 0. -1.
       -1    1    3    3    0  502  0.28498071749E+03  0.38119004435E+03  0.11522043377E+04  0.12466333443E+04  0.50400001928E-02 0.  1.
</event>
<event>
 5   0  0.7738497E-03  0.1109945E+04  0.7818609E-02  0.9195553E-01
       -2   -1    0    0    0  501  0.00000000000E+00  0.00000000000E+00  0.31437157098E+03  0.31437157099E+03  0.25500000920E-02 0. -1.
        2   -1    0    0  501    0  0.00000000000E+00  0.00000000000E+00 -0.97971449794E+03  0.97971449794E+03  0.25500000920E-02 0.  1.
    10030    2    1    2    0    0  0.00000000000E+00  0.00000000000E+00 -0.66534292696E+03  0.12940860689E+04  0.11099448380E+04 0.  0.
        4    1    3    3  502    0  0.38392695599E+03 -0.27839228069E+03 -0.66874763620E+03  0.81983363148E+03  0.12699999809E+01 0.  1.
       -4    1    3    3    0  502 -0.38392695599E+03  0.27839228069E+03  0.34047092380E+01  0.47425243745E+03  0.12699999809E+01 0. -1.
</event>
<event>
 5   0  0.2992375E-03  0.1106705E+04  0.7818609E-02  0.9198682E-01
       -4   -1    0    0    0  501  0.00000000000E+00  0.00000000000E+00  0.45504725541E+03  0.45504902764E+03  0.12699999809E+01 0.  1.
        4   -1    0    0  501    0  0.00000000000E+00  0.00000000000E+00 -0.67289075715E+03  0.67289195563E+03  0.12699999809E+01 0. -1.
    10030    2    1    2    0    0  0.00000000000E+00  0.00000000000E+00 -0.21784350174E+03  0.11279409833E+04  0.11067045995E+04 0.  0.
        1    1    3    3  502    0 -0.34822281655E+03  0.22926932201E+03 -0.47973735586E+03  0.63558750980E+03  0.50400001928E-02 0. -1.
       -1    1    3    3    0  502  0.34822281655E+03 -0.22926932201E+03  0.26189385412E+03  0.49235347347E+03  0.50400001928E-02 0.  1.
</event>
<event>
 5   0  0.4428114E-03  0.1100750E+04  0.7818609E-02  0.9204461E-01
        1   -1    0    0  501    0  0.00000000000E+00  0.00000000000E+00  0.11682108467E+04  0.11682108467E+04  0.50400001928E-02 0.  1.
       -1   -1    0    0    0  501  0.00000000000E+00  0.00000000000E+00 -0.25929619640E+03  0.25929619645E+03  0.50400001928E-02 0. -1.
    10030    2    1    2    0    0  0.00000000000E+00  0.00000000000E+00  0.90891465028E+03  0.14275070431E+04  0.11007499792E+04 0.  0.
        4    1    3    3  502    0  0.44784822395E+03 -0.30985656700E+03  0.35126287551E+03  0.64804810348E+03  0.12699999809E+01 0.  1.
       -4    1    3    3    0  502 -0.44784822395E+03  0.30985656700E+03  0.55765177477E+03  0.77945893966E+03  0.12699999809E+01 0. -1.
</event>
<event>
 5   0  0.7952121E-03  0.1103023E+04  0.7818609E-02  0.9202250E-01
       -2   -1    0    0    0  501  0.00000000000E+00  0.00000000000E+00  0.33832216540E+03  0.33832216541E+03  0.25500000920E-02 0. -1.
        2   -1    0    0  501    0  0.00000000000E+00  0.00000000000E+00 -0.89903988963E+03  0.89903988964E+03  0.25500000920E-02 0.  1.
    10030    2    1    2    0    0  0.00000000000E+00  0.00000000000E+00 -0.56071772423E+03  0.12373620551E+04  0.11030233402E+04 0.  0.
        3    1    3    3  502    0 -0.53855476317E+03  0.10733971030E+03 -0.33758194099E+03  0.64461199448E+03  0.10100000352E+00 0.  1.
       -3    1    3    3    0  502  0.53855476317E+03 -0.10733971030E+03 -0.22313578324E+03  0.59275006057E+03  0.10100000352E+00 0. -1.
</event>
<event>
 5   0  0.4641021E-03  0.1095486E+04  0.7818609E-02  0.9209603E-01
        1   -1    0    0  501    0  0.00000000000E+00  0.00000000000E+00  0.18070834728E+04  0.18070834728E+04  0.50400001928E-02 0. -1.
       -1   -1    0    0    0  501  0.00000000000E+00  0.00000000000E+00 -0.16602571463E+03  0.16602571470E+03  0.50400001928E-02 0.  1.
    10030    2    1    2    0    0  0.00000000000E+00  0.00000000000E+00  0.16410577581E+04  0.19731091875E+04  0.10954858740E+04 0.  0.
        1    1    3    3  502    0 -0.35943847105E+03  0.34796426264E+03  0.12222536218E+04  0.13206737139E+04  0.50400001928E-02 0. -1.
       -1    1    3    3    0  502  0.35943847105E+03 -0.34796426264E+03  0.41880413632E+03  0.65243547357E+03  0.50400001928E-02 0.  1.
</event>
<event>
 5   0  0.7766551E-03  0.1110271E+04  0.7818609E-02  0.9195239E-01
       -2   -1    0    0    0  501  0.00000000000E+00  0.00000000000E+00  0.16776907061E+03  0.16776907063E+03  0.25500000920E-02 0. -1.
        2   -1    0    0  501    0  0.00000000000E+00  0.00000000000E+00 -0.18369010309E+04  0.18369010309E+04  0.25500000920E-02 0.  1.
    10030    2    1    2    0    0  0.00000000000E+00  0.00000000000E+00 -0.16691319603E+04  0.20046701015E+04  0.11102705594E+04 0.  0.
        5    1    3    3  502    0 -0.66102155266E+02  0.81419203917E+02 -0.18188155873E+04  0.18218426969E+04  0.46999998093E+01 0.  1.
       -5    1    3    3    0  502  0.66102155266E+02 -0.81419203917E+02  0.14968362699E+03  0.18282740463E+03  0.46999998093E+01 0. -1.
</event>
<event>
 5   0  0.4598561E-03  0.1131356E+04  0.7818609E-02  0.9175158E-01
        1   -1    0    0  501    0  0.00000000000E+00  0.00000000000E+00  0.39425443674E+03  0.39425443677E+03  0.50400001928E-02 0.  1.
       -1   -1    0    0    0  501  0.00000000000E+00  0.00000000000E+00 -0.81163724737E+03  0.81163724739E+03  0.50400001928E-02 0. -1.
    10030    2    1    2    0    0  0.00000000000E+00  0.00000000000E+00 -0.41738281063E+03  0.12058916842E+04  0.11313559755E+04 0.  0.
        2    1    3    3  502    0 -0.27787509283E+03  0.13109092374E+03  0.29756560931E+03  0.42772034012E+03  0.25500000920E-02 0.  1.
       -2    1    3    3    0  502  0.27787509283E+03 -0.13109092374E+03 -0.71494841994E+03  0.77817134404E+03  0.25500000920E-02 0. -1.
</event>
<event>
 5   0  0.7537480E-03  0.1104578E+04  0.7818609E-02  0.9200741E-01
       -2   -1    0    0    0  501  0.00000000000E+00  0.00000000000E+00  0.40077661477E+03  0.40077661478E+03  0.25500000920E-02 0. -1.
        2   -1    0    0  501    0  0.00000000000E+00  0.00000000000E+00 -0.76107991375E+03  0.76107991376E+03  0.25500000920E-02 0.  1.
    10030    2    1    2    0    0  0.00000000000E+00  0.00000000000E+00 -0.36030329899E+03  0.11618565285E+04  0.11045778043E+04 0.  0.
        1    1    3    3  502    0 -0.19434967927E+03  0.21032252149E+03 -0.67688564210E+03  0.73497043028E+03  0.50400001928E-02 0.  1.
       -1    1    3    3    0  502  0.19434967927E+03 -0.21032252149E+03  0.31658234312E+03  0.42688609825E+03  0.50400001928E-02 0. -1.
</event>
<event>
 5   0  0.7712816E-03  0.1067885E+04  0.7818609E-02  0.9237071E-01
        2   -1    0    0  501    0  0.00000000000E+00  0.00000000000E+00  0.58586620290E+03  0.58586620290E+03  0.25500000920E-02 0.  1.
       -2   -1    0    0    0  501  0.00000000000E+00  0.00000000000E+00 -0.48662067016E+03  0.48662067017E+03  0.25500000920E-02 0. -1.
    10030    2    1    2    0    0  0.00000000000E+00  0.00000000000E+00  0.99245532734E+02  0.10724868731E+04  0.10678850206E+04 0.  0.
        2    1    3    3  502    0  0.51249435834E+03 -0.11337810418E+03 -0.48725437635E+02  0.52714251405E+03  0.25500000920E-02 0. -1.
       -2    1    3    3    0  502 -0.51249435834E+03  0.11337810418E+03  0.14797097037E+03  0.54534435902E+03  0.25500000920E-02 0.  1.
</event>
<event>
 5   0  0.2992375E-03  0.1090973E+04  0.7818609E-02  0.9214035E-01
        3   -1    0    0  501    0  0.00000000000E+00  0.00000000000E+00  0.55158291897E+03  0.55158292822E+03  0.10100000352E+00 0.  1.
       -3   -1    0    0    0  501  0.00000000000E+00  0.00000000000E+00 -0.53945788027E+03  0.53945788972E+03  0.10100000352E+00 0. -1.
    10030    2    1    2    0    0  0.00000000000E+00  0.00000000000E+00  0.12125038702E+02  0.10910408179E+04  0.10909734414E+04 0.  0.
        2    1    3    3  502    0  0.24119864602E+03  0.15436214357E+03  0.47036622295E+03  0.55068034459E+03  0.25500000920E-02 0.  1.
       -2    1    3    3    0  502 -0.24119864602E+03 -0.15436214357E+03 -0.45824118425E+03  0.54036047335E+03  0.25500000920E-02 0. -1.
</event>
<event>
 5   0  0.4428114E-03  0.1077664E+04  0.7818609E-02  0.9227240E-01
        1   -1    0    0  501    0  0.00000000000E+00  0.00000000000E+00  0.22200441141E+04  0.22200441141E+04  0.50400001928E-02 0. -1.
       -1   -1    0    0    0  501  0.00000000000E+00  0.00000000000E+00 -0.13078118474E+03  0.13078118483E+03  0.50400001928E-02 0.  1.
    10030    2    1    2    0    0  0.00000000000E+00  0.00000000000E+00  0.20892629293E+04  0.23508252989E+04  0.10776641398E+04 0.  0.
        4    1    3    3  502    0 -0.28703607658E+03 -0.45396113502E+03  0.95035108521E+03  0.10916222879E+04  0.12699999809E+01 0.  1.
       -4    1    3    3    0  502  0.28703607658E+03  0.45396113502E+03  0.11389118441E+04  0.12592030110E+04  0.12699999809E+01 0. -1.
</event>
<event>
 5   0  0.2992375E-03  0.1112138E+04  0.7818609E-02  0.9193442E-01
       -3   -1    0    0    0  501  0.00000000000E+00  0.00000000000E+00  0.11821078775E+04  0.11821078818E+04  0.10100000352E+00 0.  1.
        3   -1    0    0  501    0  0.00000000000E+00  0.00000000000E+00 -0.26157738019E+03  0.26157739969E+03  0.10100000352E+00 0. -1.
    10030    2    1    2    0    0  0.00000000000E+00  0.00000000000E+00  0.92053049734E+03  0.14436852815E+04  0.11121379391E+04 0.  0.
        1    1    3    3  502    0  0.25103343462E+03  0.43406433589E+03  0.77230804637E+03  0.92080907441E+03  0.50400001928E-02 0.  1.
       -1    1    3    3    0  502 -0.25103343462E+03 -0.43406433589E+03  0.14822245096E+03  0.52287620713E+03  0.50400001928E-02 0. -1.
</event>
<event>
 5   0  0.7738497E-03  0.1103557E+04  0.7818609E-02  0.9201732E-01
        2   -1    0    0  501    0  0.00000000000E+00  0.00000000000E+00  0.13484623493E+04  0.13484623493E+04  0.25500000920E-02 0.  1.
       -2   -1    0    0    0  501  0.00000000000E+00  0.00000000000E+00 -0.22578286078E+03  0.22578286079E+03  0.25500000920E-02 0. -1.
    10030    2    1    2    0    0  0.00000000000E+00  0.00000000000E+00  0.11226794885E+04  0.15742452101E+04  0.11035573150E+04 0.  0.
        4    1    3    3  502    0 -0.81678835977E+00  0.31260878310E+03 -0.87268632943E+02  0.32456485578E+03  0.12699999809E+01 0. -1.
       -4    1    3    3    0  502  0.81678835977E+00 -0.31260878310E+03  0.12099481215E+04  0.12496803543E+04  0.12699999809E+01 0.  1.
</event>
<event>
 5   0  0.7766551E-03  0.1228744E+04  0.7818609E-02  0.9088063E-01
        2   -1    0    0  501    0  0.00000000000E+00  0.00000000000E+00  0.10816657828E+04  0.10816657828E+04  0.25500000920E-02 0. -1.
       -2   -1    0    0    0  501  0.00000000000E+00  0.00000000000E+00 -0.34895512808E+03  0.34895512809E+03  0.25500000920E-02 0.  1.
    10030    2    1    2    0    0  0.00000000000E+00  0.00000000000E+00  0.73271065469E+03  0.14306209109E+04  0.12287437842E+04 0.  0.
        5    1    3    3  502    0  0.55553905213E+03 -0.18259052015E+03  0.58562589018E+03  0.82761265682E+03  0.46999998093E+01 0. -1.
       -5    1    3    3    0  502 -0.55553905213E+03  0.18259052015E+03  0.14708476451E+03  0.60300825404E+03  0.46999998093E+01 0.  1.
</event>
<event>
 5   0  0.4641021E-03  0.1109143E+04  0.7818609E-02  0.9196326E-01
       -1   -1    0    0    0  501  0.00000000000E+00  0.00000000000E+00  0.16020168853E+03  0.16020168861E+03  0.50400001928E-02 0. -1.
        1   -1    0    0  501    0  0.00000000000E+00  0.00000000000E+00 -0.19197661848E+04  0.19197661848E+04  0.50400001928E-02 0.  1.
    10030    2    1    2    0    0  0.00000000000E+00  0.00000000000E+00 -0.17595644963E+04  0.20799678734E+04  0.11091434253E+04 0.  0.
        1    1    3    3  502    0 -0.29447697148E+03 -0.10478246166E+03 -0.17388497059E+04  0.17667185261E+04  0.50400001928E-02 0.  1.
       -1    1    3    3    0  502  0.29447697148E+03  0.10478246166E+03 -0.20714790406E+02  0.31324934728E+03  0.50400001928E-02 0. -1.
</event>
<event>
 5   0  0.7738497E-03  0.1095526E+04  0.7818609E-02  0.9209563E-01
        2   -1    0    0  501    0  0.00000000000E+00  0.00000000000E+00  0.56143894074E+03  0.56143894074E+03  0.25500000920E-02 0.  1.
       -2   -1    0    0    0  501  0.00000000000E+00  0.00000000000E+00 -0.53442034592E+03  0.53442034593E+03  0.25500000920E-02 0. -1.
    10030    2    1    2    0    0  0.00000000000E+00  0.00000000000E+00  0.27018594816E+02  0.10958592867E+04  0.10955261620E+04 0.  0.
        4    1    3    3  502    0 -0.12006322062E+03 -0.50927548107E+03 -0.14860814067E+03  0.54393261066E+03  0.12699999809E+01 0. -1.
       -4    1    3    3    0  502  0.12006322062E+03  0.50927548107E+03  0.17562673548E+03  0.55192667600E+03  0.12699999809E+01 0.  1.
</event>
<event>
 5   0  0.2992375E-03  0.1092260E+04  0.7818609E-02  0.9212769E-01
        3   -1    0    0  501    0  0.00000000000E+00  0.00000000000E+00  0.14077941474E+04  0.14077941510E+04  0.10100000352E+00 0. -1.
       -3   -1    0    0    0  501  0.00000000000E+00  0.00000000000E+00 -0.21186180685E+03  0.21186183093E+03  0.10100000352E+00 0.  1.
    10030    2    1    2    0    0  0.00000000000E+00  0.00000000000E+00  0.11959323406E+04  0.16196559820E+04  0.10922597387E+04 0.  0.
        4    1    3    3  502    0 -0.15361115884E+03 -0.21412042345E+03 -0.11134453687E+03  0.28608244030E+03  0.12699999809E+01 0.  1.
       -4    1    3    3    0  502  0.15361115884E+03  0.21412042345E+03  0.13072768774E+04  0.13335735417E+04  0.12699999809E+01 0. -1.
</event>
<event>
 5   0  0.4298101E-03  0.1099298E+04  0.7818609E-02  0.9205876E-01
        1   -1    0    0  501    0  0.00000000000E+00  0.00000000000E+00  0.17951272524E+04  0.17951272524E+04  0.50400001928E-02 0.  1.
       -1   -1    0    0    0  501  0.00000000000E+00  0.00000000000E+00 -0.16829675465E+03  0.16829675472E+03  0.50400001928E-02 0. -1.
    10030    2    1    2    0    0  0.00000000000E+00  0.00000000000E+00  0.16268304977E+04  0.19634240071E+04  0.10992981230E+04 0.  0.
        3    1    3    3  502    0  0.36655395266E+03  0.28223894001E+03  0.28329981659E+03  0.54247526741E+03  0.10100000352E+00 0. -1.
       -3    1    3    3    0  502 -0.36655395266E+03 -0.28223894001E+03  0.13435306811E+04  0.14209487397E+04  0.10100000352E+00 0.  1.
</event>
<event>
 5   0  0.4598561E-03  0.1137333E+04  0.7818609E-02  0.9169550E-01
       -1   -1    0    0    0  501  0.00000000000E+00  0.00000000000E+00  0.11735650347E+04  0.11735650347E+04  0.50400001928E-02 0. -1.
        1   -1    0    0  501    0  0.00000000000E+00  0.00000000000E+00 -0.27555485026E+03  0.27555485031E+03  0.50400001928E-02 0.  1.
    10030    2    1    2    0    0  0.00000000000E+00  0.00000000000E+00  0.89801018447E+03  0.14491198851E+04  0.11373329107E+04 0.  0.
        2    1    3    3  502    0  0.60788223922E+02 -0.39652649585E+03 -0.64542464690E+02  0.40631785567E+03  0.25500000920E-02 0.  1.
       -2    1    3    3    0  502 -0.60788223922E+02  0.39652649585E+03  0.96255264916E+03  0.10428020294E+04  0.25500000920E-02 0. -1.
</event>
<event>
 5   0  0.4598561E-03  0.7601307E+03  0.7818609E-02  0.9619590E-01
        1   -1    0    0  501    0  0.00000000000E+00  0.00000000000E+00  0.26631302275E+03  0.26631302280E+03  0.50400001928E-02 0. -1.
       -1   -1    0    0    0  501  0.00000000000E+00  0.00000000000E+00 -0.54240555285E+03  0.54240555287E+03  0.50400001928E-02 0.  1.
    10030    2    1    2    0    0  0.00000000000E+00  0.00000000000E+00 -0.27609253010E+03  0.80871857568E+03  0.76013067921E+03 0.  0.
        2    1    3    3  502    0 -0.33356675957E+03 -0.98900932730E+02  0.24707432583E+02  0.34879597878E+03  0.25500000920E-02 0. -1.
       -2    1    3    3    0  502  0.33356675957E+03  0.98900932730E+02 -0.30079996268E+03  0.45992259690E+03  0.25500000920E-02 0.  1.
</event>
<event>
 5   0  0.4641021E-03  0.8807610E+03  0.7818609E-02  0.9449956E-01
        1   -1    0    0  501    0  0.00000000000E+00  0.00000000000E+00  0.26596427024E+03  0.26596427028E+03  0.50400001928E-02 0. -1.
       -1   -1    0    0    0  501  0.00000000000E+00  0.00000000000E+00 -0.72917682942E+03  0.72917682944E+03  0.50400001928E-02 0.  1.
    10030    2    1    2    0    0  0.00000000000E+00  0.00000000000E+00 -0.46321255918E+03  0.99514109972E+03  0.88076099674E+03 0.  0.
        1    1    3    3  502    0 -0.17784068946E+03 -0.36365111224E+03 -0.42751830781E+03  0.58876255468E+03  0.50400001928E-02 0.  1.
       -1    1    3    3    0  502  0.17784068946E+03  0.36365111224E+03 -0.35694251371E+02  0.40637854504E+03  0.50400001928E-02 0. -1.
</event>
<event>
 5   0  0.4504740E-03  0.1113294E+04  0.7818609E-02  0.9192330E-01
        1   -1    0    0  501    0  0.00000000000E+00  0.00000000000E+00  0.48359141436E+03  0.48359141439E+03  0.50400001928E-02 0. -1.
       -1   -1    0    0    0  501  0.00000000000E+00  0.00000000000E+00 -0.64073957495E+03  0.64073957497E+03  0.50400001928E-02 0.  1.
    10030    2    1    2    0    0  0.00000000000E+00  0.00000000000E+00 -0.15714816059E+03  0.11243309894E+04  0.11132944935E+04 0.  0.
        5    1    3    3  502    0  0.55281709250E+03  0.36006509137E+02 -0.23899970511E+02  0.55452367402E+03  0.46999998093E+01 0. -1.
       -5    1    3    3    0  502 -0.55281709250E+03 -0.36006509137E+02 -0.13324819008E+03  0.56980731534E+03  0.46999998093E+01 0.  1.
</event>
<event>
 5   0  0.4598561E-03  0.1097753E+04  0.7818609E-02  0.9207385E-01
       -1   -1    0    0    0  501  0.00000000000E+00  0.00000000000E+00  0.39073266873E+03  0.39073266876E+03  0.50400001928E-02 0.  1.
        1   -1    0    0  501    0  0.00000000000E+00  0.00000000000E+00 -0.77102651950E+03  0.77102651952E+03  0.50400001928E-02 0. -1.
    10030    2    1    2    0    0  0.00000000000E+00  0.00000000000E+00 -0.38029385077E+03  0.11617591883E+04  0.10977527038E+04 0.  0.
        2    1    3    3  502    0  0.95592559302E+02 -0.42114451078E+03  0.16837490034E+03  0.46351994933E+03  0.25500000920E-02 0.  1.
       -2    1    3    3    0  502 -0.95592559302E+02  0.42114451078E+03 -0.54866875111E+03  0.69823923895E+03  0.25500000920E-02 0. -1.
</event>
<event>
 5   0  0.7738497E-03  0.1140328E+04  0.7818609E-02  0.9166753E-01
        2   -1    0    0  501    0  0.00000000000E+00  0.00000000000E+00  0.15083233188E+04  0.15083233188E+04  0.25500000920E-02 0.  1.
       -2   -1    0    0    0  501  0.00000000000E+00  0.00000000000E+00 -0.21552872213E+03  0.21552872214E+03  0.25500000920E-02 0. -1.
    10030    2    1    2    0    0  0.00000000000E+00  0.00000000000E+00  0.12927945967E+04  0.17238520409E+04  0.11403280185E+04 0.  0.
        4    1    3    3  502    0 -0.52120881667E+03  0.18617253686E+03  0.85348881195E+03  0.10172333110E+04  0.12699999809E+01 0.  1.
       -4    1    3    3    0  502  0.52120881667E+03 -0.18617253686E+03  0.43930578471E+03  0.70661872989E+03  0.12699999809E+01 0. -1.
</event>
<event>
 5   0  0.7738497E-03  0.1109466E+04  0.7818609E-02  0.9196014E-01
       -2   -1    0    0    0  501  0.00000000000E+00  0.00000000000E+00  0.28989596188E+03  0.28989596189E+03  0.25500000920E-02 0. -1.
        2   -1    0    0  501    0  0.00000000000E+00  0.00000000000E+00 -0.10615145106E+04  0.10615145106E+04  0.25500000920E-02 0.  1.
    10030    2    1    2    0    0  0.00000000000E+00  0.00000000000E+00 -0.77161854872E+03  0.13514104725E+04  0.11094661241E+04 0.  0.
        4    1    3    3  502    0 -0.50179549678E+03  0.23598073011E+02 -0.67243597409E+03  0.83936127012E+03  0.12699999809E+01 0.  1.
       -4    1    3    3    0  502  0.50179549678E+03 -0.23598073011E+02 -0.99182574628E+02  0.51204920237E+03  0.12699999809E+01 0. -1.
</event>
<event>
 5   0  0.7537480E-03  0.8705605E+03  0.7818609E-02  0.9463149E-01
       -2   -1    0    0    0  501  0.00000000000E+00  0.00000000000E+00  0.14642587499E+03  0.14642587501E+03  0.25500000920E-02 0. -1.
        2   -1    0    0  501    0  0.00000000000E+00  0.00000000000E+00 -0.12939578267E+04  0.12939578267E+04  0.25500000920E-02 0.  1.
    10030    2    1    2    0    0  0.00000000000E+00  0.00000000000E+00 -0.11475319517E+04  0.14403837017E+04  0.87056052517E+03 0.  0.
        1    1    3    3  502    0  0.29802021915E+03  0.31631056378E+03 -0.53322169008E+03  0.68789083043E+03  0.50400001928E-02 0. -1.
       -1    1    3    3    0  502 -0.29802021915E+03 -0.31631056378E+03 -0.61431026165E+03  0.75249287131E+03  0.50400001928E-02 0.  1.
</event>
<event>
 5   0  0.4428114E-03  0.1119774E+04  0.7818609E-02  0.9186130E-01
       -1   -1    0    0    0  501  0.00000000000E+00  0.00000000000E+00  0.10340162827E+04  0.10340162827E+04  0.50400001928E-02 0.  1.
        1   -1    0    0  501    0  0.00000000000E+00  0.00000000000E+00 -0.30316111156E+03  0.30316111160E+03  0.50400001928E-02 0. -1.
    10030    2    1    2    0    0  0.00000000000E+00  0.00000000000E+00  0.73085517117E+03  0.13371773944E+04  0.11197741302E+04 0.  0.
        4    1    3    3  502    0 -0.27364926780E+03 -0.29840081063E+03  0.82721752596E+03  0.92098719520E+03  0.12699999809E+01 0.  1.
       -4    1    3    3    0  502  0.27364926780E+03  0.29840081063E+03 -0.96362354789E+02  0.41619019916E+03  0.12699999809E+01 0. -1.
</event>
<event>
 5   0  0.4428114E-03  0.1119479E+04  0.7818609E-02  0.9186411E-01
        1   -1    0    0  501    0  0.00000000000E+00  0.00000000000E+00  0.10195511838E+04  0.10195511838E+04  0.50400001928E-02 0. -1.
       -1   -1    0    0    0  501  0.00000000000E+00  0.00000000000E+00 -0.30730034904E+03  0.30730034909E+03  0.50400001928E-02 0.  1.
    10030    2    1    2    0    0  0.00000000000E+00  0.00000000000E+00  0.71225083478E+03  0.13268515329E+04  0.11194792266E+04 0.  0.
        4    1    3    3  502    0  0.23417594733E+03 -0.43872709215E+03  0.66058905919E+03  0.82686114536E+03  0.12699999809E+01 0. -1.
       -4    1    3    3    0  502 -0.23417594733E+03  0.43872709215E+03  0.51661775594E+02  0.49999038756E+03  0.12699999809E+01 0.  1.
</event>
<event>
 5   0  0.7766551E-03  0.1090144E+04  0.7818609E-02  0.9214852E-01
        2   -1    0    0  501    0  0.00000000000E+00  0.00000000000E+00  0.48106498477E+03  0.48106498478E+03  0.25500000920E-02 0. -1.
       -2   -1    0    0    0  501  0.00000000000E+00  0.00000000000E+00 -0.61759545098E+03  0.61759545099E+03  0.25500000920E-02 0.  1.
    10030    2    1    2    0    0  0.00000000000E+00  0.00000000000E+00 -0.13653046621E+03  0.10986604358E+04  0.10901441120E+04 0.  0.
        5    1    3    3  502    0 -0.44188500511E+03 -0.88115908786E+01  0.25319595280E+03  0.50938225567E+03  0.46999998093E+01 0. -1.
       -5    1    3    3    0  502  0.44188500511E+03  0.88115908786E+01 -0.38972641900E+03  0.58927818010E+03  0.46999998093E+01 0.  1.
</event>
<event>
 5   0  0.4504740E-03  0.9635703E+03  0.7818609E-02  0.9349428E-01
        1   -1    0    0  501    0  0.00000000000E+00  0.00000000000E+00  0.10391837368E+04  0.10391837368E+04  0.50400001928E-02 0. -1.
       -1   -1    0    0    0  501  0.00000000000E+00  0.00000000000E+00 -0.22336468301E+03  0.22336468307E+03  0.50400001928E-02 0.  1.
    10030    2    1    2    0    0  0.00000000000E+00  0.00000000000E+00  0.81581905381E+03  0.12625484199E+04  0.96357033165E+03 0.  0.
        5    1    3    3  502    0  0.46184681550E+03  0.13126988633E+03  0.35614773451E+03  0.59782736876E+03  0.46999998093E+01 0. -1.
       -5    1    3    3    0  502 -0.46184681550E+03 -0.13126988633E+03  0.45967131930E+03  0.66472105114E+03  0.46999998093E+01 0.  1.
</event>
<event>
 5   0  0.4504740E-03  0.1138499E+04  0.7818609E-02  0.9168460E-01
       -1   -1    0    0    0  501  0.00000000000E+00  0.00000000000E+00  0.35955478239E+03  0.35955478243E+03  0.50400001928E-02 0.  1.
        1   -1    0    0  501    0  0.00000000000E+00  0.00000000000E+00 -0.90123890951E+03  0.90123890952E+03  0.50400001928E-02 0. -1.
    10030    2    1    2    0    0  0.00000000000E+00  0.00000000000E+00 -0.54168412712E+03  0.12607936919E+04  0.11384985903E+04 0.  0.
        5    1    3    3  502    0  0.36019803885E+03  0.55336646972E+02 -0.75509894440E+03  0.83845171448E+03  0.46999998093E+01 0. -1.
       -5    1    3    3    0  502 -0.36019803885E+03 -0.55336646972E+02  0.21341481728E+03  0.42234197746E+03  0.46999998093E+01 0.  1.
</event>
<event>
 5   0  0.7712816E-03  0.1112583E+04  0.7818609E-02  0.9193014E-01
        2   -1    0    0  501    0  0.00000000000E+00  0.00000000000E+00  0.62398378637E+03  0.62398378637E+03  0.25500000920E-02 0. -1.
       -2   -1    0    0    0  501  0.00000000000E+00  0.00000000000E+00 -0.49594287022E+03  0.49594287022E+03  0.25500000920E-02 0.  1.
    10030    2    1    2    0    0  0.00000000000E+00  0.00000000000E+00  0.12804091615E+03  0.11199266566E+04  0.11125831384E+04 0.  0.
        2    1    3    3  502    0 -0.89068542381E+01 -0.36695618224E+03 -0.35673868475E+03  0.51185804764E+03  0.25500000920E-02 0.  1.
       -2    1    3    3    0  502  0.89068542381E+01  0.36695618224E+03  0.48477960090E+03  0.60806860895E+03  0.25500000920E-02 0. -1.
</event>
<event>
 5   0  0.4298101E-03  0.1031355E+04  0.7818609E-02  0.9274808E-01
       -1   -1    0    0    0  501  0.00000000000E+00  0.00000000000E+00  0.28469895776E+03  0.28469895781E+03  0.50400001928E-02 0. -1.
        1   -1    0    0  501    0  0.00000000000E+00  0.00000000000E+00 -0.93405105421E+03  0.93405105422E+03  0.50400001928E-02 0.  1.
    10030    2    1    2    0    0  0.00000000000E+00  0.00000000000E+00 -0.64935209644E+03  0.12187500120E+04  0.10313551506E+04 0.  0.
        3    1    3    3  502    0  0.22944413343E+03  0.21914048706E+03  0.15570432642E+03  0.35342751860E+03  0.10100000352E+00 0. -1.
       -3    1    3    3    0  502 -0.22944413343E+03 -0.21914048706E+03 -0.80505642286E+03  0.86532249343E+03  0.10100000352E+00 0.  1.
</event>
<event>
 5   0  0.7952121E-03  0.1027364E+04  0.7818609E-02  0.9279031E-01
        2   -1    0    0  501    0  0.00000000000E+00  0.00000000000E+00  0.25031855478E+04  0.25031855478E+04  0.25500000920E-02 0. -1.
       -2   -1    0    0    0  501  0.00000000000E+00  0.00000000000E+00 -0.10541336224E+03  0.10541336227E+03  0.25500000920E-02 0.  1.
    10030    2    1    2    0    0  0.00000000000E+00  0.00000000000E+00  0.23977721855E+04  0.26085989101E+04  0.10273640152E+04 0.  0.
        3    1    3    3  502    0  0.35812550849E+03  0.14658963164E+03  0.34110440838E+03  0.51584360765E+03  0.10100000352E+00 0.  1.
       -3    1    3    3    0  502 -0.35812550849E+03 -0.14658963164E+03  0.20566677772E+04  0.20927553024E+04  0.10100000352E+00 0. -1.
</event>
<event>
 5   0  0.2992375E-03  0.1097057E+04  0.7818609E-02  0.9208065E-01
       -3   -1    0    0    0  501  0.00000000000E+00  0.00000000000E+00  0.29890898804E+03  0.29890900511E+03  0.10100000352E+00 0. -1.
        3   -1    0    0  501    0  0.00000000000E+00  0.00000000000E+00 -0.10066049217E+04  0.10066049268E+04  0.10100000352E+00 0.  1.
    10030    2    1    2    0    0  0.00000000000E+00  0.00000000000E+00 -0.70769593366E+03  0.13055139319E+04  0.10970565582E+04 0.  0.
        1    1    3    3  502    0 -0.74622215342E+02  0.13422161651E+03 -0.98050067801E+03  0.99245427953E+03  0.50400001928E-02 0.  1.
       -1    1    3    3    0  502  0.74622215342E+02 -0.13422161651E+03  0.27280474435E+03  0.31305965234E+03  0.50400001928E-02 0. -1.
</event>
<event>
 5   0  0.7738497E-03  0.1095562E+04  0.7818609E-02  0.9209528E-01
        2   -1    0    0  501    0  0.00000000000E+00  0.00000000000E+00  0.40100626821E+03  0.40100626822E+03  0.25500000920E-02 0. -1.
       -2   -1    0    0    0  501  0.00000000000E+00  0.00000000000E+00 -0.74827795129E+03  0.74827795129E+03  0.25500000920E-02 0.  1.
    10030    2    1    2    0    0  0.00000000000E+00  0.00000000000E+00 -0.34727168308E+03  0.11492842195E+04  0.10955622280E+04 0.  0.
        4    1    3    3  502    0  0.41141668981E+03  0.22648415870E+03 -0.46942636244E+03  0.66401919358E+03  0.12699999809E+01 0.  1.
       -4    1    3    3    0  502 -0.41141668981E+03 -0.22648415870E+03  0.12215467936E+03  0.48526502593E+03  0.12699999809E+01 0. -1.
</event>
<event>
 5   0  0.7738497E-03  0.9670571E+03  0.7818609E-02  0.9345433E-01
       -2   -1    0    0    0  501  0.00000000000E+00  0.00000000000E+00  0.72347935261E+03  0.72347935261E+03  0.25500000920E-02 0. -1.
        2   -1    0    0  501    0  0.00000000000E+00  0.00000000000E+00 -0.32316039771E+03  0.32316039772E+03  0.25500000920E-02 0.  1.
    10030    2    1    2    0    0  0.00000000000E+00  0.00000000000E+00  0.40031895490E+03  0.10466397503E+04  0.96705713446E+03 0.  0.
        4    1    3    3  502    0 -0.64920842087E+02 -0.16984859947E+03 -0.28474550059E+03  0.33785333429E+03  0.12699999809E+01 0.  1.
       -4    1    3    3    0  502  0.64920842087E+02  0.16984859947E+03  0.68506445549E+03  0.70878641604E+03  0.12699999809E+01 0. -1.
</event>
<event>
 5   0  0.4598561E-03  0.1154991E+04  0.7818609E-02  0.9153191E-01
        1   -1    0    0  501    0  0.00000000000E+00  0.00000000000E+00  0.49145470225E+03  0.49145470228E+03  0.50400001928E-02 0. -1.
       -1   -1    0    0    0  501  0.00000000000E+00  0.00000000000E+00 -0.67860014241E+03  0.67860014243E+03  0.50400001928E-02 0.  1.
    10030    2    1    2    0    0  0.00000000000E+00  0.00000000000E+00 -0.18714544016E+03  0.11700548447E+04  0.11549913090E+04 0.  0.
        2    1    3    3  502    0  0.49925021637E+03 -0.21790301781E+03 -0.28782530261E+03  0.61609732068E+03  0.25500000920E-02 0.  1.
       -2    1    3    3    0  502 -0.49925021637E+03  0.21790301781E+03  0.10067986245E+03  0.55395752403E+03  0.25500000920E-02 0. -1.
</event>
<event>
 5   0  0.7537480E-03  0.1106849E+04  0.7818609E-02  0.9198542E-01
        2   -1    0    0  501    0  0.00000000000E+00  0.00000000000E+00  0.67350911757E+03  0.67350911758E+03  0.25500000920E-02 0. -1.
       -2   -1    0    0    0  501  0.00000000000E+00  0.00000000000E+00 -0.45475092135E+03  0.45475092136E+03  0.25500000920E-02 0.  1.
    10030    2    1    2    0    0  0.00000000000E+00  0.00000000000E+00  0.21875819622E+03  0.11282600389E+04  0.11068493877E+04 0.  0.
        1    1    3    3  502    0  0.52331236878E+03 -0.17021659760E+03  0.49511706520E+02  0.55252233849E+03  0.50400001928E-02 0.  1.
       -1    1    3    3    0  502 -0.52331236878E+03  0.17021659760E+03  0.16924648970E+03  0.57573770045E+03  0.50400001928E-02 0. -1.
</event>
<event>
 5   0  0.4641021E-03  0.1104677E+04  0.7818609E-02  0.9200645E-01
        1   -1    0    0  501    0  0.00000000000E+00  0.00000000000E+00  0.20669378700E+04  0.20669378701E+04  0.50400001928E-02 0. -1.
       -1   -1    0    0    0  501  0.00000000000E+00  0.00000000000E+00 -0.14759891764E+03  0.14759891772E+03  0.50400001928E-02 0.  1.
    10030    2    1    2    0    0  0.00000000000E+00  0.00000000000E+00  0.19193389524E+04  0.22145367878E+04  0.11046769529E+04 0.  0.
        1    1    3    3  502    0 -0.23868029320E+03 -0.19501854278E+03  0.18785036657E+04  0.19036219521E+04  0.50400001928E-02 0. -1.
       -1    1    3    3    0  502  0.23868029320E+03  0.19501854278E+03  0.40835286720E+02  0.31091483570E+03  0.50400001928E-02 0.  1.
</event>
<event>
 5   0  0.4504740E-03  0.1101561E+04  0.7818609E-02  0.9203672E-01
       -1   -1    0    0    0  501  0.00000000000E+00  0.00000000000E+00  0.39126422688E+03  0.39126422691E+03  0.50400001928E-02 0.  1.
        1   -1    0    0  501    0  0.00000000000E+00  0.00000000000E+00 -0.77533017906E+03  0.77533017908E+03  0.50400001928E-02 0. -1.
    10030    2    1    2    0    0  0.00000000000E+00  0.00000000000E+00 -0.38406595219E+03  0.11665944060E+04  0.11015606440E+04 0.  0.
        5    1    3    3  502    0 -0.40080020198E+03  0.23911612883E+03 -0.50173509527E+03  0.68525726614E+03  0.46999998093E+01 0. -1.
       -5    1    3    3    0  502  0.40080020198E+03 -0.23911612883E+03  0.11766914308E+03  0.48133713985E+03  0.46999998093E+01 0.  1.
</event>
<event>
 5   0  0.7537480E-03  0.1084658E+04  0.7818609E-02  0.9220276E-01
        2   -1    0    0  501    0  0.00000000000E+00  0.00000000000E+00  0.58801526129E+03  0.58801526129E+03  0.25500000920E-02 0. -1.
       -2   -1    0    0    0  501  0.00000000000E+00  0.00000000000E+00 -0.50019204303E+03  0.50019204304E+03  0.25500000920E-02 0.  1.
    10030    2    1    2    0    0  0.00000000000E+00  0.00000000000E+00  0.87823218256E+02  0.10882073043E+04  0.10846576508E+04 0.  0.
        1    1    3    3  502    0  0.23380025404E+03  0.13460343492E+03 -0.42809580296E+03  0.50601053350E+03  0.50400001928E-02 0.  1.
       -1    1    3    3    0  502 -0.23380025404E+03 -0.13460343492E+03  0.51591902121E+03  0.58219677082E+03  0.50400001928E-02 0. -1.
</event>
<event>
 5   0  0.4504740E-03  0.1120992E+04  0.7818609E-02  0.9184970E-01
       -1   -1    0    0    0  501  0.00000000000E+00  0.00000000000E+00  0.14091471151E+04  0.14091471151E+04  0.50400001928E-02 0.  1.
        1   -1    0    0  501    0  0.00000000000E+00  0.00000000000E+00 -0.22294029945E+03  0.22294029951E+03  0.50400001928E-02 0. -1.
    10030    2    1    2    0    0  0.00000000000E+00  0.00000000000E+00  0.11862068157E+04  0.16320874146E+04  0.11209918463E+04 0.  0.
        5    1    3    3  502    0  0.20981465171E+03 -0.38404106245E+03  0.83269799381E+02  0.44549486553E+03  0.46999998093E+01 0. -1.
       -5    1    3    3    0  502 -0.20981465171E+03  0.38404106245E+03  0.11029370163E+04  0.11865925491E+04  0.46999998093E+01 0.  1.
</event>
<event>
 5   0  0.4298101E-03  0.1096113E+04  0.7818609E-02  0.9208988E-01
       -1   -1    0    0    0  501  0.00000000000E+00  0.00000000000E+00  0.73551516880E+03  0.73551516882E+03  0.50400001928E-02 0.  1.
        1   -1    0    0  501    0  0.00000000000E+00  0.00000000000E+00 -0.40837504934E+03  0.40837504937E+03  0.50400001928E-02 0. -1.
    10030    2    1    2    0    0  0.00000000000E+00  0.00000000000E+00  0.32714011946E+03  0.11438902182E+04  0.10961132120E+04 0.  0.
        3    1    3    3  502    0 -0.48066634054E+03  0.25827694682E+03  0.11016404979E+03  0.55667157306E+03  0.10100000352E+00 0. -1.
       -3    1    3    3    0  502  0.48066634054E+03 -0.25827694682E+03  0.21697606967E+03  0.58721864513E+03  0.10100000352E+00 0.  1.
</event>
<event>
 5   0  0.4428114E-03  0.1098043E+04  0.7818609E-02  0.9207101E-01
        1   -1    0    0  501    0  0.00000000000E+00  0.00000000000E+00  0.41992859597E+03  0.41992859600E+03  0.50400001928E-02 0.  1.
       -1   -1    0    0    0  501  0.00000000000E+00  0.00000000000E+00 -0.71779997799E+03  0.71779997801E+03  0.50400001928E-02 0. -1.
    10030    2    1    2    0    0  0.00000000000E+00  0.00000000000E+00 -0.29787138202E+03  0.11377285740E+04  0.10980432359E+04 0.  0.
        4    1    3    3  502    0 -0.35404497600E+03  0.16348936704E+03 -0.54935660971E+03  0.67369942534E+03  0.12699999809E+01 0. -1.
       -4    1    3    3    0  502  0.35404497600E+03 -0.16348936704E+03  0.25148522769E+03  0.46402914867E+03  0.12699999809E+01 0.  1.
</event>
<event>
 5   0  0.7766551E-03  0.1094957E+04  0.7818609E-02  0.9210121E-01
        2   -1    0    0  501    0  0.00000000000E+00  0.00000000000E+00  0.14856170507E+04  0.14856170507E+04  0.25500000920E-02 0.  1.
       -2   -1    0    0    0  501  0.00000000000E+00  0.00000000000E+00 -0.20175624223E+03  0.20175624225E+03  0.25500000920E-02 0. -1.
    10030    2    1    2    0    0  0.00000000000E+00  0.00000000000E+00  0.12838608084E+04  0.16873732929E+04  0.10949566449E+04 0.  0.
        5    1    3    3  502    0  0.27299455737E+02  0.54411877753E+03  0.72491685626E+03  0.90682801172E+03  0.46999998093E+01 0. -1.
       -5    1    3    3    0  502 -0.27299455737E+02 -0.54411877753E+03  0.55894395219E+03  0.78054528122E+03  0.46999998093E+01 0.  1.
</event>
<event>
 5   0  0.7537480E-03  0.1476872E+04  0.7818609E-02  0.8899980E-01
       -2   -1    0    0    0  501  0.00000000000E+00  0.00000000000E+00  0.37626485380E+03  0.37626485381E+03  0.25500000920E-02 0.  1.
        2   -1    0    0  501    0  0.00000000000E+00  0.00000000000E+00 -0.14492132344E+04  0.14492132344E+04  0.25500000920E-02 0. -1.
    10030    2    1    2    0    0  0.00000000000E+00  0.00000000000E+00 -0.10729483806E+04  0.18254780882E+04  0.14768723787E+04 0.  0.
        1    1    3    3  502    0 -0.23149658343E+03 -0.68315264238E+02 -0.13990786011E+04  0.14197459546E+04  0.50400001928E-02 0. -1.
       -1    1    3    3    0  502  0.23149658343E+03  0.68315264238E+02  0.32613022053E+03  0.40573213360E+03  0.50400001928E-02 0.  1.
</event>
<event>
 5   0  0.4598561E-03  0.1098840E+04  0.7818609E-02  0.9206323E-01
       -1   -1    0    0    0  501  0.00000000000E+00  0.00000000000E+00  0.21306071323E+03  0.21306071329E+03  0.50400001928E-02 0.  1.
        1   -1    0    0  501    0  0.00000000000E+00  0.00000000000E+00 -0.14167907319E+04  0.14167907319E+04  0.50400001928E-02 0. -1.
    10030    2    1    2    0    0  0.00000000000E+00  0.00000000000E+00 -0.12037300186E+04  0.16298514452E+04  0.10988401957E+04 0.  0.
        2    1    3    3  502    0  0.53423527485E+03 -0.99072752259E+02 -0.72272647833E+03  0.90418820033E+03  0.25500000920E-02 0.  1.
       -2    1    3    3    0  502 -0.53423527485E+03  0.99072752259E+02 -0.48100354031E+03  0.72566324485E+03  0.25500000920E-02 0. -1.
</event>
<event>
 5   0  0.4504740E-03  0.1102706E+04  0.7818609E-02  0.9202558E-01
       -1   -1    0    0    0  501  0.00000000000E+00  0.00000000000E+00  0.16668422822E+03  0.16668422829E+03  0.50400001928E-02 0. -1.
        1   -1    0    0  501    0  0.00000000000E+00  0.00000000000E+00 -0.18237501452E+04  0.18237501452E+04  0.50400001928E-02 0.  1.
    10030    2    1    2    0    0  0.00000000000E+00  0.00000000000E+00 -0.16570659169E+04  0.19904343735E+04  0.11027064623E+04 0.  0.
        5    1    3    3  502    0 -0.52432831931E+03  0.11480354706E+03 -0.10559130956E+04  0.11845144981E+04  0.46999998093E+01 0.  1.
       -5    1    3    3    0  502  0.52432831931E+03 -0.11480354706E+03 -0.60115282137E+03  0.80591987535E+03  0.46999998093E+01 0. -1.
</event>
<event>
 5   0  0.7952121E-03  0.1098993E+04  0.7818609E-02  0.9206174E-01
       -2   -1    0    0    0  501  0.00000000000E+00  0.00000000000E+00  0.60256256695E+03  0.60256256695E+03  0.25500000920E-02 0.  1.
        2   -1    0    0  501    0  0.00000000000E+00  0.00000000000E+00 -0.50110399102E+03  0.50110399102E+03  0.25500000920E-02 0. -1.
    10030    2    1    2    0    0  0.00000000000E+00  0.00000000000E+00  0.10145857593E+03  0.11036665580E+04  0.10989931886E+04 0.  0.
        3    1    3    3  502    0  0.32114264349E+03  0.42525612300E+03 -0.83897215775E+02  0.53945724634E+03  0.10100000352E+00 0. -1.
       -3    1    3    3    0  502 -0.32114264349E+03 -0.42525612300E+03  0.18535579170E+03  0.56420931163E+03  0.10100000352E+00 0.  1.
</event>
<event>
 5   0  0.7537480E-03  0.1098841E+04  0.7818609E-02  0.9206322E-01
       -2   -1    0    0    0  501  0.00000000000E+00  0.00000000000E+00  0.25954294312E+03  0.25954294313E+03  0.25500000920E-02 0.  1.
        2   -1    0    0  501    0  0.00000000000E+00  0.00000000000E+00 -0.11630551819E+04  0.11630551819E+04  0.25500000920E-02 0. -1.
    10030    2    1    2    0    0  0.00000000000E+00  0.00000000000E+00 -0.90351223874E+03  0.14225981250E+04  0.10988407799E+04 0.  0.
        1    1    3    3  502    0  0.24693452862E+03 -0.17281828922E+03 -0.10464715590E+04  0.10890112701E+04  0.50400001928E-02 0. -1.
       -1    1    3    3    0  502 -0.24693452862E+03  0.17281828922E+03  0.14295932025E+03  0.33358685493E+03  0.50400001928E-02 0.  1.
</event>
<event>
 5   0  0.2992375E-03  0.1104674E+04  0.7818609E-02  0.9200648E-01
       -3   -1    0    0    0  501  0.00000000000E+00  0.00000000000E+00  0.86494933175E+03  0.86494933765E+03  0.10100000352E+00 0.  1.
        3   -1    0    0  501    0  0.00000000000E+00  0.00000000000E+00 -0.35270990721E+03  0.35270992167E+03  0.10100000352E+00 0. -1.
    10030    2    1    2    0    0  0.00000000000E+00  0.00000000000E+00  0.51223942454E+03  0.12176592593E+04  0.11046740894E+04 0.  0.
        5    1    3    3  502    0 -0.21631203757E+03  0.29555052241E+03  0.71181999605E+03  0.80053157693E+03  0.46999998093E+01 0.  1.
       -5    1    3    3    0  502  0.21631203757E+03 -0.29555052241E+03 -0.19958057151E+03  0.41712768239E+03  0.46999998093E+01 0. -1.
</event>
<event>
 5   0  0.4504740E-03  0.1143341E+04  0.7818609E-02  0.9163949E-01
        1   -1    0    0  501    0  0.00000000000E+00  0.00000000000E+00  0.41232921552E+03  0.41232921555E+03  0.50400001928E-02 0.  1.
       -1   -1    0    0    0  501  0.00000000000E+00  0.00000000000E+00 -0.79258804087E+03  0.79258804089E+03  0.50400001928E-02 0. -1.
    10030    2    1    2    0    0  0.00000000000E+00  0.00000000000E+00 -0.38025882535E+03  0.12049172564E+04  0.11433410780E+04 0.  0.
        5    1    3    3  502    0 -0.21487178630E+03  0.35961886843E+03 -0.60003686212E+03  0.73182097605E+03  0.46999998093E+01 0. -1.
       -5    1    3    3    0  502  0.21487178630E+03 -0.35961886843E+03  0.21977803677E+03  0.47309628039E+03  0.46999998093E+01 0.  1.
</event>
<event>
 5   0  0.4598561E-03  0.1452343E+04  0.7818609E-02  0.8916778E-01
        1   -1    0    0  501    0  0.00000000000E+00  0.00000000000E+00  0.69826356684E+03  0.69826356686E+03  0.50400001928E-02 0.  1.
       -1   -1    0    0    0  501  0.00000000000E+00  0.00000000000E+00 -0.75519473149E+03  0.75519473151E+03  0.50400001928E-02 0. -1.
    10030    2    1    2    0    0  0.00000000000E+00  0.00000000000E+00 -0.56931164649E+02  0.14534582984E+04  0.14523428891E+04 0.  0.
        2    1    3    3  502    0 -0.19985056771E+03  0.50648242348E+03  0.45238263996E+03  0.70789458796E+03  0.25500000920E-02 0. -1.
       -2    1    3    3    0  502  0.19985056771E+03 -0.50648242348E+03 -0.50931380461E+03  0.74556371041E+03  0.25500000920E-02 0.  1.
</event>
<event>
 5   0  0.4504740E-03  0.9708144E+03  0.7818609E-02  0.9341147E-01
        1   -1    0    0  501    0  0.00000000000E+00  0.00000000000E+00  0.92367938037E+03  0.92367938038E+03  0.50400001928E-02 0.  1.
       -1   -1    0    0    0  501  0.00000000000E+00  0.00000000000E+00 -0.25508869859E+03  0.25508869864E+03  0.50400001928E-02 0. -1.
    10030    2    1    2    0    0  0.00000000000E+00  0.00000000000E+00  0.66859068178E+03  0.11787680790E+04  0.97081444383E+03 0.  0.
        5    1    3    3  502    0  0.28194163687E+03  0.23184824188E+02  0.81320578405E+03  0.86101937253E+03  0.46999998093E+01 0.  1.
       -5    1    3    3    0  502 -0.28194163687E+03 -0.23184824188E+02 -0.14461510227E+03  0.31774870649E+03  0.46999998093E+01 0. -1.
</event>
<event>
 5   0  0.4598561E-03  0.1094505E+04  0.7818609E-02  0.9210564E-01
        1   -1    0    0  501    0  0.00000000000E+00  0.00000000000E+00  0.99988185147E+03  0.99988185148E+03  0.50400001928E-02 0.  1.
       -1   -1    0    0    0  501  0.00000000000E+00  0.00000000000E+00 -0.29952058701E+03  0.29952058705E+03  0.50400001928E-02 0. -1.
    10030    2    1    2    0    0  0.00000000000E+00  0.00000000000E+00  0.70036126446E+03  0.12994024385E+04  0.10945048179E+04 0.  0.
        2    1    3    3  502    0  0.49714279781E+03 -0.94438835977E+02  0.59755154023E+03  0.78303096899E+03  0.25500000920E-02 0.  1.
       -2    1    3    3    0  502 -0.49714279781E+03  0.94438835977E+02  0.10280972423E+03  0.51637146954E+03  0.25500000920E-02 0. -1.
</event>
<event>
 5   0  0.4504740E-03  0.1064989E+04  0.7818609E-02  0.9240004E-01
        1   -1    0    0  501    0  0.00000000000E+00  0.00000000000E+00  0.11384386544E+04  0.11384386544E+04  0.50400001928E-02 0.  1.
       -1   -1    0    0    0  501  0.00000000000E+00  0.00000000000E+00 -0.24906970203E+03  0.24906970208E+03  0.50400001928E-02 0. -1.
    10030    2    1    2    0    0  0.00000000000E+00  0.00000000000E+00  0.88936895233E+03  0.13875083565E+04  0.10649893454E+04 0.  0.
        5    1    3    3  502    0  0.80825328632E+02  0.49621409692E+03  0.67321025516E+03  0.84023526549E+03  0.46999998093E+01 0.  1.
       -5    1    3    3    0  502 -0.80825328632E+02 -0.49621409692E+03  0.21615869717E+03  0.54727309096E+03  0.46999998093E+01 0. -1.
</event>
<event>
 5   0  0.2992375E-03  0.1094566E+04  0.7818609E-02  0.9210504E-01
       -4   -1    0    0    0  501  0.00000000000E+00  0.00000000000E+00  0.50916723345E+03  0.50916881730E+03  0.12699999809E+01 0. -1.
        4   -1    0    0  501    0  0.00000000000E+00  0.00000000000E+00 -0.58824914007E+03  0.58825051100E+03  0.12699999809E+01 0.  1.
    10030    2    1    2    0    0  0.00000000000E+00  0.00000000000E+00 -0.79081906621E+02  0.10974193283E+04  0.10945662311E+04 0.  0.
        5    1    3    3  502    0  0.45151057751E+02 -0.39812338944E+03  0.33419855006E+03  0.52177735875E+03  0.46999998093E+01 0. -1.
       -5    1    3    3    0  502 -0.45151057751E+02  0.39812338944E+03 -0.41328045669E+03  0.57564196956E+03  0.46999998093E+01 0.  1.
</event>
<event>
 5   0  0.7952121E-03  0.1119667E+04  0.7818609E-02  0.9186232E-01
        2   -1    0    0  501    0  0.00000000000E+00  0.00000000000E+00  0.12950704468E+04  0.12950704468E+04  0.25500000920E-02 0.  1.
       -2   -1    0    0    0  501  0.00000000000E+00  0.00000000000E+00 -0.24200496715E+03  0.24200496717E+03  0.25500000920E-02 0. -1.
    10030    2    1    2    0    0  0.00000000000E+00  0.00000000000E+00  0.10530654796E+04  0.15370754140E+04  0.11196668807E+04 0.  0.
        3    1    3    3  502    0  0.37696520079E+03 -0.13542849122E+03  0.10634523158E+04  0.11363865878E+04  0.10100000352E+00 0.  1.
       -3    1    3    3    0  502 -0.37696520079E+03  0.13542849122E+03 -0.10386836134E+02  0.40068882615E+03  0.10100000352E+00 0. -1.
</event>
<event>
 5   0  0.7712816E-03  0.9831188E+03  0.7818609E-02  0.9327256E-01
       -2   -1    0    0    0  501  0.00000000000E+00  0.00000000000E+00  0.61025485889E+03  0.61025485890E+03  0.25500000920E-02 0. -1.
        2   -1    0    0  501    0  0.00000000000E+00  0.00000000000E+00 -0.39595038546E+03  0.39595038546E+03  0.25500000920E-02 0.  1.
    10030    2    1    2    0    0  0.00000000000E+00  0.00000000000E+00  0.21430447343E+03  0.10062052444E+04  0.98311880586E+03 0.  0.
        2    1    3    3  502    0  0.24779076641E+03 -0.13411226522E+03 -0.30510213910E+03  0.41529950505E+03  0.25500000920E-02 0.  1.
       -2    1    3    3    0  502 -0.24779076641E+03  0.13411226522E+03  0.51940661253E+03  0.59090573931E+03  0.25500000920E-02 0. -1.
</event>
<event>
 5   0  0.7537480E-03  0.1094372E+04  0.7818609E-02  0.9210695E-01
       -2   -1    0    0    0  501  0.00000000000E+00  0.00000000000E+00  0.18084784435E+03  0.18084784437E+03  0.25500000920E-02 0. -1.
        2   -1    0    0  501    0  0.00000000000E+00  0.00000000000E+00 -0.16556039969E+04  0.16556039969E+04  0.25500000920E-02 0.  1.
    10030    2    1    2    0    0  0.00000000000E+00  0.00000000000E+00 -0.14747561526E+04  0.18364518413E+04  0.10943718088E+04 0.  0.
        1    1    3    3  502    0  0.53104407682E+02 -0.39987428991E+03 -0.13578006725E+04  0.14164540911E+04  0.50400001928E-02 0.  1.
       -1    1    3    3    0  502 -0.53104407682E+02  0.39987428991E+03 -0.11695548006E+03  0.41999775021E+03  0.50400001928E-02 0. -1.
</event>
<event>
 5   0  0.4598561E-03  0.1104896E+04  0.7818609E-02  0.9200433E-01
       -1   -1    0    0    0  501  0.00000000000E+00  0.00000000000E+00  0.32723567797E+03  0.32723567801E+03  0.50400001928E-02 0. -1.
        1   -1    0    0  501    0  0.00000000000E+00  0.00000000000E+00 -0.93265766551E+03  0.93265766552E+03  0.50400001928E-02 0.  1.
    10030    2    1    2    0    0  0.00000000000E+00  0.00000000000E+00 -0.60542198754E+03  0.12598933435E+04  0.11048961282E+04 0.  0.
        2    1    3    3  502    0  0.21705260489E+03  0.18000491418E+03  0.23899535857E+03  0.36963817964E+03  0.25500000920E-02 0. -1.
       -2    1    3    3    0  502 -0.21705260489E+03 -0.18000491418E+03 -0.84441734611E+03  0.89025516389E+03  0.25500000920E-02 0.  1.
</event>
<event>
 5   0  0.7738497E-03  0.1101761E+04  0.7818609E-02  0.9203477E-01
       -2   -1    0    0    0  501  0.00000000000E+00  0.00000000000E+00  0.57644463739E+03  0.57644463740E+03  0.25500000920E-02 0. -1.
        2   -1    0    0  501    0  0.00000000000E+00  0.00000000000E+00 -0.52644990711E+03  0.52644990712E+03  0.25500000920E-02 0.  1.
    10030    2    1    2    0    0  0.00000000000E+00  0.00000000000E+00  0.49994730279E+02  0.11028945445E+04  0.11017608194E+04 0.  0.
        4    1    3    3  502    0  0.72571949700E+02  0.33965333918E+03 -0.40303652345E+03  0.53204429405E+03  0.12699999809E+01 0.  1.
       -4    1    3    3    0  502 -0.72571949700E+02 -0.33965333918E+03  0.45303125373E+03  0.57085025046E+03  0.12699999809E+01 0. -1.
</event>
<event>
 5   0  0.4641021E-03  0.1086481E+04  0.7818609E-02  0.9218469E-01
       -1   -1    0    0    0  501  0.00000000000E+00  0.00000000000E+00  0.66261353710E+03  0.66261353712E+03  0.50400001928E-02 0. -1.
        1   -1    0    0  501    0  0.00000000000E+00  0.00000000000E+00 -0.44537312730E+03  0.44537312732E+03  0.50400001928E-02 0.  1.
    10030    2    1    2    0    0  0.00000000000E+00  0.00000000000E+00  0.21724040980E+03  0.11079866644E+04  0.10864810412E+04 0.  0.
        1    1    3    3  502    0 -0.18030240394E+03 -0.20601463738E+03 -0.36987861896E+03  0.46017516281E+03  0.50400001928E-02 0.  1.
       -1    1    3    3    0  502  0.18030240394E+03  0.20601463738E+03  0.58711902876E+03  0.64781150163E+03  0.50400001928E-02 0. -1.
</event>
<event>
 5   0  0.4428114E-03  0.1049682E+04  0.7818609E-02  0.9255672E-01
        1   -1    0    0  501    0  0.00000000000E+00  0.00000000000E+00  0.10168172193E+04  0.10168172193E+04  0.50400001928E-02 0.  1.
       -1   -1    0    0    0  501  0.00000000000E+00  0.00000000000E+00 -0.27090243569E+03  0.27090243573E+03  0.50400001928E-02 0. -1.
    10030    2    1    2    0    0  0.00000000000E+00  0.00000000000E+00  0.74591478362E+03  0.12877196551E+04  0.10496823546E+04 0.  0.
        4    1    3    3  502    0 -0.44743570601E+02 -0.23224583573E+03 -0.20181651688E+03  0.31092062445E+03  0.12699999809E+01 0. -1.
       -4    1    3    3    0  502  0.44743570601E+02  0.23224583573E+03  0.94773130050E+03  0.97679903060E+03  0.12699999809E+01 0.  1.
</event>
<event>
 5   0  0.7952121E-03  0.1137684E+04  0.7818609E-02  0.9169222E-01
       -2   -1    0    0    0  501  0.00000000000E+00  0.00000000000E+00  0.36763539114E+03  0.36763539115E+03  0.25500000920E-02 0. -1.
        2   -1    0    0  501    0  0.00000000000E+00  0.00000000000E+00 -0.88016813435E+03  0.88016813436E+03  0.25500000920E-02 0.  1.
    10030    2    1    2    0    0  0.00000000000E+00  0.00000000000E+00 -0.51253274321E+03  0.12478035255E+04  0.11376835348E+04 0.  0.
        3    1    3    3  502    0 -0.19162808567E+03 -0.50083626528E+03 -0.48099020992E+02  0.53839744971E+03  0.10100000352E+00 0. -1.
       -3    1    3    3    0  502  0.19162808567E+03  0.50083626528E+03 -0.46443372222E+03  0.70940607579E+03  0.10100000352E+00 0.  1.
</event>
<event>
 5   0  0.4504740E-03  0.1096210E+04  0.7818609E-02  0.9208894E-01
        1   -1    0    0  501    0  0.00000000000E+00  0.00000000000E+00  0.87126622926E+03  0.87126622927E+03  0.50400001928E-02 0. -1.
       -1   -1    0    0    0  501  0.00000000000E+00  0.00000000000E+00 -0.34480747563E+03  0.34480747567E+03  0.50400001928E-02 0.  1.
    10030    2    1    2    0    0  0.00000000000E+00  0.00000000000E+00  0.52645875363E+03  0.12160737049E+04  0.10962100331E+04 0.  0.
        5    1    3    3  502    0  0.39002273587E+03 -0.33115330657E+03  0.45230573123E+02  0.51366150498E+03  0.46999998093E+01 0.  1.
       -5    1    3    3    0  502 -0.39002273587E+03  0.33115330657E+03  0.48122818051E+03  0.70241219997E+03  0.46999998093E+01 0. -1.
</event>
<event>
 5   0  0.7952121E-03  0.1108717E+04  0.7818609E-02  0.9196737E-01
       -2   -1    0    0    0  501  0.00000000000E+00  0.00000000000E+00  0.56286721840E+03  0.56286721840E+03  0.25500000920E-02 0.  1.
        2   -1    0    0  501    0  0.00000000000E+00  0.00000000000E+00 -0.54597865497E+03  0.54597865497E+03  0.25500000920E-02 0. -1.
    10030    2    1    2    0    0  0.00000000000E+00  0.00000000000E+00  0.16888563433E+02  0.11088458734E+04  0.11087172531E+04 0.  0.
        3    1    3    3  502    0 -0.20145575573E+03 -0.35706755950E+03 -0.36473679899E+03  0.54873910586E+03  0.10100000352E+00 0. -1.
       -3    1    3    3    0  502  0.20145575573E+03  0.35706755950E+03  0.38162536243E+03  0.56010676751E+03  0.10100000352E+00 0.  1.
</event>
<event>
 5   0  0.4428114E-03  0.1100995E+04  0.7818609E-02  0.9204223E-01
       -1   -1    0    0    0  501  0.00000000000E+00  0.00000000000E+00  0.92199884009E+03  0.92199884011E+03  0.50400001928E-02 0. -1.
        1   -1    0    0  501    0  0.00000000000E+00  0.00000000000E+00 -0.32868539374E+03  0.32868539377E+03  0.50400001928E-02 0.  1.
    10030    2    1    2    0    0  0.00000000000E+00  0.00000000000E+00  0.59331344636E+03  0.12506842339E+04  0.11009950986E+04 0.  0.
        4    1    3    3  502    0 -0.23482953115E+03 -0.43664759287E+03  0.24880311584E+02  0.49641381111E+03  0.12699999809E+01 0.  1.
       -4    1    3    3    0  502  0.23482953115E+03  0.43664759287E+03  0.56843313477E+03  0.75427042277E+03  0.12699999809E+01 0. -1.
</event>
<event>
 5   0  0.4504740E-03  0.1103418E+04  0.7818609E-02  0.9201866E-01
       -1   -1    0    0    0  501  0.00000000000E+00  0.00000000000E+00  0.24812240714E+03  0.24812240719E+03  0.50400001928E-02 0.  1.
        1   -1    0    0  501    0  0.00000000000E+00  0.00000000000E+00 -0.12267454260E+04  0.12267454260E+04  0.50400001928E-02 0. -1.
    10030    2    1    2    0    0  0.00000000000E+00  0.00000000000E+00 -0.97862301882E+03  0.14748678332E+04  0.11034183759E+04 0.  0.
        5    1    3    3  502    0 -0.48205775485E+03 -0.14832882971E+03 -0.19049112243E+03  0.53915682177E+03  0.46999998093E+01 0.  1.
       -5    1    3    3    0  502  0.48205775485E+03  0.14832882971E+03 -0.78813189639E+03  0.93571101139E+03  0.46999998093E+01 0. -1.
</event>
<event>
 5   0  0.7766551E-03  0.1140560E+04  0.7818609E-02  0.9166537E-01
        2   -1    0    0  501    0  0.00000000000E+00  0.00000000000E+00  0.70974560905E+03  0.70974560906E+03  0.25500000920E-02 0. -1.
       -2   -1    0    0    0  501  0.00000000000E+00  0.00000000000E+00 -0.45821964836E+03  0.45821964837E+03  0.25500000920E-02 0.  1.
    10030    2    1    2    0    0  0.00000000000E+00  0.00000000000E+00  0.25152596069E+03  0.11679652574E+04  0.11405601841E+04 0.  0.
        5    1    3    3  502    0  0.29867313626E+03  0.28708517270E+03 -0.27553799830E+03  0.49756086785E+03  0.46999998093E+01 0.  1.
       -5    1    3    3    0  502 -0.29867313626E+03 -0.28708517270E+03  0.52706395899E+03  0.67040438958E+03  0.46999998093E+01 0. -1.
</event>
<event>
 5   0  0.4641021E-03  0.9994004E+03  0.7818609E-02  0.9309203E-01
       -1   -1    0    0    0  501  0.00000000000E+00  0.00000000000E+00  0.31993242419E+03  0.31993242423E+03  0.50400001928E-02 0. -1.
        1   -1    0    0  501    0  0.00000000000E+00  0.00000000000E+00 -0.78047816303E+03  0.78047816304E+03  0.50400001928E-02 0.  1.
    10030    2    1    2    0    0  0.00000000000E+00  0.00000000000E+00 -0.46054573884E+03  0.11004105873E+04  0.99940036173E+03 0.  0.
        1    1    3    3  502    0 -0.19698040043E+03 -0.31695098824E+03  0.13564241302E+03  0.39706179788E+03  0.50400001928E-02 0. -1.
       -1    1    3    3    0  502  0.19698040043E+03  0.31695098824E+03 -0.59618815186E+03  0.70334878939E+03  0.50400001928E-02 0.  1.
</event>
<event>
 5   0  0.7766551E-03  0.1110842E+04  0.7818609E-02  0.9194688E-01
       -2   -1    0    0    0  501  0.00000000000E+00  0.00000000000E+00  0.60839900575E+03  0.60839900576E+03  0.25500000920E-02 0.  1.
        2   -1    0    0  501    0  0.00000000000E+00  0.00000000000E+00 -0.50705637731E+03  0.50705637732E+03  0.25500000920E-02 0. -1.
    10030    2    1    2    0    0  0.00000000000E+00  0.00000000000E+00  0.10134262844E+03  0.11154553831E+04  0.11108421955E+04 0.  0.
        5    1    3    3  502    0 -0.16919570662E+03 -0.87627396389E+02  0.57453196725E+03  0.60532207883E+03  0.46999998093E+01 0.  1.
       -5    1    3    3    0  502  0.16919570662E+03  0.87627396389E+02 -0.47318933881E+03  0.51013330424E+03  0.46999998093E+01 0. -1.
</event>
<event>
 5   0  0.4598561E-03  0.9779097E+03  0.7818609E-02  0.9333110E-01
        1   -1    0    0  501    0  0.00000000000E+00  0.00000000000E+00  0.66338199275E+03  0.66338199277E+03  0.50400001928E-02 0.  1.
       -1   -1    0    0    0  501  0.00000000000E+00  0.00000000000E+00 -0.36039090499E+03  0.36039090502E+03  0.50400001928E-02 0. -1.
    10030    2    1    2    0    0  0.00000000000E+00  0.00000000000E+00  0.30299108776E+03  0.10237728978E+04  0.97790968243E+03 0.  0.
        2    1    3    3  502    0  0.29760526006E+03  0.10567324203E+03  0.54228651211E+03  0.62754313487E+03  0.25500000920E-02 0.  1.
       -2    1    3    3    0  502 -0.29760526006E+03 -0.10567324203E+03 -0.23929542436E+03  0.39622976292E+03  0.25500000920E-02 0. -1.
</event>
<event>
 5   0  0.4298101E-03  0.1093281E+04  0.7818609E-02  0.9211766E-01
       -1   -1    0    0    0  501  0.00000000000E+00  0.00000000000E+00  0.83929576137E+03  0.83929576139E+03  0.50400001928E-02 0. -1.
        1   -1    0    0  501    0  0.00000000000E+00  0.00000000000E+00 -0.35603140627E+03  0.35603140631E+03  0.50400001928E-02 0.  1.
    10030    2    1    2    0    0  0.00000000000E+00  0.00000000000E+00  0.48326435510E+03  0.11953271677E+04  0.10932806597E+04 0.  0.
        3    1    3    3  502    0 -0.41252361551E+02  0.76104435855E+02 -0.34848976658E+03  0.35908045074E+03  0.10100000352E+00 0.  1.
       -3    1    3    3    0  502  0.41252361551E+02 -0.76104435855E+02  0.83175412168E+03  0.83624671696E+03  0.10100000352E+00 0. -1.
</event>
<event>
 5   0  0.2992375E-03  0.9783319E+03  0.7818609E-02  0.9332635E-01
        3   -1    0    0  501    0  0.00000000000E+00  0.00000000000E+00  0.22838304815E+03  0.22838307048E+03  0.10100000352E+00 0.  1.
       -3   -1    0    0    0  501  0.00000000000E+00  0.00000000000E+00 -0.10477278926E+04  0.10477278975E+04  0.10100000352E+00 0. -1.
    10030    2    1    2    0    0  0.00000000000E+00  0.00000000000E+00 -0.81934484445E+03  0.12761109680E+04  0.97833186006E+03 0.  0.
        5    1    3    3  502    0  0.35309667891E+03  0.13595032263E+03 -0.53133025653E+01  0.37843107174E+03  0.46999998093E+01 0.  1.
       -5    1    3    3    0  502 -0.35309667891E+03 -0.13595032263E+03 -0.81403154189E+03  0.89767989621E+03  0.46999998093E+01 0. -1.
</event>
<event>
 5   0  0.4504740E-03  0.1056267E+04  0.7818609E-02  0.9248897E-01
       -1   -1    0    0    0  501  0.00000000000E+00  0.00000000000E+00  0.11589205833E+04  0.11589205833E+04  0.50400001928E-02 0. -1.
        1   -1    0    0  501    0  0.00000000000E+00  0.00000000000E+00 -0.24067674882E+03  0.24067674888E+03  0.50400001928E-02 0.  1.
    10030    2    1    2    0    0  0.00000000000E+00  0.00000000000E+00  0.91824383448E+03  0.13995973322E+04  0.10562674627E+04 0.  0.
        5    1    3    3  502    0  0.37538383844E+03  0.13317626714E+02  0.95101863393E+03  0.10225208641E+04  0.46999998093E+01 0. -1.
       -5    1    3    3    0  502 -0.37538383844E+03 -0.13317626714E+02 -0.32774799450E+02  0.37707646814E+03  0.46999998093E+01 0.  1.
</event>
<event>
 5   0  0.7712816E-03  0.1095057E+04  0.7818609E-02  0.9210023E-01
        2   -1    0    0  501    0  0.00000000000E+00  0.00000000000E+00  0.37647524884E+03  0.37647524885E+03  0.25500000920E-02 0. -1.
       -2   -1    0    0    0  501  0.00000000000E+00  0.00000000000E+00 -0.79630120045E+03  0.79630120045E+03  0.25500000920E-02 0.  1.
    10030    2    1    2    0    0  0.00000000000E+00  0.00000000000E+00 -0.41982595161E+03  0.11727764493E+04  0.10950574279E+04 0.  0.
        2    1    3    3  502    0  0.34384825127E+03  0.40152091840E+03 -0.57183785360E+02  0.53171482312E+03  0.25500000920E-02 0. -1.
       -2    1    3    3    0  502 -0.34384825127E+03 -0.40152091840E+03 -0.36264216625E+03  0.64106162618E+03  0.25500000920E-02 0.  1.
</event>
<event>
 5   0  0.7537480E-03  0.1097862E+04  0.7818609E-02  0.9207278E-01
       -2   -1    0    0    0  501  0.00000000000E+00  0.00000000000E+00  0.99411606270E+03  0.99411606270E+03  0.25500000920E-02 0.  1.
        2   -1    0    0  501    0  0.00000000000E+00  0.00000000000E+00 -0.30310876926E+03  0.30310876927E+03  0.25500000920E-02 0. -1.
    10030    2    1    2    0    0  0.00000000000E+00  0.00000000000E+00  0.69100729344E+03  0.12972248320E+04  0.10978620975E+04 0.  0.
        1    1    3    3  502    0  0.27869872763E+03 -0.64774027115E+02 -0.20802719682E+03  0.35375693635E+03  0.50400001928E-02 0. -1.
       -1    1    3    3    0  502 -0.27869872763E+03  0.64774027115E+02  0.89903449026E+03  0.94346789562E+03  0.50400001928E-02 0.  1.
</event>
<event>
 5   0  0.4641021E-03  0.1105620E+04  0.7818609E-02  0.9199731E-01
       -1   -1    0    0    0  501  0.00000000000E+00  0.00000000000E+00  0.11422649245E+04  0.11422649246E+04  0.50400001928E-02 0. -1.
        1   -1    0    0  501    0  0.00000000000E+00  0.00000000000E+00 -0.26753781181E+03  0.26753781186E+03  0.50400001928E-02 0.  1.
    10030    2    1    2    0    0  0.00000000000E+00  0.00000000000E+00  0.87472711274E+03  0.14098027364E+04  0.11056202937E+04 0.  0.
        1    1    3    3  502    0 -0.48185875521E+03 -0.88667304326E+02  0.76382838656E+03  0.90745994676E+03  0.50400001928E-02 0. -1.
       -1    1    3    3    0  502  0.48185875521E+03  0.88667304326E+02  0.11089872618E+03  0.50234278966E+03  0.50400001928E-02 0.  1.
</event>
<event>
 5   0  0.4298101E-03  0.1070891E+04  0.7818609E-02  0.9234037E-01
       -1   -1    0    0    0  501  0.00000000000E+00  0.00000000000E+00  0.98659141879E+03  0.98659141880E+03  0.50400001928E-02 0.  1.
        1   -1    0    0  501    0  0.00000000000E+00  0.00000000000E+00 -0.29059830380E+03  0.29059830384E+03  0.50400001928E-02 0. -1.
    10030    2    1    2    0    0  0.00000000000E+00  0.00000000000E+00  0.69599311498E+03  0.12771897226E+04  0.10708908308E+04 0.  0.
        3    1    3    3  502    0  0.39098135275E+03 -0.29748894879E+03  0.94057017065E+02  0.50021278024E+03  0.10100000352E+00 0. -1.
       -3    1    3    3    0  502 -0.39098135275E+03  0.29748894879E+03  0.60193609792E+03  0.77697694241E+03  0.10100000352E+00 0.  1.
</event>
<event>
 5   0  0.4298101E-03  0.1111023E+04  0.7818609E-02  0.9194514E-01
        1   -1    0    0  501    0  0.00000000000E+00  0.00000000000E+00  0.68131435686E+03  0.68131435688E+03  0.50400001928E-02 0.  1.
       -1   -1    0    0    0  501  0.00000000000E+00  0.00000000000E+00 -0.45293766941E+03  0.45293766944E+03  0.50400001928E-02 0. -1.
    10030    2    1    2    0    0  0.00000000000E+00  0.00000000000E+00  0.22837668745E+03  0.11342520263E+04  0.11110228386E+04 0.  0.
        3    1    3    3  502    0 -0.16372863833E+03 -0.24792154077E+03  0.59338557158E+03  0.66361028032E+03  0.10100000352E+00 0.  1.
       -3    1    3    3    0  502  0.16372863833E+03  0.24792154077E+03 -0.36500888413E+03  0.47064174600E+03  0.10100000352E+00 0. -1.
</event>
<event>
 5   0  0.4598561E-03  0.1105570E+04  0.7818609E-02  0.9199780E-01
        1   -1    0    0  501    0  0.00000000000E+00  0.00000000000E+00  0.10369418313E+04  0.10369418313E+04  0.50400001928E-02 0.  1.
       -1   -1    0    0    0  501  0.00000000000E+00  0.00000000000E+00 -0.29468497026E+03  0.29468497030E+03  0.50400001928E-02 0. -1.
    10030    2    1    2    0    0  0.00000000000E+00  0.00000000000E+00  0.74225686104E+03  0.13316268016E+04  0.11055698490E+04 0.  0.
        2    1    3    3  502    0 -0.46284979517E+02 -0.25672413455E+03  0.95814166043E+03  0.99301813782E+03  0.25500000920E-02 0.  1.
       -2    1    3    3    0  502  0.46284979517E+02  0.25672413455E+03 -0.21588479938E+03  0.33860866380E+03  0.25500000920E-02 0. -1.
</event>
<event>
 5   0  0.7537480E-03  0.1112766E+04  0.7818609E-02  0.9192837E-01
        2   -1    0    0  501    0  0.00000000000E+00  0.00000000000E+00  0.19754169399E+04  0.19754169399E+04  0.25500000920E-02 0.  1.
       -2   -1    0    0    0  501  0.00000000000E+00  0.00000000000E+00 -0.15670731893E+03  0.15670731895E+03  0.25500000920E-02 0. -1.
    10030    2    1    2    0    0  0.00000000000E+00  0.00000000000E+00  0.18187096210E+04  0.21321242588E+04  0.11127664489E+04 0.  0.
        1    1    3    3  502    0 -0.21799548325E+03 -0.30554422649E+02 -0.69723630337E+02  0.23090471653E+03  0.50400001928E-02 0. -1.
       -1    1    3    3    0  502  0.21799548325E+03  0.30554422649E+02  0.18884332513E+04  0.19012195423E+04  0.50400001928E-02 0.  1.
</event>
<event>
 5   0  0.7952121E-03  0.1095658E+04  0.7818609E-02  0.9209435E-01
        2   -1    0    0  501    0  0.00000000000E+00  0.00000000000E+00  0.44857135819E+03  0.44857135820E+03  0.25500000920E-02 0. -1.
       -2   -1    0    0    0  501  0.00000000000E+00  0.00000000000E+00 -0.66904951009E+03  0.66904951009E+03  0.25500000920E-02 0.  1.
    10030    2    1    2    0    0  0.00000000000E+00  0.00000000000E+00 -0.22047815190E+03  0.11176208683E+04  0.10956576974E+04 0.  0.
        3    1    3    3  502    0 -0.45366369784E+03 -0.21735570701E+03 -0.33152594442E+03  0.60246470115E+03  0.10100000352E+00 0.  1.
       -3    1    3    3    0  502  0.45366369784E+03  0.21735570701E+03  0.11104779253E+03  0.51515616713E+03  0.10100000352E+00 0. -1.
</event>
<event>
 5   0  0.4298101E-03  0.1188366E+04  0.7818609E-02  0.9123101E-01
        1   -1    0    0  501    0  0.00000000000E+00  0.00000000000E+00  0.13587629836E+04  0.13587629836E+04  0.50400001928E-02 0.  1.
       -1   -1    0    0    0  501  0.00000000000E+00  0.00000000000E+00 -0.25983463053E+03  0.25983463058E+03  0.50400001928E-02 0. -1.
    10030    2    1    2    0    0  0.00000000000E+00  0.00000000000E+00  0.10989283531E+04  0.16185976142E+04  0.11883664046E+04 0.  0.
        3    1    3    3  502    0  0.18067793197E+03 -0.98201192372E+02  0.13087495859E+04  0.13248069588E+04  0.10100000352E+00 0.  1.
       -3    1    3    3    0  502 -0.18067793197E+03  0.98201192372E+02 -0.20982123279E+03  0.29379065543E+03  0.10100000352E+00 0. -1.
</event>
<event>
 5   0  0.7738497E-03  0.1099481E+04  0.7818609E-02  0.9205698E-01
        2   -1    0    0  501    0  0.00000000000E+00  0.00000000000E+00  0.23700981136E+04  0.23700981136E+04  0.25500000920E-02 0.  1.
       -2   -1    0    0    0  501  0.00000000000E+00  0.00000000000E+00 -0.12751146219E+03  0.12751146221E+03  0.25500000920E-02 0. -1.
    10030    2    1    2    0    0  0.00000000000E+00  0.00000000000E+00  0.22425866514E+04  0.24976095758E+04  0.10994811068E+04 0.  0.
        4    1    3    3  502    0 -0.48903640203E+03 -0.14261342543E+02  0.16908016073E+04  0.17601624006E+04  0.12699999809E+01 0.  1.
       -4    1    3    3    0  502  0.48903640203E+03  0.14261342543E+02  0.55178504413E+03  0.73744717522E+03  0.12699999809E+01 0. -1.
</event>
<event>
 5   0  0.4298101E-03  0.1080759E+04  0.7818609E-02  0.9224151E-01
        1   -1    0    0  501    0  0.00000000000E+00  0.00000000000E+00  0.76119761791E+03  0.76119761792E+03  0.50400001928E-02 0.  1.
       -1   -1    0    0    0  501  0.00000000000E+00  0.00000000000E+00 -0.38361911699E+03  0.38361911702E+03  0.50400001928E-02 0. -1.
    10030    2    1    2    0    0  0.00000000000E+00  0.00000000000E+00  0.37757850092E+03  0.11448167349E+04  0.10807589150E+04 0.  0.
        3    1    3    3  502    0  0.26425069337E+03 -0.45520491250E+03  0.31839317058E+03  0.61515377150E+03  0.10100000352E+00 0. -1.
       -3    1    3    3    0  502 -0.26425069337E+03  0.45520491250E+03  0.59185330336E+02  0.52966296344E+03  0.10100000352E+00 0.  1.
</event>
<event>
 5   0  0.4298101E-03  0.1080454E+04  0.7818609E-02  0.9224455E-01
        1   -1    0    0  501    0  0.00000000000E+00  0.00000000000E+00  0.94980756958E+03  0.94980756960E+03  0.50400001928E-02 0. -1.
       -1   -1    0    0    0  501  0.00000000000E+00  0.00000000000E+00 -0.30726784283E+03  0.30726784287E+03  0.50400001928E-02 0.  1.
    10030    2    1    2    0    0  0.00000000000E+00  0.00000000000E+00  0.64253972675E+03  0.12570754125E+04  0.10804542064E+04 0.  0.
        3    1    3    3  502    0  0.19506953817E+03  0.29703017436E+03  0.79468363933E+03  0.87051774596E+03  0.10100000352E+00 0. -1.
       -3    1    3    3    0  502 -0.19506953817E+03 -0.29703017436E+03 -0.15214391258E+03  0.38655766651E+03  0.10100000352E+00 0.  1.
</event>
<event>
 5   0  0.7766551E-03  0.1125287E+04  0.7818609E-02  0.9180890E-01
       -2   -1    0    0    0  501  0.00000000000E+00  0.00000000000E+00  0.30367615250E+03  0.30367615251E+03  0.25500000920E-02 0. -1.
        2   -1    0    0  501    0  0.00000000000E+00  0.00000000000E+00 -0.10424522943E+04  0.10424522943E+04  0.25500000920E-02 0.  1.
    10030    2    1    2    0    0  0.00000000000E+00  0.00000000000E+00 -0.73877614182E+03  0.13461284468E+04  0.11252873445E+04 0.  0.
        5    1    3    3  502    0 -0.20476796989E+03 -0.22499583517E+03 -0.93554921782E+03  0.98378223012E+03  0.46999998093E+01 0.  1.
       -5    1    3    3    0  502  0.20476796989E+03  0.22499583517E+03  0.19677307600E+03  0.36234621672E+03  0.46999998093E+01 0. -1.
</event>
<event>
 5   0  0.4428114E-03  0.1071963E+04  0.7818609E-02  0.9232957E-01
       -1   -1    0    0    0  501  0.00000000000E+00  0.00000000000E+00  0.76039528697E+03  0.76039528699E+03  0.50400001928E-02 0.  1.
        1   -1    0    0  501    0  0.00000000000E+00  0.00000000000E+00 -0.37779873852E+03  0.37779873856E+03  0.50400001928E-02 0. -1.
    10030    2    1    2    0    0  0.00000000000E+00  0.00000000000E+00  0.38259654845E+03  0.11381940255E+04  0.10719633953E+04 0.  0.
        4    1    3    3  502    0 -0.26088777287E+03  0.34147846240E+02 -0.30450645945E+03  0.40243546338E+03  0.12699999809E+01 0. -1.
       -4    1    3    3    0  502  0.26088777287E+03 -0.34147846240E+02  0.68710300790E+03  0.73575856216E+03  0.12699999809E+01 0.  1.
</event>
<event>
 5   0  0.4298101E-03  0.1091190E+04  0.7818609E-02  0.9213821E-01
       -1   -1    0    0    0  501  0.00000000000E+00  0.00000000000E+00  0.32751284783E+03  0.32751284787E+03  0.50400001928E-02 0.  1.
        1   -1    0    0  501    0  0.00000000000E+00  0.00000000000E+00 -0.90889284955E+03  0.90889284956E+03  0.50400001928E-02 0. -1.
    10030    2    1    2    0    0  0.00000000000E+00  0.00000000000E+00 -0.58138000172E+03  0.12364056974E+04  0.10911903327E+04 0.  0.
        3    1    3    3  502    0 -0.53137917295E+03  0.26307220591E+02 -0.42768576570E+03  0.68262069972E+03  0.10100000352E+00 0. -1.
       -3    1    3    3    0  502  0.53137917295E+03 -0.26307220591E+02 -0.15369423602E+03  0.55378499771E+03  0.10100000352E+00 0.  1.
</event>
<event>
 5   0  0.7712816E-03  0.1103716E+04  0.7818609E-02  0.9201577E-01
        2   -1    0    0  501    0  0.00000000000E+00  0.00000000000E+00  0.74582375442E+03  0.74582375442E+03  0.25500000920E-02 0. -1.
       -2   -1    0    0    0  501  0.00000000000E+00  0.00000000000E+00 -0.40833690860E+03  0.40833690861E+03  0.25500000920E-02 0.  1.
    10030    2    1    2    0    0  0.00000000000E+00  0.00000000000E+00  0.33748684582E+03  0.11541606630E+04  0.11037162067E+04 0.  0.
        2    1    3    3  502    0  0.46191775841E+03  0.50307656839E+02  0.48009030483E+03  0.66812092967E+03  0.25500000920E-02 0. -1.
       -2    1    3    3    0  502 -0.46191775841E+03 -0.50307656839E+02 -0.14260345900E+03  0.48603973336E+03  0.25500000920E-02 0.  1.
</event>
<event>
 5   0  0.4428114E-03  0.1066457E+04  0.7818609E-02  0.9238517E-01
       -1   -1    0    0    0  501  0.00000000000E+00  0.00000000000E+00  0.33978882635E+03  0.33978882639E+03  0.50400001928E-02 0.  1.
        1   -1    0    0  501    0  0.00000000000E+00  0.00000000000E+00 -0.83679162106E+03  0.83679162107E+03  0.50400001928E-02 0. -1.
    10030    2    1    2    0    0  0.00000000000E+00  0.00000000000E+00 -0.49700279471E+03  0.11765804475E+04  0.10664566430E+04 0.  0.
        4    1    3    3  502    0 -0.11358242055E+03  0.28283942311E+03  0.23420758340E+03  0.38438770863E+03  0.12699999809E+01 0.  1.
       -4    1    3    3    0  502  0.11358242055E+03 -0.28283942311E+03 -0.73121037810E+03  0.79219273884E+03  0.12699999809E+01 0. -1.
</event>
<event>
 5   0  0.7537480E-03  0.1127817E+04  0.7818609E-02  0.9178495E-01
        2   -1    0    0  501    0  0.00000000000E+00  0.00000000000E+00  0.33550355674E+03  0.33550355675E+03  0.25500000920E-02 0. -1.
       -2   -1    0    0    0  501  0.00000000000E+00  0.00000000000E+00 -0.94780831905E+03  0.94780831906E+03  0.25500000920E-02 0.  1.
    10030    2    1    2    0    0  0.00000000000E+00  0.00000000000E+00 -0.61230476232E+03  0.12833118758E+04  0.11278174713E+04 0.  0.
        1    1    3    3  502    0  0.29512757839E+03 -0.45808438769E+03 -0.47124763638E+03  0.72042760121E+03  0.50400001928E-02 0.  1.
       -1    1    3    3    0  502 -0.29512757839E+03  0.45808438769E+03 -0.14105712594E+03  0.56288427459E+03  0.50400001928E-02 0. -1.
</event>
<event>
 5   0  0.2992375E-03  0.1095812E+04  0.7818609E-02  0.9209284E-01
       -4   -1    0    0    0  501  0.00000000000E+00  0.00000000000E+00  0.17475161570E+03  0.17475623048E+03  0.12699999809E+01 0. -1.
        4   -1    0    0  501    0  0.00000000000E+00  0.00000000000E+00 -0.17178440834E+04  0.17178445529E+04  0.12699999809E+01 0.  1.
    10030    2    1    2    0    0  0.00000000000E+00  0.00000000000E+00 -0.15430924677E+04  0.18926007833E+04  0.10958117362E+04 0.  0.
        5    1    3    3  502    0  0.52427301345E+03 -0.58227001898E+02 -0.10272896696E+04  0.11548154535E+04  0.46999998093E+01 0.  1.
       -5    1    3    3    0  502 -0.52427301345E+03  0.58227001898E+02 -0.51580279807E+03  0.73778532981E+03  0.46999998093E+01 0. -1.
</event>
<event>
 5   0  0.4428114E-03  0.1075797E+04  0.7818609E-02  0.9229108E-01
        1   -1    0    0  501    0  0.00000000000E+00  0.00000000000E+00  0.71899116172E+03  0.71899116174E+03  0.50400001928E-02 0. -1.
       -1   -1    0    0    0  501  0.00000000000E+00  0.00000000000E+00 -0.40241781045E+03  0.40241781048E+03  0.50400001928E-02 0.  1.
    10030    2    1    2    0    0  0.00000000000E+00  0.00000000000E+00  0.31657335128E+03  0.11214089722E+04  0.10757970981E+04 0.  0.
        4    1    3    3  502    0 -0.64346611873E+01  0.46316884834E+03 -0.12674100310E+03  0.48024127447E+03  0.12699999809E+01 0.  1.
       -4    1    3    3    0  502  0.64346611873E+01 -0.46316884834E+03  0.44331435438E+03  0.64116769775E+03  0.12699999809E+01 0. -1.
</event>
<event>
 5   0  0.7952121E-03  0.1105011E+04  0.7818609E-02  0.9200321E-01
       -2   -1    0    0    0  501  0.00000000000E+00  0.00000000000E+00  0.37675041650E+03  0.37675041651E+03  0.25500000920E-02 0.  1.
        2   -1    0    0  501    0  0.00000000000E+00  0.00000000000E+00 -0.81025129582E+03  0.81025129582E+03  0.25500000920E-02 0. -1.
    10030    2    1    2    0    0  0.00000000000E+00  0.00000000000E+00 -0.43350087932E+03  0.11870017123E+04  0.11050113360E+04 0.  0.
        3    1    3    3  502    0  0.25159229196E+03 -0.46674870586E+03 -0.38354366941E+03  0.65441484728E+03  0.10100000352E+00 0. -1.
       -3    1    3    3    0  502 -0.25159229196E+03  0.46674870586E+03 -0.49957209908E+02  0.53258686505E+03  0.10100000352E+00 0.  1.
</event>
<event>
 5   0  0.4298101E-03  0.1102380E+04  0.7818609E-02  0.9202876E-01
       -1   -1    0    0    0  501  0.00000000000E+00  0.00000000000E+00  0.28172425627E+03  0.28172425632E+03  0.50400001928E-02 0. -1.
        1   -1    0    0  501    0  0.00000000000E+00  0.00000000000E+00 -0.10783954441E+04  0.10783954441E+04  0.50400001928E-02 0.  1.
    10030    2    1    2    0    0  0.00000000000E+00  0.00000000000E+00 -0.79667118783E+03  0.13601197004E+04  0.11023795254E+04 0.  0.
        3    1    3    3  502    0  0.50961943265E+03 -0.15662778593E+03 -0.22575336560E+03  0.57897221154E+03  0.10100000352E+00 0. -1.
       -3    1    3    3    0  502 -0.50961943265E+03  0.15662778593E+03 -0.57091782223E+03  0.78114748889E+03  0.10100000352E+00 0.  1.
</event>
<event>
 5   0  0.7712816E-03  0.1104077E+04  0.7818609E-02  0.9201227E-01
        2   -1    0    0  501    0  0.00000000000E+00  0.00000000000E+00  0.68144983213E+03  0.68144983213E+03  0.25500000920E-02 0.  1.
       -2   -1    0    0    0  501  0.00000000000E+00  0.00000000000E+00 -0.44720298840E+03  0.44720298841E+03  0.25500000920E-02 0. -1.
    10030    2    1    2    0    0  0.00000000000E+00  0.00000000000E+00  0.23424684373E+03  0.11286528205E+04  0.11040768114E+04 0.  0.
        2    1    3    3  502    0  0.24804508847E+03 -0.48845167517E+03  0.18671966347E+03  0.57877079887E+03  0.25500000920E-02 0. -1.
       -2    1    3    3    0  502 -0.24804508847E+03  0.48845167517E+03  0.47527180253E+02  0.54988202167E+03  0.25500000920E-02 0.  1.
</event>
<event>
 5   0  0.7952121E-03  0.1151096E+04  0.7818609E-02  0.9156773E-01
       -2   -1    0    0    0  501  0.00000000000E+00  0.00000000000E+00  0.34418869682E+03  0.34418869683E+03  0.25500000920E-02 0.  1.
        2   -1    0    0  501    0  0.00000000000E+00  0.00000000000E+00 -0.96242344019E+03  0.96242344020E+03  0.25500000920E-02 0. -1.
    10030    2    1    2    0    0  0.00000000000E+00  0.00000000000E+00 -0.61823474337E+03  0.13066121370E+04  0.11510955993E+04 0.  0.
        3    1    3    3  502    0 -0.26183669740E+03  0.89846899825E+02  0.26365920678E+03  0.38229191599E+03  0.10100000352E+00 0.  1.
       -3    1    3    3    0  502  0.26183669740E+03 -0.89846899825E+02 -0.88189395014E+03  0.92432022104E+03  0.10100000352E+00 0. -1.
</event>
<event>
 5   0  0.7712816E-03  0.1128568E+04  0.7818609E-02  0.9177786E-01
        2   -1    0    0  501    0  0.00000000000E+00  0.00000000000E+00  0.60485382336E+03  0.60485382336E+03  0.25500000920E-02 0.  1.
       -2   -1    0    0    0  501  0.00000000000E+00  0.00000000000E+00 -0.52643525063E+03  0.52643525064E+03  0.25500000920E-02 0. -1.
    10030    2    1    2    0    0  0.00000000000E+00  0.00000000000E+00  0.78418572725E+02  0.11312890740E+04  0.11285678962E+04 0.  0.
        2    1    3    3  502    0 -0.15884626064E+02 -0.51541983956E+03  0.26890463180E+03  0.58156653392E+03  0.25500000920E-02 0.  1.
       -2    1    3    3    0  502  0.15884626064E+02  0.51541983956E+03 -0.19048605908E+03  0.54972254008E+03  0.25500000920E-02 0. -1.
</event>
<event>
 5   0  0.7712816E-03  0.1061242E+04  0.7818609E-02  0.9243813E-01
        2   -1    0    0  501    0  0.00000000000E+00  0.00000000000E+00  0.14081190067E+04  0.14081190067E+04  0.25500000920E-02 0. -1.
       -2   -1    0    0    0  501  0.00000000000E+00  0.00000000000E+00 -0.19995385239E+03  0.19995385241E+03  0.25500000920E-02 0.  1.
    10030    2    1    2    0    0  0.00000000000E+00  0.00000000000E+00  0.12081651543E+04  0.16080728592E+04  0.10612423287E+04 0.  0.
        2    1    3    3  502    0 -0.31707355261E+03 -0.37253575409E+03  0.91550840336E+03  0.10380145290E+04  0.25500000920E-02 0. -1.
       -2    1    3    3    0  502  0.31707355261E+03  0.37253575409E+03  0.29265675098E+03  0.57005833012E+03  0.25500000920E-02 0.  1.
</event>
<event>
 5   0  0.4504740E-03  0.1248372E+04  0.7818609E-02  0.9071539E-01
        1   -1    0    0  501    0  0.00000000000E+00  0.00000000000E+00  0.16864332009E+04  0.16864332009E+04  0.50400001928E-02 0.  1.
       -1   -1    0    0    0  501  0.00000000000E+00  0.00000000000E+00 -0.23102505665E+03  0.23102505670E+03  0.50400001928E-02 0. -1.
    10030    2    1    2    0    0  0.00000000000E+00  0.00000000000E+00  0.14554081443E+04  0.19174582576E+04  0.12483722615E+04 0.  0.
        5    1    3    3  502    0 -0.39186604101E+03  0.35113561471E+03  0.21199647427E+03  0.56729164379E+03  0.46999998093E+01 0. -1.
       -5    1    3    3    0  502  0.39186604101E+03 -0.35113561471E+03  0.12434116700E+04  0.13501666138E+04  0.46999998093E+01 0.  1.
</event>
<event>
 5   0  0.4428114E-03  0.1174928E+04  0.7818609E-02  0.9135089E-01
        1   -1    0    0  501    0  0.00000000000E+00  0.00000000000E+00  0.87013803386E+03  0.87013803388E+03  0.50400001928E-02 0. -1.
       -1   -1    0    0    0  501  0.00000000000E+00  0.00000000000E+00 -0.39661984359E+03  0.39661984362E+03  0.50400001928E-02 0.  1.
    10030    2    1    2    0    0  0.00000000000E+00  0.00000000000E+00  0.47351819027E+03  0.12667578775E+04  0.11749281015E+04 0.  0.
        4    1    3    3  502    0 -0.87836296134E+02 -0.31579245241E+03 -0.28886058325E+03  0.43690060354E+03  0.12699999809E+01 0.  1.
       -4    1    3    3    0  502  0.87836296134E+02  0.31579245241E+03  0.76237877353E+03  0.82985727396E+03  0.12699999809E+01 0. -1.
</event>
<event>
 5   0  0.7712816E-03  0.1091869E+04  0.7818609E-02  0.9213153E-01
       -2   -1    0    0    0  501  0.00000000000E+00  0.00000000000E+00  0.13720209437E+04  0.13720209437E+04  0.25500000920E-02 0. -1.
        2   -1    0    0  501    0  0.00000000000E+00  0.00000000000E+00 -0.21723024135E+03  0.21723024137E+03  0.25500000920E-02 0.  1.
    10030    2    1    2    0    0  0.00000000000E+00  0.00000000000E+00  0.11547907024E+04  0.15892511851E+04  0.10918689312E+04 0.  0.
        2    1    3    3  502    0 -0.53756719225E+03  0.29802122550E+02  0.44576987332E+03  0.69898314190E+03  0.25500000920E-02 0.  1.
       -2    1    3    3    0  502  0.53756719225E+03 -0.29802122550E+02  0.70902082905E+03  0.89026804319E+03  0.25500000920E-02 0. -1.
</event>
<event>
 5   0  0.7712816E-03  0.1080788E+04  0.7818609E-02  0.9224122E-01
        2   -1    0    0  501    0  0.00000000000E+00  0.00000000000E+00  0.47551119658E+03  0.47551119658E+03  0.25500000920E-02 0. -1.
       -2   -1    0    0    0  501  0.00000000000E+00  0.00000000000E+00 -0.61413049788E+03  0.61413049789E+03  0.25500000920E-02 0.  1.
    10030    2    1    2    0    0  0.00000000000E+00  0.00000000000E+00 -0.13861930131E+03  0.10896416945E+04  0.10807884676E+04 0.  0.
        2    1    3    3  502    0  0.75302306822E+02  0.49380271528E+03  0.13856947385E+03  0.51837540270E+03  0.25500000920E-02 0. -1.
       -2    1    3    3    0  502 -0.75302306822E+02 -0.49380271528E+03 -0.27718877516E+03  0.57126629177E+03  0.25500000920E-02 0.  1.
</event>
<event>
 5   0  0.2992375E-03  0.1179822E+04  0.7818609E-02  0.9130704E-01
        3   -1    0    0  501    0  0.00000000000E+00  0.00000000000E+00  0.15002196304E+03  0.15002199704E+03  0.10100000352E+00 0.  1.
       -3   -1    0    0    0  501  0.00000000000E+00  0.00000000000E+00 -0.23196265065E+04  0.23196265087E+04  0.10100000352E+00 0. -1.
    10030    2    1    2    0    0  0.00000000000E+00  0.00000000000E+00 -0.21696045434E+04  0.24696485057E+04  0.11798219641E+04 0.  0.
        4    1    3    3  502    0  0.11836741637E+02  0.16381244412E+03  0.10119544968E+03  0.19291645145E+03  0.12699999809E+01 0.  1.
       -4    1    3    3    0  502 -0.11836741637E+02 -0.16381244412E+03 -0.22707999931E+04  0.22767320543E+04  0.12699999809E+01 0. -1.
</event>
<event>
 5   0  0.7952121E-03  0.1102190E+04  0.7818609E-02  0.9203060E-01
       -2   -1    0    0    0  501  0.00000000000E+00  0.00000000000E+00  0.19822595324E+03  0.19822595326E+03  0.25500000920E-02 0. -1.
        2   -1    0    0  501    0  0.00000000000E+00  0.00000000000E+00 -0.15321190185E+04  0.15321190185E+04  0.25500000920E-02 0.  1.
    10030    2    1    2    0    0  0.00000000000E+00  0.00000000000E+00 -0.13338930652E+04  0.17303449717E+04  0.11021900978E+04 0.  0.
        3    1    3    3  502    0 -0.32194499466E+03 -0.44138764463E+03 -0.55336764102E+03  0.77761647922E+03  0.10100000352E+00 0.  1.
       -3    1    3    3    0  502  0.32194499466E+03  0.44138764463E+03 -0.78052542421E+03  0.95272849252E+03  0.10100000352E+00 0. -1.
</event>
<event>
 5   0  0.2992375E-03  0.1053850E+04  0.7818609E-02  0.9251378E-01
       -4   -1    0    0    0  501  0.00000000000E+00  0.00000000000E+00  0.55721858304E+03  0.55722003031E+03  0.12699999809E+01 0.  1.
        4   -1    0    0  501    0  0.00000000000E+00  0.00000000000E+00 -0.49827586791E+03  0.49827748639E+03  0.12699999809E+01 0. -1.
    10030    2    1    2    0    0  0.00000000000E+00  0.00000000000E+00  0.58942715128E+02  0.10554975167E+04  0.10538504467E+04 0.  0.
        1    1    3    3  502    0 -0.15098420937E+03  0.48486167878E+03  0.17027240887E+03  0.53561158713E+03  0.50400001928E-02 0.  1.
       -1    1    3    3    0  502  0.15098420937E+03 -0.48486167878E+03 -0.11132969374E+03  0.51988592956E+03  0.50400001928E-02 0. -1.
</event>
<event>
 5   0  0.4641021E-03  0.1096221E+04  0.7818609E-02  0.9208883E-01
       -1   -1    0    0    0  501  0.00000000000E+00  0.00000000000E+00  0.37946756599E+03  0.37946756602E+03  0.50400001928E-02 0.  1.
        1   -1    0    0  501    0  0.00000000000E+00  0.00000000000E+00 -0.79170152951E+03  0.79170152952E+03  0.50400001928E-02 0. -1.
    10030    2    1    2    0    0  0.00000000000E+00  0.00000000000E+00 -0.41223396352E+03  0.11711690955E+04  0.10962208763E+04 0.  0.
        1    1    3    3  502    0  0.31138799155E+03 -0.40552198286E+03 -0.41714227699E+03  0.65986228801E+03  0.50400001928E-02 0.  1.
       -1    1    3    3    0  502 -0.31138799155E+03  0.40552198286E+03  0.49083134744E+01  0.51130680753E+03  0.50400001928E-02 0. -1.
</event>
<event>
 5   0  0.7712816E-03  0.1114630E+04  0.7818609E-02  0.9191049E-01
        2   -1    0    0  501    0  0.00000000000E+00  0.00000000000E+00  0.18173842427E+04  0.18173842427E+04  0.25500000920E-02 0. -1.
       -2   -1    0    0    0  501  0.00000000000E+00  0.00000000000E+00 -0.17090485772E+03  0.17090485774E+03  0.25500000920E-02 0.  1.
    10030    2    1    2    0    0  0.00000000000E+00  0.00000000000E+00  0.16464793850E+04  0.19882891004E+04  0.11146296164E+04 0.  0.
        2    1    3    3  502    0 -0.41995191350E+02  0.55420027383E+03  0.74972900090E+03  0.93327119018E+03  0.25500000920E-02 0.  1.
       -2    1    3    3    0  502  0.41995191350E+02 -0.55420027383E+03  0.89675038407E+03  0.10550179102E+04  0.25500000920E-02 0. -1.
</event>
<event>
 5   0  0.7766551E-03  0.1107686E+04  0.7818609E-02  0.9197733E-01
       -2   -1    0    0    0  501  0.00000000000E+00  0.00000000000E+00  0.37346036673E+03  0.37346036674E+03  0.25500000920E-02 0.  1.
        2   -1    0    0  501    0  0.00000000000E+00  0.00000000000E+00 -0.82135038284E+03  0.82135038284E+03  0.25500000920E-02 0. -1.
    10030    2    1    2    0    0  0.00000000000E+00  0.00000000000E+00 -0.44789001610E+03  0.11948107496E+04  0.11076855424E+04 0.  0.
        5    1    3    3  502    0 -0.44064912184E+03  0.22451151227E+03  0.44946783496E+02  0.49660786448E+03  0.46999998093E+01 0.  1.
       -5    1    3    3    0  502  0.44064912184E+03 -0.22451151227E+03 -0.49283679960E+03  0.69820288510E+03  0.46999998093E+01 0. -1.
</event>
<event>
 5   0  0.2992375E-03  0.1128342E+04  0.7818609E-02  0.9178000E-01
       -4   -1    0    0    0  501  0.00000000000E+00  0.00000000000E+00  0.15061744064E+04  0.15061749418E+04  0.12699999809E+01 0. -1.
        4   -1    0    0  501    0  0.00000000000E+00  0.00000000000E+00 -0.21132025026E+03  0.21132406647E+03  0.12699999809E+01 0.  1.
    10030    2    1    2    0    0  0.00000000000E+00  0.00000000000E+00  0.12948541561E+04  0.17174990083E+04  0.11283419507E+04 0.  0.
        1    1    3    3  502    0 -0.34364654382E+02  0.46706768973E+03  0.11262514418E+04  0.12197440168E+04  0.50400001928E-02 0.  1.
       -1    1    3    3    0  502  0.34364654382E+02 -0.46706768973E+03  0.16860271429E+03  0.49775499149E+03  0.50400001928E-02 0. -1.
</event>
<event>
 5   0  0.4504740E-03  0.1101365E+04  0.7818609E-02  0.9203863E-01
        1   -1    0    0  501    0  0.00000000000E+00  0.00000000000E+00  0.22375090855E+04  0.22375090855E+04  0.50400001928E-02 0. -1.
       -1   -1    0    0    0  501  0.00000000000E+00  0.00000000000E+00 -0.13553067814E+03  0.13553067823E+03  0.50400001928E-02 0.  1.
    10030    2    1    2    0    0  0.00000000000E+00  0.00000000000E+00  0.21019784074E+04  0.23730397637E+04  0.11013648330E+04 0.  0.
        5    1    3    3  502    0  0.14480905835E+03 -0.94320114862E+02 -0.75543346848E+02  0.18866593412E+03  0.46999998093E+01 0.  1.
       -5    1    3    3    0  502 -0.14480905835E+03  0.94320114862E+02  0.21775217542E+04  0.21843738296E+04  0.46999998093E+01 0. -1.
</event>
<event>
 5   0  0.7738497E-03  0.1120159E+04  0.7818609E-02  0.9185763E-01
        2   -1    0    0  501    0  0.00000000000E+00  0.00000000000E+00  0.10513885467E+04  0.10513885467E+04  0.25500000920E-02 0.  1.
       -2   -1    0    0    0  501  0.00000000000E+00  0.00000000000E+00 -0.29835693256E+03  0.29835693257E+03  0.25500000920E-02 0. -1.
    10030    2    1    2    0    0  0.00000000000E+00  0.00000000000E+00  0.75303161414E+03  0.13497454793E+04  0.11201590275E+04 0.  0.
        4    1    3    3  502    0 -0.17869275879E+02  0.16799700025E+03 -0.26691994659E+03  0.31589582761E+03  0.12699999809E+01 0. -1.
       -4    1    3    3    0  502  0.17869275879E+02 -0.16799700025E+03  0.10199515607E+04  0.10338496517E+04  0.12699999809E+01 0.  1.
</event>
<event>
 5   0  0.4298101E-03  0.1263525E+04  0.7818609E-02  0.9059001E-01
        1   -1    0    0  501    0  0.00000000000E+00  0.00000000000E+00  0.57550923129E+03  0.57550923131E+03  0.50400001928E-02 0. -1.
       -1   -1    0    0    0  501  0.00000000000E+00  0.00000000000E+00 -0.69351402074E+03  0.69351402075E+03  0.50400001928E-02 0.  1.
    10030    2    1    2    0    0  0.00000000000E+00  0.00000000000E+00 -0.11800478945E+03  0.12690232521E+04  0.12635247856E+04 0.  0.
        3    1    3    3  502    0  0.37110915668E+03 -0.39855369778E+03 -0.38064067912E+03  0.66442034360E+03  0.10100000352E+00 0.  1.
       -3    1    3    3    0  502 -0.37110915668E+03  0.39855369778E+03  0.26263588967E+03  0.60460290847E+03  0.10100000352E+00 0. -1.
</event>
<event>
 5   0  0.4598561E-03  0.1140749E+04  0.7818609E-02  0.9166361E-01
       -1   -1    0    0    0  501  0.00000000000E+00  0.00000000000E+00  0.75228741619E+03  0.75228741621E+03  0.50400001928E-02 0. -1.
        1   -1    0    0  501    0  0.00000000000E+00  0.00000000000E+00 -0.43245021606E+03  0.43245021609E+03  0.50400001928E-02 0.  1.
    10030    2    1    2    0    0  0.00000000000E+00  0.00000000000E+00  0.31983720013E+03  0.11847376323E+04  0.11407486238E+04 0.  0.
        2    1    3    3  502    0  0.53813807703E+03 -0.17744105050E+03  0.92221121172E+02  0.57409289453E+03  0.25500000920E-02 0.  1.
       -2    1    3    3    0  502 -0.53813807703E+03  0.17744105050E+03  0.22761607896E+03  0.61064473776E+03  0.25500000920E-02 0. -1.
</event>
<event>
 5   0  0.7712816E-03  0.1112979E+04  0.7818609E-02  0.9192633E-01
       -2   -1    0    0    0  501  0.00000000000E+00  0.00000000000E+00  0.15683623965E+03  0.15683623967E+03  0.25500000920E-02 0.  1.
        2   -1    0    0  501    0  0.00000000000E+00  0.00000000000E+00 -0.19745476523E+04  0.19745476523E+04  0.25500000920E-02 0. -1.
    10030    2    1    2    0    0  0.00000000000E+00  0.00000000000E+00 -0.18177114126E+04  0.21313838920E+04  0.11129791172E+04 0.  0.
        2    1    3    3  502    0 -0.23705941897E+02  0.45816292398E+03 -0.15120292756E+04  0.15800973916E+04  0.25500000920E-02 0. -1.
       -2    1    3    3    0  502  0.23705941897E+02 -0.45816292398E+03 -0.30568213703E+03  0.55128650037E+03  0.25500000920E-02 0.  1.
</event>
<event>
 5   0  0.7766551E-03  0.1077928E+04  0.7818609E-02  0.9226976E-01
       -2   -1    0    0    0  501  0.00000000000E+00  0.00000000000E+00  0.66031257052E+03  0.66031257053E+03  0.25500000920E-02 0. -1.
        2   -1    0    0  501    0  0.00000000000E+00  0.00000000000E+00 -0.43991629709E+03  0.43991629710E+03  0.25500000920E-02 0.  1.
    10030    2    1    2    0    0  0.00000000000E+00  0.00000000000E+00  0.22039627343E+03  0.11002288676E+04  0.10779281255E+04 0.  0.
        5    1    3    3  502    0 -0.58647027850E+02  0.15309538257E+03 -0.41382627501E+03  0.44514261302E+03  0.46999998093E+01 0. -1.
       -5    1    3    3    0  502  0.58647027850E+02 -0.15309538257E+03  0.63422254843E+03  0.65508625461E+03  0.46999998093E+01 0.  1.
</event>
<event>
 5   0  0.4428114E-03  0.1135240E+04  0.7818609E-02  0.9171509E-01
        1   -1    0    0  501    0  0.00000000000E+00  0.00000000000E+00  0.77506846982E+03  0.77506846984E+03  0.50400001928E-02 0.  1.
       -1   -1    0    0    0  501  0.00000000000E+00  0.00000000000E+00 -0.41569567384E+03  0.41569567387E+03  0.50400001928E-02 0. -1.
    10030    2    1    2    0    0  0.00000000000E+00  0.00000000000E+00  0.35937279598E+03  0.11907641437E+04  0.11352402563E+04 0.  0.
        4    1    3    3  502    0 -0.30372511577E+03  0.43839533479E+03 -0.24114240501E+02  0.53387500879E+03  0.12699999809E+01 0. -1.
       -4    1    3    3    0  502  0.30372511577E+03 -0.43839533479E+03  0.38348703649E+03  0.65688913492E+03  0.12699999809E+01 0.  1.
</event>
<event>
 5   0  0.7766551E-03  0.9152459E+03  0.7818609E-02  0.9406721E-01
       -2   -1    0    0    0  501  0.00000000000E+00  0.00000000000E+00  0.23441292771E+03  0.23441292772E+03  0.25500000920E-02 0. -1.
        2   -1    0    0  501    0  0.00000000000E+00  0.00000000000E+00 -0.89337558349E+03  0.89337558350E+03  0.25500000920E-02 0.  1.
    10030    2    1    2    0    0  0.00000000000E+00  0.00000000000E+00 -0.65896265579E+03  0.11277885112E+04  0.91524594744E+03 0.  0.
        5    1    3    3  502    0 -0.43641883643E+03  0.10701226441E+03 -0.43607886775E+03  0.62617880388E+03  0.46999998093E+01 0.  1.
       -5    1    3    3    0  502  0.43641883643E+03 -0.10701226441E+03 -0.22288378804E+03  0.50160970734E+03  0.46999998093E+01 0. -1.
</event>
<event>
 5   0  0.4298101E-03  0.1109287E+04  0.7818609E-02  0.9196187E-01
        1   -1    0    0  501    0  0.00000000000E+00  0.00000000000E+00  0.57724325385E+03  0.57724325387E+03  0.50400001928E-02 0. -1.
       -1   -1    0    0    0  501  0.00000000000E+00  0.00000000000E+00 -0.53292871652E+03  0.53292871654E+03  0.50400001928E-02 0.  1.
    10030    2    1    2    0    0  0.00000000000E+00  0.00000000000E+00  0.44314537329E+02  0.11101719704E+04  0.11092871701E+04 0.  0.
        3    1    3    3  502    0 -0.20297670527E+03 -0.40298980765E+03  0.34495006281E+03  0.56797084783E+03  0.10100000352E+00 0. -1.
       -3    1    3    3    0  502  0.20297670527E+03  0.40298980765E+03 -0.30063552548E+03  0.54220112258E+03  0.10100000352E+00 0.  1.
</event>
<event>
 5   0  0.7712816E-03  0.1086543E+04  0.7818609E-02  0.9218408E-01
       -2   -1    0    0    0  501  0.00000000000E+00  0.00000000000E+00  0.13325220267E+04  0.13325220267E+04  0.25500000920E-02 0.  1.
        2   -1    0    0  501    0  0.00000000000E+00  0.00000000000E+00 -0.22149273392E+03  0.22149273393E+03  0.25500000920E-02 0. -1.
    10030    2    1    2    0    0  0.00000000000E+00  0.00000000000E+00  0.11110292927E+04  0.15540147606E+04  0.10865430442E+04 0.  0.
        2    1    3    3  502    0 -0.39267921748E+03 -0.23291958912E+03  0.97663510533E+03  0.10780837777E+04  0.25500000920E-02 0.  1.
       -2    1    3    3    0  502  0.39267921748E+03  0.23291958912E+03  0.13439418741E+03  0.47593098286E+03  0.25500000920E-02 0. -1.
</event>
<event>
 5   0  0.7952121E-03  0.1101298E+04  0.7818609E-02  0.9203927E-01
       -2   -1    0    0    0  501  0.00000000000E+00  0.00000000000E+00  0.16571908376E+03  0.16571908378E+03  0.25500000920E-02 0. -1.
        2   -1    0    0  501    0  0.00000000000E+00  0.00000000000E+00 -0.18296901119E+04  0.18296901119E+04  0.25500000920E-02 0.  1.
    10030    2    1    2    0    0  0.00000000000E+00  0.00000000000E+00 -0.16639710282E+04  0.19954091957E+04  0.11012984499E+04 0.  0.
        3    1    3    3  502    0 -0.23903285350E+02  0.48774835412E+03 -0.37095553244E+03  0.61325185792E+03  0.10100000352E+00 0. -1.
       -3    1    3    3    0  502  0.23903285350E+02 -0.48774835412E+03 -0.12930154957E+04  0.13821573378E+04  0.10100000352E+00 0.  1.
</event>
<event>
 5   0  0.7537480E-03  0.1151833E+04  0.7818609E-02  0.9156094E-01
        2   -1    0    0  501    0  0.00000000000E+00  0.00000000000E+00  0.90740907558E+03  0.90740907559E+03  0.25500000920E-02 0.  1.
       -2   -1    0    0    0  501  0.00000000000E+00  0.00000000000E+00 -0.36552412983E+03  0.36552412984E+03  0.25500000920E-02 0. -1.
    10030    2    1    2    0    0  0.00000000000E+00  0.00000000000E+00  0.54188494576E+03  0.12729332054E+04  0.11518331698E+04 0.  0.
        1    1    3    3  502    0 -0.27533341137E+03 -0.49455305066E+03  0.38836139907E+03  0.68645158871E+03  0.50400001928E-02 0. -1.
       -1    1    3    3    0  502  0.27533341137E+03  0.49455305066E+03  0.15352354669E+03  0.58648161672E+03  0.50400001928E-02 0.  1.
</event>
<event>
 5   0  0.4641021E-03  0.1099457E+04  0.7818609E-02  0.9205721E-01
        1   -1    0    0  501    0  0.00000000000E+00  0.00000000000E+00  0.17710025858E+04  0.17710025858E+04  0.50400001928E-02 0.  1.
       -1   -1    0    0    0  501  0.00000000000E+00  0.00000000000E+00 -0.17063870043E+03  0.17063870050E+03  0.50400001928E-02 0. -1.
    10030    2    1    2    0    0  0.00000000000E+00  0.00000000000E+00  0.16003638853E+04  0.19416412863E+04  0.10994572839E+04 0.  0.
        1    1    3    3  502    0 -0.44447575214E+03 -0.20726073526E+03  0.36156692698E+03  0.60929988457E+03  0.50400001928E-02 0.  1.
       -1    1    3    3    0  502  0.44447575214E+03  0.20726073526E+03  0.12387969584E+04  0.13323414017E+04  0.50400001928E-02 0. -1.
</event>
<event>
 5   0  0.7952121E-03  0.1097589E+04  0.7818609E-02  0.9207545E-01
        2   -1    0    0  501    0  0.00000000000E+00  0.00000000000E+00  0.14997763857E+04  0.14997763857E+04  0.25500000920E-02 0. -1.
       -2   -1    0    0    0  501  0.00000000000E+00  0.00000000000E+00 -0.20081335608E+03  0.20081335610E+03  0.25500000920E-02 0.  1.
    10030    2    1    2    0    0  0.00000000000E+00  0.00000000000E+00  0.12989630296E+04  0.17005897418E+04  0.10975885010E+04 0.  0.
        3    1    3    3  502    0 -0.35194356938E+03  0.21937050372E+02  0.13010161385E+04  0.13479571630E+04  0.10100000352E+00 0. -1.
       -3    1    3    3    0  502  0.35194356938E+03 -0.21937050372E+02 -0.20531089220E+01  0.35263257885E+03  0.10100000352E+00 0.  1.
</event>
<event>
 5   0  0.4428114E-03  0.1111312E+04  0.7818609E-02  0.9194236E-01
        1   -1    0    0  501    0  0.00000000000E+00  0.00000000000E+00  0.80075635854E+03  0.80075635855E+03  0.50400001928E-02 0.  1.
       -1   -1    0    0    0  501  0.00000000000E+00  0.00000000000E+00 -0.38557740856E+03  0.38557740859E+03  0.50400001928E-02 0. -1.
    10030    2    1    2    0    0  0.00000000000E+00  0.00000000000E+00  0.41517894998E+03  0.11863337671E+04  0.11113119484E+04 0.  0.
        4    1    3    3  502    0 -0.65696225544E+02 -0.23817461977E+03 -0.32371274508E+03  0.40722806605E+03  0.12699999809E+01 0. -1.
       -4    1    3    3    0  502  0.65696225544E+02  0.23817461977E+03  0.73889169506E+03  0.77910570110E+03  0.12699999809E+01 0.  1.
</event>
<event>
 5   0  0.7766551E-03  0.1102763E+04  0.7818609E-02  0.9202503E-01
       -2   -1    0    0    0  501  0.00000000000E+00  0.00000000000E+00  0.20645274154E+03  0.20645274155E+03  0.25500000920E-02 0.  1.
        2   -1    0    0  501    0  0.00000000000E+00  0.00000000000E+00 -0.14725959242E+04  0.14725959242E+04  0.25500000920E-02 0. -1.
    10030    2    1    2    0    0  0.00000000000E+00  0.00000000000E+00 -0.12661431826E+04  0.16790486657E+04  0.11027628317E+04 0.  0.
        5    1    3    3  502    0 -0.39111911603E+03 -0.20686515896E+03 -0.13216235045E+03  0.46179685338E+03  0.46999998093E+01 0.  1.
       -5    1    3    3    0  502  0.39111911603E+03  0.20686515896E+03 -0.11339808322E+04  0.12172518123E+04  0.46999998093E+01 0. -1.
</event>
<event>
 5   0  0.4428114E-03  0.1081454E+04  0.7818609E-02  0.9223459E-01
       -1   -1    0    0    0  501  0.00000000000E+00  0.00000000000E+00  0.32026030177E+03  0.32026030181E+03  0.50400001928E-02 0.  1.
        1   -1    0    0  501    0  0.00000000000E+00  0.00000000000E+00 -0.91296287877E+03  0.91296287878E+03  0.50400001928E-02 0. -1.
    10030    2    1    2    0    0  0.00000000000E+00  0.00000000000E+00 -0.59270257699E+03  0.12332231806E+04  0.10814541453E+04 0.  0.
        4    1    3    3  502    0 -0.44112308742E+03  0.18260127018E+03 -0.68506099152E+01  0.47747392168E+03  0.12699999809E+01 0.  1.
       -4    1    3    3    0  502  0.44112308742E+03 -0.18260127018E+03 -0.58585196708E+03  0.75574925892E+03  0.12699999809E+01 0. -1.
</event>
<event>
 5   0  0.4298101E-03  0.1101481E+04  0.7818609E-02  0.9203750E-01
       -1   -1    0    0    0  501  0.00000000000E+00  0.00000000000E+00  0.27069790022E+03  0.27069790027E+03  0.50400001928E-02 0. -1.
        1   -1    0    0  501    0  0.00000000000E+00  0.00000000000E+00 -0.11204921153E+04  0.11204921153E+04  0.50400001928E-02 0.  1.
    10030    2    1    2    0    0  0.00000000000E+00  0.00000000000E+00 -0.84979421508E+03  0.13911900156E+04  0.11014805724E+04 0.  0.
        3    1    3    3  502    0 -0.31140906556E+03  0.27525570221E+03  0.31494035844E+02  0.41681313823E+03  0.10100000352E+00 0. -1.
       -3    1    3    3    0  502  0.31140906556E+03 -0.27525570221E+03 -0.88128825092E+03  0.97437687735E+03  0.10100000352E+00 0.  1.
</event>
<event>
 5   0  0.7537480E-03  0.1104212E+04  0.7818609E-02  0.9201096E-01
       -2   -1    0    0    0  501  0.00000000000E+00  0.00000000000E+00  0.61717235090E+03  0.61717235090E+03  0.25500000920E-02 0. -1.
        2   -1    0    0  501    0  0.00000000000E+00  0.00000000000E+00 -0.49389950803E+03  0.49389950803E+03  0.25500000920E-02 0.  1.
    10030    2    1    2    0    0  0.00000000000E+00  0.00000000000E+00  0.12327284287E+03  0.11110718589E+04  0.11042121544E+04 0.  0.
        1    1    3    3  502    0 -0.32447612603E+03  0.43573700789E+03 -0.37308707637E+02  0.54455801904E+03  0.50400001928E-02 0.  1.
       -1    1    3    3    0  502  0.32447612603E+03 -0.43573700789E+03  0.16058155051E+03  0.56651383990E+03  0.50400001928E-02 0. -1.
</event>
<event>
 5   0  0.7738497E-03  0.1011669E+04  0.7818609E-02  0.9295838E-01
        2   -1    0    0  501    0  0.00000000000E+00  0.00000000000E+00  0.11370686948E+04  0.11370686949E+04  0.25500000920E-02 0.  1.
       -2   -1    0    0    0  501  0.00000000000E+00  0.00000000000E+00 -0.22502486994E+03  0.22502486995E+03  0.25500000920E-02 0. -1.
    10030    2    1    2    0    0  0.00000000000E+00  0.00000000000E+00  0.91204382491E+03  0.13620935648E+04  0.10116693831E+04 0.  0.
        4    1    3    3  502    0 -0.46162807121E+02 -0.43040600332E+03  0.10367397036E+03  0.44511822866E+03  0.12699999809E+01 0. -1.
       -4    1    3    3    0  502  0.46162807121E+02  0.43040600332E+03  0.80836985455E+03  0.91697533615E+03  0.12699999809E+01 0.  1.
</event>
<event>
 5   0  0.7952121E-03  0.1022585E+04  0.7818609E-02  0.9284115E-01
       -2   -1    0    0    0  501  0.00000000000E+00  0.00000000000E+00  0.29745917189E+03  0.29745917190E+03  0.25500000920E-02 0.  1.
        2   -1    0    0  501    0  0.00000000000E+00  0.00000000000E+00 -0.87884367145E+03  0.87884367146E+03  0.25500000920E-02 0. -1.
    10030    2    1    2    0    0  0.00000000000E+00  0.00000000000E+00 -0.58138449957E+03  0.11763028434E+04  0.10225851764E+04 0.  0.
        3    1    3    3  502    0  0.17697173149E+03 -0.13420029705E+03  0.23907019810E+03  0.32631776430E+03  0.10100000352E+00 0.  1.
       -3    1    3    3    0  502 -0.17697173149E+03  0.13420029705E+03 -0.82045469767E+03  0.84998507905E+03  0.10100000352E+00 0. -1.
</event>
<event>
 5   0  0.4598561E-03  0.1094119E+04  0.7818609E-02  0.9210943E-01
        1   -1    0    0  501    0  0.00000000000E+00  0.00000000000E+00  0.29781691718E+03  0.29781691723E+03  0.50400001928E-02 0. -1.
       -1   -1    0    0    0  501  0.00000000000E+00  0.00000000000E+00 -0.10048922386E+04  0.10048922386E+04  0.50400001928E-02 0.  1.
    10030    2    1    2    0    0  0.00000000000E+00  0.00000000000E+00 -0.70707532142E+03  0.13027091558E+04  0.10941186565E+04 0.  0.
        2    1    3    3  502    0 -0.52548485899E+03  0.14224914029E+03 -0.41770849691E+03  0.68618477347E+03  0.25500000920E-02 0. -1.
       -2    1    3    3    0  502  0.52548485899E+03 -0.14224914029E+03 -0.28936682451E+03  0.61652438238E+03  0.25500000920E-02 0.  1.
</event>
<event>
 5   0  0.4598561E-03  0.1106013E+04  0.7818609E-02  0.9199351E-01
        1   -1    0    0  501    0  0.00000000000E+00  0.00000000000E+00  0.24311146245E+03  0.24311146250E+03  0.50400001928E-02 0. -1.
       -1   -1    0    0    0  501  0.00000000000E+00  0.00000000000E+00 -0.12579262391E+04  0.12579262391E+04  0.50400001928E-02 0.  1.
    10030    2    1    2    0    0  0.00000000000E+00  0.00000000000E+00 -0.10148147767E+04  0.15010377016E+04  0.11060131784E+04 0.  0.
        2    1    3    3  502    0  0.26095884278E+03  0.39336237362E+03 -0.11645364533E+03  0.48620461343E+03  0.25500000920E-02 0. -1.
       -2    1    3    3    0  502 -0.26095884278E+03 -0.39336237362E+03 -0.89836113132E+03  0.10148330882E+04  0.25500000920E-02 0.  1.
</event>
<event>
 5   0  0.7766551E-03  0.1099970E+04  0.7818609E-02  0.9205221E-01
        2   -1    0    0  501    0  0.00000000000E+00  0.00000000000E+00  0.99296991429E+03  0.99296991429E+03  0.25500000920E-02 0.  1.
       -2   -1    0    0    0  501  0.00000000000E+00  0.00000000000E+00 -0.30462496482E+03  0.30462496483E+03  0.25500000920E-02 0. -1.
    10030    2    1    2    0    0  0.00000000000E+00  0.00000000000E+00  0.68834494947E+03  0.12975948791E+04  0.10999698636E+04 0.  0.
        5    1    3    3  502    0 -0.15937414398E+02  0.30248260781E+03  0.88567759165E+03  0.93605374609E+03  0.46999998093E+01 0.  1.
       -5    1    3    3    0  502  0.15937414398E+02 -0.30248260781E+03 -0.19733264218E+03  0.36154113304E+03  0.46999998093E+01 0. -1.
</event>
<event>
 5   0  0.4641021E-03  0.1082804E+04  0.7818609E-02  0.9222116E-01
       -1   -1    0    0    0  501  0.00000000000E+00  0.00000000000E+00  0.43621032408E+03  0.43621032411E+03  0.50400001928E-02 0.  1.
        1   -1    0    0  501    0  0.00000000000E+00  0.00000000000E+00 -0.67196066958E+03  0.67196066960E+03  0.50400001928E-02 0. -1.
    10030    2    1    2    0    0  0.00000000000E+00  0.00000000000E+00 -0.23575034550E+03  0.11081709937E+04  0.10828041032E+04 0.  0.
        1    1    3    3  502    0 -0.15015513969E+03  0.35114641663E+03 -0.51061762736E+03  0.63763683495E+03  0.50400001928E-02 0. -1.
       -1    1    3    3    0  502  0.15015513969E+03 -0.35114641663E+03  0.27486728187E+03  0.47053415876E+03  0.50400001928E-02 0.  1.
</event>
<event>
 5   0  0.7952121E-03  0.1088619E+04  0.7818609E-02  0.9216356E-01
        2   -1    0    0  501    0  0.00000000000E+00  0.00000000000E+00  0.12066285505E+04  0.12066285505E+04  0.25500000920E-02 0.  1.
       -2   -1    0    0    0  501  0.00000000000E+00  0.00000000000E+00 -0.24553766932E+03  0.24553766933E+03  0.25500000920E-02 0. -1.
    10030    2    1    2    0    0  0.00000000000E+00  0.00000000000E+00  0.96109088121E+03  0.14521662199E+04  0.10886188719E+04 0.  0.
        3    1    3    3  502    0 -0.20109587726E+03 -0.25945977094E+03 -0.98632585632E+02  0.34276423638E+03  0.10100000352E+00 0. -1.
       -3    1    3    3    0  502  0.20109587726E+03  0.25945977094E+03  0.10597234668E+04  0.11094019835E+04  0.10100000352E+00 0.  1.
</event>
<event>
 5   0  0.4598561E-03  0.1096392E+04  0.7818609E-02  0.9208716E-01
        1   -1    0    0  501    0  0.00000000000E+00  0.00000000000E+00  0.10867507389E+04  0.10867507390E+04  0.50400001928E-02 0. -1.
       -1   -1    0    0    0  501  0.00000000000E+00  0.00000000000E+00 -0.27652967122E+03  0.27652967127E+03  0.50400001928E-02 0.  1.
    10030    2    1    2    0    0  0.00000000000E+00  0.00000000000E+00  0.81022106772E+03  0.13632804102E+04  0.10963919456E+04 0.  0.
        2    1    3    3  502    0  0.34054309975E+03 -0.39524387296E+03  0.61440327327E+03  0.80602649095E+03  0.25500000920E-02 0. -1.
       -2    1    3    3    0  502 -0.34054309975E+03  0.39524387296E+03  0.19581779445E+03  0.55725391927E+03  0.25500000920E-02 0.  1.
</event>
<event>
 5   0  0.4428114E-03  0.1115881E+04  0.7818609E-02  0.9189850E-01
       -1   -1    0    0    0  501  0.00000000000E+00  0.00000000000E+00  0.85741198800E+03  0.85741198802E+03  0.50400001928E-02 0. -1.
        1   -1    0    0  501    0  0.00000000000E+00  0.00000000000E+00 -0.36306642584E+03  0.36306642588E+03  0.50400001928E-02 0.  1.
    10030    2    1    2    0    0  0.00000000000E+00  0.00000000000E+00  0.49434556216E+03  0.12204784139E+04  0.11158808287E+04 0.  0.
        4    1    3    3  502    0 -0.10507188817E+03  0.54256555420E+03  0.16331521510E+03  0.57627333330E+03  0.12699999809E+01 0. -1.
       -4    1    3    3    0  502  0.10507188817E+03 -0.54256555420E+03  0.33103034706E+03  0.64420508059E+03  0.12699999809E+01 0.  1.
</event>
<event>
 5   0  0.4504740E-03  0.1187214E+04  0.7818609E-02  0.9124122E-01
       -1   -1    0    0    0  501  0.00000000000E+00  0.00000000000E+00  0.69670086527E+03  0.69670086528E+03  0.50400001928E-02 0. -1.
        1   -1    0    0  501    0  0.00000000000E+00  0.00000000000E+00 -0.50576855356E+03  0.50576855358E+03  0.50400001928E-02 0.  1.
    10030    2    1    2    0    0  0.00000000000E+00  0.00000000000E+00  0.19093231171E+03  0.12024694189E+04  0.11872141996E+04 0.  0.
        5    1    3    3  502    0 -0.49712869148E+03  0.19688930441E+03 -0.16561528204E+03  0.55977928304E+03  0.46999998093E+01 0.  1.
       -5    1    3    3    0  502  0.49712869148E+03 -0.19688930441E+03  0.35654759375E+03  0.64269013582E+03  0.46999998093E+01 0. -1.
</event>
<event>
 5   0  0.7738497E-03  0.1094085E+04  0.7818609E-02  0.9210976E-01
        2   -1    0    0  501    0  0.00000000000E+00  0.00000000000E+00  0.16684390549E+04  0.16684390549E+04  0.25500000920E-02 0. -1.
       -2   -1    0    0    0  501  0.00000000000E+00  0.00000000000E+00 -0.17936249288E+03  0.17936249290E+03  0.25500000920E-02 0.  1.
    10030    2    1    2    0    0  0.00000000000E+00  0.00000000000E+00  0.14890765620E+04  0.18478015478E+04  0.10940848013E+04 0.  0.
        4    1    3    3  502    0 -0.40738370235E+03  0.21289136660E+03  0.12454607958E+04  0.13275761453E+04  0.12699999809E+01 0. -1.
       -4    1    3    3    0  502  0.40738370235E+03 -0.21289136660E+03  0.24361576622E+03  0.52022540246E+03  0.12699999809E+01 0.  1.
</event>
<event>
 5   0  0.4504740E-03  0.1093220E+04  0.7818609E-02  0.9211826E-01
       -1   -1    0    0    0  501  0.00000000000E+00  0.00000000000E+00  0.56723372683E+03  0.56723372685E+03  0.50400001928E-02 0.  1.
        1   -1    0    0  501    0  0.00000000000E+00  0.00000000000E+00 -0.52673589555E+03  0.52673589558E+03  0.50400001928E-02 0. -1.
    10030    2    1    2    0    0  0.00000000000E+00  0.00000000000E+00  0.40497831280E+02  0.10939696224E+04  0.10932197677E+04 0.  0.
        5    1    3    3  502    0  0.46822798240E+03  0.27572083512E+03  0.79457503806E+02  0.54917666313E+03  0.46999998093E+01 0. -1.
       -5    1    3    3    0  502 -0.46822798240E+03 -0.27572083512E+03 -0.38959672526E+02  0.54479295930E+03  0.46999998093E+01 0.  1.
</event>
<event>
 5   0  0.7712816E-03  0.1100866E+04  0.7818609E-02  0.9204349E-01
        2   -1    0    0  501    0  0.00000000000E+00  0.00000000000E+00  0.22804312128E+04  0.22804312128E+04  0.25500000920E-02 0.  1.
       -2   -1    0    0    0  501  0.00000000000E+00  0.00000000000E+00 -0.13285917650E+03  0.13285917652E+03  0.25500000920E-02 0. -1.
    10030    2    1    2    0    0  0.00000000000E+00  0.00000000000E+00  0.21475720363E+04  0.24132903893E+04  0.11008655014E+04 0.  0.
        2    1    3    3  502    0 -0.19780892700E+03  0.43976424365E+03  0.49190792661E+03  0.68883551727E+03  0.25500000920E-02 0. -1.
       -2    1    3    3    0  502  0.19780892700E+03 -0.43976424365E+03  0.16556641097E+04  0.17244548721E+04  0.25500000920E-02 0.  1.
</event>
<event>
 5   0  0.4598561E-03  0.1104199E+04  0.7818609E-02  0.9201109E-01
        1   -1    0    0  501    0  0.00000000000E+00  0.00000000000E+00  0.73988315865E+03  0.73988315866E+03  0.50400001928E-02 0. -1.
       -1   -1    0    0    0  501  0.00000000000E+00  0.00000000000E+00 -0.41197581110E+03  0.41197581113E+03  0.50400001928E-02 0.  1.
    10030    2    1    2    0    0  0.00000000000E+00  0.00000000000E+00  0.32790734755E+03  0.11518589698E+04  0.11041991930E+04 0.  0.
        2    1    3    3  502    0  0.37482943405E+02 -0.45979656559E+03 -0.15244643130E+03  0.48585776437E+03  0.25500000920E-02 0.  1.
       -2    1    3    3    0  502 -0.37482943405E+02  0.45979656559E+03  0.48035377884E+03  0.66600120543E+03  0.25500000920E-02 0. -1.
</event>
<event>
 5   0  0.4641021E-03  0.1067348E+04  0.7818609E-02  0.9237614E-01
        1   -1    0    0  501    0  0.00000000000E+00  0.00000000000E+00  0.57743899034E+03  0.57743899036E+03  0.50400001928E-02 0. -1.
       -1   -1    0    0    0  501  0.00000000000E+00  0.00000000000E+00 -0.49322601574E+03  0.49322601576E+03  0.50400001928E-02 0.  1.
    10030    2    1    2    0    0  0.00000000000E+00  0.00000000000E+00  0.84212974606E+02  0.10706650061E+04  0.10673479893E+04 0.  0.
        1    1    3    3  502    0  0.44137356536E+03  0.21143686869E+03 -0.17137349857E+03  0.51854127095E+03  0.50400001928E-02 0.  1.
       -1    1    3    3    0  502 -0.44137356536E+03 -0.21143686869E+03  0.25558647318E+03  0.55212373517E+03  0.50400001928E-02 0. -1.
</event>
<event>
 5   0  0.7712816E-03  0.1030878E+04  0.7818609E-02  0.9275312E-01
        2   -1    0    0  501    0  0.00000000000E+00  0.00000000000E+00  0.83357533862E+03  0.83357533862E+03  0.25500000920E-02 0. -1.
       -2   -1    0    0    0  501  0.00000000000E+00  0.00000000000E+00 -0.31872029100E+03  0.31872029101E+03  0.25500000920E-02 0.  1.
    10030    2    1    2    0    0  0.00000000000E+00  0.00000000000E+00  0.51485504762E+03  0.11522956296E+04  0.10308780229E+04 0.  0.
        2    1    3    3  502    0 -0.49239290712E+03  0.66663568043E+02  0.10423621701E+03  0.50770069454E+03  0.25500000920E-02 0.  1.
       -2    1    3    3    0  502  0.49239290712E+03 -0.66663568043E+02  0.41061883061E+03  0.64459493509E+03  0.25500000920E-02 0. -1.
</event>
<event>
 5   0  0.7738497E-03  0.1109239E+04  0.7818609E-02  0.9196233E-01
       -2   -1    0    0    0  501  0.00000000000E+00  0.00000000000E+00  0.53739413645E+03  0.53739413645E+03  0.25500000920E-02 0.  1.
        2   -1    0    0  501    0  0.00000000000E+00  0.00000000000E+00 -0.57239694040E+03  0.57239694041E+03  0.25500000920E-02 0. -1.
    10030    2    1    2    0    0  0.00000000000E+00  0.00000000000E+00 -0.35002803952E+02  0.11097910769E+04  0.11092389454E+04 0.  0.
        4    1    3    3  502    0 -0.27191097146E+03  0.57025834497E+02 -0.49775452428E+03  0.57004271905E+03  0.12699999809E+01 0. -1.
       -4    1    3    3    0  502  0.27191097146E+03 -0.57025834497E+02  0.46275172032E+03  0.53974835781E+03  0.12699999809E+01 0.  1.
</event>
<event>
 5   0  0.4598561E-03  0.1069178E+04  0.7818609E-02  0.9235765E-01
       -1   -1    0    0    0  501  0.00000000000E+00  0.00000000000E+00  0.16737948139E+03  0.16737948147E+03  0.50400001928E-02 0. -1.
        1   -1    0    0  501    0  0.00000000000E+00  0.00000000000E+00 -0.17074100983E+04  0.17074100983E+04  0.50400001928E-02 0.  1.
    10030    2    1    2    0    0  0.00000000000E+00  0.00000000000E+00 -0.15400306169E+04  0.18747895798E+04  0.10691780335E+04 0.  0.
        2    1    3    3  502    0 -0.73636780136E+02 -0.27146563010E+03 -0.15671664065E+04  0.15922080609E+04  0.25500000920E-02 0.  1.
       -2    1    3    3    0  502  0.73636780136E+02  0.27146563010E+03  0.27135789551E+02  0.28258151885E+03  0.25500000920E-02 0. -1.
</event>
<event>
 5   0  0.4641021E-03  0.1071316E+04  0.7818609E-02  0.9233610E-01
       -1   -1    0    0    0  501  0.00000000000E+00  0.00000000000E+00  0.50950986831E+03  0.50950986833E+03  0.50400001928E-02 0. -1.
        1   -1    0    0  501    0  0.00000000000E+00  0.00000000000E+00 -0.56314755134E+03  0.56314755136E+03  0.50400001928E-02 0.  1.
    10030    2    1    2    0    0  0.00000000000E+00  0.00000000000E+00 -0.53637683032E+02  0.10726574197E+04  0.10713155179E+04 0.  0.
        1    1    3    3  502    0 -0.41046183591E+03  0.22339287463E+03 -0.28895957621E+03  0.54943692257E+03  0.50400001928E-02 0.  1.
       -1    1    3    3    0  502  0.41046183591E+03 -0.22339287463E+03  0.23532189317E+03  0.52322049712E+03  0.50400001928E-02 0. -1.
</event>
<event>
 5   0  0.4428114E-03  0.1053942E+04  0.7818609E-02  0.9251284E-01
        1   -1    0    0  501    0  0.00000000000E+00  0.00000000000E+00  0.15430421949E+04  0.15430421949E+04  0.50400001928E-02 0.  1.
       -1   -1    0    0    0  501  0.00000000000E+00  0.00000000000E+00 -0.17996814179E+03  0.17996814186E+03  0.50400001928E-02 0. -1.
    10030    2    1    2    0    0  0.00000000000E+00  0.00000000000E+00  0.13630740531E+04  0.17230103368E+04  0.10539420033E+04 0.  0.
        4    1    3    3  502    0 -0.18376621042E+01 -0.51854002135E+03  0.52809244547E+03  0.74011510902E+03  0.12699999809E+01 0. -1.
       -4    1    3    3    0  502  0.18376621042E+01  0.51854002135E+03  0.83498160765E+03  0.98289522776E+03  0.12699999809E+01 0.  1.
</event>
<event>
 5   0  0.7738497E-03  0.1115660E+04  0.7818609E-02  0.9190061E-01
       -2   -1    0    0    0  501  0.00000000000E+00  0.00000000000E+00  0.35427732082E+03  0.35427732083E+03  0.25500000920E-02 0. -1.
        2   -1    0    0  501    0  0.00000000000E+00  0.00000000000E+00 -0.87833613317E+03  0.87833613318E+03  0.25500000920E-02 0.  1.
    10030    2    1    2    0    0  0.00000000000E+00  0.00000000000E+00 -0.52405881236E+03  0.12326134540E+04  0.11156604717E+04 0.  0.
        4    1    3    3  502    0 -0.96834789097E+02 -0.54401398839E+03 -0.34649470405E+03  0.65221805309E+03  0.12699999809E+01 0.  1.
       -4    1    3    3    0  502  0.96834789097E+02  0.54401398839E+03 -0.17756410831E+03  0.58039540091E+03  0.12699999809E+01 0. -1.
</event>
<event>
 5   0  0.4298101E-03  0.1062119E+04  0.7818609E-02  0.9242921E-01
        1   -1    0    0  501    0  0.00000000000E+00  0.00000000000E+00  0.53698260119E+03  0.53698260121E+03  0.50400001928E-02 0.  1.
       -1   -1    0    0    0  501  0.00000000000E+00  0.00000000000E+00 -0.52520140687E+03  0.52520140690E+03  0.50400001928E-02 0. -1.
    10030    2    1    2    0    0  0.00000000000E+00  0.00000000000E+00  0.11781194311E+02  0.10621840081E+04  0.10621186706E+04 0.  0.
        3    1    3    3  502    0  0.43871429341E+03 -0.17794320501E+03  0.24650878962E+03  0.53376081629E+03  0.10100000352E+00 0.  1.
       -3    1    3    3    0  502 -0.43871429341E+03  0.17794320501E+03 -0.23472759531E+03  0.52842319182E+03  0.10100000352E+00 0. -1.
</event>
<event>
 5   0  0.4641021E-03  0.9920430E+03  0.7818609E-02  0.9317315E-01
       -1   -1    0    0    0  501  0.00000000000E+00  0.00000000000E+00  0.15575308729E+03  0.15575308737E+03  0.50400001928E-02 0. -1.
        1   -1    0    0  501    0  0.00000000000E+00  0.00000000000E+00 -0.15796626909E+04  0.15796626909E+04  0.50400001928E-02 0.  1.
    10030    2    1    2    0    0  0.00000000000E+00  0.00000000000E+00 -0.14239096036E+04  0.17354157783E+04  0.99204302540E+03 0.  0.
        1    1    3    3  502    0  0.25342247482E+03  0.30065348696E+03 -0.18302494045E+03  0.43372064605E+03  0.50400001928E-02 0. -1.
       -1    1    3    3    0  502 -0.25342247482E+03 -0.30065348696E+03 -0.12408846631E+04  0.13016951322E+04  0.50400001928E-02 0.  1.
</event>
<event>
 5   0  0.4641021E-03  0.1243115E+04  0.7818609E-02  0.9075934E-01
       -1   -1    0    0    0  501  0.00000000000E+00  0.00000000000E+00  0.42407194124E+03  0.42407194127E+03  0.50400001928E-02 0. -1.
        1   -1    0    0  501    0  0.00000000000E+00  0.00000000000E+00 -0.91100918091E+03  0.91100918092E+03  0.50400001928E-02 0.  1.
    10030    2    1    2    0    0  0.00000000000E+00  0.00000000000E+00 -0.48693723967E+03  0.13350811222E+04  0.12431145271E+04 0.  0.
        1    1    3    3  502    0  0.47002611628E+02  0.31186720198E+03  0.33175115485E+03  0.45774362469E+03  0.50400001928E-02 0. -1.
       -1    1    3    3    0  502 -0.47002611628E+02 -0.31186720198E+03 -0.81868839452E+03  0.87733749750E+03  0.50400001928E-02 0.  1.
</event>
<event>
 5   0  0.7738497E-03  0.1097524E+04  0.7818609E-02  0.9207609E-01
       -2   -1    0    0    0  501  0.00000000000E+00  0.00000000000E+00  0.71473579613E+03  0.71473579614E+03  0.25500000920E-02 0. -1.
        2   -1    0    0  501    0  0.00000000000E+00  0.00000000000E+00 -0.42133009452E+03  0.42133009453E+03  0.25500000920E-02 0.  1.
    10030    2    1    2    0    0  0.00000000000E+00  0.00000000000E+00  0.29340570161E+03  0.11360658907E+04  0.10975239415E+04 0.  0.
        4    1    3    3  502    0 -0.24633112067E+03 -0.46798789294E+03 -0.48858063358E+01  0.52888294825E+03  0.12699999809E+01 0.  1.
       -4    1    3    3    0  502  0.24633112067E+03  0.46798789294E+03  0.29829150795E+03  0.60718294241E+03  0.12699999809E+01 0. -1.
</event>
<event>
 5   0  0.7952121E-03  0.7584929E+03  0.7818609E-02  0.9622120E-01
       -2   -1    0    0    0  501  0.00000000000E+00  0.00000000000E+00  0.10120763942E+03  0.10120763946E+03  0.25500000920E-02 0.  1.
        2   -1    0    0  501    0  0.00000000000E+00  0.00000000000E+00 -0.14211168701E+04  0.14211168701E+04  0.25500000920E-02 0. -1.
    10030    2    1    2    0    0  0.00000000000E+00  0.00000000000E+00 -0.13199092307E+04  0.15223245095E+04  0.75849293679E+03 0.  0.
        3    1    3    3  502    0  0.99682843939E+02 -0.17629283940E+03 -0.16411446267E+02  0.20318754974E+03  0.10100000352E+00 0.  1.
       -3    1    3    3    0  502 -0.99682843939E+02  0.17629283940E+03 -0.13034977844E+04  0.13191369598E+04  0.10100000352E+00 0. -1.
</event>
<event>
 5   0  0.7766551E-03  0.1075786E+04  0.7818609E-02  0.9229119E-01
       -2   -1    0    0    0  501  0.00000000000E+00  0.00000000000E+00  0.28137660658E+03  0.28137660659E+03  0.25500000920E-02 0. -1.
        2   -1    0    0  501    0  0.00000000000E+00  0.00000000000E+00 -0.10282627370E+04  0.10282627370E+04  0.25500000920E-02 0.  1.
    10030    2    1    2    0    0  0.00000000000E+00  0.00000000000E+00 -0.74688613046E+03  0.13096393436E+04  0.10757863722E+04 0.  0.
        5    1    3    3  502    0 -0.32394704346E+03 -0.19183769449E+03 -0.84108699179E+03  0.92151657921E+03  0.46999998093E+01 0.  1.
       -5    1    3    3    0  502  0.32394704346E+03  0.19183769449E+03  0.94200861331E+02  0.38812276443E+03  0.46999998093E+01 0. -1.
</event>
<event>
 5   0  0.7952121E-03  0.1102592E+04  0.7818609E-02  0.9202669E-01
        2   -1    0    0  501    0  0.00000000000E+00  0.00000000000E+00  0.24944070659E+04  0.24944070659E+04  0.25500000920E-02 0. -1.
       -2   -1    0    0    0  501  0.00000000000E+00  0.00000000000E+00 -0.12184354764E+03  0.12184354766E+03  0.25500000920E-02 0.  1.
    10030    2    1    2    0    0  0.00000000000E+00  0.00000000000E+00  0.23725635183E+04  0.26162506136E+04  0.11025922296E+04 0.  0.
        3    1    3    3  502    0  0.43932622597E+03 -0.80129889201E+02  0.19533263576E+04  0.20037245823E+04  0.10100000352E+00 0. -1.
       -3    1    3    3    0  502 -0.43932622597E+03  0.80129889201E+02  0.41923716066E+03  0.61252603133E+03  0.10100000352E+00 0.  1.
</event>
<event>
 5   0  0.4504740E-03  0.1093767E+04  0.7818609E-02  0.9211288E-01
       -1   -1    0    0    0  501  0.00000000000E+00  0.00000000000E+00  0.27420734649E+03  0.27420734654E+03  0.50400001928E-02 0.  1.
        1   -1    0    0  501    0  0.00000000000E+00  0.00000000000E+00 -0.10907139470E+04  0.10907139470E+04  0.50400001928E-02 0. -1.
    10030    2    1    2    0    0  0.00000000000E+00  0.00000000000E+00 -0.81650660052E+03  0.13649212936E+04  0.10937673925E+04 0.  0.
        5    1    3    3  502    0  0.12200629103E+03  0.16513961971E+03  0.22425652210E+03  0.30408832064E+03  0.46999998093E+01 0.  1.
       -5    1    3    3    0  502 -0.12200629103E+03 -0.16513961971E+03 -0.10407631226E+04  0.10608329729E+04  0.46999998093E+01 0. -1.
</event>
<event>
 5   0  0.7766551E-03  0.1117138E+04  0.7818609E-02  0.9188647E-01
       -2   -1    0    0    0  501  0.00000000000E+00  0.00000000000E+00  0.15827087610E+03  0.15827087612E+03  0.25500000920E-02 0.  1.
        2   -1    0    0  501    0  0.00000000000E+00  0.00000000000E+00 -0.19712988464E+04  0.19712988464E+04  0.25500000920E-02 0. -1.
    10030    2    1    2    0    0  0.00000000000E+00  0.00000000000E+00 -0.18130279703E+04  0.21295697225E+04  0.11171377632E+04 0.  0.
        5    1    3    3  502    0 -0.51885196187E+03 -0.48896919289E+02 -0.52345818596E+03  0.73866692731E+03  0.46999998093E+01 0.  1.
       -5    1    3    3    0  502  0.51885196187E+03  0.48896919289E+02 -0.12895697843E+04  0.13909027952E+04  0.46999998093E+01 0. -1.
</event>
<event>
 5   0  0.7712816E-03  0.1105480E+04  0.7818609E-02  0.9199867E-01
        2   -1    0    0  501    0  0.00000000000E+00  0.00000000000E+00  0.10791927936E+04  0.10791927936E+04  0.25500000920E-02 0. -1.
       -2   -1    0    0    0  501  0.00000000000E+00  0.00000000000E+00 -0.28310169033E+03  0.28310169034E+03  0.25500000920E-02 0.  1.
    10030    2    1    2    0    0  0.00000000000E+00  0.00000000000E+00  0.79609110323E+03  0.13622944839E+04  0.11054796318E+04 0.  0.
        2    1    3    3  502    0 -0.61300012870E+01  0.37127367835E+03  0.90260058003E+03  0.97599668453E+03  0.25500000920E-02 0. -1.
       -2    1    3    3    0  502  0.61300012870E+01 -0.37127367835E+03 -0.10650947679E+03  0.38629779937E+03  0.25500000920E-02 0.  1.
</event>
<event>
 5   0  0.7766551E-03  0.1097047E+04  0.7818609E-02  0.9208075E-01
       -2   -1    0    0    0  501  0.00000000000E+00  0.00000000000E+00  0.52452660346E+03  0.52452660346E+03  0.25500000920E-02 0.  1.
        2   -1    0    0  501    0  0.00000000000E+00  0.00000000000E+00 -0.57361829093E+03  0.57361829094E+03  0.25500000920E-02 0. -1.
    10030    2    1    2    0    0  0.00000000000E+00  0.00000000000E+00 -0.49091687478E+02  0.10981448944E+04  0.10970470433E+04 0.  0.
        5    1    3    3  502    0 -0.53755386114E+03 -0.48772044097E+02  0.73086874056E+02  0.54470785479E+03  0.46999998093E+01 0.  1.
       -5    1    3    3    0  502  0.53755386114E+03  0.48772044097E+02 -0.12217856153E+03  0.55343703961E+03  0.46999998093E+01 0. -1.
</event>
<event>
 5   0  0.4641021E-03  0.1090129E+04  0.7818609E-02  0.9214866E-01
        1   -1    0    0  501    0  0.00000000000E+00  0.00000000000E+00  0.33369479473E+03  0.33369479477E+03  0.50400001928E-02 0. -1.
       -1   -1    0    0    0  501  0.00000000000E+00  0.00000000000E+00 -0.89032102134E+03  0.89032102135E+03  0.50400001928E-02 0.  1.
    10030    2    1    2    0    0  0.00000000000E+00  0.00000000000E+00 -0.55662622660E+03  0.12240158161E+04  0.10901293327E+04 0.  0.
        1    1    3    3  502    0  0.85943144043E+02  0.53109253449E+03 -0.37651940947E+03  0.65666762515E+03  0.50400001928E-02 0. -1.
       -1    1    3    3    0  502 -0.85943144043E+02 -0.53109253449E+03 -0.18010681714E+03  0.56734819097E+03  0.50400001928E-02 0.  1.
</event>
<event>
 5   0  0.7712816E-03  0.1071267E+04  0.7818609E-02  0.9233659E-01
        2   -1    0    0  501    0  0.00000000000E+00  0.00000000000E+00  0.85651331103E+03  0.85651331103E+03  0.25500000920E-02 0.  1.
       -2   -1    0    0    0  501  0.00000000000E+00  0.00000000000E+00 -0.33496636479E+03  0.33496636480E+03  0.25500000920E-02 0. -1.
    10030    2    1    2    0    0  0.00000000000E+00  0.00000000000E+00  0.52154694624E+03  0.11914796758E+04  0.10712668205E+04 0.  0.
        2    1    3    3  502    0 -0.92646995293E+02 -0.31374767734E+03 -0.21094505436E+03  0.38925427003E+03  0.25500000920E-02 0. -1.
       -2    1    3    3    0  502  0.92646995293E+02  0.31374767734E+03  0.73249200060E+03  0.80222540580E+03  0.25500000920E-02 0.  1.
</event>
<event>
 5   0  0.4504740E-03  0.1123013E+04  0.7818609E-02  0.9183048E-01
       -1   -1    0    0    0  501  0.00000000000E+00  0.00000000000E+00  0.26475053109E+03  0.26475053114E+03  0.50400001928E-02 0.  1.
        1   -1    0    0  501    0  0.00000000000E+00  0.00000000000E+00 -0.11908922250E+04  0.11908922250E+04  0.50400001928E-02 0. -1.
    10030    2    1    2    0    0  0.00000000000E+00  0.00000000000E+00 -0.92614169392E+03  0.14556427562E+04  0.11230126430E+04 0.  0.
        5    1    3    3  502    0  0.10808126685E+03  0.22783071947E+03 -0.11133405630E+04  0.11415505666E+04  0.46999998093E+01 0. -1.
       -5    1    3    3    0  502 -0.10808126685E+03 -0.22783071947E+03  0.18719886904E+03  0.31409218956E+03  0.46999998093E+01 0.  1.
</event>
<event>
 5   0  0.4298101E-03  0.1083755E+04  0.7818609E-02  0.9221172E-01
       -1   -1    0    0    0  501  0.00000000000E+00  0.00000000000E+00  0.83751887450E+03  0.83751887452E+03  0.50400001928E-02 0. -1.
        1   -1    0    0  501    0  0.00000000000E+00  0.00000000000E+00 -0.35059629417E+03  0.35059629420E+03  0.50400001928E-02 0.  1.
    10030    2    1    2    0    0  0.00000000000E+00  0.00000000000E+00  0.48692258034E+03  0.11881151687E+04  0.10837546101E+04 0.  0.
        3    1    3    3  502    0  0.55513695707E+02 -0.17313611071E+03  0.80308021073E+03  0.82340495403E+03  0.10100000352E+00 0. -1.
       -3    1    3    3    0  502 -0.55513695707E+02  0.17313611071E+03 -0.31615763040E+03  0.36471021469E+03  0.10100000352E+00 0.  1.
</event>
<event>
 5   0  0.7738497E-03  0.1043928E+04  0.7818609E-02  0.9261635E-01
        2   -1    0    0  501    0  0.00000000000E+00  0.00000000000E+00  0.62223770899E+03  0.62223770900E+03  0.25500000920E-02 0. -1.
       -2   -1    0    0    0  501  0.00000000000E+00  0.00000000000E+00 -0.43784951911E+03  0.43784951912E+03  0.25500000920E-02 0.  1.
    10030    2    1    2    0    0  0.00000000000E+00  0.00000000000E+00  0.18438818988E+03  0.10600872281E+04  0.10439281233E+04 0.  0.
        4    1    3    3  502    0  0.23157185873E+03  0.16736987382E+03 -0.35138163798E+03  0.45288946646E+03  0.12699999809E+01 0.  1.
       -4    1    3    3    0  502 -0.23157185873E+03 -0.16736987382E+03  0.53576982786E+03  0.60719776166E+03  0.12699999809E+01 0. -1.
</event>
<event>
 5   0  0.4298101E-03  0.9754993E+03  0.7818609E-02  0.9335833E-01
       -1   -1    0    0    0  501  0.00000000000E+00  0.00000000000E+00  0.11133208194E+03  0.11133208206E+03  0.50400001928E-02 0.  1.
        1   -1    0    0  501    0  0.00000000000E+00  0.00000000000E+00 -0.21368478430E+04  0.21368478430E+04  0.50400001928E-02 0. -1.
    10030    2    1    2    0    0  0.00000000000E+00  0.00000000000E+00 -0.20255157611E+04  0.22481799251E+04  0.97549929635E+03 0.  0.
        3    1    3    3  502    0  0.42437227096E+03 -0.33538488531E+02 -0.15614525331E+04  0.16184408170E+04  0.10100000352E+00 0. -1.
       -3    1    3    3    0  502 -0.42437227096E+03  0.33538488531E+02 -0.46406322795E+03  0.62973910813E+03  0.10100000352E+00 0.  1.
</event>
<event>
 5   0  0.4428114E-03  0.1037867E+04  0.7818609E-02  0.9267961E-01
       -1   -1    0    0    0  501  0.00000000000E+00  0.00000000000E+00  0.18768477841E+03  0.18768477847E+03  0.50400001928E-02 0. -1.
        1   -1    0    0  501    0  0.00000000000E+00  0.00000000000E+00 -0.14348090509E+04  0.14348090509E+04  0.50400001928E-02 0.  1.
    10030    2    1    2    0    0  0.00000000000E+00  0.00000000000E+00 -0.12471242724E+04  0.16224938293E+04  0.10378666944E+04 0.  0.
        4    1    3    3  502    0 -0.30222212883E+03  0.50862115965E+02 -0.12782178799E+04  0.13144457887E+04  0.12699999809E+01 0.  1.
       -4    1    3    3    0  502  0.30222212883E+03 -0.50862115965E+02  0.31093607501E+02  0.30804804060E+03  0.12699999809E+01 0. -1.
</event>
<event>
 5   0  0.4298101E-03  0.8360040E+03  0.7818609E-02  0.9509317E-01
        1   -1    0    0  501    0  0.00000000000E+00  0.00000000000E+00  0.42826347802E+03  0.42826347805E+03  0.50400001928E-02 0.  1.
       -1   -1    0    0    0  501  0.00000000000E+00  0.00000000000E+00 -0.40798642686E+03  0.40798642689E+03  0.50400001928E-02 0. -1.
    10030    2    1    2    0    0  0.00000000000E+00  0.00000000000E+00  0.20277051161E+02  0.83624990494E+03  0.83600403390E+03 0.  0.
        3    1    3    3  502    0 -0.37566499528E+03  0.72459232120E+02  0.17856603439E+03  0.42220891492E+03  0.10100000352E+00 0.  1.
       -3    1    3    3    0  502  0.37566499528E+03 -0.72459232120E+02 -0.15828898323E+03  0.41404099002E+03  0.10100000352E+00 0. -1.
</event>
<event>
 5   0  0.7766551E-03  0.1087616E+04  0.7818609E-02  0.9217347E-01
        2   -1    0    0  501    0  0.00000000000E+00  0.00000000000E+00  0.11345314998E+04  0.11345314998E+04  0.25500000920E-02 0. -1.
       -2   -1    0    0    0  501  0.00000000000E+00  0.00000000000E+00 -0.26066030403E+03  0.26066030404E+03  0.25500000920E-02 0.  1.
    10030    2    1    2    0    0  0.00000000000E+00  0.00000000000E+00  0.87387119574E+03  0.13951918038E+04  0.10876163398E+04 0.  0.
        5    1    3    3  502    0  0.25582986392E+02 -0.53336431186E+03  0.56884100340E+03  0.78021417284E+03  0.46999998093E+01 0.  1.
       -5    1    3    3    0  502 -0.25582986392E+02  0.53336431186E+03  0.30503019234E+03  0.61497763098E+03  0.46999998093E+01 0. -1.
</event>
<event>
 5   0  0.4428114E-03  0.1097349E+04  0.7818609E-02  0.9207780E-01
        1   -1    0    0  501    0  0.00000000000E+00  0.00000000000E+00  0.24237156353E+03  0.24237156358E+03  0.50400001928E-02 0. -1.
       -1   -1    0    0    0  501  0.00000000000E+00  0.00000000000E+00 -0.12420741001E+04  0.12420741001E+04  0.50400001928E-02 0.  1.
    10030    2    1    2    0    0  0.00000000000E+00  0.00000000000E+00 -0.99970253656E+03  0.14844456637E+04  0.10973485166E+04 0.  0.
        4    1    3    3  502    0 -0.38207032012E+03  0.29943877858E+03 -0.84579886334E+03  0.97520184667E+03  0.12699999809E+01 0.  1.
       -4    1    3    3    0  502  0.38207032012E+03 -0.29943877858E+03 -0.15390367322E+03  0.50924381701E+03  0.12699999809E+01 0. -1.
</event>
<event>
 5   0  0.4504740E-03  0.9055024E+03  0.7818609E-02  0.9418729E-01
        1   -1    0    0  501    0  0.00000000000E+00  0.00000000000E+00  0.76816769658E+03  0.76816769660E+03  0.50400001928E-02 0.  1.
       -1   -1    0    0    0  501  0.00000000000E+00  0.00000000000E+00 -0.26684750081E+03  0.26684750086E+03  0.50400001928E-02 0. -1.
    10030    2    1    2    0    0  0.00000000000E+00  0.00000000000E+00  0.50132019577E+03  0.10350151975E+04  0.90550235797E+03 0.  0.
        5    1    3    3  502    0 -0.26368157361E+03  0.27428923089E+03 -0.29787502131E+02  0.38166993558E+03  0.46999998093E+01 0. -1.
       -5    1    3    3    0  502  0.26368157361E+03 -0.27428923089E+03  0.53110769790E+03  0.65334526188E+03  0.46999998093E+01 0.  1.
</event>
<event>
 5   0  0.7766551E-03  0.1183532E+04  0.7818609E-02  0.9127394E-01
       -2   -1    0    0    0  501  0.00000000000E+00  0.00000000000E+00  0.17036281839E+03  0.17036281841E+03  0.25500000920E-02 0. -1.
        2   -1    0    0  501    0  0.00000000000E+00  0.00000000000E+00 -0.20555361114E+04  0.20555361115E+04  0.25500000920E-02 0.  1.
    10030    2    1    2    0    0  0.00000000000E+00  0.00000000000E+00 -0.18851732931E+04  0.22258989299E+04  0.11835318758E+04 0.  0.
        5    1    3    3  502    0  0.41745135188E+03 -0.24285736108E+03 -0.15856725174E+04  0.16575960760E+04  0.46999998093E+01 0.  1.
       -5    1    3    3    0  502 -0.41745135188E+03  0.24285736108E+03 -0.29950077570E+03  0.56830285382E+03  0.46999998093E+01 0. -1.
</event>
<event>
 5   0  0.4504740E-03  0.9804009E+03  0.7818609E-02  0.9330306E-01
        1   -1    0    0  501    0  0.00000000000E+00  0.00000000000E+00  0.59740733895E+03  0.59740733897E+03  0.50400001928E-02 0. -1.
       -1   -1    0    0    0  501  0.00000000000E+00  0.00000000000E+00 -0.40223218212E+03  0.40223218215E+03  0.50400001928E-02 0.  1.
    10030    2    1    2    0    0  0.00000000000E+00  0.00000000000E+00  0.19517515682E+03  0.99963952112E+03  0.98040085187E+03 0.  0.
        5    1    3    3  502    0 -0.14670544586E+03  0.28728799327E+03  0.47390660136E+03  0.57329437092E+03  0.46999998093E+01 0. -1.
       -5    1    3    3    0  502  0.14670544586E+03 -0.28728799327E+03 -0.27873144454E+03  0.42634515019E+03  0.46999998093E+01 0.  1.
</event>
<event>
 5   0  0.7738497E-03  0.1062695E+04  0.7818609E-02  0.9242334E-01
        2   -1    0    0  501    0  0.00000000000E+00  0.00000000000E+00  0.12923029038E+04  0.12923029038E+04  0.25500000920E-02 0. -1.
       -2   -1    0    0    0  501  0.00000000000E+00  0.00000000000E+00 -0.21847066485E+03  0.21847066487E+03  0.25500000920E-02 0.  1.
    10030    2    1    2    0    0  0.00000000000E+00  0.00000000000E+00  0.10738322390E+04  0.15107735687E+04  0.10626952048E+04 0.  0.
        4    1    3    3  502    0 -0.29580589171E+03  0.41244096020E+03  0.76043530523E+03  0.91426043203E+03  0.12699999809E+01 0. -1.
       -4    1    3    3    0  502  0.29580589171E+03 -0.41244096020E+03  0.31339693372E+03  0.59651313664E+03  0.12699999809E+01 0.  1.
</event>
<event>
 5   0  0.4598561E-03  0.1075976E+04  0.7818609E-02  0.9228929E-01
       -1   -1    0    0    0  501  0.00000000000E+00  0.00000000000E+00  0.81606490759E+03  0.81606490761E+03  0.50400001928E-02 0.  1.
        1   -1    0    0  501    0  0.00000000000E+00  0.00000000000E+00 -0.35466696146E+03  0.35466696149E+03  0.50400001928E-02 0. -1.
    10030    2    1    2    0    0  0.00000000000E+00  0.00000000000E+00  0.46139794613E+03  0.11707318691E+04  0.10759763216E+04 0.  0.
        2    1    3    3  502    0  0.35559608191E+03 -0.78538182302E+02  0.66157045902E+03  0.75517699370E+03  0.25500000920E-02 0.  1.
       -2    1    3    3    0  502 -0.35559608191E+03  0.78538182302E+02 -0.20017251289E+03  0.41555487541E+03  0.25500000920E-02 0. -1.
</event>
<event>
 5   0  0.4598561E-03  0.1110206E+04  0.7818609E-02  0.9195301E-01
        1   -1    0    0  501    0  0.00000000000E+00  0.00000000000E+00  0.19123989762E+04  0.19123989762E+04  0.50400001928E-02 0.  1.
       -1   -1    0    0    0  501  0.00000000000E+00  0.00000000000E+00 -0.16112716733E+03  0.16112716741E+03  0.50400001928E-02 0. -1.
    10030    2    1    2    0    0  0.00000000000E+00  0.00000000000E+00  0.17512718089E+04  0.20735261437E+04  0.11102061609E+04 0.  0.
        2    1    3    3  502    0  0.23980482932E+03  0.45120470450E+03  0.47052527107E+03  0.69461217399E+03  0.25500000920E-02 0. -1.
       -2    1    3    3    0  502 -0.23980482932E+03 -0.45120470450E+03  0.12807465378E+04  0.13789139697E+04  0.25500000920E-02 0.  1.
</event>
<event>
 5   0  0.4298101E-03  0.1132419E+04  0.7818609E-02  0.9174158E-01
       -1   -1    0    0    0  501  0.00000000000E+00  0.00000000000E+00  0.11450018722E+03  0.11450018733E+03  0.50400001928E-02 0. -1.
        1   -1    0    0  501    0  0.00000000000E+00  0.00000000000E+00 -0.27999349290E+04  0.27999349290E+04  0.50400001928E-02 0.  1.
    10030    2    1    2    0    0  0.00000000000E+00  0.00000000000E+00 -0.26854347417E+04  0.29144351163E+04  0.11324187807E+04 0.  0.
        3    1    3    3  502    0 -0.19270509775E+03  0.34272568249E+03 -0.29414759178E+03  0.49103865845E+03  0.10100000352E+00 0. -1.
       -3    1    3    3    0  502  0.19270509775E+03 -0.34272568249E+03 -0.23912871500E+04  0.24233964578E+04  0.10100000352E+00 0.  1.
</event>
<event>
 5   0  0.7952121E-03  0.1101427E+04  0.7818609E-02  0.9203802E-01
        2   -1    0    0  501    0  0.00000000000E+00  0.00000000000E+00  0.77332748124E+03  0.77332748124E+03  0.25500000920E-02 0.  1.
       -2   -1    0    0    0  501  0.00000000000E+00  0.00000000000E+00 -0.39218258304E+03  0.39218258305E+03  0.25500000920E-02 0. -1.
    10030    2    1    2    0    0  0.00000000000E+00  0.00000000000E+00  0.38114489820E+03  0.11655100643E+04  0.11014273814E+04 0.  0.
        3    1    3    3  502    0  0.10777043967E+03 -0.32942963056E+03  0.64342864342E+03  0.73084798593E+03  0.10100000352E+00 0.  1.
       -3    1    3    3    0  502 -0.10777043967E+03  0.32942963056E+03 -0.26228374523E+03  0.43466207836E+03  0.10100000352E+00 0. -1.
</event>
<event>
 5   0  0.4598561E-03  0.1171219E+04  0.7818609E-02  0.9138429E-01
       -1   -1    0    0    0  501  0.00000000000E+00  0.00000000000E+00  0.42768899590E+03  0.42768899593E+03  0.50400001928E-02 0.  1.
        1   -1    0    0  501    0  0.00000000000E+00  0.00000000000E+00 -0.80184039239E+03  0.80184039240E+03  0.50400001928E-02 0. -1.
    10030    2    1    2    0    0  0.00000000000E+00  0.00000000000E+00 -0.37415139649E+03  0.12295293883E+04  0.11712187026E+04 0.  0.
        2    1    3    3  502    0  0.44716556922E+03  0.34231232660E+03 -0.35570790989E+03  0.66608024472E+03  0.25500000920E-02 0.  1.
       -2    1    3    3    0  502 -0.44716556922E+03 -0.34231232660E+03 -0.18443486594E+02  0.56344914361E+03  0.25500000920E-02 0. -1.
</event>
<event>
 5   0  0.2992375E-03  0.1086872E+04  0.7818609E-02  0.9218083E-01
        3   -1    0    0  501    0  0.00000000000E+00  0.00000000000E+00  0.35737336720E+03  0.35737338147E+03  0.10100000352E+00 0. -1.
       -3   -1    0    0    0  501  0.00000000000E+00  0.00000000000E+00 -0.82637014404E+03  0.82637015021E+03  0.10100000352E+00 0.  1.
    10030    2    1    2    0    0  0.00000000000E+00  0.00000000000E+00 -0.46899677684E+03  0.11837435317E+04  0.10868720128E+04 0.  0.
        3    1    3    3  502    0  0.51081180062E+03  0.53799062834E+01 -0.43639901373E+03  0.67186438247E+03  0.10100000352E+00 0. -1.
       -3    1    3    3    0  502 -0.51081180062E+03 -0.53799062834E+01 -0.32597763104E+02  0.51187914921E+03  0.10100000352E+00 0.  1.
</event>
<event>
 5   0  0.4598561E-03  0.1120250E+04  0.7818609E-02  0.9185676E-01
        1   -1    0    0  501    0  0.00000000000E+00  0.00000000000E+00  0.22261352890E+03  0.22261352895E+03  0.50400001928E-02 0. -1.
       -1   -1    0    0    0  501  0.00000000000E+00  0.00000000000E+00 -0.14093491126E+04  0.14093491126E+04  0.50400001928E-02 0.  1.
    10030    2    1    2    0    0  0.00000000000E+00  0.00000000000E+00 -0.11867355837E+04  0.16319626416E+04  0.11202502925E+04 0.  0.
        2    1    3    3  502    0 -0.15754441266E+03  0.55015171006E+02  0.18555984232E+03  0.24955834205E+03  0.25500000920E-02 0. -1.
       -2    1    3    3    0  502  0.15754441266E+03 -0.55015171006E+02 -0.13722954260E+04  0.13824042995E+04  0.25500000920E-02 0.  1.
</event>
<event>
 5   0  0.7766551E-03  0.1092477E+04  0.7818609E-02  0.9212555E-01
       -2   -1    0    0    0  501  0.00000000000E+00  0.00000000000E+00  0.48958372312E+03  0.48958372312E+03  0.25500000920E-02 0.  1.
        2   -1    0    0  501    0  0.00000000000E+00  0.00000000000E+00 -0.60944978116E+03  0.60944978117E+03  0.25500000920E-02 0. -1.
    10030    2    1    2    0    0  0.00000000000E+00  0.00000000000E+00 -0.11986605805E+03  0.10990335043E+04  0.10924773552E+04 0.  0.
        5    1    3    3  502    0 -0.38310597320E+03 -0.18705784577E+03 -0.40344049210E+03  0.58698138389E+03  0.46999998093E+01 0. -1.
       -5    1    3    3    0  502  0.38310597320E+03  0.18705784577E+03  0.28357443406E+03  0.51205212041E+03  0.46999998093E+01 0.  1.
</event>
<event>
 5   0  0.7738497E-03  0.1122546E+04  0.7818609E-02  0.9183491E-01
       -2   -1    0    0    0  501  0.00000000000E+00  0.00000000000E+00  0.12181153133E+03  0.12181153135E+03  0.25500000920E-02 0.  1.
        2   -1    0    0  501    0  0.00000000000E+00  0.00000000000E+00 -0.25861890742E+04  0.25861890742E+04  0.25500000920E-02 0. -1.
    10030    2    1    2    0    0  0.00000000000E+00  0.00000000000E+00 -0.24643775428E+04  0.27080006055E+04  0.11225464827E+04 0.  0.
        4    1    3    3  502    0 -0.47709357500E+03  0.60599814059E+02 -0.19302588607E+04  0.19892690866E+04  0.12699999809E+01 0. -1.
       -4    1    3    3    0  502  0.47709357500E+03 -0.60599814059E+02 -0.53411868218E+03  0.71873151894E+03  0.12699999809E+01 0.  1.
</event>
<event>
 5   0  0.4598561E-03  0.1134771E+04  0.7818609E-02  0.9171949E-01
        1   -1    0    0  501    0  0.00000000000E+00  0.00000000000E+00  0.45046804522E+03  0.45046804525E+03  0.50400001928E-02 0.  1.
       -1   -1    0    0    0  501  0.00000000000E+00  0.00000000000E+00 -0.71464898504E+03  0.71464898506E+03  0.50400001928E-02 0. -1.
    10030    2    1    2    0    0  0.00000000000E+00  0.00000000000E+00 -0.26418093983E+03  0.11651170303E+04  0.11347713978E+04 0.  0.
        2    1    3    3  502    0  0.40523976546E+03 -0.15586119798E+03  0.24293673117E+03  0.49752410585E+03  0.25500000920E-02 0.  1.
       -2    1    3    3    0  502 -0.40523976546E+03  0.15586119798E+03 -0.50711767099E+03  0.66759292446E+03  0.25500000920E-02 0. -1.
</event>
<event>
 5   0  0.4641021E-03  0.1073461E+04  0.7818609E-02  0.9231452E-01
       -1   -1    0    0    0  501  0.00000000000E+00  0.00000000000E+00  0.34991435718E+03  0.34991435722E+03  0.50400001928E-02 0. -1.
        1   -1    0    0  501    0  0.00000000000E+00  0.00000000000E+00 -0.82328539398E+03  0.82328539400E+03  0.50400001928E-02 0.  1.
    10030    2    1    2    0    0  0.00000000000E+00  0.00000000000E+00 -0.47337103680E+03  0.11731997512E+04  0.10734605339E+04 0.  0.
        1    1    3    3  502    0 -0.20289580638E+03 -0.10254198895E+03 -0.76806845694E+03  0.80100606884E+03  0.50400001928E-02 0.  1.
       -1    1    3    3    0  502  0.20289580638E+03  0.10254198895E+03  0.29469742013E+03  0.37219368238E+03  0.50400001928E-02 0. -1.
</event>
<event>
 5   0  0.4298101E-03  0.1104325E+04  0.7818609E-02  0.9200987E-01
       -1   -1    0    0    0  501  0.00000000000E+00  0.00000000000E+00  0.36044381362E+03  0.36044381366E+03  0.50400001928E-02 0.  1.
        1   -1    0    0  501    0  0.00000000000E+00  0.00000000000E+00 -0.84585558552E+03  0.84585558554E+03  0.50400001928E-02 0. -1.
    10030    2    1    2    0    0  0.00000000000E+00  0.00000000000E+00 -0.48541177190E+03  0.12062993992E+04  0.11043249758E+04 0.  0.
        3    1    3    3  502    0  0.27738044117E+02  0.49440889167E+02  0.35725645695E+03  0.36172639778E+03  0.10100000352E+00 0.  1.
       -3    1    3    3    0  502 -0.27738044117E+02 -0.49440889167E+02 -0.84266822885E+03  0.84457300142E+03  0.10100000352E+00 0. -1.
</event>
<event>
 5   0  0.7712816E-03  0.1096914E+04  0.7818609E-02  0.9208205E-01
       -2   -1    0    0    0  501  0.00000000000E+00  0.00000000000E+00  0.52388141477E+03  0.52388141478E+03  0.25500000920E-02 0.  1.
        2   -1    0    0  501    0  0.00000000000E+00  0.00000000000E+00 -0.57418575794E+03  0.57418575795E+03  0.25500000920E-02 0. -1.
    10030    2    1    2    0    0  0.00000000000E+00  0.00000000000E+00 -0.50304343172E+02  0.10980671727E+04  0.10969143033E+04 0.  0.
        2    1    3    3  502    0 -0.53337357833E+03 -0.22796347456E+02  0.10067082043E+03  0.54326941899E+03  0.25500000920E-02 0.  1.
       -2    1    3    3    0  502  0.53337357833E+03  0.22796347456E+02 -0.15097516360E+03  0.55479775373E+03  0.25500000920E-02 0. -1.
</event>
<event>
 5   0  0.4641021E-03  0.1102161E+04  0.7818609E-02  0.9203088E-01
       -1   -1    0    0    0  501  0.00000000000E+00  0.00000000000E+00  0.49624854264E+03  0.49624854267E+03  0.50400001928E-02 0.  1.
        1   -1    0    0  501    0  0.00000000000E+00  0.00000000000E+00 -0.61197070989E+03  0.61197070992E+03  0.50400001928E-02 0. -1.
    10030    2    1    2    0    0  0.00000000000E+00  0.00000000000E+00 -0.11572216725E+03  0.11082192526E+04  0.11021607377E+04 0.  0.
        1    1    3    3  502    0 -0.26998923210E+03  0.23549796163E+03  0.36317219376E+03  0.51014460472E+03  0.50400001928E-02 0.  1.
       -1    1    3    3    0  502  0.26998923210E+03 -0.23549796163E+03 -0.47889436101E+03  0.59807464786E+03  0.50400001928E-02 0. -1.
</event>
<event>
 5   0  0.7766551E-03  0.1077071E+04  0.7818609E-02  0.9227833E-01
        2   -1    0    0  501    0  0.00000000000E+00  0.00000000000E+00  0.19097917418E+04  0.19097917418E+04  0.25500000920E-02 0. -1.
       -2   -1    0    0    0  501  0.00000000000E+00  0.00000000000E+00 -0.15185978779E+03  0.15185978781E+03  0.25500000920E-02 0.  1.
    10030    2    1    2    0    0  0.00000000000E+00  0.00000000000E+00  0.17579319540E+04  0.20616515296E+04  0.10770711558E+04 0.  0.
        5    1    3    3  502    0  0.36208649164E+03 -0.15955445312E+03  0.15781709174E+04  0.16270248263E+04  0.46999998093E+01 0. -1.
       -5    1    3    3    0  502 -0.36208649164E+03  0.15955445312E+03  0.17976103664E+03  0.43462670332E+03  0.46999998093E+01 0.  1.
</event>
<event>
 5   0  0.4298101E-03  0.1122706E+04  0.7818609E-02  0.9183339E-01
        1   -1    0    0  501    0  0.00000000000E+00  0.00000000000E+00  0.74880446539E+03  0.74880446540E+03  0.50400001928E-02 0. -1.
       -1   -1    0    0    0  501  0.00000000000E+00  0.00000000000E+00 -0.42082701002E+03  0.42082701005E+03  0.50400001928E-02 0.  1.
    10030    2    1    2    0    0  0.00000000000E+00  0.00000000000E+00  0.32797745537E+03  0.11696314755E+04  0.11227059175E+04 0.  0.
        3    1    3    3  502    0  0.83322196841E+02  0.55491916363E+03  0.18010352444E+03  0.58933450295E+03  0.10100000352E+00 0. -1.
       -3    1    3    3    0  502 -0.83322196841E+02 -0.55491916363E+03  0.14787393093E+03  0.58029697250E+03  0.10100000352E+00 0.  1.
</event>
<event>
 5   0  0.7712816E-03  0.1086775E+04  0.7818609E-02  0.9218178E-01
        2   -1    0    0  501    0  0.00000000000E+00  0.00000000000E+00  0.11352575432E+04  0.11352575432E+04  0.25500000920E-02 0.  1.
       -2   -1    0    0    0  501  0.00000000000E+00  0.00000000000E+00 -0.26009095256E+03  0.26009095257E+03  0.25500000920E-02 0. -1.
    10030    2    1    2    0    0  0.00000000000E+00  0.00000000000E+00  0.87516659068E+03  0.13953484958E+04  0.10867754429E+04 0.  0.
        2    1    3    3  502    0  0.29773767603E+03 -0.32095170640E+03  0.85086762289E+03  0.95688736707E+03  0.25500000920E-02 0.  1.
       -2    1    3    3    0  502 -0.29773767603E+03  0.32095170640E+03  0.24298967784E+02  0.43846112874E+03  0.25500000920E-02 0. -1.
</event>
<event>
 5   0  0.2992375E-03  0.1140027E+04  0.7818609E-02  0.9167034E-01
       -3   -1    0    0    0  501  0.00000000000E+00  0.00000000000E+00  0.22306826227E+03  0.22306828513E+03  0.10100000352E+00 0.  1.
        3   -1    0    0  501    0  0.00000000000E+00  0.00000000000E+00 -0.14565729043E+04  0.14565729078E+04  0.10100000352E+00 0. -1.
    10030    2    1    2    0    0  0.00000000000E+00  0.00000000000E+00 -0.12335046421E+04  0.16796411930E+04  0.11400266818E+04 0.  0.
        4    1    3    3  502    0 -0.12752935791E+03 -0.15203552348E+03 -0.14040359501E+04  0.14179905147E+04  0.12699999809E+01 0. -1.
       -4    1    3    3    0  502  0.12752935791E+03  0.15203552348E+03  0.17053130806E+03  0.26165067830E+03  0.12699999809E+01 0.  1.
</event>
<event>
 5   0  0.7766551E-03  0.1088561E+04  0.7818609E-02  0.9216414E-01
        2   -1    0    0  501    0  0.00000000000E+00  0.00000000000E+00  0.17801013815E+04  0.17801013815E+04  0.25500000920E-02 0.  1.
       -2   -1    0    0    0  501  0.00000000000E+00  0.00000000000E+00 -0.16641807645E+03  0.16641807647E+03  0.25500000920E-02 0. -1.
    10030    2    1    2    0    0  0.00000000000E+00  0.00000000000E+00  0.16136833051E+04  0.19465194580E+04  0.10885606052E+04 0.  0.
        5    1    3    3  502    0 -0.69253263966E+01  0.50124012835E+03  0.42781380940E+03  0.65904201074E+03  0.46999998093E+01 0. -1.
       -5    1    3    3    0  502  0.69253263966E+01 -0.50124012835E+03  0.11858694957E+04  0.12874774473E+04  0.46999998093E+01 0.  1.
</event>
<event>
 5   0  0.4641021E-03  0.1113121E+04  0.7818609E-02  0.9192497E-01
       -1   -1    0    0    0  501  0.00000000000E+00  0.00000000000E+00  0.55089915761E+03  0.55089915764E+03  0.50400001928E-02 0.  1.
        1   -1    0    0  501    0  0.00000000000E+00  0.00000000000E+00 -0.56227955234E+03  0.56227955236E+03  0.50400001928E-02 0. -1.
    10030    2    1    2    0    0  0.00000000000E+00  0.00000000000E+00 -0.11380394722E+02  0.11131787100E+04  0.11131205357E+04 0.  0.
        1    1    3    3  502    0  0.14103384811E+03  0.39438432010E+03 -0.37221964313E+03  0.56033650694E+03  0.50400001928E-02 0. -1.
       -1    1    3    3    0  502 -0.14103384811E+03 -0.39438432010E+03  0.36083924841E+03  0.55284220305E+03  0.50400001928E-02 0.  1.
</event>
<event>
 5   0  0.4598561E-03  0.1052063E+04  0.7818609E-02  0.9253216E-01
        1   -1    0    0  501    0  0.00000000000E+00  0.00000000000E+00  0.66703929254E+03  0.66703929256E+03  0.50400001928E-02 0. -1.
       -1   -1    0    0    0  501  0.00000000000E+00  0.00000000000E+00 -0.41483215580E+03  0.41483215583E+03  0.50400001928E-02 0.  1.
    10030    2    1    2    0    0  0.00000000000E+00  0.00000000000E+00  0.25220713675E+03  0.10818714484E+04  0.10520633969E+04 0.  0.
        2    1    3    3  502    0  0.51394213468E+03 -0.11183468465E+03  0.13444722463E+03  0.54288080709E+03  0.25500000920E-02 0. -1.
       -2    1    3    3    0  502 -0.51394213468E+03  0.11183468465E+03  0.11775991212E+03  0.53899064130E+03  0.25500000920E-02 0.  1.
</event>
<event>
 5   0  0.7952121E-03  0.1140615E+04  0.7818609E-02  0.9166485E-01
        2   -1    0    0  501    0  0.00000000000E+00  0.00000000000E+00  0.78828155114E+03  0.78828155114E+03  0.25500000920E-02 0. -1.
       -2   -1    0    0    0  501  0.00000000000E+00  0.00000000000E+00 -0.41260753868E+03  0.41260753868E+03  0.25500000920E-02 0.  1.
    10030    2    1    2    0    0  0.00000000000E+00  0.00000000000E+00  0.37567401246E+03  0.12008890898E+04  0.11406154665E+04 0.  0.
        3    1    3    3  502    0 -0.23777981376E+03  0.38916235244E+03 -0.17269729948E+03  0.48765863454E+03  0.10100000352E+00 0.  1.
       -3    1    3    3    0  502  0.23777981376E+03 -0.38916235244E+03  0.54837131195E+03  0.71323045529E+03  0.10100000352E+00 0. -1.
</event>
<event>
 5   0  0.4504740E-03  0.1096765E+04  0.7818609E-02  0.9208351E-01
        1   -1    0    0  501    0  0.00000000000E+00  0.00000000000E+00  0.84594374825E+03  0.84594374826E+03  0.50400001928E-02 0.  1.
       -1   -1    0    0    0  501  0.00000000000E+00  0.00000000000E+00 -0.35548837208E+03  0.35548837211E+03  0.50400001928E-02 0. -1.
    10030    2    1    2    0    0  0.00000000000E+00  0.00000000000E+00  0.49045537617E+03  0.12014321204E+04  0.10967646347E+04 0.  0.
        5    1    3    3  502    0  0.18119291426E+03 -0.43488882906E+03  0.55261700756E+03  0.72620025672E+03  0.46999998093E+01 0.  1.
       -5    1    3    3    0  502 -0.18119291426E+03  0.43488882906E+03 -0.62161631393E+02  0.47523186365E+03  0.46999998093E+01 0. -1.
</event>
<event>
 5   0  0.7537480E-03  0.1128500E+04  0.7818609E-02  0.9177850E-01
        2   -1    0    0  501    0  0.00000000000E+00  0.00000000000E+00  0.13135816109E+04  0.13135816109E+04  0.25500000920E-02 0.  1.
       -2   -1    0    0    0  501  0.00000000000E+00  0.00000000000E+00 -0.24237409208E+03  0.24237409209E+03  0.25500000920E-02 0. -1.
    10030    2    1    2    0    0  0.00000000000E+00  0.00000000000E+00  0.10712075188E+04  0.15559557030E+04  0.11285001556E+04 0.  0.
        1    1    3    3  502    0  0.23425832412E+02  0.66601315026E+02 -0.23626008568E+03  0.24658331837E+03  0.50400001928E-02 0. -1.
       -1    1    3    3    0  502 -0.23425832412E+02 -0.66601315026E+02  0.13074676045E+04  0.13093723846E+04  0.50400001928E-02 0.  1.
</event>
<event>
 5   0  0.4641021E-03  0.1094108E+04  0.7818609E-02  0.9210954E-01
       -1   -1    0    0    0  501  0.00000000000E+00  0.00000000000E+00  0.55158832230E+03  0.55158832233E+03  0.50400001928E-02 0.  1.
        1   -1    0    0  501    0  0.00000000000E+00  0.00000000000E+00 -0.54255704141E+03  0.54255704143E+03  0.50400001928E-02 0. -1.
    10030    2    1    2    0    0  0.00000000000E+00  0.00000000000E+00  0.90312808995E+01  0.10941453638E+04  0.10941080902E+04 0.  0.
        1    1    3    3  502    0 -0.19268502688E+03 -0.27288739021E+02  0.51580200239E+03  0.55129293534E+03  0.50400001928E-02 0.  1.
       -1    1    3    3    0  502  0.19268502688E+03  0.27288739021E+02 -0.50677072149E+03  0.54285242842E+03  0.50400001928E-02 0. -1.
</event>
<event>
 5   0  0.7712816E-03  0.8998446E+03  0.7818609E-02  0.9425776E-01
        2   -1    0    0  501    0  0.00000000000E+00  0.00000000000E+00  0.68983900853E+03  0.68983900853E+03  0.25500000920E-02 0. -1.
       -2   -1    0    0    0  501  0.00000000000E+00  0.00000000000E+00 -0.29344537005E+03  0.29344537007E+03  0.25500000920E-02 0.  1.
    10030    2    1    2    0    0  0.00000000000E+00  0.00000000000E+00  0.39639363847E+03  0.98328437860E+03  0.89984457134E+03 0.  0.
        2    1    3    3  502    0 -0.26901091918E+03  0.12701957884E+03  0.56702932688E+03  0.64033046593E+03  0.25500000920E-02 0. -1.
       -2    1    3    3    0  502  0.26901091918E+03 -0.12701957884E+03 -0.17063568841E+03  0.34295391267E+03  0.25500000920E-02 0.  1.
</event>
<event>
 5   0  0.4298101E-03  0.1127794E+04  0.7818609E-02  0.9178517E-01
        1   -1    0    0  501    0  0.00000000000E+00  0.00000000000E+00  0.66522708012E+03  0.66522708014E+03  0.50400001928E-02 0.  1.
       -1   -1    0    0    0  501  0.00000000000E+00  0.00000000000E+00 -0.47800206183E+03  0.47800206185E+03  0.50400001928E-02 0. -1.
    10030    2    1    2    0    0  0.00000000000E+00  0.00000000000E+00  0.18722501829E+03  0.11432291420E+04  0.11277941584E+04 0.  0.
        3    1    3    3  502    0 -0.22680459659E+03 -0.43765583296E+03 -0.18399119325E+03  0.52615180562E+03  0.10100000352E+00 0. -1.
       -3    1    3    3    0  502  0.22680459659E+03  0.43765583296E+03  0.37121621154E+03  0.61707733638E+03  0.10100000352E+00 0.  1.
</event>
<event>
 5   0  0.7738497E-03  0.1117467E+04  0.7818609E-02  0.9188333E-01
        2   -1    0    0  501    0  0.00000000000E+00  0.00000000000E+00  0.84065740764E+03  0.84065740765E+03  0.25500000920E-02 0. -1.
       -2   -1    0    0    0  501  0.00000000000E+00  0.00000000000E+00 -0.37135563732E+03  0.37135563733E+03  0.25500000920E-02 0.  1.
    10030    2    1    2    0    0  0.00000000000E+00  0.00000000000E+00  0.46930177032E+03  0.12120130450E+04  0.11174665407E+04 0.  0.
        4    1    3    3  502    0  0.38423020819E+03  0.31790350299E+03 -0.38631061374E+02  0.50018942602E+03  0.12699999809E+01 0.  1.
       -4    1    3    3    0  502 -0.38423020819E+03 -0.31790350299E+03  0.50793283170E+03  0.71182361896E+03  0.12699999809E+01 0. -1.
</event>
<event>
 5   0  0.7537480E-03  0.1092602E+04  0.7818609E-02  0.9212433E-01
        2   -1    0    0  501    0  0.00000000000E+00  0.00000000000E+00  0.44728760965E+03  0.44728760966E+03  0.25500000920E-02 0. -1.
       -2   -1    0    0    0  501  0.00000000000E+00  0.00000000000E+00 -0.66723186169E+03  0.66723186170E+03  0.25500000920E-02 0.  1.
    10030    2    1    2    0    0  0.00000000000E+00  0.00000000000E+00 -0.21994425205E+03  0.11145194714E+04  0.10926015642E+04 0.  0.
        1    1    3    3  502    0  0.31706303360E+03 -0.19962682953E+02 -0.56331642433E+03  0.64672472500E+03  0.50400001928E-02 0.  1.
       -1    1    3    3    0  502 -0.31706303360E+03  0.19962682953E+02  0.34337217229E+03  0.46779474635E+03  0.50400001928E-02 0. -1.
</event>
<event>
 5   0  0.4298101E-03  0.1116278E+04  0.7818609E-02  0.9189469E-01
        1   -1    0    0  501    0  0.00000000000E+00  0.00000000000E+00  0.11099631236E+04  0.11099631236E+04  0.50400001928E-02 0.  1.
       -1   -1    0    0    0  501  0.00000000000E+00  0.00000000000E+00 -0.28065743633E+03  0.28065743638E+03  0.50400001928E-02 0. -1.
    10030    2    1    2    0    0  0.00000000000E+00  0.00000000000E+00  0.82930568729E+03  0.13906205600E+04  0.11162784684E+04 0.  0.
        3    1    3    3  502    0 -0.25194661446E+03  0.46870025004E+03  0.62445376208E+03  0.82042643308E+03  0.10100000352E+00 0.  1.
       -3    1    3    3    0  502  0.25194661446E+03 -0.46870025004E+03  0.20485192521E+03  0.57019412693E+03  0.10100000352E+00 0. -1.
</event>
<event>
 5   0  0.4504740E-03  0.1133331E+04  0.7818609E-02  0.9173301E-01
        1   -1    0    0  501    0  0.00000000000E+00  0.00000000000E+00  0.97683039752E+03  0.97683039753E+03  0.50400001928E-02 0. -1.
       -1   -1    0    0    0  501  0.00000000000E+00  0.00000000000E+00 -0.32872606366E+03  0.32872606370E+03  0.50400001928E-02 0.  1.
    10030    2    1    2    0    0  0.00000000000E+00  0.00000000000E+00  0.64810433385E+03  0.13055564612E+04  0.11333306869E+04 0.  0.
        5    1    3    3  502    0  0.58084741994E+02 -0.30181241147E+03  0.87244397282E+03  0.92501088895E+03  0.46999998093E+01 0. -1.
       -5    1    3    3    0  502 -0.58084741994E+02  0.30181241147E+03 -0.22433963896E+03  0.38054557228E+03  0.46999998093E+01 0.  1.
</event>
<event>
 5   0  0.4298101E-03  0.1088650E+04  0.7818609E-02  0.9216326E-01
        1   -1    0    0  501    0  0.00000000000E+00  0.00000000000E+00  0.21209759832E+04  0.21209759832E+04  0.50400001928E-02 0.  1.
       -1   -1    0    0    0  501  0.00000000000E+00  0.00000000000E+00 -0.13969488546E+03  0.13969488555E+03  0.50400001928E-02 0. -1.
    10030    2    1    2    0    0  0.00000000000E+00  0.00000000000E+00  0.19812810978E+04  0.22606708688E+04  0.10886496170E+04 0.  0.
        3    1    3    3  502    0  0.31920827807E+03 -0.12161459427E+03  0.11058725559E+03  0.35904538101E+03  0.10100000352E+00 0. -1.
       -3    1    3    3    0  502 -0.31920827807E+03  0.12161459427E+03  0.18706938422E+04  0.19016254878E+04  0.10100000352E+00 0.  1.
</event>
<event>
 5   0  0.4504740E-03  0.1104104E+04  0.7818609E-02  0.9201201E-01
        1   -1    0    0  501    0  0.00000000000E+00  0.00000000000E+00  0.45764805215E+03  0.45764805218E+03  0.50400001928E-02 0. -1.
       -1   -1    0    0    0  501  0.00000000000E+00  0.00000000000E+00 -0.66592965868E+03  0.66592965870E+03  0.50400001928E-02 0.  1.
    10030    2    1    2    0    0  0.00000000000E+00  0.00000000000E+00 -0.20828160652E+03  0.11235777109E+04  0.11041040009E+04 0.  0.
        5    1    3    3  502    0  0.19764625905E+03 -0.48708352059E+03 -0.27571136304E+03  0.59359350186E+03  0.46999998093E+01 0.  1.
       -5    1    3    3    0  502 -0.19764625905E+03  0.48708352059E+03  0.67429756513E+02  0.52998420902E+03  0.46999998093E+01 0. -1.
</event>
<event>
 5   0  0.7712816E-03  0.1092606E+04  0.7818609E-02  0.9212428E-01
        2   -1    0    0  501    0  0.00000000000E+00  0.00000000000E+00  0.15013119222E+04  0.15013119222E+04  0.25500000920E-02 0. -1.
       -2   -1    0    0    0  501  0.00000000000E+00  0.00000000000E+00 -0.19879095215E+03  0.19879095217E+03  0.25500000920E-02 0.  1.
    10030    2    1    2    0    0  0.00000000000E+00  0.00000000000E+00  0.13025209700E+04  0.17001028743E+04  0.10926064735E+04 0.  0.
        2    1    3    3  502    0 -0.42586837900E+03 -0.33213460882E+03  0.52323270254E+03  0.75196391910E+03  0.25500000920E-02 0. -1.
       -2    1    3    3    0  502  0.42586837900E+03  0.33213460882E+03  0.77928826746E+03  0.94813895522E+03  0.25500000920E-02 0.  1.
</event>
<event>
 5   0  0.4298101E-03  0.1115220E+04  0.7818609E-02  0.9190483E-01
       -1   -1    0    0    0  501  0.00000000000E+00  0.00000000000E+00  0.45862953214E+03  0.45862953217E+03  0.50400001928E-02 0. -1.
        1   -1    0    0  501    0  0.00000000000E+00  0.00000000000E+00 -0.67795256802E+03  0.67795256804E+03  0.50400001928E-02 0.  1.
    10030    2    1    2    0    0  0.00000000000E+00  0.00000000000E+00 -0.21932303588E+03  0.11365821002E+04  0.11152202816E+04 0.  0.
        3    1    3    3  502    0  0.15612588395E+03 -0.46624283063E+03  0.15838082482E+03  0.51656767671E+03  0.10100000352E+00 0.  1.
       -3    1    3    3    0  502 -0.15612588395E+03  0.46624283063E+03 -0.37770386070E+03  0.62001442349E+03  0.10100000352E+00 0. -1.
</event>
<event>
 5   0  0.7537480E-03  0.1097775E+04  0.7818609E-02  0.9207363E-01
       -2   -1    0    0    0  501  0.00000000000E+00  0.00000000000E+00  0.22667317710E+03  0.22667317711E+03  0.25500000920E-02 0.  1.
        2   -1    0    0  501    0  0.00000000000E+00  0.00000000000E+00 -0.13291275500E+04  0.13291275500E+04  0.25500000920E-02 0. -1.
    10030    2    1    2    0    0  0.00000000000E+00  0.00000000000E+00 -0.11024543729E+04  0.15558007271E+04  0.10977751401E+04 0.  0.
        1    1    3    3  502    0 -0.18226236599E+03 -0.11812693646E+03 -0.12656352495E+04  0.12841363355E+04  0.50400001928E-02 0. -1.
       -1    1    3    3    0  502  0.18226236599E+03  0.11812693646E+03  0.16318087662E+03  0.27166439165E+03  0.50400001928E-02 0.  1.
</event>
<event>
 5   0  0.7738497E-03  0.1076903E+04  0.7818609E-02  0.9228001E-01
        2   -1    0    0  501    0  0.00000000000E+00  0.00000000000E+00  0.48892520267E+03  0.48892520267E+03  0.25500000920E-02 0.  1.
       -2   -1    0    0    0  501  0.00000000000E+00  0.00000000000E+00 -0.59299461907E+03  0.59299461907E+03  0.25500000920E-02 0. -1.
    10030    2    1    2    0    0  0.00000000000E+00  0.00000000000E+00 -0.10406941640E+03  0.10819198217E+04  0.10769029934E+04 0.  0.
        4    1    3    3  502    0  0.20206359430E+03  0.39444465701E+03 -0.35925679856E+03  0.57051147561E+03  0.12699999809E+01 0. -1.
       -4    1    3    3    0  502 -0.20206359430E+03 -0.39444465701E+03  0.25518738216E+03  0.51140834614E+03  0.12699999809E+01 0.  1.
</event>
<event>
 5   0  0.4298101E-03  0.1099613E+04  0.7818609E-02  0.9205569E-01
       -1   -1    0    0    0  501  0.00000000000E+00  0.00000000000E+00  0.18240287749E+04  0.18240287749E+04  0.50400001928E-02 0. -1.
        1   -1    0    0  501    0  0.00000000000E+00  0.00000000000E+00 -0.16572511013E+03  0.16572511021E+03  0.50400001928E-02 0.  1.
    10030    2    1    2    0    0  0.00000000000E+00  0.00000000000E+00  0.16583036647E+04  0.19897538851E+04  0.10996133315E+04 0.  0.
        3    1    3    3  502    0 -0.31288494152E+03 -0.19347903547E+03  0.15685198949E+04  0.16110821812E+04  0.10100000352E+00 0. -1.
       -3    1    3    3    0  502  0.31288494152E+03  0.19347903547E+03  0.89783769889E+02  0.37867170390E+03  0.10100000352E+00 0.  1.
</event>
<event>
 5   0  0.7952121E-03  0.1114299E+04  0.7818609E-02  0.9191366E-01
       -2   -1    0    0    0  501  0.00000000000E+00  0.00000000000E+00  0.43943284182E+03  0.43943284182E+03  0.25500000920E-02 0.  1.
        2   -1    0    0  501    0  0.00000000000E+00  0.00000000000E+00 -0.70640089629E+03  0.70640089629E+03  0.25500000920E-02 0. -1.
    10030    2    1    2    0    0  0.00000000000E+00  0.00000000000E+00 -0.26696805447E+03  0.11458337381E+04  0.11142993374E+04 0.  0.
        3    1    3    3  502    0  0.18395051903E+03  0.37376879292E+03 -0.51391997237E+03  0.66155472352E+03  0.10100000352E+00 0. -1.
       -3    1    3    3    0  502 -0.18395051903E+03 -0.37376879292E+03  0.24695191790E+03  0.48427901459E+03  0.10100000352E+00 0.  1.
</event>
<event>
 5   0  0.7952121E-03  0.1023590E+04  0.7818609E-02  0.9283043E-01
       -2   -1    0    0    0  501  0.00000000000E+00  0.00000000000E+00  0.22693444435E+03  0.22693444437E+03  0.25500000920E-02 0.  1.
        2   -1    0    0  501    0  0.00000000000E+00  0.00000000000E+00 -0.11542290964E+04  0.11542290964E+04  0.25500000920E-02 0. -1.
    10030    2    1    2    0    0  0.00000000000E+00  0.00000000000E+00 -0.92729465208E+03  0.13811635408E+04  0.10235904233E+04 0.  0.
        3    1    3    3  502    0  0.13605450103E+03 -0.85254706363E+02 -0.11193660566E+04  0.11308225197E+04  0.10100000352E+00 0. -1.
       -3    1    3    3    0  502 -0.13605450103E+03  0.85254706363E+02  0.19207140452E+03  0.25034102110E+03  0.10100000352E+00 0.  1.
</event>
<event>
 5   0  0.4598561E-03  0.1254284E+04  0.7818609E-02  0.9066625E-01
       -1   -1    0    0    0  501  0.00000000000E+00  0.00000000000E+00  0.56593643035E+03  0.56593643037E+03  0.50400001928E-02 0. -1.
        1   -1    0    0  501    0  0.00000000000E+00  0.00000000000E+00 -0.69496730535E+03  0.69496730536E+03  0.50400001928E-02 0.  1.
    10030    2    1    2    0    0  0.00000000000E+00  0.00000000000E+00 -0.12903087500E+03  0.12609037357E+04  0.12542843633E+04 0.  0.
        2    1    3    3  502    0  0.30846466059E+03 -0.27188482007E+02 -0.61275364178E+03  0.68655421193E+03  0.25500000920E-02 0.  1.
       -2    1    3    3    0  502 -0.30846466059E+03  0.27188482007E+02  0.48372276679E+03  0.57434952381E+03  0.25500000920E-02 0. -1.
</event>
<event>
 5   0  0.4504740E-03  0.1106907E+04  0.7818609E-02  0.9198486E-01
        1   -1    0    0  501    0  0.00000000000E+00  0.00000000000E+00  0.70983294451E+03  0.70983294453E+03  0.50400001928E-02 0.  1.
       -1   -1    0    0    0  501  0.00000000000E+00  0.00000000000E+00 -0.43152546175E+03  0.43152546178E+03  0.50400001928E-02 0. -1.
    10030    2    1    2    0    0  0.00000000000E+00  0.00000000000E+00  0.27830748276E+03  0.11413584063E+04  0.11069073840E+04 0.  0.
        5    1    3    3  502    0  0.62694885533E+02 -0.65943569119E+02 -0.42373939694E+03  0.43342400660E+03  0.46999998093E+01 0. -1.
       -5    1    3    3    0  502 -0.62694885533E+02  0.65943569119E+02  0.70204687970E+03  0.70793439970E+03  0.46999998093E+01 0.  1.
</event>
<event>
 5   0  0.4641021E-03  0.7073046E+03  0.7818609E-02  0.9704821E-01
       -1   -1    0    0    0  501  0.00000000000E+00  0.00000000000E+00  0.20607207187E+03  0.20607207193E+03  0.50400001928E-02 0.  1.
        1   -1    0    0  501    0  0.00000000000E+00  0.00000000000E+00 -0.60692339884E+03  0.60692339886E+03  0.50400001928E-02 0. -1.
    10030    2    1    2    0    0  0.00000000000E+00  0.00000000000E+00 -0.40085132697E+03  0.81299547079E+03  0.70730463677E+03 0.  0.
        1    1    3    3  502    0 -0.28151093761E+03 -0.17149530790E+03 -0.53178139371E+02  0.33389663545E+03  0.50400001928E-02 0.  1.
       -1    1    3    3    0  502  0.28151093761E+03  0.17149530790E+03 -0.34767318759E+03  0.47909883534E+03  0.50400001928E-02 0. -1.
</event>
<event>
 5   0  0.7766551E-03  0.1096066E+04  0.7818609E-02  0.9209034E-01
        2   -1    0    0  501    0  0.00000000000E+00  0.00000000000E+00  0.60078107039E+03  0.60078107040E+03  0.25500000920E-02 0. -1.
       -2   -1    0    0    0  501  0.00000000000E+00  0.00000000000E+00 -0.49991640452E+03  0.49991640452E+03  0.25500000920E-02 0.  1.
    10030    2    1    2    0    0  0.00000000000E+00  0.00000000000E+00  0.10086466587E+03  0.11006974749E+04  0.10960662619E+04 0.  0.
        5    1    3    3  502    0 -0.28625317987E+03  0.12492960899E+03 -0.40177014570E+03  0.50891023782E+03  0.46999998093E+01 0.  1.
       -5    1    3    3    0  502  0.28625317987E+03 -0.12492960899E+03  0.50263481157E+03  0.59178723710E+03  0.46999998093E+01 0. -1.
</event>
<event>
 5   0  0.7952121E-03  0.1104814E+04  0.7818609E-02  0.9200513E-01
       -2   -1    0    0    0  501  0.00000000000E+00  0.00000000000E+00  0.83237718224E+03  0.83237718225E+03  0.25500000920E-02 0. -1.
        2   -1    0    0  501    0  0.00000000000E+00  0.00000000000E+00 -0.36660481537E+03  0.36660481538E+03  0.25500000920E-02 0.  1.
    10030    2    1    2    0    0  0.00000000000E+00  0.00000000000E+00  0.46577236687E+03  0.11989819976E+04  0.11048139811E+04 0.  0.
        3    1    3    3  502    0 -0.49876520224E+03 -0.97223909078E+02 -0.22223957779E+01  0.50815761797E+03  0.10100000352E+00 0.  1.
       -3    1    3    3    0  502  0.49876520224E+03  0.97223909078E+02  0.46799476265E+03  0.69082437966E+03  0.10100000352E+00 0. -1.
</event>
<event>
 5   0  0.7738497E-03  0.1141504E+04  0.7818609E-02  0.9165658E-01
        2   -1    0    0  501    0  0.00000000000E+00  0.00000000000E+00  0.15403317639E+04  0.15403317639E+04  0.25500000920E-02 0. -1.
       -2   -1    0    0    0  501  0.00000000000E+00  0.00000000000E+00 -0.21148541692E+03  0.21148541694E+03  0.25500000920E-02 0.  1.
    10030    2    1    2    0    0  0.00000000000E+00  0.00000000000E+00  0.13288463469E+04  0.17518171808E+04  0.11415037543E+04 0.  0.
        4    1    3    3  502    0 -0.60653271023E+02  0.12412630524E+03  0.15142824840E+04  0.15205720019E+04  0.12699999809E+01 0. -1.
       -4    1    3    3    0  502  0.60653271023E+02 -0.12412630524E+03 -0.18543613702E+03  0.23124517887E+03  0.12699999809E+01 0.  1.
</event>
<event>
 5   0  0.7952121E-03  0.1109906E+04  0.7818609E-02  0.9195591E-01
        2   -1    0    0  501    0  0.00000000000E+00  0.00000000000E+00  0.18495805102E+04  0.18495805102E+04  0.25500000920E-02 0. -1.
       -2   -1    0    0    0  501  0.00000000000E+00  0.00000000000E+00 -0.16650947063E+03  0.16650947065E+03  0.25500000920E-02 0.  1.
    10030    2    1    2    0    0  0.00000000000E+00  0.00000000000E+00  0.16830710396E+04  0.20160899809E+04  0.11099057107E+04 0.  0.
        3    1    3    3  502    0  0.17918885390E+03  0.44098499166E+03  0.13597696749E+04  0.14406769198E+04  0.10100000352E+00 0.  1.
       -3    1    3    3    0  502 -0.17918885390E+03 -0.44098499166E+03  0.32330136463E+03  0.57541306103E+03  0.10100000352E+00 0. -1.
</event>
<event>
 5   0  0.4504740E-03  0.1103484E+04  0.7818609E-02  0.9201802E-01
       -1   -1    0    0    0  501  0.00000000000E+00  0.00000000000E+00  0.10803458368E+04  0.10803458368E+04  0.50400001928E-02 0. -1.
        1   -1    0    0  501    0  0.00000000000E+00  0.00000000000E+00 -0.28177968118E+03  0.28177968123E+03  0.50400001928E-02 0.  1.
    10030    2    1    2    0    0  0.00000000000E+00  0.00000000000E+00  0.79856615558E+03  0.13621255180E+04  0.11034844910E+04 0.  0.
        5    1    3    3  502    0  0.89956497326E+00  0.16259521688E+03  0.10500741394E+04  0.10625986082E+04  0.46999998093E+01 0. -1.
       -5    1    3    3    0  502 -0.89956497326E+00 -0.16259521688E+03 -0.25150798386E+03  0.29952690983E+03  0.46999998093E+01 0.  1.
</event>
<event>
 5   0  0.4428114E-03  0.1109770E+04  0.7818609E-02  0.9195722E-01
        1   -1    0    0  501    0  0.00000000000E+00  0.00000000000E+00  0.10130021000E+04  0.10130021000E+04  0.50400001928E-02 0. -1.
       -1   -1    0    0    0  501  0.00000000000E+00  0.00000000000E+00 -0.30394527149E+03  0.30394527153E+03  0.50400001928E-02 0.  1.
    10030    2    1    2    0    0  0.00000000000E+00  0.00000000000E+00  0.70905682852E+03  0.13169473715E+04  0.11097697028E+04 0.  0.
        4    1    3    3  502    0 -0.28888519464E+03  0.33658445156E+03  0.75016266064E+03  0.87148687829E+03  0.12699999809E+01 0.  1.
       -4    1    3    3    0  502  0.28888519464E+03 -0.33658445156E+03 -0.41105832123E+02  0.44546049325E+03  0.12699999809E+01 0. -1.
</event>
<event>
 5   0  0.4504740E-03  0.1124145E+04  0.7818609E-02  0.9181973E-01
       -1   -1    0    0    0  501  0.00000000000E+00  0.00000000000E+00  0.39172094173E+03  0.39172094176E+03  0.50400001928E-02 0. -1.
        1   -1    0    0  501    0  0.00000000000E+00  0.00000000000E+00 -0.80650621133E+03  0.80650621135E+03  0.50400001928E-02 0.  1.
    10030    2    1    2    0    0  0.00000000000E+00  0.00000000000E+00 -0.41478526960E+03  0.11982271531E+04  0.11241447818E+04 0.  0.
        5    1    3    3  502    0 -0.37109770320E+03  0.23483785653E+03 -0.58128083644E+03  0.72854088766E+03  0.46999998093E+01 0.  1.
       -5    1    3    3    0  502  0.37109770320E+03 -0.23483785653E+03  0.16649556684E+03  0.46968626545E+03  0.46999998093E+01 0. -1.
</event>
<event>
 5   0  0.4428114E-03  0.1130185E+04  0.7818609E-02  0.9176261E-01
       -1   -1    0    0    0  501  0.00000000000E+00  0.00000000000E+00  0.28989686851E+03  0.28989686855E+03  0.50400001928E-02 0.  1.
        1   -1    0    0  501    0  0.00000000000E+00  0.00000000000E+00 -0.11015282219E+04  0.11015282220E+04  0.50400001928E-02 0. -1.
    10030    2    1    2    0    0  0.00000000000E+00  0.00000000000E+00 -0.81163135344E+03  0.13914250905E+04  0.11301850860E+04 0.  0.
        4    1    3    3  502    0  0.77883811010E+02 -0.23232870887E+03  0.22108585884E+03  0.33003497824E+03  0.12699999809E+01 0.  1.
       -4    1    3    3    0  502 -0.77883811010E+02  0.23232870887E+03 -0.10327172123E+04  0.10613901123E+04  0.12699999809E+01 0. -1.
</event>
<event>
 5   0  0.7952121E-03  0.1244208E+04  0.7818609E-02  0.9075018E-01
       -2   -1    0    0    0  501  0.00000000000E+00  0.00000000000E+00  0.54382995081E+03  0.54382995082E+03  0.25500000920E-02 0. -1.
        2   -1    0    0  501    0  0.00000000000E+00  0.00000000000E+00 -0.71164371053E+03  0.71164371054E+03  0.25500000920E-02 0.  1.
    10030    2    1    2    0    0  0.00000000000E+00  0.00000000000E+00 -0.16781375972E+03  0.12554736614E+04  0.12442076420E+04 0.  0.
        3    1    3    3  502    0  0.47119464137E+02  0.44817721782E+02 -0.70820465851E+03  0.71118402726E+03  0.10100000352E+00 0.  1.
       -3    1    3    3    0  502 -0.47119464137E+02 -0.44817721782E+02  0.54039089879E+03  0.54428963409E+03  0.10100000352E+00 0. -1.
</event>
<event>
 5   0  0.4298101E-03  0.1110261E+04  0.7818609E-02  0.9195248E-01
        1   -1    0    0  501    0  0.00000000000E+00  0.00000000000E+00  0.13366613556E+04  0.13366613556E+04  0.50400001928E-02 0. -1.
       -1   -1    0    0    0  501  0.00000000000E+00  0.00000000000E+00 -0.23055214300E+03  0.23055214305E+03  0.50400001928E-02 0.  1.
    10030    2    1    2    0    0  0.00000000000E+00  0.00000000000E+00  0.11061092126E+04  0.15672134987E+04  0.11102614828E+04 0.  0.
        3    1    3    3  502    0 -0.96306025986E+02  0.17629486701E+03  0.12835553502E+04  0.12991801561E+04  0.10100000352E+00 0. -1.
       -3    1    3    3    0  502  0.96306025986E+02 -0.17629486701E+03 -0.17744613760E+03  0.26803334256E+03  0.10100000352E+00 0.  1.
</event>
<event>
 5   0  0.7766551E-03  0.1110268E+04  0.7818609E-02  0.9195242E-01
       -2   -1    0    0    0  501  0.00000000000E+00  0.00000000000E+00  0.23494635835E+03  0.23494635836E+03  0.25500000920E-02 0. -1.
        2   -1    0    0  501    0  0.00000000000E+00  0.00000000000E+00 -0.13116763999E+04  0.13116763999E+04  0.25500000920E-02 0.  1.
    10030    2    1    2    0    0  0.00000000000E+00  0.00000000000E+00 -0.10767300415E+04  0.15466227582E+04  0.11102677037E+04 0.  0.
        5    1    3    3  502    0  0.33691350784E+03 -0.26385089226E+03 -0.45812537392E+02  0.43040548752E+03  0.46999998093E+01 0. -1.
       -5    1    3    3    0  502 -0.33691350784E+03  0.26385089226E+03 -0.10309175041E+04  0.11162172707E+04  0.46999998093E+01 0.  1.
</event>
<event>
 5   0  0.7952121E-03  0.1106439E+04  0.7818609E-02  0.9198939E-01
       -2   -1    0    0    0  501  0.00000000000E+00  0.00000000000E+00  0.23849378166E+03  0.23849378167E+03  0.25500000920E-02 0. -1.
        2   -1    0    0  501    0  0.00000000000E+00  0.00000000000E+00 -0.12832697878E+04  0.12832697878E+04  0.25500000920E-02 0.  1.
    10030    2    1    2    0    0  0.00000000000E+00  0.00000000000E+00 -0.10447760062E+04  0.15217635695E+04  0.11064390893E+04 0.  0.
        3    1    3    3  502    0  0.85424964838E+02  0.52731721837E+03 -0.72022623104E+03  0.89670881979E+03  0.10100000352E+00 0.  1.
       -3    1    3    3    0  502 -0.85424964838E+02 -0.52731721837E+03 -0.32454977514E+03  0.62505474972E+03  0.10100000352E+00 0. -1.
</event>
<event>
 5   0  0.4298101E-03  0.1029133E+04  0.7818609E-02  0.9277157E-01
        1   -1    0    0  501    0  0.00000000000E+00  0.00000000000E+00  0.10722844637E+04  0.10722844637E+04  0.50400001928E-02 0. -1.
       -1   -1    0    0    0  501  0.00000000000E+00  0.00000000000E+00 -0.24692972065E+03  0.24692972070E+03  0.50400001928E-02 0.  1.
    10030    2    1    2    0    0  0.00000000000E+00  0.00000000000E+00  0.82535474308E+03  0.13192141845E+04  0.10291334280E+04 0.  0.
        3    1    3    3  502    0 -0.71683381643E+02  0.27724334350E+03 -0.13535198417E+03  0.31673734945E+03  0.10100000352E+00 0.  1.
       -3    1    3    3    0  502  0.71683381643E+02 -0.27724334350E+03  0.96070672725E+03  0.10024768350E+04  0.10100000352E+00 0. -1.
</event>
<event>
 5   0  0.7738497E-03  0.1095828E+04  0.7818609E-02  0.9209268E-01
       -2   -1    0    0    0  501  0.00000000000E+00  0.00000000000E+00  0.26406265850E+03  0.26406265851E+03  0.25500000920E-02 0.  1.
        2   -1    0    0  501    0  0.00000000000E+00  0.00000000000E+00 -0.11368879056E+04  0.11368879056E+04  0.25500000920E-02 0. -1.
    10030    2    1    2    0    0  0.00000000000E+00  0.00000000000E+00 -0.87282524710E+03  0.14009505641E+04  0.10958278018E+04 0.  0.
        4    1    3    3  502    0 -0.32899883582E+03 -0.32515151826E+03 -0.81185705014E+03  0.93438601582E+03  0.12699999809E+01 0. -1.
       -4    1    3    3    0  502  0.32899883582E+03  0.32515151826E+03 -0.60968196965E+02  0.46656454831E+03  0.12699999809E+01 0.  1.
</event>
<event>
 5   0  0.2992375E-03  0.1075656E+04  0.7818609E-02  0.9229250E-01
        4   -1    0    0  501    0  0.00000000000E+00  0.00000000000E+00  0.60404801400E+03  0.60404934908E+03  0.12699999809E+01 0. -1.
       -4   -1    0    0    0  501  0.00000000000E+00  0.00000000000E+00 -0.47886472033E+03  0.47886640441E+03  0.12699999809E+01 0.  1.
    10030    2    1    2    0    0  0.00000000000E+00  0.00000000000E+00  0.12518329367E+03  0.10829157535E+04  0.10756559265E+04 0.  0.
        2    1    3    3  502    0 -0.12708886243E+03 -0.48330548228E+03  0.26273771912E+03  0.56459443604E+03  0.25500000920E-02 0.  1.
       -2    1    3    3    0  502  0.12708886243E+03  0.48330548228E+03 -0.13755442545E+03  0.51832131745E+03  0.25500000920E-02 0. -1.
</event>
<event>
 5   0  0.4598561E-03  0.1090430E+04  0.7818609E-02  0.9214570E-01
       -1   -1    0    0    0  501  0.00000000000E+00  0.00000000000E+00  0.25152611512E+03  0.25152611517E+03  0.50400001928E-02 0. -1.
        1   -1    0    0  501    0  0.00000000000E+00  0.00000000000E+00 -0.11818232822E+04  0.11818232822E+04  0.50400001928E-02 0.  1.
    10030    2    1    2    0    0  0.00000000000E+00  0.00000000000E+00 -0.93029716703E+03  0.14333493973E+04  0.10904300417E+04 0.  0.
        2    1    3    3  502    0  0.24499592583E+03  0.99907515753E+01 -0.11052570253E+04  0.11321289286E+04  0.25500000920E-02 0.  1.
       -2    1    3    3    0  502 -0.24499592583E+03 -0.99907515753E+01  0.17495985831E+03  0.30122046879E+03  0.25500000920E-02 0. -1.
</event>
<event>
 5   0  0.4428114E-03  0.1108830E+04  0.7818609E-02  0.9196628E-01
       -1   -1    0    0    0  501  0.00000000000E+00  0.00000000000E+00  0.19127583699E+03  0.19127583706E+03  0.50400001928E-02 0.  1.
        1   -1    0    0  501    0  0.00000000000E+00  0.00000000000E+00 -0.16069779254E+04  0.16069779254E+04  0.50400001928E-02 0. -1.
    10030    2    1    2    0    0  0.00000000000E+00  0.00000000000E+00 -0.14157020884E+04  0.17982537624E+04  0.11088301002E+04 0.  0.
        4    1    3    3  502    0  0.47788204547E+03  0.20256699336E+03 -0.10238641674E+04  0.11479129246E+04  0.12699999809E+01 0. -1.
       -4    1    3    3    0  502 -0.47788204547E+03 -0.20256699336E+03 -0.39183792094E+03  0.65034083785E+03  0.12699999809E+01 0.  1.
</event>
<event>
 5   0  0.4298101E-03  0.1104020E+04  0.7818609E-02  0.9201282E-01
        1   -1    0    0  501    0  0.00000000000E+00  0.00000000000E+00  0.11468806696E+04  0.11468806696E+04  0.50400001928E-02 0. -1.
       -1   -1    0    0    0  501  0.00000000000E+00  0.00000000000E+00 -0.26569050015E+03  0.26569050020E+03  0.50400001928E-02 0.  1.
    10030    2    1    2    0    0  0.00000000000E+00  0.00000000000E+00  0.88119016947E+03  0.14125711698E+04  0.11040204686E+04 0.  0.
        3    1    3    3  502    0  0.45673152781E+02 -0.36235305042E+03 -0.89006541600E+02  0.37590949001E+03  0.10100000352E+00 0.  1.
       -3    1    3    3    0  502 -0.45673152781E+02  0.36235305042E+03  0.97019671107E+03  0.10366616798E+04  0.10100000352E+00 0. -1.
</event>
<event>
 5   0  0.4504740E-03  0.1095201E+04  0.7818609E-02  0.9209881E-01
       -1   -1    0    0    0  501  0.00000000000E+00  0.00000000000E+00  0.48935831565E+03  0.48935831568E+03  0.50400001928E-02 0.  1.
        1   -1    0    0  501    0  0.00000000000E+00  0.00000000000E+00 -0.61277507281E+03  0.61277507284E+03  0.50400001928E-02 0. -1.
    10030    2    1    2    0    0  0.00000000000E+00  0.00000000000E+00 -0.12341675716E+03  0.11021333885E+04  0.10952014929E+04 0.  0.
        5    1    3    3  502    0  0.10989653331E+02  0.26134565352E+03 -0.54581676672E+03  0.60527709021E+03  0.46999998093E+01 0. -1.
       -5    1    3    3    0  502 -0.10989653331E+02 -0.26134565352E+03  0.42240000956E+03  0.49685629831E+03  0.46999998093E+01 0.  1.
</event>
<event>
 5   0  0.7537480E-03  0.9660709E+03  0.7818609E-02  0.9346561E-01
        2   -1    0    0  501    0  0.00000000000E+00  0.00000000000E+00  0.43449190868E+03  0.43449190869E+03  0.25500000920E-02 0. -1.
       -2   -1    0    0    0  501  0.00000000000E+00  0.00000000000E+00 -0.53700255655E+03  0.53700255656E+03  0.25500000920E-02 0.  1.
    10030    2    1    2    0    0  0.00000000000E+00  0.00000000000E+00 -0.10251064787E+03  0.97149446525E+03  0.96607094102E+03 0.  0.
        1    1    3    3  502    0  0.18490352883E+03 -0.31979897401E+03 -0.36423007229E+03  0.51877186155E+03  0.50400001928E-02 0.  1.
       -1    1    3    3    0  502 -0.18490352883E+03  0.31979897401E+03  0.26171942442E+03  0.45272260370E+03  0.50400001928E-02 0. -1.
</event>
<event>
 5   0  0.4641021E-03  0.1101671E+04  0.7818609E-02  0.9203565E-01
       -1   -1    0    0    0  501  0.00000000000E+00  0.00000000000E+00  0.12043464727E+04  0.12043464727E+04  0.50400001928E-02 0.  1.
        1   -1    0    0  501    0  0.00000000000E+00  0.00000000000E+00 -0.25193703512E+03  0.25193703517E+03  0.50400001928E-02 0. -1.
    10030    2    1    2    0    0  0.00000000000E+00  0.00000000000E+00  0.95240943755E+03  0.14562835079E+04  0.11016705127E+04 0.  0.
        1    1    3    3  502    0  0.44291405297E+03  0.23070635105E+03  0.78344370473E+03  0.92907605568E+03  0.50400001928E-02 0.  1.
       -1    1    3    3    0  502 -0.44291405297E+03 -0.23070635105E+03  0.16896573282E+03  0.52720745217E+03  0.50400001928E-02 0. -1.
</event>
<event>
 5   0  0.7537480E-03  0.1147838E+04  0.7818609E-02  0.9159780E-01
        2   -1    0    0  501    0  0.00000000000E+00  0.00000000000E+00  0.16657278489E+04  0.16657278489E+04  0.25500000920E-02 0. -1.
       -2   -1    0    0    0  501  0.00000000000E+00  0.00000000000E+00 -0.19774132189E+03  0.19774132191E+03  0.25500000920E-02 0.  1.
    10030    2    1    2    0    0  0.00000000000E+00  0.00000000000E+00  0.14679865270E+04  0.18634691708E+04  0.11478383628E+04 0.  0.
        1    1    3    3  502    0 -0.46343905175E+03  0.25782888019E+02  0.12819985625E+04  0.13634371369E+04  0.50400001928E-02 0. -1.
       -1    1    3    3    0  502  0.46343905175E+03 -0.25782888019E+02  0.18598796456E+03  0.50003203396E+03  0.50400001928E-02 0.  1.
</event>
<event>
 5   0  0.4298101E-03  0.1100227E+04  0.7818609E-02  0.9204971E-01
       -1   -1    0    0    0  501  0.00000000000E+00  0.00000000000E+00  0.46615173604E+03  0.46615173606E+03  0.50400001928E-02 0. -1.
        1   -1    0    0  501    0  0.00000000000E+00  0.00000000000E+00 -0.64919810091E+03  0.64919810093E+03  0.50400001928E-02 0.  1.
    10030    2    1    2    0    0  0.00000000000E+00  0.00000000000E+00 -0.18304636488E+03  0.11153498370E+04  0.11002269253E+04 0.  0.
        3    1    3    3  502    0  0.19698404942E+03 -0.41193060840E+03  0.21950878307E+03  0.50662970492E+03  0.10100000352E+00 0. -1.
       -3    1    3    3    0  502 -0.19698404942E+03  0.41193060840E+03 -0.40255514795E+03  0.60872013208E+03  0.10100000352E+00 0.  1.
</event>
<event>
 5   0  0.4598561E-03  0.1054864E+04  0.7818609E-02  0.9250336E-01
       -1   -1    0    0    0  501  0.00000000000E+00  0.00000000000E+00  0.19210843365E+03  0.19210843371E+03  0.50400001928E-02 0.  1.
        1   -1    0    0  501    0  0.00000000000E+00  0.00000000000E+00 -0.14480606247E+04  0.14480606247E+04  0.50400001928E-02 0. -1.
    10030    2    1    2    0    0  0.00000000000E+00  0.00000000000E+00 -0.12559521911E+04  0.16401690585E+04  0.10548642728E+04 0.  0.
        2    1    3    3  502    0  0.47044946072E+03 -0.17701960257E+03 -0.37955777838E+03  0.62985930327E+03  0.25500000920E-02 0.  1.
       -2    1    3    3    0  502 -0.47044946072E+03  0.17701960257E+03 -0.87639441271E+03  0.10103097552E+04  0.25500000920E-02 0. -1.
</event>
<event>
 5   0  0.4504740E-03  0.1044490E+04  0.7818609E-02  0.9261051E-01
       -1   -1    0    0    0  501  0.00000000000E+00  0.00000000000E+00  0.10417792324E+04  0.10417792324E+04  0.50400001928E-02 0. -1.
        1   -1    0    0  501    0  0.00000000000E+00  0.00000000000E+00 -0.26180209512E+03  0.26180209517E+03  0.50400001928E-02 0.  1.
    10030    2    1    2    0    0  0.00000000000E+00  0.00000000000E+00  0.77997713730E+03  0.13035813276E+04  0.10444902790E+04 0.  0.
        5    1    3    3  502    0 -0.11520402240E+03  0.24777290881E+03  0.94541443603E+03  0.98412089042E+03  0.46999998093E+01 0. -1.
       -5    1    3    3    0  502  0.11520402240E+03 -0.24777290881E+03 -0.16543729873E+03  0.31946043718E+03  0.46999998093E+01 0.  1.
</event>
<event>
 5   0  0.7766551E-03  0.1115900E+04  0.7818609E-02  0.9189832E-01
       -2   -1    0    0    0  501  0.00000000000E+00  0.00000000000E+00  0.14132756236E+04  0.14132756236E+04  0.25500000920E-02 0.  1.
        2   -1    0    0  501    0  0.00000000000E+00  0.00000000000E+00 -0.22027406562E+03  0.22027406564E+03  0.25500000920E-02 0. -1.
    10030    2    1    2    0    0  0.00000000000E+00  0.00000000000E+00  0.11930015580E+04  0.16335496893E+04  0.11158995788E+04 0.  0.
        5    1    3    3  502    0  0.18963926647E+03  0.60547029108E+02  0.13594885771E+04  0.13739942778E+04  0.46999998093E+01 0.  1.
       -5    1    3    3    0  502 -0.18963926647E+03 -0.60547029108E+02 -0.16648701908E+03  0.25955541150E+03  0.46999998093E+01 0. -1.
</event>
<event>
 5   0  0.7766551E-03  0.1042313E+04  0.7818609E-02  0.9263317E-01
        2   -1    0    0  501    0  0.00000000000E+00  0.00000000000E+00  0.83643891866E+03  0.83643891866E+03  0.25500000920E-02 0.  1.
       -2   -1    0    0    0  501  0.00000000000E+00  0.00000000000E+00 -0.32471474747E+03  0.32471474748E+03  0.25500000920E-02 0. -1.
    10030    2    1    2    0    0  0.00000000000E+00  0.00000000000E+00  0.51172417118E+03  0.11611536661E+04  0.10423129132E+04 0.  0.
        5    1    3    3  502    0 -0.51516392180E+03  0.55992398241E+02  0.31741537004E+03  0.60770356434E+03  0.46999998093E+01 0.  1.
       -5    1    3    3    0  502  0.51516392180E+03 -0.55992398241E+02  0.19430880114E+03  0.55345010180E+03  0.46999998093E+01 0. -1.
</event>
<event>
 5   0  0.7766551E-03  0.1098049E+04  0.7818609E-02  0.9207095E-01
       -2   -1    0    0    0  501  0.00000000000E+00  0.00000000000E+00  0.20688370564E+03  0.20688370565E+03  0.25500000920E-02 0.  1.
        2   -1    0    0  501    0  0.00000000000E+00  0.00000000000E+00 -0.14569924750E+04  0.14569924750E+04  0.25500000920E-02 0. -1.
    10030    2    1    2    0    0  0.00000000000E+00  0.00000000000E+00 -0.12501087693E+04  0.16638761806E+04  0.10980491835E+04 0.  0.
        5    1    3    3  502    0 -0.37343334199E+03 -0.39120327913E+03 -0.76811563798E+03  0.93942332833E+03  0.46999998093E+01 0. -1.
       -5    1    3    3    0  502  0.37343334199E+03  0.39120327913E+03 -0.48199313136E+03  0.72445285229E+03  0.46999998093E+01 0.  1.
</event>
<event>
 5   0  0.4428114E-03  0.1151158E+04  0.7818609E-02  0.9156716E-01
        1   -1    0    0  501    0  0.00000000000E+00  0.00000000000E+00  0.34157899007E+03  0.34157899011E+03  0.50400001928E-02 0. -1.
       -1   -1    0    0    0  501  0.00000000000E+00  0.00000000000E+00 -0.96988210792E+03  0.96988210794E+03  0.50400001928E-02 0.  1.
    10030    2    1    2    0    0  0.00000000000E+00  0.00000000000E+00 -0.62830311785E+03  0.13114610980E+04  0.11511582879E+04 0.  0.
        4    1    3    3  502    0 -0.10685051960E+03 -0.37594077450E+03  0.16723021127E+03  0.42510711113E+03  0.12699999809E+01 0. -1.
       -4    1    3    3    0  502  0.10685051960E+03  0.37594077450E+03 -0.79553332913E+03  0.88635398691E+03  0.12699999809E+01 0.  1.
</event>
<event>
 5   0  0.7712816E-03  0.1100410E+04  0.7818609E-02  0.9204793E-01
        2   -1    0    0  501    0  0.00000000000E+00  0.00000000000E+00  0.19398223435E+04  0.19398223435E+04  0.25500000920E-02 0. -1.
       -2   -1    0    0    0  501  0.00000000000E+00  0.00000000000E+00 -0.15605826172E+03  0.15605826174E+03  0.25500000920E-02 0.  1.
    10030    2    1    2    0    0  0.00000000000E+00  0.00000000000E+00  0.17837640818E+04  0.20958806052E+04  0.11004095656E+04 0.  0.
        2    1    3    3  502    0 -0.83447058794E+02 -0.46567178499E+02 -0.14013131582E+03  0.16961338218E+03  0.25500000920E-02 0.  1.
       -2    1    3    3    0  502  0.83447058794E+02  0.46567178499E+02  0.19238953976E+04  0.19262672231E+04  0.25500000920E-02 0. -1.
</event>
<event>
 5   0  0.7952121E-03  0.1091718E+04  0.7818609E-02  0.9213302E-01
       -2   -1    0    0    0  501  0.00000000000E+00  0.00000000000E+00  0.33476230103E+03  0.33476230104E+03  0.25500000920E-02 0.  1.
        2   -1    0    0  501    0  0.00000000000E+00  0.00000000000E+00 -0.89007018498E+03  0.89007018499E+03  0.25500000920E-02 0. -1.
    10030    2    1    2    0    0  0.00000000000E+00  0.00000000000E+00 -0.55530788396E+03  0.12248324860E+04  0.10917178082E+04 0.  0.
        3    1    3    3  502    0  0.37745753645E+03 -0.22560954671E+03  0.85179562816E+02  0.44791676404E+03  0.10100000352E+00 0.  1.
       -3    1    3    3    0  502 -0.37745753645E+03  0.22560954671E+03 -0.64048744677E+03  0.77691572198E+03  0.10100000352E+00 0. -1.
</event>
<event>
 5   0  0.4641021E-03  0.1066608E+04  0.7818609E-02  0.9238364E-01
       -1   -1    0    0    0  501  0.00000000000E+00  0.00000000000E+00  0.13652275797E+03  0.13652275806E+03  0.50400001928E-02 0.  1.
        1   -1    0    0  501    0  0.00000000000E+00  0.00000000000E+00 -0.20832642346E+04  0.20832642346E+04  0.50400001928E-02 0. -1.
    10030    2    1    2    0    0  0.00000000000E+00  0.00000000000E+00 -0.19467414766E+04  0.22197869926E+04  0.10666076673E+04 0.  0.
        1    1    3    3  502    0  0.35870569289E+02 -0.12607246923E+03  0.10247707898E+03  0.16638063884E+03  0.50400001928E-02 0.  1.
       -1    1    3    3    0  502 -0.35870569289E+02  0.12607246923E+03 -0.20492185556E+04  0.20534063538E+04  0.50400001928E-02 0. -1.
</event>
<event>
 5   0  0.7952121E-03  0.1228095E+04  0.7818609E-02  0.9088615E-01
       -2   -1    0    0    0  501  0.00000000000E+00  0.00000000000E+00  0.31028344812E+03  0.31028344814E+03  0.25500000920E-02 0.  1.
        2   -1    0    0  501    0  0.00000000000E+00  0.00000000000E+00 -0.12151927952E+04  0.12151927952E+04  0.25500000920E-02 0. -1.
    10030    2    1    2    0    0  0.00000000000E+00  0.00000000000E+00 -0.90490934710E+03  0.15254762434E+04  0.12280948020E+04 0.  0.
        3    1    3    3  502    0  0.25697653263E+03 -0.16189673795E+03  0.21044630901E+03  0.36950663222E+03  0.10100000352E+00 0.  1.
       -3    1    3    3    0  502 -0.25697653263E+03  0.16189673795E+03 -0.11153556561E+04  0.11559696111E+04  0.10100000352E+00 0. -1.
</event>
<event>
 5   0  0.4428114E-03  0.1107729E+04  0.7818609E-02  0.9197691E-01
        1   -1    0    0  501    0  0.00000000000E+00  0.00000000000E+00  0.91998253859E+03  0.91998253860E+03  0.50400001928E-02 0.  1.
       -1   -1    0    0    0  501  0.00000000000E+00  0.00000000000E+00 -0.33344770871E+03  0.33344770875E+03  0.50400001928E-02 0. -1.
    10030    2    1    2    0    0  0.00000000000E+00  0.00000000000E+00  0.58653482987E+03  0.12534302474E+04  0.11077293344E+04 0.  0.
        4    1    3    3  502    0  0.52742403371E+03  0.13010304897E+03  0.41545990200E+03  0.68389433230E+03  0.12699999809E+01 0. -1.
       -4    1    3    3    0  502 -0.52742403371E+03 -0.13010304897E+03  0.17107492788E+03  0.56953591505E+03  0.12699999809E+01 0.  1.
</event>
<event>
 5   0  0.7766551E-03  0.1094908E+04  0.7818609E-02  0.9210169E-01
        2   -1    0    0  501    0  0.00000000000E+00  0.00000000000E+00  0.20200348990E+04  0.20200348990E+04  0.25500000920E-02 0. -1.
       -2   -1    0    0    0  501  0.00000000000E+00  0.00000000000E+00 -0.14836679906E+03  0.14836679908E+03  0.25500000920E-02 0.  1.
    10030    2    1    2    0    0  0.00000000000E+00  0.00000000000E+00  0.18716680999E+04  0.21684016981E+04  0.10949084199E+04 0.  0.
        5    1    3    3  502    0  0.13606464040E+03  0.52928487492E+03  0.87233761028E+03  0.10293935406E+04  0.46999998093E+01 0.  1.
       -5    1    3    3    0  502 -0.13606464040E+03 -0.52928487492E+03  0.99933048965E+03  0.11390081574E+04  0.46999998093E+01 0. -1.
</event>
<event>
 5   0  0.4298101E-03  0.1075798E+04  0.7818609E-02  0.9229107E-01
       -1   -1    0    0    0  501  0.00000000000E+00  0.00000000000E+00  0.59229726185E+03  0.59229726187E+03  0.50400001928E-02 0.  1.
        1   -1    0    0  501    0  0.00000000000E+00  0.00000000000E+00 -0.48849682586E+03  0.48849682589E+03  0.50400001928E-02 0. -1.
    10030    2    1    2    0    0  0.00000000000E+00  0.00000000000E+00  0.10380043599E+03  0.10807940878E+04  0.10757979967E+04 0.  0.
        3    1    3    3  502    0 -0.50476021106E+02  0.13013848820E+02  0.58975379424E+03  0.59205298495E+03  0.10100000352E+00 0.  1.
       -3    1    3    3    0  502  0.50476021106E+02 -0.13013848820E+02 -0.48595335825E+03  0.48874110280E+03  0.10100000352E+00 0. -1.
</event>
<event>
 5   0  0.7712816E-03  0.1090203E+04  0.7818609E-02  0.9214793E-01
       -2   -1    0    0    0  501  0.00000000000E+00  0.00000000000E+00  0.22809426235E+03  0.22809426236E+03  0.25500000920E-02 0. -1.
        2   -1    0    0  501    0  0.00000000000E+00  0.00000000000E+00 -0.13026890856E+04  0.13026890856E+04  0.25500000920E-02 0.  1.
    10030    2    1    2    0    0  0.00000000000E+00  0.00000000000E+00 -0.10745948233E+04  0.15307833480E+04  0.10902034784E+04 0.  0.
        2    1    3    3  502    0 -0.86071588174E+02  0.48522776388E+03 -0.21015827299E+03  0.53574322286E+03  0.25500000920E-02 0. -1.
       -2    1    3    3    0  502  0.86071588174E+02 -0.48522776388E+03 -0.86443655029E+03  0.99504012513E+03  0.25500000920E-02 0.  1.
</event>
<event>
 5   0  0.4504740E-03  0.1209941E+04  0.7818609E-02  0.9104200E-01
       -1   -1    0    0    0  501  0.00000000000E+00  0.00000000000E+00  0.13543209199E+04  0.13543209199E+04  0.50400001928E-02 0.  1.
        1   -1    0    0  501    0  0.00000000000E+00  0.00000000000E+00 -0.27023814807E+03  0.27023814811E+03  0.50400001928E-02 0. -1.
    10030    2    1    2    0    0  0.00000000000E+00  0.00000000000E+00  0.10840827718E+04  0.16245590680E+04  0.12099407875E+04 0.  0.
        5    1    3    3  502    0  0.12322405057E+03  0.20987825758E+03 -0.20158086297E+03  0.31605376750E+03  0.46999998093E+01 0. -1.
       -5    1    3    3    0  502 -0.12322405057E+03 -0.20987825758E+03  0.12856636348E+04  0.13085053005E+04  0.46999998093E+01 0.  1.
</event>
<event>
 5   0  0.4598561E-03  0.1063027E+04  0.7818609E-02  0.9241997E-01
        1   -1    0    0  501    0  0.00000000000E+00  0.00000000000E+00  0.22329610617E+03  0.22329610622E+03  0.50400001928E-02 0. -1.
       -1   -1    0    0    0  501  0.00000000000E+00  0.00000000000E+00 -0.12651650506E+04  0.12651650506E+04  0.50400001928E-02 0.  1.
    10030    2    1    2    0    0  0.00000000000E+00  0.00000000000E+00 -0.10418689445E+04  0.14884611569E+04  0.10630266780E+04 0.  0.
        2    1    3    3  502    0  0.13542870693E+03 -0.30620118945E+03  0.57076654876E+02  0.33964370687E+03  0.25500000920E-02 0. -1.
       -2    1    3    3    0  502 -0.13542870693E+03  0.30620118945E+03 -0.10989455993E+04  0.11488174500E+04  0.25500000920E-02 0.  1.
</event>
<event>
 5   0  0.4504740E-03  0.1112063E+04  0.7818609E-02  0.9193514E-01
        1   -1    0    0  501    0  0.00000000000E+00  0.00000000000E+00  0.10128222465E+04  0.10128222465E+04  0.50400001928E-02 0.  1.
       -1   -1    0    0    0  501  0.00000000000E+00  0.00000000000E+00 -0.30525688811E+03  0.30525688815E+03  0.50400001928E-02 0. -1.
    10030    2    1    2    0    0  0.00000000000E+00  0.00000000000E+00  0.70756535842E+03  0.13180791347E+04  0.11120628889E+04 0.  0.
        5    1    3    3  502    0  0.19511415739E+03 -0.51591034545E+03  0.27068061470E+03  0.61442908796E+03  0.46999998093E+01 0.  1.
       -5    1    3    3    0  502 -0.19511415739E+03  0.51591034545E+03  0.43688474373E+03  0.70365004673E+03  0.46999998093E+01 0. -1.
</event>
<event>
 5   0  0.7766551E-03  0.1135113E+04  0.7818609E-02  0.9171628E-01
       -2   -1    0    0    0  501  0.00000000000E+00  0.00000000000E+00  0.20739403046E+03  0.20739403048E+03  0.25500000920E-02 0.  1.
        2   -1    0    0  501    0  0.00000000000E+00  0.00000000000E+00 -0.15531802675E+04  0.15531802675E+04  0.25500000920E-02 0. -1.
    10030    2    1    2    0    0  0.00000000000E+00  0.00000000000E+00 -0.13457862371E+04  0.17605742980E+04  0.11351128855E+04 0.  0.
        5    1    3    3  502    0  0.27953338648E+02  0.41224726635E+03 -0.69453507463E+02  0.41901679853E+03  0.46999998093E+01 0.  1.
       -5    1    3    3    0  502 -0.27953338648E+02 -0.41224726635E+03 -0.12763327296E+04  0.13415574995E+04  0.46999998093E+01 0. -1.
</event>
<event>
 5   0  0.4504740E-03  0.1047356E+04  0.7818609E-02  0.9258078E-01
       -1   -1    0    0    0  501  0.00000000000E+00  0.00000000000E+00  0.63803649996E+03  0.63803649998E+03  0.50400001928E-02 0.  1.
        1   -1    0    0  501    0  0.00000000000E+00  0.00000000000E+00 -0.42981676579E+03  0.42981676582E+03  0.50400001928E-02 0. -1.
    10030    2    1    2    0    0  0.00000000000E+00  0.00000000000E+00  0.20821973417E+03  0.10678532658E+04  0.10473562620E+04 0.  0.
        5    1    3    3  502    0 -0.48450522221E+03  0.20563975593E+02  0.30558403270E+03  0.57321189666E+03  0.46999998093E+01 0.  1.
       -5    1    3    3    0  502  0.48450522221E+03 -0.20563975593E+02 -0.97364298531E+02  0.49464136914E+03  0.46999998093E+01 0. -1.
</event>
<event>
 5   0  0.7537480E-03  0.1283180E+04  0.7818609E-02  0.9043011E-01
       -2   -1    0    0    0  501  0.00000000000E+00  0.00000000000E+00  0.38185419293E+03  0.38185419294E+03  0.25500000920E-02 0.  1.
        2   -1    0    0  501    0  0.00000000000E+00  0.00000000000E+00 -0.10779978941E+04  0.10779978941E+04  0.25500000920E-02 0. -1.
    10030    2    1    2    0    0  0.00000000000E+00  0.00000000000E+00 -0.69614370117E+03  0.14598520871E+04  0.12831804485E+04 0.  0.
        1    1    3    3  502    0  0.24098184587E+03 -0.13732576605E+03 -0.10062656373E+04  0.10437917172E+04  0.50400001928E-02 0. -1.
       -1    1    3    3    0  502 -0.24098184587E+03  0.13732576605E+03  0.31012193613E+03  0.41606036985E+03  0.50400001928E-02 0.  1.
</event>
<event>
 5   0  0.7766551E-03  0.1110303E+04  0.7818609E-02  0.9195208E-01
       -2   -1    0    0    0  501  0.00000000000E+00  0.00000000000E+00  0.35441694621E+03  0.35441694622E+03  0.25500000920E-02 0. -1.
        2   -1    0    0  501    0  0.00000000000E+00  0.00000000000E+00 -0.86957745168E+03  0.86957745169E+03  0.25500000920E-02 0.  1.
    10030    2    1    2    0    0  0.00000000000E+00  0.00000000000E+00 -0.51516050547E+03  0.12239943979E+04  0.11103026343E+04 0.  0.
        5    1    3    3  502    0  0.39934371818E+03  0.36970212646E+03 -0.13673908872E+03  0.56113700283E+03  0.46999998093E+01 0. -1.
       -5    1    3    3    0  502 -0.39934371818E+03 -0.36970212646E+03 -0.37842141675E+03  0.66285739508E+03  0.46999998093E+01 0.  1.
</event>
<event>
 5   0  0.7766551E-03  0.1101158E+04  0.7818609E-02  0.9204064E-01
       -2   -1    0    0    0  501  0.00000000000E+00  0.00000000000E+00  0.21381398881E+04  0.21381398881E+04  0.25500000920E-02 0. -1.
        2   -1    0    0  501    0  0.00000000000E+00  0.00000000000E+00 -0.14177605310E+03  0.14177605312E+03  0.25500000920E-02 0.  1.
    10030    2    1    2    0    0  0.00000000000E+00  0.00000000000E+00  0.19963638350E+04  0.22799159412E+04  0.11011576351E+04 0.  0.
        5    1    3    3  502    0 -0.31578340785E+03 -0.44712990095E+03  0.11201577617E+04  0.12467637347E+04  0.46999998093E+01 0.  1.
       -5    1    3    3    0  502  0.31578340785E+03  0.44712990095E+03  0.87620607327E+03  0.10331522065E+04  0.46999998093E+01 0. -1.
</event>
<event>
 5   0  0.4504740E-03  0.1099314E+04  0.7818609E-02  0.9205861E-01
       -1   -1    0    0    0  501  0.00000000000E+00  0.00000000000E+00  0.30568178394E+03  0.30568178399E+03  0.50400001928E-02 0. -1.
        1   -1    0    0  501    0  0.00000000000E+00  0.00000000000E+00 -0.98835721989E+03  0.98835721990E+03  0.50400001928E-02 0.  1.
    10030    2    1    2    0    0  0.00000000000E+00  0.00000000000E+00 -0.68267543595E+03  0.12940390039E+04  0.10993139646E+04 0.  0.
        5    1    3    3  502    0  0.38915977911E+03  0.66989552917E+02  0.10870261658E+03  0.40959892910E+03  0.46999998093E+01 0. -1.
       -5    1    3    3    0  502 -0.38915977911E+03 -0.66989552917E+02 -0.79137805252E+03  0.88444007478E+03  0.46999998093E+01 0.  1.
</event>
<event>
 5   0  0.4504740E-03  0.1134397E+04  0.7818609E-02  0.9172300E-01
       -1   -1    0    0    0  501  0.00000000000E+00  0.00000000000E+00  0.22900647573E+03  0.22900647578E+03  0.50400001928E-02 0.  1.
        1   -1    0    0  501    0  0.00000000000E+00  0.00000000000E+00 -0.14048247727E+04  0.14048247727E+04  0.50400001928E-02 0. -1.
    10030    2    1    2    0    0  0.00000000000E+00  0.00000000000E+00 -0.11758182970E+04  0.16338312485E+04  0.11343967036E+04 0.  0.
        5    1    3    3  502    0  0.25235134157E+03 -0.19680097675E+03  0.86528505742E+02  0.33154350596E+03  0.46999998093E+01 0.  1.
       -5    1    3    3    0  502 -0.25235134157E+03  0.19680097675E+03 -0.12623468027E+04  0.13022877425E+04  0.46999998093E+01 0. -1.
</event>
<event>
 5   0  0.7766551E-03  0.1093699E+04  0.7818609E-02  0.9211355E-01
        2   -1    0    0  501    0  0.00000000000E+00  0.00000000000E+00  0.77350115248E+03  0.77350115249E+03  0.25500000920E-02 0. -1.
       -2   -1    0    0    0  501  0.00000000000E+00  0.00000000000E+00 -0.38661114861E+03  0.38661114862E+03  0.25500000920E-02 0.  1.
    10030    2    1    2    0    0  0.00000000000E+00  0.00000000000E+00  0.38689000388E+03  0.11601123011E+04  0.10936986221E+04 0.  0.
        5    1    3    3  502    0  0.52085103617E+03 -0.16285638981E+03  0.23040439625E+03  0.59238187126E+03  0.46999998093E+01 0. -1.
       -5    1    3    3    0  502 -0.52085103617E+03  0.16285638981E+03  0.15648560762E+03  0.56773042985E+03  0.46999998093E+01 0.  1.
</event>
<event>
 5   0  0.4428114E-03  0.1110223E+04  0.7818609E-02  0.9195285E-01
        1   -1    0    0  501    0  0.00000000000E+00  0.00000000000E+00  0.10691625585E+04  0.10691625585E+04  0.50400001928E-02 0.  1.
       -1   -1    0    0    0  501  0.00000000000E+00  0.00000000000E+00 -0.28821499632E+03  0.28821499637E+03  0.50400001928E-02 0. -1.
    10030    2    1    2    0    0  0.00000000000E+00  0.00000000000E+00  0.78094756214E+03  0.13573775548E+04  0.11102228297E+04 0.  0.
        4    1    3    3  502    0  0.53468207753E+02 -0.44481015107E+03  0.79120912152E+03  0.90924606494E+03  0.12699999809E+01 0.  1.
       -4    1    3    3    0  502 -0.53468207753E+02  0.44481015107E+03 -0.10261559381E+02  0.44813148990E+03  0.12699999809E+01 0. -1.
</event>
<event>
 5   0  0.7537480E-03  0.1138143E+04  0.7818609E-02  0.9168792E-01
        2   -1    0    0  501    0  0.00000000000E+00  0.00000000000E+00  0.23490857760E+04  0.23490857760E+04  0.25500000920E-02 0.  1.
       -2   -1    0    0    0  501  0.00000000000E+00  0.00000000000E+00 -0.13785897636E+03  0.13785897638E+03  0.25500000920E-02 0. -1.
    10030    2    1    2    0    0  0.00000000000E+00  0.00000000000E+00  0.22112267997E+04  0.24869447524E+04  0.11381433310E+04 0.  0.
        1    1    3    3  502    0 -0.17592066692E+03  0.25696625407E+03  0.64852791773E+02  0.31809687425E+03  0.50400001928E-02 0. -1.
       -1    1    3    3    0  502  0.17592066692E+03 -0.25696625407E+03  0.21463740079E+04  0.21688478781E+04  0.50400001928E-02 0.  1.
</event>
<event>
 5   0  0.4504740E-03  0.1107086E+04  0.7818609E-02  0.9198312E-01
        1   -1    0    0  501    0  0.00000000000E+00  0.00000000000E+00  0.63820483434E+03  0.63820483436E+03  0.50400001928E-02 0. -1.
       -1   -1    0    0    0  501  0.00000000000E+00  0.00000000000E+00 -0.48011244991E+03  0.48011244993E+03  0.50400001928E-02 0.  1.
    10030    2    1    2    0    0  0.00000000000E+00  0.00000000000E+00  0.15809238443E+03  0.11183172843E+04  0.11070864223E+04 0.  0.
        5    1    3    3  502    0  0.15214863846E+03  0.46082632868E+02 -0.45653542365E+03  0.48344544706E+03  0.46999998093E+01 0.  1.
       -5    1    3    3    0  502 -0.15214863846E+03 -0.46082632868E+02  0.61462780809E+03  0.63487183723E+03  0.46999998093E+01 0. -1.
</event>
<event>
 5   0  0.4641021E-03  0.1109355E+04  0.7818609E-02  0.9196121E-01
        1   -1    0    0  501    0  0.00000000000E+00  0.00000000000E+00  0.10075213365E+04  0.10075213365E+04  0.50400001928E-02 0.  1.
       -1   -1    0    0    0  501  0.00000000000E+00  0.00000000000E+00 -0.30537059802E+03  0.30537059806E+03  0.50400001928E-02 0. -1.
    10030    2    1    2    0    0  0.00000000000E+00  0.00000000000E+00  0.70215073843E+03  0.13128919345E+04  0.11093554761E+04 0.  0.
        1    1    3    3  502    0  0.26510139016E+03 -0.38284948335E+03  0.70772095162E+03  0.84718440693E+03  0.50400001928E-02 0. -1.
       -1    1    3    3    0  502 -0.26510139016E+03  0.38284948335E+03 -0.55702131850E+01  0.46570752760E+03  0.50400001928E-02 0.  1.
</event>
<event>
 5   0  0.4641021E-03  0.1033401E+04  0.7818609E-02  0.9272651E-01
       -1   -1    0    0    0  501  0.00000000000E+00  0.00000000000E+00  0.14671289624E+03  0.14671289632E+03  0.50400001928E-02 0. -1.
        1   -1    0    0  501    0  0.00000000000E+00  0.00000000000E+00 -0.18197415185E+04  0.18197415185E+04  0.50400001928E-02 0.  1.
    10030    2    1    2    0    0  0.00000000000E+00  0.00000000000E+00 -0.16730286223E+04  0.19664544148E+04  0.10334012748E+04 0.  0.
        1    1    3    3  502    0 -0.61148788670E+02 -0.49967568701E+03 -0.10581389800E+04  0.11717820052E+04  0.50400001928E-02 0.  1.
       -1    1    3    3    0  502  0.61148788670E+02  0.49967568701E+03 -0.61488964226E+03  0.79467240969E+03  0.50400001928E-02 0. -1.
</event>
<event>
 5   0  0.4428114E-03  0.1097719E+04  0.7818609E-02  0.9207418E-01
       -1   -1    0    0    0  501  0.00000000000E+00  0.00000000000E+00  0.46239432138E+03  0.46239432141E+03  0.50400001928E-02 0.  1.
        1   -1    0    0  501    0  0.00000000000E+00  0.00000000000E+00 -0.65149268185E+03  0.65149268187E+03  0.50400001928E-02 0. -1.
    10030    2    1    2    0    0  0.00000000000E+00  0.00000000000E+00 -0.18909836046E+03  0.11138870033E+04  0.10977185733E+04 0.  0.
        4    1    3    3  502    0  0.34147102976E+03 -0.34113273650E+03 -0.35968470657E+03  0.60195407559E+03  0.12699999809E+01 0. -1.
       -4    1    3    3    0  502 -0.34147102976E+03  0.34113273650E+03  0.17058634610E+03  0.51193292769E+03  0.12699999809E+01 0.  1.
</event>
<event>
 5   0  0.7738497E-03  0.1097016E+04  0.7818609E-02  0.9208105E-01
        2   -1    0    0  501    0  0.00000000000E+00  0.00000000000E+00  0.42064614755E+03  0.42064614755E+03  0.25500000920E-02 0.  1.
       -2   -1    0    0    0  501  0.00000000000E+00  0.00000000000E+00 -0.71523504828E+03  0.71523504828E+03  0.25500000920E-02 0. -1.
    10030    2    1    2    0    0  0.00000000000E+00  0.00000000000E+00 -0.29458890073E+03  0.11358811958E+04  0.10970157112E+04 0.  0.
        4    1    3    3  502    0 -0.22712783298E+01 -0.23945750776E+03 -0.65824892449E+03  0.70045579176E+03  0.12699999809E+01 0. -1.
       -4    1    3    3    0  502  0.22712783298E+01  0.23945750776E+03  0.36366002376E+03  0.43542540407E+03  0.12699999809E+01 0.  1.
</event>
<event>
 5   0  0.7537480E-03  0.1089627E+04  0.7818609E-02  0.9215361E-01
        2   -1    0    0  501    0  0.00000000000E+00  0.00000000000E+00  0.24686477664E+03  0.24686477665E+03  0.25500000920E-02 0.  1.
       -2   -1    0    0    0  501  0.00000000000E+00  0.00000000000E+00 -0.12023665425E+04  0.12023665425E+04  0.25500000920E-02 0. -1.
    10030    2    1    2    0    0  0.00000000000E+00  0.00000000000E+00 -0.95550176590E+03  0.14492313192E+04  0.10896273638E+04 0.  0.
        1    1    3    3  502    0 -0.26170220239E+03  0.20319531102E+02  0.15721720840E+03  0.30597087561E+03  0.50400001928E-02 0.  1.
       -1    1    3    3    0  502  0.26170220239E+03 -0.20319531102E+02 -0.11127189743E+04  0.11432604436E+04  0.50400001928E-02 0. -1.
</event>
<event>
 5   0  0.4428114E-03  0.1150553E+04  0.7818609E-02  0.9157274E-01
        1   -1    0    0  501    0  0.00000000000E+00  0.00000000000E+00  0.13942405838E+04  0.13942405839E+04  0.50400001928E-02 0. -1.
       -1   -1    0    0    0  501  0.00000000000E+00  0.00000000000E+00 -0.23736430427E+03  0.23736430432E+03  0.50400001928E-02 0.  1.
    10030    2    1    2    0    0  0.00000000000E+00  0.00000000000E+00  0.11568762796E+04  0.16316048882E+04  0.11505528171E+04 0.  0.
        4    1    3    3  502    0  0.22519878526E+03  0.48945413574E+03  0.86439470978E+03  0.10185576425E+04  0.12699999809E+01 0.  1.
       -4    1    3    3    0  502 -0.22519878526E+03 -0.48945413574E+03  0.29248156980E+03  0.61304724569E+03  0.12699999809E+01 0. -1.
</event>
<event>
 5   0  0.7766551E-03  0.9999744E+03  0.7818609E-02  0.9308573E-01
       -2   -1    0    0    0  501  0.00000000000E+00  0.00000000000E+00  0.61840259257E+03  0.61840259257E+03  0.25500000920E-02 0. -1.
        2   -1    0    0  501    0  0.00000000000E+00  0.00000000000E+00 -0.40424670184E+03  0.40424670185E+03  0.25500000920E-02 0.  1.
    10030    2    1    2    0    0  0.00000000000E+00  0.00000000000E+00  0.21415589072E+03  0.10226492944E+04  0.99997441660E+03 0.  0.
        5    1    3    3  502    0 -0.49500137664E+03  0.70271212991E+02  0.10621488340E+03  0.51114391096E+03  0.46999998093E+01 0.  1.
       -5    1    3    3    0  502  0.49500137664E+03 -0.70271212991E+02  0.10794100732E+03  0.51150538346E+03  0.46999998093E+01 0. -1.
</event>
<event>
 5   0  0.7952121E-03  0.7983472E+03  0.7818609E-02  0.9562413E-01
       -2   -1    0    0    0  501  0.00000000000E+00  0.00000000000E+00  0.37263772729E+03  0.37263772729E+03  0.25500000920E-02 0.  1.
        2   -1    0    0  501    0  0.00000000000E+00  0.00000000000E+00 -0.42759907310E+03  0.42759907311E+03  0.25500000920E-02 0. -1.
    10030    2    1    2    0    0  0.00000000000E+00  0.00000000000E+00 -0.54961345813E+02  0.80023680040E+03  0.79834715956E+03 0.  0.
        3    1    3    3  502    0  0.19551211554E+03 -0.34800849056E+03 -0.29639784294E+02  0.40026669089E+03  0.10100000352E+00 0. -1.
       -3    1    3    3    0  502 -0.19551211554E+03  0.34800849056E+03 -0.25321561519E+02  0.39997010951E+03  0.10100000352E+00 0.  1.
</event>
<event>
 5   0  0.7738497E-03  0.1094008E+04  0.7818609E-02  0.9211052E-01
        2   -1    0    0  501    0  0.00000000000E+00  0.00000000000E+00  0.18265724686E+04  0.18265724686E+04  0.25500000920E-02 0.  1.
       -2   -1    0    0    0  501  0.00000000000E+00  0.00000000000E+00 -0.16381147234E+03  0.16381147236E+03  0.25500000920E-02 0. -1.
    10030    2    1    2    0    0  0.00000000000E+00  0.00000000000E+00  0.16627609963E+04  0.19903839410E+04  0.10940082732E+04 0.  0.
        4    1    3    3  502    0 -0.30943289304E+03  0.51818792371E+02  0.16161437300E+02  0.31416032133E+03  0.12699999809E+01 0. -1.
       -4    1    3    3    0  502  0.30943289304E+03 -0.51818792371E+02  0.16465995590E+04  0.16762236196E+04  0.12699999809E+01 0.  1.
</event>
<event>
 5   0  0.7712816E-03  0.1107232E+04  0.7818609E-02  0.9198172E-01
       -2   -1    0    0    0  501  0.00000000000E+00  0.00000000000E+00  0.34689813551E+03  0.34689813552E+03  0.25500000920E-02 0.  1.
        2   -1    0    0  501    0  0.00000000000E+00  0.00000000000E+00 -0.88351780594E+03  0.88351780595E+03  0.25500000920E-02 0. -1.
    10030    2    1    2    0    0  0.00000000000E+00  0.00000000000E+00 -0.53661967043E+03  0.12304159415E+04  0.11072320075E+04 0.  0.
        2    1    3    3  502    0  0.24833662316E+02 -0.70123648619E+02 -0.87793836656E+03  0.88108445246E+03  0.25500000920E-02 0. -1.
       -2    1    3    3    0  502 -0.24833662316E+02  0.70123648619E+02  0.34131869613E+03  0.34933148901E+03  0.25500000920E-02 0.  1.
</event>
<event>
 5   0  0.7712816E-03  0.1103718E+04  0.7818609E-02  0.9201576E-01
        2   -1    0    0  501    0  0.00000000000E+00  0.00000000000E+00  0.89249969340E+03  0.89249969340E+03  0.25500000920E-02 0. -1.
       -2   -1    0    0    0  501  0.00000000000E+00  0.00000000000E+00 -0.34123071690E+03  0.34123071691E+03  0.25500000920E-02 0.  1.
    10030    2    1    2    0    0  0.00000000000E+00  0.00000000000E+00  0.55126897650E+03  0.12337304103E+04  0.11037179173E+04 0.  0.
        2    1    3    3  502    0  0.31601347637E+03  0.42214638040E+03  0.45751669749E+03  0.69813581216E+03  0.25500000920E-02 0.  1.
       -2    1    3    3    0  502 -0.31601347637E+03 -0.42214638040E+03  0.93752279008E+02  0.53559459814E+03  0.25500000920E-02 0. -1.
</event>
<event>
 5   0  0.7712816E-03  0.9468881E+03  0.7818609E-02  0.9368795E-01
        2   -1    0    0  501    0  0.00000000000E+00  0.00000000000E+00  0.37369561832E+03  0.37369561833E+03  0.25500000920E-02 0.  1.
       -2   -1    0    0    0  501  0.00000000000E+00  0.00000000000E+00 -0.59981779823E+03  0.59981779823E+03  0.25500000920E-02 0. -1.
    10030    2    1    2    0    0  0.00000000000E+00  0.00000000000E+00 -0.22612217991E+03  0.97351341656E+03  0.94688813066E+03 0.  0.
        2    1    3    3  502    0 -0.32283182153E+02 -0.22968173828E+03 -0.53740565455E+03  0.58532105916E+03  0.25500000920E-02 0. -1.
       -2    1    3    3    0  502  0.32283182153E+02  0.22968173828E+03  0.31128347464E+03  0.38819235740E+03  0.25500000920E-02 0.  1.
</event>
<event>
 5   0  0.7952121E-03  0.1117448E+04  0.7818609E-02  0.9188351E-01
       -2   -1    0    0    0  501  0.00000000000E+00  0.00000000000E+00  0.49755766006E+03  0.49755766007E+03  0.25500000920E-02 0. -1.
        2   -1    0    0  501    0  0.00000000000E+00  0.00000000000E+00 -0.62740949341E+03  0.62740949342E+03  0.25500000920E-02 0.  1.
    10030    2    1    2    0    0  0.00000000000E+00  0.00000000000E+00 -0.12985183335E+03  0.11249671535E+04  0.11174478054E+04 0.  0.
        3    1    3    3  502    0  0.42094766351E+00 -0.40030177840E+03 -0.45733166635E+03  0.60777788232E+03  0.10100000352E+00 0.  1.
       -3    1    3    3    0  502 -0.42094766351E+00  0.40030177840E+03  0.32747983300E+03  0.51718927117E+03  0.10100000352E+00 0. -1.
</event>
<event>
 5   0  0.7738497E-03  0.1102530E+04  0.7818609E-02  0.9202729E-01
        2   -1    0    0  501    0  0.00000000000E+00  0.00000000000E+00  0.90261991877E+03  0.90261991877E+03  0.25500000920E-02 0.  1.
       -2   -1    0    0    0  501  0.00000000000E+00  0.00000000000E+00 -0.33667896845E+03  0.33667896846E+03  0.25500000920E-02 0. -1.
    10030    2    1    2    0    0  0.00000000000E+00  0.00000000000E+00  0.56594095031E+03  0.12392988872E+04  0.11025300779E+04 0.  0.
        4    1    3    3  502    0 -0.43185925893E+03  0.60408525079E+02  0.66206025347E+03  0.79276541394E+03  0.12699999809E+01 0.  1.
       -4    1    3    3    0  502  0.43185925893E+03 -0.60408525079E+02 -0.96119303151E+02  0.44653347329E+03  0.12699999809E+01 0. -1.
</event>
<event>
 5   0  0.7537480E-03  0.1125187E+04  0.7818609E-02  0.9180985E-01
       -2   -1    0    0    0  501  0.00000000000E+00  0.00000000000E+00  0.43814985648E+03  0.43814985648E+03  0.25500000920E-02 0. -1.
        2   -1    0    0  501    0  0.00000000000E+00  0.00000000000E+00 -0.72238135173E+03  0.72238135174E+03  0.25500000920E-02 0.  1.
    10030    2    1    2    0    0  0.00000000000E+00  0.00000000000E+00 -0.28423149526E+03  0.11605312082E+04  0.11251867144E+04 0.  0.
        1    1    3    3  502    0  0.35855943904E+03 -0.37117145370E+02 -0.58761979892E+03  0.68937622668E+03  0.50400001928E-02 0.  1.
       -1    1    3    3    0  502 -0.35855943904E+03  0.37117145370E+02  0.30338830366E+03  0.47115498154E+03  0.50400001928E-02 0. -1.
</event>
<event>
 5   0  0.4641021E-03  0.1144464E+04  0.7818609E-02  0.9162906E-01
       -1   -1    0    0    0  501  0.00000000000E+00  0.00000000000E+00  0.32773883286E+03  0.32773883290E+03  0.50400001928E-02 0. -1.
        1   -1    0    0  501    0  0.00000000000E+00  0.00000000000E+00 -0.99911733322E+03  0.99911733324E+03  0.50400001928E-02 0.  1.
    10030    2    1    2    0    0  0.00000000000E+00  0.00000000000E+00 -0.67137850036E+03  0.13268561661E+04  0.11444641518E+04 0.  0.
        1    1    3    3  502    0  0.34863761472E+03 -0.23123805971E+03  0.11695534270E+03  0.43439357600E+03  0.50400001928E-02 0. -1.
       -1    1    3    3    0  502 -0.34863761472E+03  0.23123805971E+03 -0.78833384306E+03  0.89246259014E+03  0.50400001928E-02 0.  1.
</event>
<event>
 5   0  0.4298101E-03  0.1049516E+04  0.7818609E-02  0.9255844E-01
       -1   -1    0    0    0  501  0.00000000000E+00  0.00000000000E+00  0.41022957586E+03  0.41022957589E+03  0.50400001928E-02 0. -1.
        1   -1    0    0  501    0  0.00000000000E+00  0.00000000000E+00 -0.67126052941E+03  0.67126052942E+03  0.50400001928E-02 0.  1.
    10030    2    1    2    0    0  0.00000000000E+00  0.00000000000E+00 -0.26103095354E+03  0.10814901053E+04  0.10495159309E+04 0.  0.
        3    1    3    3  502    0  0.38590404740E+03  0.35534491922E+03 -0.14430088441E+03  0.54407233054E+03  0.10100000352E+00 0.  1.
       -3    1    3    3    0  502 -0.38590404740E+03 -0.35534491922E+03 -0.11673006913E+03  0.53741777478E+03  0.10100000352E+00 0. -1.
</event>
<event>
 5   0  0.4641021E-03  0.1078612E+04  0.7818609E-02  0.9226293E-01
       -1   -1    0    0    0  501  0.00000000000E+00  0.00000000000E+00  0.31878590159E+03  0.31878590163E+03  0.50400001928E-02 0.  1.
        1   -1    0    0  501    0  0.00000000000E+00  0.00000000000E+00 -0.91237064318E+03  0.91237064319E+03  0.50400001928E-02 0. -1.
    10030    2    1    2    0    0  0.00000000000E+00  0.00000000000E+00 -0.59358474159E+03  0.12311565448E+04  0.10786118822E+04 0.  0.
        1    1    3    3  502    0 -0.31126910467E+03  0.26672058351E+02 -0.79856735059E+03  0.85750199281E+03  0.50400001928E-02 0. -1.
       -1    1    3    3    0  502  0.31126910467E+03 -0.26672058351E+02  0.20498260900E+03  0.37365455201E+03  0.50400001928E-02 0.  1.
</event>
<event>
 5   0  0.7738497E-03  0.1103288E+04  0.7818609E-02  0.9201993E-01
        2   -1    0    0  501    0  0.00000000000E+00  0.00000000000E+00  0.74918288236E+03  0.74918288236E+03  0.25500000920E-02 0. -1.
       -2   -1    0    0    0  501  0.00000000000E+00  0.00000000000E+00 -0.40619076137E+03  0.40619076138E+03  0.25500000920E-02 0.  1.
    10030    2    1    2    0    0  0.00000000000E+00  0.00000000000E+00  0.34299212099E+03  0.11553736437E+04  0.11032881136E+04 0.  0.
        4    1    3    3  502    0  0.25436773145E+03 -0.16834134543E+02 -0.34080580481E+03  0.42560138672E+03  0.12699999809E+01 0.  1.
       -4    1    3    3    0  502 -0.25436773145E+03  0.16834134543E+02  0.68379792580E+03  0.72977225702E+03  0.12699999809E+01 0. -1.
</event>
<event>
 5   0  0.7712816E-03  0.1099539E+04  0.7818609E-02  0.9205642E-01
        2   -1    0    0  501    0  0.00000000000E+00  0.00000000000E+00  0.59829090129E+03  0.59829090130E+03  0.25500000920E-02 0.  1.
       -2   -1    0    0    0  501  0.00000000000E+00  0.00000000000E+00 -0.50518294654E+03  0.50518294654E+03  0.25500000920E-02 0. -1.
    10030    2    1    2    0    0  0.00000000000E+00  0.00000000000E+00  0.93107954756E+02  0.11034738478E+04  0.10995387404E+04 0.  0.
        2    1    3    3  502    0  0.27029340132E+03 -0.40080136918E+03 -0.21619611938E+03  0.52956682522E+03  0.25500000920E-02 0. -1.
       -2    1    3    3    0  502 -0.27029340132E+03  0.40080136918E+03  0.30930407414E+03  0.57390702262E+03  0.25500000920E-02 0.  1.
</event>
<event>
 5   0  0.7712816E-03  0.1080874E+04  0.7818609E-02  0.9224036E-01
        2   -1    0    0  501    0  0.00000000000E+00  0.00000000000E+00  0.49160501410E+03  0.49160501411E+03  0.25500000920E-02 0.  1.
       -2   -1    0    0    0  501  0.00000000000E+00  0.00000000000E+00 -0.59411987553E+03  0.59411987554E+03  0.25500000920E-02 0. -1.
    10030    2    1    2    0    0  0.00000000000E+00  0.00000000000E+00 -0.10251486143E+03  0.10857248896E+04  0.10808742939E+04 0.  0.
        2    1    3    3  502    0 -0.38665636444E+03 -0.10679763843E+03 -0.41504762462E+03  0.57721175529E+03  0.25500000920E-02 0. -1.
       -2    1    3    3    0  502  0.38665636444E+03  0.10679763843E+03  0.31253276319E+03  0.50851313436E+03  0.25500000920E-02 0.  1.
</event>
<event>
 5   0  0.7537480E-03  0.1100680E+04  0.7818609E-02  0.9204529E-01
        2   -1    0    0  501    0  0.00000000000E+00  0.00000000000E+00  0.21972516536E+04  0.21972516536E+04  0.25500000920E-02 0. -1.
       -2   -1    0    0    0  501  0.00000000000E+00  0.00000000000E+00 -0.13784233929E+03  0.13784233931E+03  0.25500000920E-02 0.  1.
    10030    2    1    2    0    0  0.00000000000E+00  0.00000000000E+00  0.20594093143E+04  0.23350939929E+04  0.11006803495E+04 0.  0.
        1    1    3    3  502    0  0.47257204443E+03 -0.23237439237E+03  0.69058219296E+03  0.86846183604E+03  0.50400001928E-02 0.  1.
       -1    1    3    3    0  502 -0.47257204443E+03  0.23237439237E+03  0.13688271213E+04  0.14666321569E+04  0.50400001928E-02 0. -1.
</event>
<event>
 5   0  0.7766551E-03  0.1092237E+04  0.7818609E-02  0.9212791E-01
        2   -1    0    0  501    0  0.00000000000E+00  0.00000000000E+00  0.15362408430E+04  0.15362408430E+04  0.25500000920E-02 0. -1.
       -2   -1    0    0    0  501  0.00000000000E+00  0.00000000000E+00 -0.19413980204E+03  0.19413980205E+03  0.25500000920E-02 0.  1.
    10030    2    1    2    0    0  0.00000000000E+00  0.00000000000E+00  0.13421010410E+04  0.17303806451E+04  0.10922371412E+04 0.  0.
        5    1    3    3  502    0 -0.13418112443E+03 -0.98303982131E+02 -0.15299768064E+03  0.22605005493E+03  0.46999998093E+01 0.  1.
       -5    1    3    3    0  502  0.13418112443E+03  0.98303982131E+02  0.14950987216E+04  0.15043305901E+04  0.46999998093E+01 0. -1.
</event>
<event>
 5   0  0.4598561E-03  0.1100607E+04  0.7818609E-02  0.9204600E-01
        1   -1    0    0  501    0  0.00000000000E+00  0.00000000000E+00  0.10935239340E+04  0.10935239340E+04  0.50400001928E-02 0.  1.
       -1   -1    0    0    0  501  0.00000000000E+00  0.00000000000E+00 -0.27693408462E+03  0.27693408466E+03  0.50400001928E-02 0. -1.
    10030    2    1    2    0    0  0.00000000000E+00  0.00000000000E+00  0.81658984934E+03  0.13704580186E+04  0.11006071955E+04 0.  0.
        2    1    3    3  502    0  0.33656307631E+03 -0.10156743906E+03  0.93547013012E+03  0.99934729367E+03  0.25500000920E-02 0.  1.
       -2    1    3    3    0  502 -0.33656307631E+03  0.10156743906E+03 -0.11888028078E+03  0.37111072496E+03  0.25500000920E-02 0. -1.
</event>
<event>
 5   0  0.4298101E-03  0.1065029E+04  0.7818609E-02  0.9239963E-01
       -1   -1    0    0    0  501  0.00000000000E+00  0.00000000000E+00  0.15873314172E+03  0.15873314180E+03  0.50400001928E-02 0.  1.
        1   -1    0    0  501    0  0.00000000000E+00  0.00000000000E+00 -0.17864688860E+04  0.17864688861E+04  0.50400001928E-02 0. -1.
    10030    2    1    2    0    0  0.00000000000E+00  0.00000000000E+00 -0.16277357443E+04  0.19452020279E+04  0.10650292371E+04 0.  0.
        3    1    3    3  502    0 -0.40123515046E+03  0.33402584071E+03 -0.62223272827E+03  0.81224164296E+03  0.10100000352E+00 0. -1.
       -3    1    3    3    0  502  0.40123515046E+03 -0.33402584071E+03 -0.10055030161E+04  0.11329603849E+04  0.10100000352E+00 0.  1.
</event>
<event>
 5   0  0.4641021E-03  0.1101908E+04  0.7818609E-02  0.9203334E-01
       -1   -1    0    0    0  501  0.00000000000E+00  0.00000000000E+00  0.41263425661E+03  0.41263425664E+03  0.50400001928E-02 0.  1.
        1   -1    0    0  501    0  0.00000000000E+00  0.00000000000E+00 -0.73564039779E+03  0.73564039781E+03  0.50400001928E-02 0. -1.
    10030    2    1    2    0    0  0.00000000000E+00  0.00000000000E+00 -0.32300614119E+03  0.11482746544E+04  0.11019082152E+04 0.  0.
        1    1    3    3  502    0 -0.96944966315E+02  0.54073062201E+03 -0.11775443612E+03  0.56183097042E+03  0.50400001928E-02 0. -1.
       -1    1    3    3    0  502  0.96944966315E+02 -0.54073062201E+03 -0.20525170507E+03  0.58644368403E+03  0.50400001928E-02 0.  1.
</event>
<event>
 5   0  0.4598561E-03  0.1110273E+04  0.7818609E-02  0.9195237E-01
       -1   -1    0    0    0  501  0.00000000000E+00  0.00000000000E+00  0.98838688911E+03  0.98838688913E+03  0.50400001928E-02 0. -1.
        1   -1    0    0  501    0  0.00000000000E+00  0.00000000000E+00 -0.31179734713E+03  0.31179734717E+03  0.50400001928E-02 0.  1.
    10030    2    1    2    0    0  0.00000000000E+00  0.00000000000E+00  0.67658954199E+03  0.13001842363E+04  0.11102727773E+04 0.  0.
        2    1    3    3  502    0  0.21494355911E+03 -0.50212086507E+03  0.22206959147E+03  0.58961088881E+03  0.25500000920E-02 0. -1.
       -2    1    3    3    0  502 -0.21494355911E+03  0.50212086507E+03  0.45451995051E+03  0.71057334749E+03  0.25500000920E-02 0.  1.
</event>
<event>
 5   0  0.7952121E-03  0.1096902E+04  0.7818609E-02  0.9208217E-01
        2   -1    0    0  501    0  0.00000000000E+00  0.00000000000E+00  0.48968873030E+03  0.48968873031E+03  0.25500000920E-02 0. -1.
       -2   -1    0    0    0  501  0.00000000000E+00  0.00000000000E+00 -0.61426454923E+03  0.61426454924E+03  0.25500000920E-02 0.  1.
    10030    2    1    2    0    0  0.00000000000E+00  0.00000000000E+00 -0.12457581893E+03  0.11039532795E+04  0.10969018683E+04 0.  0.
        3    1    3    3  502    0 -0.14556076819E+03  0.51642054525E+03  0.52110298151E+02  0.53906735216E+03  0.10100000352E+00 0. -1.
       -3    1    3    3    0  502  0.14556076819E+03 -0.51642054525E+03 -0.17668611708E+03  0.56488592739E+03  0.10100000352E+00 0.  1.
</event>
<event>
 5   0  0.4598561E-03  0.1078839E+04  0.7818609E-02  0.9226066E-01
       -1   -1    0    0    0  501  0.00000000000E+00  0.00000000000E+00  0.41501056637E+03  0.41501056640E+03  0.50400001928E-02 0.  1.
        1   -1    0    0  501    0  0.00000000000E+00  0.00000000000E+00 -0.70112223532E+03  0.70112223533E+03  0.50400001928E-02 0. -1.
    10030    2    1    2    0    0  0.00000000000E+00  0.00000000000E+00 -0.28611166895E+03  0.11161328017E+04  0.10788385162E+04 0.  0.
        2    1    3    3  502    0  0.45797065121E+03 -0.11361451300E+03  0.12737613047E+03  0.48874334119E+03  0.25500000920E-02 0.  1.
       -2    1    3    3    0  502 -0.45797065121E+03  0.11361451300E+03 -0.41348779942E+03  0.62738946055E+03  0.25500000920E-02 0. -1.
</event>
<event>
 5   0  0.7766551E-03  0.1098362E+04  0.7818609E-02  0.9206790E-01
       -2   -1    0    0    0  501  0.00000000000E+00  0.00000000000E+00  0.16912310769E+03  0.16912310771E+03  0.25500000920E-02 0.  1.
        2   -1    0    0  501    0  0.00000000000E+00  0.00000000000E+00 -0.17833148766E+04  0.17833148766E+04  0.25500000920E-02 0. -1.
    10030    2    1    2    0    0  0.00000000000E+00  0.00000000000E+00 -0.16141917689E+04  0.19524379843E+04  0.10983619694E+04 0.  0.
        5    1    3    3  502    0 -0.35343107762E+03 -0.41677889545E+03 -0.71039283449E+03  0.89626906876E+03  0.46999998093E+01 0. -1.
       -5    1    3    3    0  502  0.35343107762E+03  0.41677889545E+03 -0.90379893443E+03  0.10561689156E+04  0.46999998093E+01 0.  1.
</event>
<event>
 5   0  0.7537480E-03  0.1018566E+04  0.7818609E-02  0.9288413E-01
       -2   -1    0    0    0  501  0.00000000000E+00  0.00000000000E+00  0.36954450737E+03  0.36954450738E+03  0.25500000920E-02 0. -1.
        2   -1    0    0  501    0  0.00000000000E+00  0.00000000000E+00 -0.70186157427E+03  0.70186157428E+03  0.25500000920E-02 0.  1.
    10030    2    1    2    0    0  0.00000000000E+00  0.00000000000E+00 -0.33231706691E+03  0.10714060817E+04  0.10185658343E+04 0.  0.
        1    1    3    3  502    0 -0.22474691781E+03  0.25589218151E+03 -0.56445357955E+03  0.65924185935E+03  0.50400001928E-02 0.  1.
       -1    1    3    3    0  502  0.22474691781E+03 -0.25589218151E+03  0.23213651264E+03  0.41216422231E+03  0.50400001928E-02 0. -1.
</event>
<event>
 5   0  0.4504740E-03  0.1138382E+04  0.7818609E-02  0.9168569E-01
       -1   -1    0    0    0  501  0.00000000000E+00  0.00000000000E+00  0.42388055834E+03  0.42388055837E+03  0.50400001928E-02 0.  1.
        1   -1    0    0  501    0  0.00000000000E+00  0.00000000000E+00 -0.76431564866E+03  0.76431564868E+03  0.50400001928E-02 0. -1.
    10030    2    1    2    0    0  0.00000000000E+00  0.00000000000E+00 -0.34043509033E+03  0.11881962070E+04  0.11383822626E+04 0.  0.
        5    1    3    3  502    0  0.28943013007E+03 -0.31201828797E+03 -0.56468542629E+03  0.70711875445E+03  0.46999998093E+01 0. -1.
       -5    1    3    3    0  502 -0.28943013007E+03  0.31201828797E+03  0.22425033597E+03  0.48107745260E+03  0.46999998093E+01 0.  1.
</event>
<event>
 5   0  0.4298101E-03  0.1080855E+04  0.7818609E-02  0.9224056E-01
        1   -1    0    0  501    0  0.00000000000E+00  0.00000000000E+00  0.14927385077E+04  0.14927385077E+04  0.50400001928E-02 0. -1.
       -1   -1    0    0    0  501  0.00000000000E+00  0.00000000000E+00 -0.19565498323E+03  0.19565498329E+03  0.50400001928E-02 0.  1.
    10030    2    1    2    0    0  0.00000000000E+00  0.00000000000E+00  0.12970835245E+04  0.16883934910E+04  0.10808547132E+04 0.  0.
        3    1    3    3  502    0 -0.47273939926E+03  0.13518530537E+03  0.29818694896E+03  0.57504180120E+03  0.10100000352E+00 0.  1.
       -3    1    3    3    0  502  0.47273939926E+03 -0.13518530537E+03  0.99889657550E+03  0.11133516898E+04  0.10100000352E+00 0. -1.
</event>
<event>
 5   0  0.4428114E-03  0.1053610E+04  0.7818609E-02  0.9251624E-01
        1   -1    0    0  501    0  0.00000000000E+00  0.00000000000E+00  0.44681037326E+03  0.44681037329E+03  0.50400001928E-02 0.  1.
       -1   -1    0    0    0  501  0.00000000000E+00  0.00000000000E+00 -0.62112202773E+03  0.62112202775E+03  0.50400001928E-02 0. -1.
    10030    2    1    2    0    0  0.00000000000E+00  0.00000000000E+00 -0.17431165448E+03  0.10679324010E+04  0.10536104879E+04 0.  0.
        4    1    3    3  502    0  0.84478026144E+02  0.97521977551E+02  0.43054633047E+03  0.44946504713E+03  0.12699999809E+01 0.  1.
       -4    1    3    3    0  502 -0.84478026144E+02 -0.97521977551E+02 -0.60485798495E+03  0.61846735392E+03  0.12699999809E+01 0. -1.
</event>
<event>
 5   0  0.4504740E-03  0.1053789E+04  0.7818609E-02  0.9251441E-01
       -1   -1    0    0    0  501  0.00000000000E+00  0.00000000000E+00  0.17797947287E+03  0.17797947295E+03  0.50400001928E-02 0. -1.
        1   -1    0    0  501    0  0.00000000000E+00  0.00000000000E+00 -0.15598302962E+04  0.15598302962E+04  0.50400001928E-02 0.  1.
    10030    2    1    2    0    0  0.00000000000E+00  0.00000000000E+00 -0.13818508233E+04  0.17378097692E+04  0.10537889238E+04 0.  0.
        5    1    3    3  502    0 -0.88852232762E+02 -0.51501947719E+03 -0.80100744921E+03  0.95643860485E+03  0.46999998093E+01 0.  1.
       -5    1    3    3    0  502  0.88852232762E+02  0.51501947719E+03 -0.58084337412E+03  0.78137116431E+03  0.46999998093E+01 0. -1.
</event>
<event>
 5   0  0.7712816E-03  0.1097486E+04  0.7818609E-02  0.9207646E-01
        2   -1    0    0  501    0  0.00000000000E+00  0.00000000000E+00  0.51311019615E+03  0.51311019615E+03  0.25500000920E-02 0.  1.
       -2   -1    0    0    0  501  0.00000000000E+00  0.00000000000E+00 -0.58684994608E+03  0.58684994609E+03  0.25500000920E-02 0. -1.
    10030    2    1    2    0    0  0.00000000000E+00  0.00000000000E+00 -0.73739749933E+02  0.10999601422E+04  0.10974856554E+04 0.  0.
        2    1    3    3  502    0 -0.81771110899E+02  0.13150266843E+03 -0.56449697619E+03  0.58535143505E+03  0.25500000920E-02 0. -1.
       -2    1    3    3    0  502  0.81771110899E+02 -0.13150266843E+03  0.49075722626E+03  0.51460870719E+03  0.25500000920E-02 0.  1.
</event>
<event>
 5   0  0.4598561E-03  0.1097593E+04  0.7818609E-02  0.9207541E-01
        1   -1    0    0  501    0  0.00000000000E+00  0.00000000000E+00  0.11528385441E+04  0.11528385441E+04  0.50400001928E-02 0.  1.
       -1   -1    0    0    0  501  0.00000000000E+00  0.00000000000E+00 -0.26124881149E+03  0.26124881154E+03  0.50400001928E-02 0. -1.
    10030    2    1    2    0    0  0.00000000000E+00  0.00000000000E+00  0.89158973265E+03  0.14140873557E+04  0.10975931843E+04 0.  0.
        2    1    3    3  502    0 -0.10037634904E+03  0.24527689507E+03 -0.17334085200E+03  0.31667525587E+03  0.25500000920E-02 0. -1.
       -2    1    3    3    0  502  0.10037634904E+03 -0.24527689507E+03  0.10649305846E+04  0.10974120998E+04  0.25500000920E-02 0.  1.
</event>
<event>
 5   0  0.7766551E-03  0.6993539E+03  0.7818609E-02  0.9718338E-01
       -2   -1    0    0    0  501  0.00000000000E+00  0.00000000000E+00  0.14914289605E+03  0.14914289607E+03  0.25500000920E-02 0. -1.
        2   -1    0    0  501    0  0.00000000000E+00  0.00000000000E+00 -0.81984451849E+03  0.81984451849E+03  0.25500000920E-02 0.  1.
    10030    2    1    2    0    0  0.00000000000E+00  0.00000000000E+00 -0.67070162244E+03  0.96898741456E+03  0.69935394704E+03 0.  0.
        5    1    3    3  502    0 -0.26180846317E+01  0.56803960952E+02  0.14264938106E+03  0.15363749628E+03  0.46999998093E+01 0. -1.
       -5    1    3    3    0  502  0.26180846317E+01 -0.56803960952E+02 -0.81335100350E+03  0.81534991828E+03  0.46999998093E+01 0.  1.
</event>
<event>
 5   0  0.4641021E-03  0.1104132E+04  0.7818609E-02  0.9201174E-01
       -1   -1    0    0    0  501  0.00000000000E+00  0.00000000000E+00  0.20111140473E+03  0.20111140480E+03  0.50400001928E-02 0. -1.
        1   -1    0    0  501    0  0.00000000000E+00  0.00000000000E+00 -0.15154637832E+04  0.15154637832E+04  0.50400001928E-02 0.  1.
    10030    2    1    2    0    0  0.00000000000E+00  0.00000000000E+00 -0.13143523785E+04  0.17165751880E+04  0.11041323296E+04 0.  0.
        1    1    3    3  502    0  0.96255722574E+02 -0.48602138987E+03 -0.27860192402E+03  0.56841972840E+03  0.50400001928E-02 0.  1.
       -1    1    3    3    0  502 -0.96255722574E+02  0.48602138987E+03 -0.10357504545E+04  0.11481554596E+04  0.50400001928E-02 0. -1.
</event>
<event>
 5   0  0.7952121E-03  0.1091742E+04  0.7818609E-02  0.9213278E-01
        2   -1    0    0  501    0  0.00000000000E+00  0.00000000000E+00  0.20228305254E+03  0.20228305255E+03  0.25500000920E-02 0.  1.
       -2   -1    0    0    0  501  0.00000000000E+00  0.00000000000E+00 -0.14730602339E+04  0.14730602339E+04  0.25500000920E-02 0. -1.
    10030    2    1    2    0    0  0.00000000000E+00  0.00000000000E+00 -0.12707771813E+04  0.16753432864E+04  0.10917419488E+04 0.  0.
        3    1    3    3  502    0 -0.41488246246E+03  0.34459129620E+03 -0.50604339305E+03  0.73956104882E+03  0.10100000352E+00 0.  1.
       -3    1    3    3    0  502  0.41488246246E+03 -0.34459129620E+03 -0.76473378829E+03  0.93578223762E+03  0.10100000352E+00 0. -1.
</event>
<event>
 5   0  0.7766551E-03  0.1097700E+04  0.7818609E-02  0.9207437E-01
        2   -1    0    0  501    0  0.00000000000E+00  0.00000000000E+00  0.10791056952E+04  0.10791056952E+04  0.25500000920E-02 0. -1.
       -2   -1    0    0    0  501  0.00000000000E+00  0.00000000000E+00 -0.27915344152E+03  0.27915344153E+03  0.25500000920E-02 0.  1.
    10030    2    1    2    0    0  0.00000000000E+00  0.00000000000E+00  0.79995225365E+03  0.13582591367E+04  0.10976995374E+04 0.  0.
        5    1    3    3  502    0  0.51882376514E+03 -0.14327695227E+03  0.53271295154E+03  0.75730546219E+03  0.46999998093E+01 0.  1.
       -5    1    3    3    0  502 -0.51882376514E+03  0.14327695227E+03  0.26723930211E+03  0.60095367452E+03  0.46999998093E+01 0. -1.
</event>
<event>
 5   0  0.7766551E-03  0.1097763E+04  0.7818609E-02  0.9207375E-01
        2   -1    0    0  501    0  0.00000000000E+00  0.00000000000E+00  0.87730950081E+03  0.87730950081E+03  0.25500000920E-02 0.  1.
       -2   -1    0    0    0  501  0.00000000000E+00  0.00000000000E+00 -0.34340341538E+03  0.34340341539E+03  0.25500000920E-02 0. -1.
    10030    2    1    2    0    0  0.00000000000E+00  0.00000000000E+00  0.53390608543E+03  0.12207129162E+04  0.10977633241E+04 0.  0.
        5    1    3    3  502    0  0.12597955703E+03  0.37954687880E+03 -0.15107958674E+03  0.42752054164E+03  0.46999998093E+01 0. -1.
       -5    1    3    3    0  502 -0.12597955703E+03 -0.37954687880E+03  0.68498567216E+03  0.79319237456E+03  0.46999998093E+01 0.  1.
</event>
<event>
 5   0  0.7952121E-03  0.1089303E+04  0.7818609E-02  0.9215681E-01
        2   -1    0    0  501    0  0.00000000000E+00  0.00000000000E+00  0.12589156661E+04  0.12589156661E+04  0.25500000920E-02 0. -1.
       -2   -1    0    0    0  501  0.00000000000E+00  0.00000000000E+00 -0.23563564552E+03  0.23563564554E+03  0.25500000920E-02 0.  1.
    10030    2    1    2    0    0  0.00000000000E+00  0.00000000000E+00  0.10232800205E+04  0.14945513116E+04  0.10893032739E+04 0.  0.
        3    1    3    3  502    0 -0.24969748457E+03  0.14145075130E+02 -0.15219394275E+03  0.29276598737E+03  0.10100000352E+00 0.  1.
       -3    1    3    3    0  502  0.24969748457E+03 -0.14145075130E+02  0.11754739633E+04  0.12017853242E+04  0.10100000352E+00 0. -1.
</event>
<event>
 5   0  0.4641021E-03  0.9349741E+03  0.7818609E-02  0.9382888E-01
        1   -1    0    0  501    0  0.00000000000E+00  0.00000000000E+00  0.12218940614E+04  0.12218940614E+04  0.50400001928E-02 0.  1.
       -1   -1    0    0    0  501  0.00000000000E+00  0.00000000000E+00 -0.17885686166E+03  0.17885686173E+03  0.50400001928E-02 0. -1.
    10030    2    1    2    0    0  0.00000000000E+00  0.00000000000E+00  0.10430371997E+04  0.14007509231E+04  0.93497408981E+03 0.  0.
        1    1    3    3  502    0 -0.86322885180E+02 -0.36159957357E+03  0.94616017462E+03  0.10165751168E+04  0.50400001928E-02 0.  1.
       -1    1    3    3    0  502  0.86322885180E+02  0.36159957357E+03  0.96877025085E+02  0.38417580627E+03  0.50400001928E-02 0. -1.
</event>
<event>
 5   0  0.4598561E-03  0.1106868E+04  0.7818609E-02  0.9198524E-01
       -1   -1    0    0    0  501  0.00000000000E+00  0.00000000000E+00  0.44452086775E+03  0.44452086778E+03  0.50400001928E-02 0.  1.
        1   -1    0    0  501    0  0.00000000000E+00  0.00000000000E+00 -0.68903194509E+03  0.68903194511E+03  0.50400001928E-02 0. -1.
    10030    2    1    2    0    0  0.00000000000E+00  0.00000000000E+00 -0.24451107734E+03  0.11335528129E+04  0.11068677937E+04 0.  0.
        2    1    3    3  502    0  0.45179814186E+03 -0.30379141068E+03 -0.20469778414E+02  0.54482088252E+03  0.25500000920E-02 0.  1.
       -2    1    3    3    0  502 -0.45179814186E+03  0.30379141068E+03 -0.22404129893E+03  0.58873193036E+03  0.25500000920E-02 0. -1.
</event>
<event>
 5   0  0.4504740E-03  0.1101549E+04  0.7818609E-02  0.9203684E-01
        1   -1    0    0  501    0  0.00000000000E+00  0.00000000000E+00  0.82836629695E+03  0.82836629697E+03  0.50400001928E-02 0.  1.
       -1   -1    0    0    0  501  0.00000000000E+00  0.00000000000E+00 -0.36620574312E+03  0.36620574315E+03  0.50400001928E-02 0. -1.
    10030    2    1    2    0    0  0.00000000000E+00  0.00000000000E+00  0.46216055383E+03  0.11945720401E+04  0.11015489011E+04 0.  0.
        5    1    3    3  502    0 -0.39543294271E+03  0.16640077018E+03  0.60560579541E+03  0.74218387070E+03  0.46999998093E+01 0.  1.
       -5    1    3    3    0  502  0.39543294271E+03 -0.16640077018E+03 -0.14344524158E+03  0.45238816942E+03  0.46999998093E+01 0. -1.
</event>
<event>
 5   0  0.7712816E-03  0.1144380E+04  0.7818609E-02  0.9162984E-01
        2   -1    0    0  501    0  0.00000000000E+00  0.00000000000E+00  0.10755111758E+04  0.10755111758E+04  0.25500000920E-02 0.  1.
       -2   -1    0    0    0  501  0.00000000000E+00  0.00000000000E+00 -0.30441473105E+03  0.30441473106E+03  0.25500000920E-02 0. -1.
    10030    2    1    2    0    0  0.00000000000E+00  0.00000000000E+00  0.77109644471E+03  0.13799259068E+04  0.11443800860E+04 0.  0.
        2    1    3    3  502    0  0.24940361204E+03 -0.41076000723E+03  0.76008459114E+03  0.89925220652E+03  0.25500000920E-02 0. -1.
       -2    1    3    3    0  502 -0.24940361204E+03  0.41076000723E+03  0.11011853574E+02  0.48067370030E+03  0.25500000920E-02 0.  1.
</event>
<event>
 5   0  0.4298101E-03  0.1094177E+04  0.7818609E-02  0.9210886E-01
        1   -1    0    0  501    0  0.00000000000E+00  0.00000000000E+00  0.94944881891E+03  0.94944881893E+03  0.50400001928E-02 0. -1.
       -1   -1    0    0    0  501  0.00000000000E+00  0.00000000000E+00 -0.31524183826E+03  0.31524183830E+03  0.50400001928E-02 0.  1.
    10030    2    1    2    0    0  0.00000000000E+00  0.00000000000E+00  0.63420698065E+03  0.12646906572E+04  0.10941773001E+04 0.  0.
        3    1    3    3  502    0 -0.32503334739E+03 -0.18824838733E+02 -0.19107710078E+03  0.37750698022E+03  0.10100000352E+00 0.  1.
       -3    1    3    3    0  502  0.32503334739E+03  0.18824838733E+02  0.82528408144E+03  0.88718367700E+03  0.10100000352E+00 0. -1.
</event>
<event>
 5   0  0.4428114E-03  0.1123811E+04  0.7818609E-02  0.9182290E-01
       -1   -1    0    0    0  501  0.00000000000E+00  0.00000000000E+00  0.29947231306E+03  0.29947231311E+03  0.50400001928E-02 0. -1.
        1   -1    0    0  501    0  0.00000000000E+00  0.00000000000E+00 -0.10543143777E+04  0.10543143777E+04  0.50400001928E-02 0.  1.
    10030    2    1    2    0    0  0.00000000000E+00  0.00000000000E+00 -0.75484206466E+03  0.13537866908E+04  0.11238113106E+04 0.  0.
        4    1    3    3  502    0 -0.23763918162E+03 -0.15354595303E+03 -0.96224507657E+03  0.10029785345E+04  0.12699999809E+01 0.  1.
       -4    1    3    3    0  502  0.23763918162E+03  0.15354595303E+03  0.20740301190E+03  0.35080815637E+03  0.12699999809E+01 0. -1.
</event>
<event>
 5   0  0.7738497E-03  0.1109030E+04  0.7818609E-02  0.9196435E-01
        2   -1    0    0  501    0  0.00000000000E+00  0.00000000000E+00  0.20538893783E+04  0.20538893783E+04  0.25500000920E-02 0.  1.
       -2   -1    0    0    0  501  0.00000000000E+00  0.00000000000E+00 -0.14970952746E+03  0.14970952748E+03  0.25500000920E-02 0. -1.
    10030    2    1    2    0    0  0.00000000000E+00  0.00000000000E+00  0.19041798508E+04  0.22035989058E+04  0.11090298613E+04 0.  0.
        4    1    3    3  502    0 -0.19502786879E+03  0.12705760737E+03  0.19521170525E+04  0.19659456007E+04  0.12699999809E+01 0.  1.
       -4    1    3    3    0  502  0.19502786879E+03 -0.12705760737E+03 -0.47937201722E+02  0.23765330506E+03  0.12699999809E+01 0. -1.
</event>
<event>
 5   0  0.2992375E-03  0.1068318E+04  0.7818609E-02  0.9236633E-01
       -3   -1    0    0    0  501  0.00000000000E+00  0.00000000000E+00  0.39420520764E+03  0.39420522058E+03  0.10100000352E+00 0.  1.
        3   -1    0    0  501    0  0.00000000000E+00  0.00000000000E+00 -0.72380062198E+03  0.72380062903E+03  0.10100000352E+00 0. -1.
    10030    2    1    2    0    0  0.00000000000E+00  0.00000000000E+00 -0.32959541434E+03  0.11180058496E+04  0.10683182778E+04 0.  0.
        5    1    3    3  502    0 -0.58978606708E+02 -0.12162597652E+03  0.37598838211E+03  0.39957565953E+03  0.46999998093E+01 0.  1.
       -5    1    3    3    0  502  0.58978606708E+02  0.12162597652E+03 -0.70558379645E+03  0.71843019008E+03  0.46999998093E+01 0. -1.
</event>
<event>
 5   0  0.4428114E-03  0.1078726E+04  0.7818609E-02  0.9226178E-01
        1   -1    0    0  501    0  0.00000000000E+00  0.00000000000E+00  0.11886787019E+04  0.11886787019E+04  0.50400001928E-02 0. -1.
       -1   -1    0    0    0  501  0.00000000000E+00  0.00000000000E+00 -0.24473604460E+03  0.24473604465E+03  0.50400001928E-02 0.  1.
    10030    2    1    2    0    0  0.00000000000E+00  0.00000000000E+00  0.94394265730E+03  0.14334147466E+04  0.10787261447E+04 0.  0.
        4    1    3    3  502    0  0.45895412710E+03 -0.16106131420E+03  0.16223966544E+03  0.51274063586E+03  0.12699999809E+01 0.  1.
       -4    1    3    3    0  502 -0.45895412710E+03  0.16106131420E+03  0.78170299186E+03  0.92067411069E+03  0.12699999809E+01 0. -1.
</event>
<event>
 5   0  0.4428114E-03  0.1094723E+04  0.7818609E-02  0.9210351E-01
       -1   -1    0    0    0  501  0.00000000000E+00  0.00000000000E+00  0.18510638240E+03  0.18510638247E+03  0.50400001928E-02 0.  1.
        1   -1    0    0  501    0  0.00000000000E+00  0.00000000000E+00 -0.16185533012E+04  0.16185533013E+04  0.50400001928E-02 0. -1.
    10030    2    1    2    0    0  0.00000000000E+00  0.00000000000E+00 -0.14334469188E+04  0.18036596837E+04  0.10947228807E+04 0.  0.
        4    1    3    3  502    0 -0.14394295990E+03 -0.26758630509E+03  0.33395381231E+02  0.30567772370E+03  0.12699999809E+01 0.  1.
       -4    1    3    3    0  502  0.14394295990E+03  0.26758630509E+03 -0.14668423001E+04  0.14979819600E+04  0.12699999809E+01 0. -1.
</event>
<event>
 5   0  0.4641021E-03  0.1070434E+04  0.7818609E-02  0.9234498E-01
       -1   -1    0    0    0  501  0.00000000000E+00  0.00000000000E+00  0.55459598402E+03  0.55459598404E+03  0.50400001928E-02 0. -1.
        1   -1    0    0  501    0  0.00000000000E+00  0.00000000000E+00 -0.51651537555E+03  0.51651537558E+03  0.50400001928E-02 0.  1.
    10030    2    1    2    0    0  0.00000000000E+00  0.00000000000E+00  0.38080608464E+02  0.10711113596E+04  0.10704342165E+04 0.  0.
        1    1    3    3  502    0 -0.18784347120E+03  0.39291019195E+02 -0.48090401516E+03  0.51778144587E+03  0.50400001928E-02 0.  1.
       -1    1    3    3    0  502  0.18784347120E+03 -0.39291019195E+02  0.51898462363E+03  0.55332991375E+03  0.50400001928E-02 0. -1.
</event>
<event>
 5   0  0.7537480E-03  0.1100025E+04  0.7818609E-02  0.9205168E-01
        2   -1    0    0  501    0  0.00000000000E+00  0.00000000000E+00  0.11114652999E+04  0.11114652999E+04  0.25500000920E-02 0. -1.
       -2   -1    0    0    0  501  0.00000000000E+00  0.00000000000E+00 -0.27217539413E+03  0.27217539414E+03  0.25500000920E-02 0.  1.
    10030    2    1    2    0    0  0.00000000000E+00  0.00000000000E+00  0.83928990574E+03  0.13836406940E+04  0.11000245562E+04 0.  0.
        1    1    3    3  502    0 -0.21282718586E+03 -0.23297773099E+03  0.98628101316E+03  0.10355309127E+04  0.50400001928E-02 0. -1.
       -1    1    3    3    0  502  0.21282718586E+03  0.23297773099E+03 -0.14699110741E+03  0.34810978134E+03  0.50400001928E-02 0.  1.
</event>
<event>
 5   0  0.4298101E-03  0.1122240E+04  0.7818609E-02  0.9183782E-01
        1   -1    0    0  501    0  0.00000000000E+00  0.00000000000E+00  0.32943219711E+03  0.32943219715E+03  0.50400001928E-02 0.  1.
       -1   -1    0    0    0  501  0.00000000000E+00  0.00000000000E+00 -0.95575250818E+03  0.95575250819E+03  0.50400001928E-02 0. -1.
    10030    2    1    2    0    0  0.00000000000E+00  0.00000000000E+00 -0.62632031107E+03  0.12851847053E+04  0.11222399898E+04 0.  0.
        3    1    3    3  502    0  0.15187064451E+03  0.10399147873E+03  0.29387658324E+03  0.34675982566E+03  0.10100000352E+00 0.  1.
       -3    1    3    3    0  502 -0.15187064451E+03 -0.10399147873E+03 -0.92019689431E+03  0.93842487968E+03  0.10100000352E+00 0. -1.
</event>
<event>
 5   0  0.7712816E-03  0.1092789E+04  0.7818609E-02  0.9212249E-01
        2   -1    0    0  501    0  0.00000000000E+00  0.00000000000E+00  0.90283726452E+03  0.90283726452E+03  0.25500000920E-02 0.  1.
       -2   -1    0    0    0  501  0.00000000000E+00  0.00000000000E+00 -0.33067611396E+03  0.33067611397E+03  0.25500000920E-02 0. -1.
    10030    2    1    2    0    0  0.00000000000E+00  0.00000000000E+00  0.57216115056E+03  0.12335133785E+04  0.10927885764E+04 0.  0.
        2    1    3    3  502    0 -0.40958502568E+03 -0.34138962300E+02 -0.12031221834E+03  0.42825271966E+03  0.25500000920E-02 0. -1.
       -2    1    3    3    0  502  0.40958502568E+03  0.34138962300E+02  0.69247336890E+03  0.80526065883E+03  0.25500000920E-02 0.  1.
</event>
<event>
 5   0  0.7952121E-03  0.1099770E+04  0.7818609E-02  0.9205416E-01
       -2   -1    0    0    0  501  0.00000000000E+00  0.00000000000E+00  0.32391441574E+03  0.32391441575E+03  0.25500000920E-02 0.  1.
        2   -1    0    0  501    0  0.00000000000E+00  0.00000000000E+00 -0.93349865747E+03  0.93349865747E+03  0.25500000920E-02 0. -1.
    10030    2    1    2    0    0  0.00000000000E+00  0.00000000000E+00 -0.60958424173E+03  0.12574130732E+04  0.10997702892E+04 0.  0.
        3    1    3    3  502    0 -0.49743563026E+03  0.13096665215E+02 -0.37240588206E+02  0.49899959970E+03  0.10100000352E+00 0.  1.
       -3    1    3    3    0  502  0.49743563026E+03 -0.13096665215E+02 -0.57234365352E+03  0.75841347352E+03  0.10100000352E+00 0. -1.
</event>
<event>
 5   0  0.2992375E-03  0.1089319E+04  0.7818609E-02  0.9215666E-01
       -3   -1    0    0    0  501  0.00000000000E+00  0.00000000000E+00  0.33410352459E+03  0.33410353986E+03  0.10100000352E+00 0.  1.
        3   -1    0    0  501    0  0.00000000000E+00  0.00000000000E+00 -0.88790981284E+03  0.88790981859E+03  0.10100000352E+00 0. -1.
    10030    2    1    2    0    0  0.00000000000E+00  0.00000000000E+00 -0.55380628825E+03  0.12220133584E+04  0.10893187060E+04 0.  0.
        4    1    3    3  502    0  0.10233327317E+03  0.44093481601E+03 -0.61671585343E+03  0.76500697221E+03  0.12699999809E+01 0. -1.
       -4    1    3    3    0  502 -0.10233327317E+03 -0.44093481601E+03  0.62909565176E+02  0.45700638623E+03  0.12699999809E+01 0.  1.
</event>
<event>
 5   0  0.4504740E-03  0.1042855E+04  0.7818609E-02  0.9262752E-01
        1   -1    0    0  501    0  0.00000000000E+00  0.00000000000E+00  0.85133108749E+03  0.85133108750E+03  0.50400001928E-02 0. -1.
       -1   -1    0    0    0  501  0.00000000000E+00  0.00000000000E+00 -0.31936675057E+03  0.31936675061E+03  0.50400001928E-02 0.  1.
    10030    2    1    2    0    0  0.00000000000E+00  0.00000000000E+00  0.53196433691E+03  0.11706978381E+04  0.10428553938E+04 0.  0.
        5    1    3    3  502    0 -0.74556252391E+02 -0.51030725462E+03  0.17980839752E+03  0.54619161354E+03  0.46999998093E+01 0.  1.
       -5    1    3    3    0  502  0.74556252391E+02  0.51030725462E+03  0.35215593940E+03  0.62450622458E+03  0.46999998093E+01 0. -1.
</event>
<event>
 5   0  0.7738497E-03  0.1093113E+04  0.7818609E-02  0.9211930E-01
        2   -1    0    0  501    0  0.00000000000E+00  0.00000000000E+00  0.85200310386E+03  0.85200310386E+03  0.25500000920E-02 0.  1.
       -2   -1    0    0    0  501  0.00000000000E+00  0.00000000000E+00 -0.35061400488E+03  0.35061400489E+03  0.25500000920E-02 0. -1.
    10030    2    1    2    0    0  0.00000000000E+00  0.00000000000E+00  0.50138909898E+03  0.12026171087E+04  0.10931133892E+04 0.  0.
        4    1    3    3  502    0 -0.52877279354E+03  0.81811922750E+02  0.12804219661E+03  0.55017294999E+03  0.12699999809E+01 0. -1.
       -4    1    3    3    0  502  0.52877279354E+03 -0.81811922750E+02  0.37334690237E+03  0.65244415876E+03  0.12699999809E+01 0.  1.
</event>
<event>
 5   0  0.7738497E-03  0.1107375E+04  0.7818609E-02  0.9198033E-01
        2   -1    0    0  501    0  0.00000000000E+00  0.00000000000E+00  0.45470596520E+03  0.45470596520E+03  0.25500000920E-02 0. -1.
       -2   -1    0    0    0  501  0.00000000000E+00  0.00000000000E+00 -0.67421601039E+03  0.67421601039E+03  0.25500000920E-02 0.  1.
    10030    2    1    2    0    0  0.00000000000E+00  0.00000000000E+00 -0.21951004519E+03  0.11289219756E+04  0.11073753506E+04 0.  0.
        4    1    3    3  502    0 -0.13347978127E+03  0.12389534265E+03  0.42329692937E+03  0.46081320647E+03  0.12699999809E+01 0. -1.
       -4    1    3    3    0  502  0.13347978127E+03 -0.12389534265E+03 -0.64280697456E+03  0.66810876913E+03  0.12699999809E+01 0.  1.
</event>
<event>
 5   0  0.7712816E-03  0.1085389E+04  0.7818609E-02  0.9219551E-01
       -2   -1    0    0    0  501  0.00000000000E+00  0.00000000000E+00  0.18892165338E+04  0.18892165338E+04  0.25500000920E-02 0. -1.
        2   -1    0    0  501    0  0.00000000000E+00  0.00000000000E+00 -0.15589383201E+03  0.15589383203E+03  0.25500000920E-02 0.  1.
    10030    2    1    2    0    0  0.00000000000E+00  0.00000000000E+00  0.17333227018E+04  0.20451103658E+04  0.10853887874E+04 0.  0.
        2    1    3    3  502    0 -0.12827696961E+03 -0.49399385301E+03  0.12142591772E+04  0.13171599209E+04  0.25500000920E-02 0. -1.
       -2    1    3    3    0  502  0.12827696961E+03  0.49399385301E+03  0.51906352462E+03  0.72795044497E+03  0.25500000920E-02 0.  1.
</event>
<event>
 5   0  0.4504740E-03  0.1084500E+04  0.7818609E-02  0.9220433E-01
        1   -1    0    0  501    0  0.00000000000E+00  0.00000000000E+00  0.31601151341E+03  0.31601151345E+03  0.50400001928E-02 0. -1.
       -1   -1    0    0    0  501  0.00000000000E+00  0.00000000000E+00 -0.93045604555E+03  0.93045604556E+03  0.50400001928E-02 0.  1.
    10030    2    1    2    0    0  0.00000000000E+00  0.00000000000E+00 -0.61444453214E+03  0.12464675590E+04  0.10844995586E+04 0.  0.
        5    1    3    3  502    0  0.35027318240E+03  0.21823367889E+03  0.97007729541E+02  0.42396913862E+03  0.46999998093E+01 0. -1.
       -5    1    3    3    0  502 -0.35027318240E+03 -0.21823367889E+03 -0.71145226168E+03  0.82249842040E+03  0.46999998093E+01 0.  1.
</event>
<event>
 5   0  0.7952121E-03  0.1121110E+04  0.7818609E-02  0.9184857E-01
       -2   -1    0    0    0  501  0.00000000000E+00  0.00000000000E+00  0.76397437351E+03  0.76397437351E+03  0.25500000920E-02 0. -1.
        2   -1    0    0  501    0  0.00000000000E+00  0.00000000000E+00 -0.41129911979E+03  0.41129911980E+03  0.25500000920E-02 0.  1.
    10030    2    1    2    0    0  0.00000000000E+00  0.00000000000E+00  0.35267525371E+03  0.11752734933E+04  0.11211101416E+04 0.  0.
        3    1    3    3  502    0  0.18392011574E+03 -0.37389657331E+03 -0.21673993691E+03  0.46968230429E+03  0.10100000352E+00 0.  1.
       -3    1    3    3    0  502 -0.18392011574E+03  0.37389657331E+03  0.56941519062E+03  0.70559118902E+03  0.10100000352E+00 0. -1.
</event>
<event>
 5   0  0.4504740E-03  0.1105183E+04  0.7818609E-02  0.9200155E-01
        1   -1    0    0  501    0  0.00000000000E+00  0.00000000000E+00  0.53339241505E+03  0.53339241507E+03  0.50400001928E-02 0. -1.
       -1   -1    0    0    0  501  0.00000000000E+00  0.00000000000E+00 -0.57248128333E+03  0.57248128336E+03  0.50400001928E-02 0.  1.
    10030    2    1    2    0    0  0.00000000000E+00  0.00000000000E+00 -0.39088868287E+02  0.11058736984E+04  0.11051826533E+04 0.  0.
        5    1    3    3  502    0  0.35375581758E+03 -0.88505813873E+02 -0.43496498954E+03  0.56762055080E+03  0.46999998093E+01 0.  1.
       -5    1    3    3    0  502 -0.35375581758E+03  0.88505813873E+02  0.39587612125E+03  0.53825314763E+03  0.46999998093E+01 0. -1.
</event>
<event>
 5   0  0.4298101E-03  0.1090278E+04  0.7818609E-02  0.9214720E-01
        1   -1    0    0  501    0  0.00000000000E+00  0.00000000000E+00  0.97304471033E+03  0.97304471034E+03  0.50400001928E-02 0.  1.
       -1   -1    0    0    0  501  0.00000000000E+00  0.00000000000E+00 -0.30540900883E+03  0.30540900888E+03  0.50400001928E-02 0. -1.
    10030    2    1    2    0    0  0.00000000000E+00  0.00000000000E+00  0.66763570149E+03  0.12784537192E+04  0.10902781674E+04 0.  0.
        3    1    3    3  502    0 -0.51970605711E+03 -0.89437744897E+02  0.17183377516E+03  0.55463533290E+03  0.10100000352E+00 0. -1.
       -3    1    3    3    0  502  0.51970605711E+03  0.89437744897E+02  0.49580192633E+03  0.72381838632E+03  0.10100000352E+00 0.  1.
</event>
<event>
 5   0  0.2992375E-03  0.1111641E+04  0.7818609E-02  0.9193919E-01
       -3   -1    0    0    0  501  0.00000000000E+00  0.00000000000E+00  0.39510755702E+03  0.39510756993E+03  0.10100000352E+00 0.  1.
        3   -1    0    0  501    0  0.00000000000E+00  0.00000000000E+00 -0.78190507560E+03  0.78190508213E+03  0.10100000352E+00 0. -1.
    10030    2    1    2    0    0  0.00000000000E+00  0.00000000000E+00 -0.38679751858E+03  0.11770126521E+04  0.11116413373E+04 0.  0.
        2    1    3    3  502    0  0.42683872026E+03 -0.26451137187E+03  0.58897336402E+02  0.50559514951E+03  0.25500000920E-02 0.  1.
       -2    1    3    3    0  502 -0.42683872026E+03  0.26451137187E+03 -0.44569485499E+03  0.67141750255E+03  0.25500000920E-02 0. -1.
</event>
<event>
 5   0  0.7738497E-03  0.1093728E+04  0.7818609E-02  0.9211327E-01
       -2   -1    0    0    0  501  0.00000000000E+00  0.00000000000E+00  0.39448700645E+03  0.39448700646E+03  0.25500000920E-02 0. -1.
        2   -1    0    0  501    0  0.00000000000E+00  0.00000000000E+00 -0.75809904989E+03  0.75809904989E+03  0.25500000920E-02 0.  1.
    10030    2    1    2    0    0  0.00000000000E+00  0.00000000000E+00 -0.36361204344E+03  0.11525860564E+04  0.10937279823E+04 0.  0.
        4    1    3    3  502    0  0.16586585292E+03  0.20833031160E+03 -0.68515605083E+03  0.73508735997E+03  0.12699999809E+01 0.  1.
       -4    1    3    3    0  502 -0.16586585292E+03 -0.20833031160E+03  0.32154400739E+03  0.41749869639E+03  0.12699999809E+01 0. -1.
</event>
<event>
 5   0  0.4428114E-03  0.1088910E+04  0.7818609E-02  0.9216069E-01
        1   -1    0    0  501    0  0.00000000000E+00  0.00000000000E+00  0.84690219035E+03  0.84690219036E+03  0.50400001928E-02 0.  1.
       -1   -1    0    0    0  501  0.00000000000E+00  0.00000000000E+00 -0.35001805194E+03  0.35001805198E+03  0.50400001928E-02 0. -1.
    10030    2    1    2    0    0  0.00000000000E+00  0.00000000000E+00  0.49688413841E+03  0.11969202423E+04  0.10889096471E+04 0.  0.
        4    1    3    3  502    0 -0.20733424910E+03  0.30688112409E+03  0.68710890604E+03  0.78056631802E+03  0.12699999809E+01 0.  1.
       -4    1    3    3    0  502  0.20733424910E+03 -0.30688112409E+03 -0.19022476763E+03  0.41635392431E+03  0.12699999809E+01 0. -1.
</event>
<event>
 5   0  0.4298101E-03  0.1116132E+04  0.7818609E-02  0.9189609E-01
       -1   -1    0    0    0  501  0.00000000000E+00  0.00000000000E+00  0.65486419143E+03  0.65486419145E+03  0.50400001928E-02 0.  1.
        1   -1    0    0  501    0  0.00000000000E+00  0.00000000000E+00 -0.47557612393E+03  0.47557612396E+03  0.50400001928E-02 0. -1.
    10030    2    1    2    0    0  0.00000000000E+00  0.00000000000E+00  0.17928806750E+03  0.11304403154E+04  0.11161322034E+04 0.  0.
        3    1    3    3  502    0 -0.38206821009E+02 -0.48260365370E+03  0.37082085240E+03  0.60981485921E+03  0.10100000352E+00 0.  1.
       -3    1    3    3    0  502  0.38206821009E+02  0.48260365370E+03 -0.19153278491E+03  0.52062545619E+03  0.10100000352E+00 0. -1.
</event>
<event>
 5   0  0.7712816E-03  0.1113513E+04  0.7818609E-02  0.9192121E-01
        2   -1    0    0  501    0  0.00000000000E+00  0.00000000000E+00  0.45328598039E+03  0.45328598040E+03  0.25500000920E-02 0.  1.
       -2   -1    0    0    0  501  0.00000000000E+00  0.00000000000E+00 -0.68384544515E+03  0.68384544516E+03  0.25500000920E-02 0. -1.
    10030    2    1    2    0    0  0.00000000000E+00  0.00000000000E+00 -0.23055946476E+03  0.11371314256E+04  0.11135125559E+04 0.  0.
        2    1    3    3  502    0  0.21158704296E+03  0.15439200719E+03 -0.61699649805E+03  0.67029146440E+03  0.25500000920E-02 0. -1.
       -2    1    3    3    0  502 -0.21158704296E+03 -0.15439200719E+03  0.38643703329E+03  0.46683996116E+03  0.25500000920E-02 0.  1.
</event>
<event>
 5   0  0.4298101E-03  0.1005058E+04  0.7818609E-02  0.9303015E-01
        1   -1    0    0  501    0  0.00000000000E+00  0.00000000000E+00  0.21787478171E+03  0.21787478177E+03  0.50400001928E-02 0. -1.
       -1   -1    0    0    0  501  0.00000000000E+00  0.00000000000E+00 -0.11590845536E+04  0.11590845536E+04  0.50400001928E-02 0.  1.
    10030    2    1    2    0    0  0.00000000000E+00  0.00000000000E+00 -0.94120977184E+03  0.13769593353E+04  0.10050577976E+04 0.  0.
        3    1    3    3  502    0 -0.40188834052E+03 -0.21437575231E+03 -0.17977077360E+03  0.48968228747E+03  0.10100000352E+00 0. -1.
       -3    1    3    3    0  502  0.40188834052E+03  0.21437575231E+03 -0.76143899824E+03  0.88727704786E+03  0.10100000352E+00 0.  1.
</event>
<event>
 5   0  0.7738497E-03  0.1099325E+04  0.7818609E-02  0.9205850E-01
        2   -1    0    0  501    0  0.00000000000E+00  0.00000000000E+00  0.43802960287E+03  0.43802960288E+03  0.25500000920E-02 0.  1.
       -2   -1    0    0    0  501  0.00000000000E+00  0.00000000000E+00 -0.68974485859E+03  0.68974485860E+03  0.25500000920E-02 0. -1.
    10030    2    1    2    0    0  0.00000000000E+00  0.00000000000E+00 -0.25171525572E+03  0.11277744615E+04  0.10993246409E+04 0.  0.
        4    1    3    3  502    0  0.34261288800E+03 -0.36998223117E+03 -0.35028057656E+03  0.61397763609E+03  0.12699999809E+01 0. -1.
       -4    1    3    3    0  502 -0.34261288800E+03  0.36998223117E+03  0.98565320845E+02  0.51379682538E+03  0.12699999809E+01 0.  1.
</event>
<event>
 5   0  0.7537480E-03  0.1122844E+04  0.7818609E-02  0.9183209E-01
        2   -1    0    0  501    0  0.00000000000E+00  0.00000000000E+00  0.15446404196E+04  0.15446404196E+04  0.25500000920E-02 0. -1.
       -2   -1    0    0    0  501  0.00000000000E+00  0.00000000000E+00 -0.20405687185E+03  0.20405687187E+03  0.25500000920E-02 0.  1.
    10030    2    1    2    0    0  0.00000000000E+00  0.00000000000E+00  0.13405835477E+04  0.17486972914E+04  0.11228436973E+04 0.  0.
        1    1    3    3  502    0 -0.33727384787E+03  0.27142842687E+03  0.12269715579E+04  0.13011096200E+04  0.50400001928E-02 0. -1.
       -1    1    3    3    0  502  0.33727384787E+03 -0.27142842687E+03  0.11361198985E+03  0.44758767145E+03  0.50400001928E-02 0.  1.
</event>
<event>
 5   0  0.7537480E-03  0.1105609E+04  0.7818609E-02  0.9199742E-01
       -2   -1    0    0    0  501  0.00000000000E+00  0.00000000000E+00  0.27562285670E+03  0.27562285671E+03  0.25500000920E-02 0. -1.
        2   -1    0    0  501    0  0.00000000000E+00  0.00000000000E+00 -0.11087351790E+04  0.11087351790E+04  0.25500000920E-02 0.  1.
    10030    2    1    2    0    0  0.00000000000E+00  0.00000000000E+00 -0.83311232228E+03  0.13843580357E+04  0.11056088953E+04 0.  0.
        1    1    3    3  502    0  0.17032754433E+03 -0.17827231684E+02 -0.10746815373E+04  0.10882415583E+04  0.50400001928E-02 0.  1.
       -1    1    3    3    0  502 -0.17032754433E+03  0.17827231684E+02  0.24156921499E+03  0.29611647743E+03  0.50400001928E-02 0. -1.
</event>
<event>
 5   0  0.7952121E-03  0.1077896E+04  0.7818609E-02  0.9227008E-01
        2   -1    0    0  501    0  0.00000000000E+00  0.00000000000E+00  0.34267054067E+03  0.34267054068E+03  0.25500000920E-02 0. -1.
       -2   -1    0    0    0  501  0.00000000000E+00  0.00000000000E+00 -0.84765040462E+03  0.84765040462E+03  0.25500000920E-02 0.  1.
    10030    2    1    2    0    0  0.00000000000E+00  0.00000000000E+00 -0.50497986395E+03  0.11903209453E+04  0.10778957695E+04 0.  0.
        3    1    3    3  502    0  0.25196770847E+03  0.33882938898E+03  0.11736296073E+03  0.43825466991E+03  0.10100000352E+00 0. -1.
       -3    1    3    3    0  502 -0.25196770847E+03 -0.33882938898E+03 -0.62234282467E+03  0.75206627539E+03  0.10100000352E+00 0.  1.
</event>
<event>
 5   0  0.7766551E-03  0.8478867E+03  0.7818609E-02  0.9493178E-01
       -2   -1    0    0    0  501  0.00000000000E+00  0.00000000000E+00  0.33567878362E+03  0.33567878363E+03  0.25500000920E-02 0. -1.
        2   -1    0    0  501    0  0.00000000000E+00  0.00000000000E+00 -0.53541656254E+03  0.53541656255E+03  0.25500000920E-02 0.  1.
    10030    2    1    2    0    0  0.00000000000E+00  0.00000000000E+00 -0.19973777892E+03  0.87109534618E+03  0.84788673878E+03 0.  0.
        5    1    3    3  502    0 -0.70997077175E+02  0.12464363934E+03 -0.50969807608E+03  0.52951944304E+03  0.46999998093E+01 0.  1.
       -5    1    3    3    0  502  0.70997077175E+02 -0.12464363934E+03  0.30996029716E+03  0.34157590314E+03  0.46999998093E+01 0. -1.
</event>
<event>
 5   0  0.4298101E-03  0.1037895E+04  0.7818609E-02  0.9267932E-01
        1   -1    0    0  501    0  0.00000000000E+00  0.00000000000E+00  0.11114101520E+04  0.11114101520E+04  0.50400001928E-02 0.  1.
       -1   -1    0    0    0  501  0.00000000000E+00  0.00000000000E+00 -0.24231062324E+03  0.24231062329E+03  0.50400001928E-02 0. -1.
    10030    2    1    2    0    0  0.00000000000E+00  0.00000000000E+00  0.86909952872E+03  0.13537207753E+04  0.10378949593E+04 0.  0.
        3    1    3    3  502    0 -0.49038304893E+02  0.22067354464E+03 -0.17471764605E+03  0.28570585345E+03  0.10100000352E+00 0. -1.
       -3    1    3    3    0  502  0.49038304893E+02 -0.22067354464E+03  0.10438171748E+04  0.10680149218E+04  0.10100000352E+00 0.  1.
</event>
<event>
 5   0  0.4428114E-03  0.1075879E+04  0.7818609E-02  0.9229026E-01
       -1   -1    0    0    0  501  0.00000000000E+00  0.00000000000E+00  0.22275067448E+03  0.22275067453E+03  0.50400001928E-02 0. -1.
        1   -1    0    0  501    0  0.00000000000E+00  0.00000000000E+00 -0.12991151594E+04  0.12991151594E+04  0.50400001928E-02 0.  1.
    10030    2    1    2    0    0  0.00000000000E+00  0.00000000000E+00 -0.10763644849E+04  0.15218658340E+04  0.10758787627E+04 0.  0.
        4    1    3    3  502    0  0.29117504379E+03 -0.33145492561E+02 -0.11762849416E+04  0.12122414803E+04  0.12699999809E+01 0.  1.
       -4    1    3    3    0  502 -0.29117504379E+03  0.33145492561E+02  0.99920456682E+02  0.30962435364E+03  0.12699999809E+01 0. -1.
</event>
<event>
 5   0  0.7738497E-03  0.1121769E+04  0.7818609E-02  0.9184230E-01
        2   -1    0    0  501    0  0.00000000000E+00  0.00000000000E+00  0.47201654390E+03  0.47201654391E+03  0.25500000920E-02 0. -1.
       -2   -1    0    0    0  501  0.00000000000E+00  0.00000000000E+00 -0.66648426906E+03  0.66648426906E+03  0.25500000920E-02 0.  1.
    10030    2    1    2    0    0  0.00000000000E+00  0.00000000000E+00 -0.19446772516E+03  0.11385008130E+04  0.11217693190E+04 0.  0.
        4    1    3    3  502    0  0.54629510614E+03 -0.69530926944E+02 -0.20520241508E+03  0.58769255300E+03  0.12699999809E+01 0.  1.
       -4    1    3    3    0  502 -0.54629510614E+03  0.69530926944E+02  0.10734689921E+02  0.55080825998E+03  0.12699999809E+01 0. -1.
</event>
<event>
 5   0  0.4298101E-03  0.1065978E+04  0.7818609E-02  0.9239001E-01
        1   -1    0    0  501    0  0.00000000000E+00  0.00000000000E+00  0.16469360746E+04  0.16469360746E+04  0.50400001928E-02 0.  1.
       -1   -1    0    0    0  501  0.00000000000E+00  0.00000000000E+00 -0.17248836579E+03  0.17248836587E+03  0.50400001928E-02 0. -1.
    10030    2    1    2    0    0  0.00000000000E+00  0.00000000000E+00  0.14744477088E+04  0.18194244405E+04  0.10659780714E+04 0.  0.
        3    1    3    3  502    0  0.42271179018E+03  0.20882257784E+03  0.31296794970E+03  0.56589846644E+03  0.10100000352E+00 0. -1.
       -3    1    3    3    0  502 -0.42271179018E+03 -0.20882257784E+03  0.11614797591E+04  0.12535259741E+04  0.10100000352E+00 0.  1.
</event>
<event>
 5   0  0.4598561E-03  0.1088855E+04  0.7818609E-02  0.9216123E-01
        1   -1    0    0  501    0  0.00000000000E+00  0.00000000000E+00  0.11873841952E+04  0.11873841952E+04  0.50400001928E-02 0.  1.
       -1   -1    0    0    0  501  0.00000000000E+00  0.00000000000E+00 -0.24962563654E+03  0.24962563659E+03  0.50400001928E-02 0. -1.
    10030    2    1    2    0    0  0.00000000000E+00  0.00000000000E+00  0.93775855865E+03  0.14370098318E+04  0.10888554277E+04 0.  0.
        2    1    3    3  502    0  0.10268108795E+03 -0.37723871526E+03 -0.31143429081E+02  0.39220194708E+03  0.25500000920E-02 0. -1.
       -2    1    3    3    0  502 -0.10268108795E+03  0.37723871526E+03  0.96890198773E+03  0.10448078847E+04  0.25500000920E-02 0.  1.
</event>
<event>
 5   0  0.4298101E-03  0.1024722E+04  0.7818609E-02  0.9281838E-01
        1   -1    0    0  501    0  0.00000000000E+00  0.00000000000E+00  0.78560535790E+03  0.78560535792E+03  0.50400001928E-02 0. -1.
       -1   -1    0    0    0  501  0.00000000000E+00  0.00000000000E+00 -0.33415462697E+03  0.33415462700E+03  0.50400001928E-02 0.  1.
    10030    2    1    2    0    0  0.00000000000E+00  0.00000000000E+00  0.45145073094E+03  0.11197599849E+04  0.10247217483E+04 0.  0.
        3    1    3    3  502    0  0.29203081529E+03  0.40302352648E+03  0.35868017647E+03  0.61348303902E+03  0.10100000352E+00 0. -1.
       -3    1    3    3    0  502 -0.29203081529E+03 -0.40302352648E+03  0.92770554465E+02  0.50627694590E+03  0.10100000352E+00 0.  1.
</event>
<event>
 5   0  0.4298101E-03  0.1151706E+04  0.7818609E-02  0.9156211E-01
        1   -1    0    0  501    0  0.00000000000E+00  0.00000000000E+00  0.32205910650E+03  0.32205910654E+03  0.50400001928E-02 0. -1.
       -1   -1    0    0    0  501  0.00000000000E+00  0.00000000000E+00 -0.10296454444E+04  0.10296454444E+04  0.50400001928E-02 0.  1.
    10030    2    1    2    0    0  0.00000000000E+00  0.00000000000E+00 -0.70758633793E+03  0.13517045510E+04  0.11517060248E+04 0.  0.
        3    1    3    3  502    0  0.34590074777E+03  0.29606224897E+03  0.60003561643E+02  0.45923917536E+03  0.10100000352E+00 0. -1.
       -3    1    3    3    0  502 -0.34590074777E+03 -0.29606224897E+03 -0.76758989958E+03  0.89246537563E+03  0.10100000352E+00 0.  1.
</event>
<event>
 5   0  0.4504740E-03  0.1099710E+04  0.7818609E-02  0.9205474E-01
       -1   -1    0    0    0  501  0.00000000000E+00  0.00000000000E+00  0.39015711563E+03  0.39015711566E+03  0.50400001928E-02 0. -1.
        1   -1    0    0  501    0  0.00000000000E+00  0.00000000000E+00 -0.77492057882E+03  0.77492057883E+03  0.50400001928E-02 0.  1.
    10030    2    1    2    0    0  0.00000000000E+00  0.00000000000E+00 -0.38476346319E+03  0.11650776945E+04  0.10997104672E+04 0.  0.
        5    1    3    3  502    0 -0.15722146940E+03 -0.52337628899E+03 -0.12813597319E+03  0.56132187552E+03  0.46999998093E+01 0. -1.
       -5    1    3    3    0  502  0.15722146940E+03  0.52337628899E+03 -0.25662749000E+03  0.60375581897E+03  0.46999998093E+01 0.  1.
</event>
<event>
 5   0  0.4598561E-03  0.1053354E+04  0.7818609E-02  0.9251888E-01
       -1   -1    0    0    0  501  0.00000000000E+00  0.00000000000E+00  0.59251037218E+03  0.59251037220E+03  0.50400001928E-02 0. -1.
        1   -1    0    0  501    0  0.00000000000E+00  0.00000000000E+00 -0.46815855330E+03  0.46815855333E+03  0.50400001928E-02 0.  1.
    10030    2    1    2    0    0  0.00000000000E+00  0.00000000000E+00  0.12435181888E+03  0.10606689255E+04  0.10533542589E+04 0.  0.
        2    1    3    3  502    0  0.20114646059E+03 -0.23224964818E+03 -0.36856674796E+03  0.47983460213E+03  0.25500000920E-02 0.  1.
       -2    1    3    3    0  502 -0.20114646059E+03  0.23224964818E+03  0.49291856684E+03  0.58083432340E+03  0.25500000920E-02 0. -1.
</event>
<event>
 5   0  0.2992375E-03  0.1107204E+04  0.7818609E-02  0.9198198E-01
       -3   -1    0    0    0  501  0.00000000000E+00  0.00000000000E+00  0.98491134243E+03  0.98491134761E+03  0.10100000352E+00 0. -1.
        3   -1    0    0  501    0  0.00000000000E+00  0.00000000000E+00 -0.31117051478E+03  0.31117053117E+03  0.10100000352E+00 0.  1.
    10030    2    1    2    0    0  0.00000000000E+00  0.00000000000E+00  0.67374082765E+03  0.12960818788E+04  0.11072043775E+04 0.  0.
        1    1    3    3  502    0  0.41255323982E+03 -0.98658474472E+02  0.75328074819E+03  0.86450306876E+03  0.50400001928E-02 0. -1.
       -1    1    3    3    0  502 -0.41255323982E+03  0.98658474472E+02 -0.79539920540E+02  0.43157881002E+03  0.50400001928E-02 0.  1.
</event>
<event>
 5   0  0.2992375E-03  0.1102602E+04  0.7818609E-02  0.9202659E-01
       -4   -1    0    0    0  501  0.00000000000E+00  0.00000000000E+00  0.75087124466E+03  0.75087231868E+03  0.12699999809E+01 0. -1.
        4   -1    0    0  501    0  0.00000000000E+00  0.00000000000E+00 -0.40477139273E+03  0.40477338509E+03  0.12699999809E+01 0.  1.
    10030    2    1    2    0    0  0.00000000000E+00  0.00000000000E+00  0.34609985193E+03  0.11556457038E+04  0.11026023241E+04 0.  0.
        5    1    3    3  502    0  0.50311065519E+03  0.20897389224E+02  0.40824170775E+03  0.64825952688E+03  0.46999998093E+01 0. -1.
       -5    1    3    3    0  502 -0.50311065519E+03 -0.20897389224E+02 -0.62141855829E+02  0.50738617688E+03  0.46999998093E+01 0.  1.
</event>
<event>
 5   0  0.7766551E-03  0.1085197E+04  0.7818609E-02  0.9219741E-01
       -2   -1    0    0    0  501  0.00000000000E+00  0.00000000000E+00  0.18094210199E+03  0.18094210201E+03  0.25500000920E-02 0.  1.
        2   -1    0    0  501    0  0.00000000000E+00  0.00000000000E+00 -0.16271116639E+04  0.16271116639E+04  0.25500000920E-02 0. -1.
    10030    2    1    2    0    0  0.00000000000E+00  0.00000000000E+00 -0.14461695619E+04  0.18080537660E+04  0.10851967650E+04 0.  0.
        5    1    3    3  502    0 -0.31794019336E+02  0.54149559874E+03 -0.74432823461E+03  0.92101843301E+03  0.46999998093E+01 0.  1.
       -5    1    3    3    0  502  0.31794019336E+02 -0.54149559874E+03 -0.70184132734E+03  0.88703533294E+03  0.46999998093E+01 0. -1.
</event>
<event>
 5   0  0.4298101E-03  0.1058643E+04  0.7818609E-02  0.9246466E-01
        1   -1    0    0  501    0  0.00000000000E+00  0.00000000000E+00  0.13295948506E+04  0.13295948506E+04  0.50400001928E-02 0.  1.
       -1   -1    0    0    0  501  0.00000000000E+00  0.00000000000E+00 -0.21072684417E+03  0.21072684423E+03  0.50400001928E-02 0. -1.
    10030    2    1    2    0    0  0.00000000000E+00  0.00000000000E+00  0.11188680064E+04  0.15403216948E+04  0.10586431447E+04 0.  0.
        3    1    3    3  502    0 -0.27266424675E+03 -0.37131903164E+03  0.93873255563E+03  0.10456779791E+04  0.10100000352E+00 0.  1.
       -3    1    3    3    0  502  0.27266424675E+03  0.37131903164E+03  0.18013545082E+03  0.49464371578E+03  0.10100000352E+00 0. -1.
</event>
<event>
 5   0  0.7766551E-03  0.1104373E+04  0.7818609E-02  0.9200940E-01
        2   -1    0    0  501    0  0.00000000000E+00  0.00000000000E+00  0.86242848858E+03  0.86242848858E+03  0.25500000920E-02 0.  1.
       -2   -1    0    0    0  501  0.00000000000E+00  0.00000000000E+00 -0.35354810510E+03  0.35354810511E+03  0.25500000920E-02 0. -1.
    10030    2    1    2    0    0  0.00000000000E+00  0.00000000000E+00  0.50888038348E+03  0.12159765937E+04  0.11043730492E+04 0.  0.
        5    1    3    3  502    0 -0.36194777817E+03  0.22687408130E+02 -0.20401044123E+03  0.41612890159E+03  0.46999998093E+01 0. -1.
       -5    1    3    3    0  502  0.36194777817E+03 -0.22687408130E+02  0.71289082471E+03  0.79984769210E+03  0.46999998093E+01 0.  1.
</event>
<event>
 5   0  0.4298101E-03  0.1085097E+04  0.7818609E-02  0.9219840E-01
        1   -1    0    0  501    0  0.00000000000E+00  0.00000000000E+00  0.73964008698E+03  0.73964008699E+03  0.50400001928E-02 0.  1.
       -1   -1    0    0    0  501  0.00000000000E+00  0.00000000000E+00 -0.39797569358E+03  0.39797569361E+03  0.50400001928E-02 0. -1.
    10030    2    1    2    0    0  0.00000000000E+00  0.00000000000E+00  0.34166439340E+03  0.11376157806E+04  0.10850968190E+04 0.  0.
        3    1    3    3  502    0 -0.21730875989E+03  0.48900814620E+03  0.26464323811E+03  0.59698251051E+03  0.10100000352E+00 0. -1.
       -3    1    3    3    0  502  0.21730875989E+03 -0.48900814620E+03  0.77021155291E+02  0.54063327010E+03  0.10100000352E+00 0.  1.
</event>
<event>
 5   0  0.7738497E-03  0.1094714E+04  0.7818609E-02  0.9210360E-01
        2   -1    0    0  501    0  0.00000000000E+00  0.00000000000E+00  0.11343846308E+04  0.11343846308E+04  0.25500000920E-02 0. -1.
       -2   -1    0    0    0  501  0.00000000000E+00  0.00000000000E+00 -0.26410757063E+03  0.26410757064E+03  0.25500000920E-02 0.  1.
    10030    2    1    2    0    0  0.00000000000E+00  0.00000000000E+00  0.87027706016E+03  0.13984922014E+04  0.10947137873E+04 0.  0.
        4    1    3    3  502    0  0.51614086552E+03  0.14714936902E+03  0.57239429344E+03  0.78465990717E+03  0.12699999809E+01 0.  1.
       -4    1    3    3    0  502 -0.51614086552E+03 -0.14714936902E+03  0.29788276672E+03  0.61383229426E+03  0.12699999809E+01 0. -1.
</event>
<event>
 5   0  0.4428114E-03  0.1098093E+04  0.7818609E-02  0.9207053E-01
       -1   -1    0    0    0  501  0.00000000000E+00  0.00000000000E+00  0.30776571846E+03  0.30776571850E+03  0.50400001928E-02 0.  1.
        1   -1    0    0  501    0  0.00000000000E+00  0.00000000000E+00 -0.97948556606E+03  0.97948556608E+03  0.50400001928E-02 0. -1.
    10030    2    1    2    0    0  0.00000000000E+00  0.00000000000E+00 -0.67171984760E+03  0.12872512846E+04  0.10980930361E+04 0.  0.
        4    1    3    3  502    0  0.53084712464E+03 -0.86888183849E+02 -0.20689931499E+03  0.57633077800E+03  0.12699999809E+01 0.  1.
       -4    1    3    3    0  502 -0.53084712464E+03  0.86888183849E+02 -0.46482053261E+03  0.71092050657E+03  0.12699999809E+01 0. -1.
</event>
<event>
 5   0  0.7738497E-03  0.1109262E+04  0.7818609E-02  0.9196211E-01
       -2   -1    0    0    0  501  0.00000000000E+00  0.00000000000E+00  0.26736260911E+03  0.26736260912E+03  0.25500000920E-02 0.  1.
        2   -1    0    0  501    0  0.00000000000E+00  0.00000000000E+00 -0.11505564964E+04  0.11505564964E+04  0.25500000920E-02 0. -1.
    10030    2    1    2    0    0  0.00000000000E+00  0.00000000000E+00 -0.88319388726E+03  0.14179191055E+04  0.11092624339E+04 0.  0.
        4    1    3    3  502    0 -0.45060048184E+03  0.31020066988E+03 -0.55839413644E+03  0.78171022402E+03  0.12699999809E+01 0. -1.
       -4    1    3    3    0  502  0.45060048184E+03 -0.31020066988E+03 -0.32479975082E+03  0.63620888147E+03  0.12699999809E+01 0.  1.
</event>
<event>
 5   0  0.7712816E-03  0.1101767E+04  0.7818609E-02  0.9203471E-01
       -2   -1    0    0    0  501  0.00000000000E+00  0.00000000000E+00  0.21057674391E+03  0.21057674393E+03  0.25500000920E-02 0.  1.
        2   -1    0    0  501    0  0.00000000000E+00  0.00000000000E+00 -0.14411509174E+04  0.14411509174E+04  0.25500000920E-02 0. -1.
    10030    2    1    2    0    0  0.00000000000E+00  0.00000000000E+00 -0.12305741735E+04  0.16517276613E+04  0.11017674304E+04 0.  0.
        2    1    3    3  502    0  0.13431013217E+03 -0.38200417041E+03 -0.11752324937E+04  0.12430357243E+04  0.25500000920E-02 0. -1.
       -2    1    3    3    0  502 -0.13431013217E+03  0.38200417041E+03 -0.55341679799E+02  0.40869193697E+03  0.25500000920E-02 0.  1.
</event>
<event>
 5   0  0.4641021E-03  0.9764632E+03  0.7818609E-02  0.9334743E-01
       -1   -1    0    0    0  501  0.00000000000E+00  0.00000000000E+00  0.28785263826E+03  0.28785263831E+03  0.50400001928E-02 0. -1.
        1   -1    0    0  501    0  0.00000000000E+00  0.00000000000E+00 -0.82809758914E+03  0.82809758915E+03  0.50400001928E-02 0.  1.
    10030    2    1    2    0    0  0.00000000000E+00  0.00000000000E+00 -0.54024495087E+03  0.11159502275E+04  0.97646316020E+03 0.  0.
        1    1    3    3  502    0 -0.44629477822E+03 -0.18918806308E+03 -0.20349403357E+03  0.52571948224E+03  0.50400001928E-02 0. -1.
       -1    1    3    3    0  502  0.44629477822E+03  0.18918806308E+03 -0.33675091731E+03  0.59023074523E+03  0.50400001928E-02 0.  1.
</event>
<event>
 5   0  0.2992375E-03  0.1117478E+04  0.7818609E-02  0.9188322E-01
       -3   -1    0    0    0  501  0.00000000000E+00  0.00000000000E+00  0.38019482671E+03  0.38019484012E+03  0.10100000352E+00 0.  1.
        3   -1    0    0  501    0  0.00000000000E+00  0.00000000000E+00 -0.82113026064E+03  0.82113026685E+03  0.10100000352E+00 0. -1.
    10030    2    1    2    0    0  0.00000000000E+00  0.00000000000E+00 -0.44093543393E+03  0.12013251070E+04  0.11174783916E+04 0.  0.
        2    1    3    3  502    0 -0.20421962870E+03  0.27489680134E+03  0.25415082166E+03  0.42645814365E+03  0.25500000920E-02 0.  1.
       -2    1    3    3    0  502  0.20421962870E+03 -0.27489680134E+03 -0.69508625559E+03  0.77486696332E+03  0.25500000920E-02 0. -1.
</event>
<event>
 5   0  0.4641021E-03  0.1107382E+04  0.7818609E-02  0.9198027E-01
       -1   -1    0    0    0  501  0.00000000000E+00  0.00000000000E+00  0.36264418217E+03  0.36264418221E+03  0.50400001928E-02 0. -1.
        1   -1    0    0  501    0  0.00000000000E+00  0.00000000000E+00 -0.84538423047E+03  0.84538423049E+03  0.50400001928E-02 0.  1.
    10030    2    1    2    0    0  0.00000000000E+00  0.00000000000E+00 -0.48274004830E+03  0.12080284127E+04  0.11073819087E+04 0.  0.
        1    1    3    3  502    0  0.13931674937E+03 -0.37695092411E+03  0.17413119071E+03  0.43797582975E+03  0.50400001928E-02 0. -1.
       -1    1    3    3    0  502 -0.13931674937E+03  0.37695092411E+03 -0.65687123900E+03  0.77005258295E+03  0.50400001928E-02 0.  1.
</event>
<event>
 5   0  0.7766551E-03  0.1098502E+04  0.7818609E-02  0.9206654E-01
       -2   -1    0    0    0  501  0.00000000000E+00  0.00000000000E+00  0.15138715175E+03  0.15138715177E+03  0.25500000920E-02 0. -1.
        2   -1    0    0  501    0  0.00000000000E+00  0.00000000000E+00 -0.19927476765E+04  0.19927476765E+04  0.25500000920E-02 0.  1.
    10030    2    1    2    0    0  0.00000000000E+00  0.00000000000E+00 -0.18413605247E+04  0.21441348282E+04  0.10985015155E+04 0.  0.
        5    1    3    3  502    0  0.38945213744E+03  0.34941100616E+03 -0.12466680071E+04  0.13520222737E+04  0.46999998093E+01 0.  1.
       -5    1    3    3    0  502 -0.38945213744E+03 -0.34941100616E+03 -0.59469251762E+03  0.79211255456E+03  0.46999998093E+01 0. -1.
</event>
<event>
 5   0  0.7952121E-03  0.9941315E+03  0.7818609E-02  0.9315005E-01
       -2   -1    0    0    0  501  0.00000000000E+00  0.00000000000E+00  0.26725305240E+03  0.26725305241E+03  0.25500000920E-02 0.  1.
        2   -1    0    0  501    0  0.00000000000E+00  0.00000000000E+00 -0.92449588484E+03  0.92449588485E+03  0.25500000920E-02 0. -1.
    10030    2    1    2    0    0  0.00000000000E+00  0.00000000000E+00 -0.65724283245E+03  0.11917489373E+04  0.99413147452E+03 0.  0.
        3    1    3    3  502    0  0.34665337139E+03  0.25226458855E+03 -0.27088853484E+02  0.42958095712E+03  0.10100000352E+00 0.  1.
       -3    1    3    3    0  502 -0.34665337139E+03 -0.25226458855E+03 -0.63015397896E+03  0.76216798013E+03  0.10100000352E+00 0. -1.
</event>
<event>
 5   0  0.7766551E-03  0.1117551E+04  0.7818609E-02  0.9188252E-01
        2   -1    0    0  501    0  0.00000000000E+00  0.00000000000E+00  0.59393872587E+03  0.59393872587E+03  0.25500000920E-02 0. -1.
       -2   -1    0    0    0  501  0.00000000000E+00  0.00000000000E+00 -0.52569435145E+03  0.52569435145E+03  0.25500000920E-02 0.  1.
    10030    2    1    2    0    0  0.00000000000E+00  0.00000000000E+00  0.68244374421E+02  0.11196330773E+04  0.11175513112E+04 0.  0.
        5    1    3    3  502    0 -0.19812656127E+03 -0.51173424343E+03 -0.71345337588E+02  0.55338803508E+03  0.46999998093E+01 0. -1.
       -5    1    3    3    0  502  0.19812656127E+03  0.51173424343E+03  0.13958971201E+03  0.56624504225E+03  0.46999998093E+01 0.  1.
</event>
<event>
 5   0  0.4598561E-03  0.1117139E+04  0.7818609E-02  0.9188646E-01
       -1   -1    0    0    0  501  0.00000000000E+00  0.00000000000E+00  0.55666182416E+03  0.55666182418E+03  0.50400001928E-02 0. -1.
        1   -1    0    0  501    0  0.00000000000E+00  0.00000000000E+00 -0.56048350364E+03  0.56048350366E+03  0.50400001928E-02 0.  1.
    10030    2    1    2    0    0  0.00000000000E+00  0.00000000000E+00 -0.38216794797E+01  0.11171453278E+04  0.11171387910E+04 0.  0.
        2    1    3    3  502    0  0.11994901132E+03  0.99723058424E+01  0.54353946884E+03  0.55670671488E+03  0.25500000920E-02 0. -1.
       -2    1    3    3    0  502 -0.11994901132E+03 -0.99723058424E+01 -0.54736114832E+03  0.56043861296E+03  0.25500000920E-02 0.  1.
</event>
<event>
 5   0  0.7738497E-03  0.1065432E+04  0.7818609E-02  0.9239554E-01
        2   -1    0    0  501    0  0.00000000000E+00  0.00000000000E+00  0.55705516442E+03  0.55705516443E+03  0.25500000920E-02 0.  1.
       -2   -1    0    0    0  501  0.00000000000E+00  0.00000000000E+00 -0.50944070861E+03  0.50944070861E+03  0.25500000920E-02 0. -1.
    10030    2    1    2    0    0  0.00000000000E+00  0.00000000000E+00  0.47614455812E+02  0.10664958730E+04  0.10654324525E+04 0.  0.
        4    1    3    3  502    0 -0.19891451708E+03  0.73467243355E+02  0.51298768633E+03  0.55508774098E+03  0.12699999809E+01 0.  1.
       -4    1    3    3    0  502  0.19891451708E+03 -0.73467243355E+02 -0.46537323052E+03  0.51140813206E+03  0.12699999809E+01 0. -1.
</event>
<event>
 5   0  0.4641021E-03  0.1105638E+04  0.7818609E-02  0.9199714E-01
        1   -1    0    0  501    0  0.00000000000E+00  0.00000000000E+00  0.10412099628E+04  0.10412099628E+04  0.50400001928E-02 0. -1.
       -1   -1    0    0    0  501  0.00000000000E+00  0.00000000000E+00 -0.29351344453E+03  0.29351344458E+03  0.50400001928E-02 0.  1.
    10030    2    1    2    0    0  0.00000000000E+00  0.00000000000E+00  0.74769651827E+03  0.13347234074E+04  0.11056384992E+04 0.  0.
        1    1    3    3  502    0  0.46727546624E+03 -0.24555811186E+03  0.57207857923E+03  0.77840802185E+03  0.50400001928E-02 0. -1.
       -1    1    3    3    0  502 -0.46727546624E+03  0.24555811186E+03  0.17561793904E+03  0.55631538554E+03  0.50400001928E-02 0.  1.
</event>
<event>
 5   0  0.7952121E-03  0.1096886E+04  0.7818609E-02  0.9208232E-01
        2   -1    0    0  501    0  0.00000000000E+00  0.00000000000E+00  0.11159618757E+04  0.11159618757E+04  0.25500000920E-02 0. -1.
       -2   -1    0    0    0  501  0.00000000000E+00  0.00000000000E+00 -0.26953426449E+03  0.26953426450E+03  0.25500000920E-02 0.  1.
    10030    2    1    2    0    0  0.00000000000E+00  0.00000000000E+00  0.84642761120E+03  0.13854961402E+04  0.10968864360E+04 0.  0.
        3    1    3    3  502    0 -0.31955826082E+03  0.32793732254E+03  0.80451954919E+03  0.92569546008E+03  0.10100000352E+00 0. -1.
       -3    1    3    3    0  502  0.31955826082E+03 -0.32793732254E+03  0.41908062006E+02  0.45980068012E+03  0.10100000352E+00 0.  1.
</event>
<event>
 5   0  0.4641021E-03  0.1104157E+04  0.7818609E-02  0.9201149E-01
       -1   -1    0    0    0  501  0.00000000000E+00  0.00000000000E+00  0.17628602891E+03  0.17628602898E+03  0.50400001928E-02 0.  1.
        1   -1    0    0  501    0  0.00000000000E+00  0.00000000000E+00 -0.17289564201E+04  0.17289564201E+04  0.50400001928E-02 0. -1.
    10030    2    1    2    0    0  0.00000000000E+00  0.00000000000E+00 -0.15526703912E+04  0.19052424491E+04  0.11041573466E+04 0.  0.
        1    1    3    3  502    0  0.18509874684E+03 -0.37140094674E+03 -0.14802264325E+03  0.44058019958E+03  0.50400001928E-02 0.  1.
       -1    1    3    3    0  502 -0.18509874684E+03  0.37140094674E+03 -0.14046477479E+04  0.14646622495E+04  0.50400001928E-02 0. -1.
</event>
<event>
 5   0  0.7766551E-03  0.1061137E+04  0.7818609E-02  0.9243920E-01
        2   -1    0    0  501    0  0.00000000000E+00  0.00000000000E+00  0.18312363331E+04  0.18312363331E+04  0.25500000920E-02 0. -1.
       -2   -1    0    0    0  501  0.00000000000E+00  0.00000000000E+00 -0.15372296202E+03  0.15372296204E+03  0.25500000920E-02 0.  1.
    10030    2    1    2    0    0  0.00000000000E+00  0.00000000000E+00  0.16775133711E+04  0.19849592952E+04  0.10611372641E+04 0.  0.
        5    1    3    3  502    0  0.24796046378E+03 -0.43575143283E+03  0.51412723536E+03  0.71813132988E+03  0.46999998093E+01 0. -1.
       -5    1    3    3    0  502 -0.24796046378E+03  0.43575143283E+03  0.11633861357E+04  0.12668279653E+04  0.46999998093E+01 0.  1.
</event>
<event>
 5   0  0.2992375E-03  0.1157714E+04  0.7818609E-02  0.9150697E-01
       -3   -1    0    0    0  501  0.00000000000E+00  0.00000000000E+00  0.55292322026E+03  0.55292322948E+03  0.10100000352E+00 0. -1.
        3   -1    0    0  501    0  0.00000000000E+00  0.00000000000E+00 -0.60600686080E+03  0.60600686922E+03  0.10100000352E+00 0.  1.
    10030    2    1    2    0    0  0.00000000000E+00  0.00000000000E+00 -0.53083640545E+02  0.11589300987E+04  0.11577137387E+04 0.  0.
        4    1    3    3  502    0  0.17464284999E+02 -0.49442286559E+03  0.27429795475E+03  0.56568538266E+03  0.12699999809E+01 0. -1.
       -4    1    3    3    0  502 -0.17464284999E+02  0.49442286559E+03 -0.32738159530E+03  0.59324471604E+03  0.12699999809E+01 0.  1.
</event>
<event>
 5   0  0.4428114E-03  0.1109614E+04  0.7818609E-02  0.9195871E-01
       -1   -1    0    0    0  501  0.00000000000E+00  0.00000000000E+00  0.40103407456E+03  0.40103407459E+03  0.50400001928E-02 0. -1.
        1   -1    0    0  501    0  0.00000000000E+00  0.00000000000E+00 -0.76754334088E+03  0.76754334089E+03  0.50400001928E-02 0.  1.
    10030    2    1    2    0    0  0.00000000000E+00  0.00000000000E+00 -0.36650926632E+03  0.11685774155E+04  0.11096144077E+04 0.  0.
        4    1    3    3  502    0 -0.31440112960E+03  0.45208129308E+03 -0.25455648702E+03  0.60665161652E+03  0.12699999809E+01 0. -1.
       -4    1    3    3    0  502  0.31440112960E+03 -0.45208129308E+03 -0.11195277931E+03  0.56192579896E+03  0.12699999809E+01 0.  1.
</event>
<event>
 5   0  0.7712816E-03  0.1068061E+04  0.7818609E-02  0.9236894E-01
       -2   -1    0    0    0  501  0.00000000000E+00  0.00000000000E+00  0.25090397436E+03  0.25090397437E+03  0.25500000920E-02 0.  1.
        2   -1    0    0  501    0  0.00000000000E+00  0.00000000000E+00 -0.11366434727E+04  0.11366434727E+04  0.25500000920E-02 0. -1.
    10030    2    1    2    0    0  0.00000000000E+00  0.00000000000E+00 -0.88573949832E+03  0.13875474471E+04  0.10680606064E+04 0.  0.
        2    1    3    3  502    0  0.91700943266E+02 -0.45341690495E+03 -0.78950186590E+03  0.91504598188E+03  0.25500000920E-02 0. -1.
       -2    1    3    3    0  502 -0.91700943266E+02  0.45341690495E+03 -0.96237632425E+02  0.47250146518E+03  0.25500000920E-02 0.  1.
</event>
<event>
 5   0  0.7952121E-03  0.1090714E+04  0.7818609E-02  0.9214290E-01
        2   -1    0    0  501    0  0.00000000000E+00  0.00000000000E+00  0.82882334135E+03  0.82882334135E+03  0.25500000920E-02 0.  1.
       -2   -1    0    0    0  501  0.00000000000E+00  0.00000000000E+00 -0.35883914334E+03  0.35883914335E+03  0.25500000920E-02 0. -1.
    10030    2    1    2    0    0  0.00000000000E+00  0.00000000000E+00  0.46998419801E+03  0.11876624847E+04  0.10907140006E+04 0.  0.
        3    1    3    3  502    0 -0.35467544163E+02 -0.17908342172E+02 -0.35726102755E+03  0.35946363852E+03  0.10100000352E+00 0. -1.
       -3    1    3    3    0  502  0.35467544163E+02  0.17908342172E+02  0.82724522556E+03  0.82819884619E+03  0.10100000352E+00 0.  1.
</event>
<event>
 5   0  0.4504740E-03  0.1112464E+04  0.7818609E-02  0.9193128E-01
       -1   -1    0    0    0  501  0.00000000000E+00  0.00000000000E+00  0.28804444647E+03  0.28804444651E+03  0.50400001928E-02 0.  1.
        1   -1    0    0  501    0  0.00000000000E+00  0.00000000000E+00 -0.10741189776E+04  0.10741189776E+04  0.50400001928E-02 0. -1.
    10030    2    1    2    0    0  0.00000000000E+00  0.00000000000E+00 -0.78607453113E+03  0.13621634241E+04  0.11124639435E+04 0.  0.
        5    1    3    3  502    0 -0.53066351155E+03  0.15247596187E+03 -0.47535164924E+03  0.72858353116E+03  0.46999998093E+01 0. -1.
       -5    1    3    3    0  502  0.53066351155E+03 -0.15247596187E+03 -0.31072288189E+03  0.63357989297E+03  0.46999998093E+01 0.  1.
</event>
<event>
 5   0  0.2992375E-03  0.1121550E+04  0.7818609E-02  0.9184438E-01
       -4   -1    0    0    0  501  0.00000000000E+00  0.00000000000E+00  0.48682304244E+03  0.48682469899E+03  0.12699999809E+01 0. -1.
        4   -1    0    0  501    0  0.00000000000E+00  0.00000000000E+00 -0.64595765873E+03  0.64595890719E+03  0.12699999809E+01 0.  1.
    10030    2    1    2    0    0  0.00000000000E+00  0.00000000000E+00 -0.15913461630E+03  0.11327836062E+04  0.11215502095E+04 0.  0.
        4    1    3    3  502    0  0.91612880859E+02 -0.55323664902E+03 -0.77706184395E+02  0.56613035049E+03  0.12699999809E+01 0. -1.
       -4    1    3    3    0  502 -0.91612880859E+02  0.55323664902E+03 -0.81428431901E+02  0.56665325569E+03  0.12699999809E+01 0.  1.
</event>
<event>
 5   0  0.7738497E-03  0.1109800E+04  0.7818609E-02  0.9195692E-01
        2   -1    0    0  501    0  0.00000000000E+00  0.00000000000E+00  0.82720296360E+03  0.82720296361E+03  0.25500000920E-02 0. -1.
       -2   -1    0    0    0  501  0.00000000000E+00  0.00000000000E+00 -0.37223510200E+03  0.37223510201E+03  0.25500000920E-02 0.  1.
    10030    2    1    2    0    0  0.00000000000E+00  0.00000000000E+00  0.45496786161E+03  0.11994380656E+04  0.11097999451E+04 0.  0.
        4    1    3    3  502    0  0.54919779560E+03  0.65810071759E+02  0.27537047038E+03  0.61788323581E+03  0.12699999809E+01 0. -1.
       -4    1    3    3    0  502 -0.54919779560E+03 -0.65810071759E+02  0.17959739123E+03  0.58155482981E+03  0.12699999809E+01 0.  1.
</event>
<event>
 5   0  0.7712816E-03  0.1120340E+04  0.7818609E-02  0.9185590E-01
       -2   -1    0    0    0  501  0.00000000000E+00  0.00000000000E+00  0.48574955645E+03  0.48574955646E+03  0.25500000920E-02 0. -1.
        2   -1    0    0  501    0  0.00000000000E+00  0.00000000000E+00 -0.64599265315E+03  0.64599265315E+03  0.25500000920E-02 0.  1.
    10030    2    1    2    0    0  0.00000000000E+00  0.00000000000E+00 -0.16024309670E+03  0.11317422096E+04  0.11203403853E+04 0.  0.
        2    1    3    3  502    0  0.24886623344E+03  0.63141037429E+02 -0.58305326608E+03  0.63708108106E+03  0.25500000920E-02 0.  1.
       -2    1    3    3    0  502 -0.24886623344E+03 -0.63141037429E+02  0.42281016939E+03  0.49466112855E+03  0.25500000920E-02 0. -1.
</event>
<event>
 5   0  0.4598561E-03  0.1094655E+04  0.7818609E-02  0.9210417E-01
        1   -1    0    0  501    0  0.00000000000E+00  0.00000000000E+00  0.62012996605E+03  0.62012996607E+03  0.50400001928E-02 0.  1.
       -1   -1    0    0    0  501  0.00000000000E+00  0.00000000000E+00 -0.48307221716E+03  0.48307221718E+03  0.50400001928E-02 0. -1.
    10030    2    1    2    0    0  0.00000000000E+00  0.00000000000E+00  0.13705774890E+03  0.11032021833E+04  0.10946553022E+04 0.  0.
        2    1    3    3  502    0 -0.47806266918E+03  0.20528443400E+03 -0.10274492501E+03  0.53032266982E+03  0.25500000920E-02 0. -1.
       -2    1    3    3    0  502  0.47806266918E+03 -0.20528443400E+03  0.23980267390E+03  0.57287951344E+03  0.25500000920E-02 0.  1.
</event>
<event>
 5   0  0.7712816E-03  0.7885488E+03  0.7818609E-02  0.9576742E-01
       -2   -1    0    0    0  501  0.00000000000E+00  0.00000000000E+00  0.69367948618E+03  0.69367948619E+03  0.25500000920E-02 0.  1.
        2   -1    0    0  501    0  0.00000000000E+00  0.00000000000E+00 -0.22409817751E+03  0.22409817752E+03  0.25500000920E-02 0. -1.
    10030    2    1    2    0    0  0.00000000000E+00  0.00000000000E+00  0.46958130867E+03  0.91777766371E+03  0.78854881558E+03 0.  0.
        2    1    3    3  502    0  0.64240320519E+02 -0.20082017160E+03  0.62255156678E+03  0.65728685778E+03  0.25500000920E-02 0.  1.
       -2    1    3    3    0  502 -0.64240320519E+02  0.20082017160E+03 -0.15297025811E+03  0.26049080593E+03  0.25500000920E-02 0. -1.
</event>
<event>
 5   0  0.7766551E-03  0.1088878E+04  0.7818609E-02  0.9216100E-01
        2   -1    0    0  501    0  0.00000000000E+00  0.00000000000E+00  0.18024579717E+04  0.18024579717E+04  0.25500000920E-02 0. -1.
       -2   -1    0    0    0  501  0.00000000000E+00  0.00000000000E+00 -0.16444990882E+03  0.16444990884E+03  0.25500000920E-02 0.  1.
    10030    2    1    2    0    0  0.00000000000E+00  0.00000000000E+00  0.16380080628E+04  0.19669078805E+04  0.10888784121E+04 0.  0.
        5    1    3    3  502    0 -0.34842201905E+02 -0.24949522862E+02 -0.16136188007E+03  0.16702156765E+03  0.46999998093E+01 0.  1.
       -5    1    3    3    0  502  0.34842201905E+02  0.24949522862E+02  0.17993699429E+04  0.17998863128E+04  0.46999998093E+01 0. -1.
</event>
<event>
 5   0  0.7738497E-03  0.1100134E+04  0.7818609E-02  0.9205061E-01
       -2   -1    0    0    0  501  0.00000000000E+00  0.00000000000E+00  0.34171147612E+03  0.34171147613E+03  0.25500000920E-02 0.  1.
        2   -1    0    0  501    0  0.00000000000E+00  0.00000000000E+00 -0.88546590284E+03  0.88546590284E+03  0.25500000920E-02 0. -1.
    10030    2    1    2    0    0  0.00000000000E+00  0.00000000000E+00 -0.54375442672E+03  0.12271773790E+04  0.11001342840E+04 0.  0.
        4    1    3    3  502    0  0.44242564776E+02 -0.33409722591E+03  0.21306000907E+03  0.39871611613E+03  0.12699999809E+01 0.  1.
       -4    1    3    3    0  502 -0.44242564776E+02  0.33409722591E+03 -0.75681443579E+03  0.82846126283E+03  0.12699999809E+01 0. -1.
</event>
<event>
 5   0  0.7712816E-03  0.1084290E+04  0.7818609E-02  0.9220641E-01
        2   -1    0    0  501    0  0.00000000000E+00  0.00000000000E+00  0.14639085856E+04  0.14639085856E+04  0.25500000920E-02 0.  1.
       -2   -1    0    0    0  501  0.00000000000E+00  0.00000000000E+00 -0.20077820953E+03  0.20077820955E+03  0.25500000920E-02 0. -1.
    10030    2    1    2    0    0  0.00000000000E+00  0.00000000000E+00  0.12631303761E+04  0.16646867952E+04  0.10842895273E+04 0.  0.
        2    1    3    3  502    0  0.39236012769E+03  0.31695897873E+03  0.32639020832E+03  0.60078284936E+03  0.25500000920E-02 0.  1.
       -2    1    3    3    0  502 -0.39236012769E+03 -0.31695897873E+03  0.93674016779E+03  0.10639039458E+04  0.25500000920E-02 0. -1.
</event>
<event>
 5   0  0.7766551E-03  0.1092072E+04  0.7818609E-02  0.9212954E-01
        2   -1    0    0  501    0  0.00000000000E+00  0.00000000000E+00  0.16124190939E+04  0.16124190939E+04  0.25500000920E-02 0. -1.
       -2   -1    0    0    0  501  0.00000000000E+00  0.00000000000E+00 -0.18491179684E+03  0.18491179685E+03  0.25500000920E-02 0.  1.
    10030    2    1    2    0    0  0.00000000000E+00  0.00000000000E+00  0.14275072971E+04  0.17973308908E+04  0.10920719975E+04 0.  0.
        5    1    3    3  502    0  0.22341900753E+03 -0.13641743676E+02 -0.10589893552E+03  0.24766676127E+03  0.46999998093E+01 0.  1.
       -5    1    3    3    0  502 -0.22341900753E+03  0.13641743676E+02  0.15334062326E+04  0.15496641295E+04  0.46999998093E+01 0. -1.
</event>
<event>
 5   0  0.4641021E-03  0.1107791E+04  0.7818609E-02  0.9197631E-01
       -1   -1    0    0    0  501  0.00000000000E+00  0.00000000000E+00  0.62405494395E+03  0.62405494397E+03  0.50400001928E-02 0.  1.
        1   -1    0    0  501    0  0.00000000000E+00  0.00000000000E+00 -0.49162391166E+03  0.49162391169E+03  0.50400001928E-02 0. -1.
    10030    2    1    2    0    0  0.00000000000E+00  0.00000000000E+00  0.13243103228E+03  0.11156788557E+04  0.11077911945E+04 0.  0.
        1    1    3    3  502    0  0.17374963521E+03 -0.17111581836E+03 -0.43464912284E+03  0.49838681668E+03  0.50400001928E-02 0. -1.
       -1    1    3    3    0  502 -0.17374963521E+03  0.17111581836E+03  0.56708015512E+03  0.61729203898E+03  0.50400001928E-02 0.  1.
</event>
<event>
 5   0  0.7952121E-03  0.1108212E+04  0.7818609E-02  0.9197225E-01
        2   -1    0    0  501    0  0.00000000000E+00  0.00000000000E+00  0.79837575912E+03  0.79837575912E+03  0.25500000920E-02 0.  1.
       -2   -1    0    0    0  501  0.00000000000E+00  0.00000000000E+00 -0.38457250247E+03  0.38457250248E+03  0.25500000920E-02 0. -1.
    10030    2    1    2    0    0  0.00000000000E+00  0.00000000000E+00  0.41380325665E+03  0.11829482616E+04  0.11082118274E+04 0.  0.
        3    1    3    3  502    0  0.31266063829E+03  0.16468194854E+03  0.66248235938E+03  0.75083933408E+03  0.10100000352E+00 0.  1.
       -3    1    3    3    0  502 -0.31266063829E+03 -0.16468194854E+03 -0.24867910273E+03  0.43210892753E+03  0.10100000352E+00 0. -1.
</event>
<event>
 5   0  0.4641021E-03  0.1114900E+04  0.7818609E-02  0.9190790E-01
       -1   -1    0    0    0  501  0.00000000000E+00  0.00000000000E+00  0.11551206688E+04  0.11551206689E+04  0.50400001928E-02 0.  1.
        1   -1    0    0  501    0  0.00000000000E+00  0.00000000000E+00 -0.26902006933E+03  0.26902006938E+03  0.50400001928E-02 0. -1.
    10030    2    1    2    0    0  0.00000000000E+00  0.00000000000E+00  0.88610059952E+03  0.14241407382E+04  0.11149002511E+04 0.  0.
        1    1    3    3  502    0 -0.47251656074E+03  0.12457408628E+03  0.10039094525E+03  0.49886766287E+03  0.50400001928E-02 0. -1.
       -1    1    3    3    0  502  0.47251656074E+03 -0.12457408628E+03  0.78570965427E+03  0.92527307536E+03  0.50400001928E-02 0.  1.
</event>
<event>
 5   0  0.7712816E-03  0.1106063E+04  0.7818609E-02  0.9199303E-01
        2   -1    0    0  501    0  0.00000000000E+00  0.00000000000E+00  0.90490065258E+03  0.90490065258E+03  0.25500000920E-02 0.  1.
       -2   -1    0    0    0  501  0.00000000000E+00  0.00000000000E+00 -0.33798591013E+03  0.33798591014E+03  0.25500000920E-02 0. -1.
    10030    2    1    2    0    0  0.00000000000E+00  0.00000000000E+00  0.56691474244E+03  0.12428865627E+04  0.11060626938E+04 0.  0.
        2    1    3    3  502    0  0.20542994126E+03  0.37411801652E+03 -0.11172524682E+03  0.44118962118E+03  0.25500000920E-02 0. -1.
       -2    1    3    3    0  502 -0.20542994126E+03 -0.37411801652E+03  0.67863998926E+03  0.80169694155E+03  0.25500000920E-02 0.  1.
</event>
<event>
 5   0  0.7766551E-03  0.1049108E+04  0.7818609E-02  0.9256265E-01
        2   -1    0    0  501    0  0.00000000000E+00  0.00000000000E+00  0.84663290291E+03  0.84663290292E+03  0.25500000920E-02 0.  1.
       -2   -1    0    0    0  501  0.00000000000E+00  0.00000000000E+00 -0.32500154817E+03  0.32500154818E+03  0.25500000920E-02 0. -1.
    10030    2    1    2    0    0  0.00000000000E+00  0.00000000000E+00  0.52163135474E+03  0.11716344511E+04  0.10491082007E+04 0.  0.
        5    1    3    3  502    0 -0.17840572060E+03  0.91602129462E+02  0.80210263304E+03  0.82680727814E+03  0.46999998093E+01 0.  1.
       -5    1    3    3    0  502  0.17840572060E+03 -0.91602129462E+02 -0.28047127830E+03  0.34482717296E+03  0.46999998093E+01 0. -1.
</event>
<event>
 5   0  0.4641021E-03  0.1186600E+04  0.7818609E-02  0.9124667E-01
       -1   -1    0    0    0  501  0.00000000000E+00  0.00000000000E+00  0.51903508867E+03  0.51903508869E+03  0.50400001928E-02 0.  1.
        1   -1    0    0  501    0  0.00000000000E+00  0.00000000000E+00 -0.67819149654E+03  0.67819149655E+03  0.50400001928E-02 0. -1.
    10030    2    1    2    0    0  0.00000000000E+00  0.00000000000E+00 -0.15915640787E+03  0.11972265852E+04  0.11866004948E+04 0.  0.
        1    1    3    3  502    0  0.61464223571E+02 -0.11437598301E+03 -0.66367994670E+03  0.67626236620E+03  0.50400001928E-02 0. -1.
       -1    1    3    3    0  502 -0.61464223571E+02  0.11437598301E+03  0.50452353883E+03  0.52096421905E+03  0.50400001928E-02 0.  1.
</event>
<event>
 5   0  0.4428114E-03  0.1092599E+04  0.7818609E-02  0.9212436E-01
       -1   -1    0    0    0  501  0.00000000000E+00  0.00000000000E+00  0.41550270816E+03  0.41550270819E+03  0.50400001928E-02 0.  1.
        1   -1    0    0  501    0  0.00000000000E+00  0.00000000000E+00 -0.71827004929E+03  0.71827004931E+03  0.50400001928E-02 0. -1.
    10030    2    1    2    0    0  0.00000000000E+00  0.00000000000E+00 -0.30276734113E+03  0.11337727575E+04  0.10925990128E+04 0.  0.
        4    1    3    3  502    0  0.13554047604E+02 -0.28190385990E+03 -0.63675822168E+03  0.69650279555E+03  0.12699999809E+01 0. -1.
       -4    1    3    3    0  502 -0.13554047604E+02  0.28190385990E+03  0.33399088055E+03  0.43726996194E+03  0.12699999809E+01 0.  1.
</event>
<event>
 5   0  0.4298101E-03  0.1067341E+04  0.7818609E-02  0.9237622E-01
       -1   -1    0    0    0  501  0.00000000000E+00  0.00000000000E+00  0.46642451103E+03  0.46642451106E+03  0.50400001928E-02 0.  1.
        1   -1    0    0  501    0  0.00000000000E+00  0.00000000000E+00 -0.61061148066E+03  0.61061148068E+03  0.50400001928E-02 0. -1.
    10030    2    1    2    0    0  0.00000000000E+00  0.00000000000E+00 -0.14418696963E+03  0.10770359917E+04  0.10673409227E+04 0.  0.
        3    1    3    3  502    0  0.48963667434E+03 -0.10003357806E+03 -0.26101955525E+03  0.56381025889E+03  0.10100000352E+00 0.  1.
       -3    1    3    3    0  502 -0.48963667434E+03  0.10003357806E+03  0.11683258563E+03  0.51322573285E+03  0.10100000352E+00 0. -1.
</event>
<event>
 5   0  0.2992375E-03  0.1091193E+04  0.7818609E-02  0.9213818E-01
        3   -1    0    0  501    0  0.00000000000E+00  0.00000000000E+00  0.26789348359E+03  0.26789350263E+03  0.10100000352E+00 0.  1.
       -3   -1    0    0    0  501  0.00000000000E+00  0.00000000000E+00 -0.11111717663E+04  0.11111717709E+04  0.10100000352E+00 0. -1.
    10030    2    1    2    0    0  0.00000000000E+00  0.00000000000E+00 -0.84327828272E+03  0.13790652735E+04  0.10911932764E+04 0.  0.
        4    1    3    3  502    0  0.33549824089E+03 -0.42860522908E+03 -0.37413979609E+03  0.66048748054E+03  0.12699999809E+01 0. -1.
       -4    1    3    3    0  502 -0.33549824089E+03  0.42860522908E+03 -0.46913848663E+03  0.71857779299E+03  0.12699999809E+01 0.  1.
</event>
<event>
 5   0  0.4504740E-03  0.1113303E+04  0.7818609E-02  0.9192322E-01
       -1   -1    0    0    0  501  0.00000000000E+00  0.00000000000E+00  0.42105011644E+03  0.42105011647E+03  0.50400001928E-02 0.  1.
        1   -1    0    0  501    0  0.00000000000E+00  0.00000000000E+00 -0.73592374871E+03  0.73592374873E+03  0.50400001928E-02 0. -1.
    10030    2    1    2    0    0  0.00000000000E+00  0.00000000000E+00 -0.31487363227E+03  0.11569738652E+04  0.11133027982E+04 0.  0.
        5    1    3    3  502    0 -0.49173608185E+03  0.25215768049E+03 -0.22676826380E+03  0.59735567754E+03  0.46999998093E+01 0.  1.
       -5    1    3    3    0  502  0.49173608185E+03 -0.25215768049E+03 -0.88105368471E+02  0.55961818767E+03  0.46999998093E+01 0. -1.
</event>
<event>
 5   0  0.4298101E-03  0.1108404E+04  0.7818609E-02  0.9197039E-01
       -1   -1    0    0    0  501  0.00000000000E+00  0.00000000000E+00  0.69224838860E+03  0.69224838862E+03  0.50400001928E-02 0. -1.
        1   -1    0    0  501    0  0.00000000000E+00  0.00000000000E+00 -0.44368476361E+03  0.44368476364E+03  0.50400001928E-02 0.  1.
    10030    2    1    2    0    0  0.00000000000E+00  0.00000000000E+00  0.24856362499E+03  0.11359331523E+04  0.11084043715E+04 0.  0.
        3    1    3    3  502    0  0.47422708001E+03  0.27806476833E+03  0.19623024546E+03  0.58371025196E+03  0.10100000352E+00 0. -1.
       -3    1    3    3    0  502 -0.47422708001E+03 -0.27806476833E+03  0.52333379526E+02  0.55222290030E+03  0.10100000352E+00 0.  1.
</event>
<event>
 5   0  0.7766551E-03  0.1096585E+04  0.7818609E-02  0.9208527E-01
       -2   -1    0    0    0  501  0.00000000000E+00  0.00000000000E+00  0.12234288582E+04  0.12234288582E+04  0.25500000920E-02 0. -1.
        2   -1    0    0  501    0  0.00000000000E+00  0.00000000000E+00 -0.24572292621E+03  0.24572292622E+03  0.25500000920E-02 0.  1.
    10030    2    1    2    0    0  0.00000000000E+00  0.00000000000E+00  0.97770593203E+03  0.14691517845E+04  0.10965847328E+04 0.  0.
        5    1    3    3  502    0 -0.13934024645E+03  0.24111700772E+03  0.11215924226E+04  0.11556577210E+04  0.46999998093E+01 0. -1.
       -5    1    3    3    0  502  0.13934024645E+03 -0.24111700772E+03 -0.14388649053E+03  0.31349406350E+03  0.46999998093E+01 0.  1.
</event>
<event>
 5   0  0.4504740E-03  0.1224147E+04  0.7818609E-02  0.9091979E-01
        1   -1    0    0  501    0  0.00000000000E+00  0.00000000000E+00  0.10665274905E+04  0.10665274905E+04  0.50400001928E-02 0. -1.
       -1   -1    0    0    0  501  0.00000000000E+00  0.00000000000E+00 -0.35126519082E+03  0.35126519085E+03  0.50400001928E-02 0.  1.
    10030    2    1    2    0    0  0.00000000000E+00  0.00000000000E+00  0.71526229970E+03  0.14177926814E+04  0.12241470214E+04 0.  0.
        5    1    3    3  502    0 -0.28690824801E+03  0.86475594367E+01 -0.26845585556E+03  0.39304167647E+03  0.46999998093E+01 0.  1.
       -5    1    3    3    0  502  0.28690824801E+03 -0.86475594367E+01  0.98371815527E+03  0.10247510049E+04  0.46999998093E+01 0. -1.
</event>
<event>
 5   0  0.7766551E-03  0.1040609E+04  0.7818609E-02  0.9265093E-01
       -2   -1    0    0    0  501  0.00000000000E+00  0.00000000000E+00  0.17765728209E+03  0.17765728210E+03  0.25500000920E-02 0. -1.
        2   -1    0    0  501    0  0.00000000000E+00  0.00000000000E+00 -0.15238158313E+04  0.15238158313E+04  0.25500000920E-02 0.  1.
    10030    2    1    2    0    0  0.00000000000E+00  0.00000000000E+00 -0.13461585492E+04  0.17014731134E+04  0.10406093965E+04 0.  0.
        5    1    3    3  502    0  0.15702719252E+03  0.28733155664E+03 -0.13341788950E+04  0.13737803232E+04  0.46999998093E+01 0.  1.
       -5    1    3    3    0  502 -0.15702719252E+03 -0.28733155664E+03 -0.11979654234E+02  0.32769279020E+03  0.46999998093E+01 0. -1.
</event>
<event>
 5   0  0.4428114E-03  0.1076731E+04  0.7818609E-02  0.9228173E-01
       -1   -1    0    0    0  501  0.00000000000E+00  0.00000000000E+00  0.17119390324E+03  0.17119390332E+03  0.50400001928E-02 0. -1.
        1   -1    0    0  501    0  0.00000000000E+00  0.00000000000E+00 -0.16930351505E+04  0.16930351505E+04  0.50400001928E-02 0.  1.
    10030    2    1    2    0    0  0.00000000000E+00  0.00000000000E+00 -0.15218412472E+04  0.18642290538E+04  0.10767307849E+04 0.  0.
        4    1    3    3  502    0 -0.40657025363E+03 -0.10793667474E+03 -0.13426381615E+04  0.14069927301E+04  0.12699999809E+01 0.  1.
       -4    1    3    3    0  502  0.40657025363E+03  0.10793667474E+03 -0.17920308575E+03  0.45723632373E+03  0.12699999809E+01 0. -1.
</event>
<event>
 5   0  0.4504740E-03  0.1227648E+04  0.7818609E-02  0.9088995E-01
       -1   -1    0    0    0  501  0.00000000000E+00  0.00000000000E+00  0.32942089025E+03  0.32942089029E+03  0.50400001928E-02 0. -1.
        1   -1    0    0  501    0  0.00000000000E+00  0.00000000000E+00 -0.11437641380E+04  0.11437641381E+04  0.50400001928E-02 0.  1.
    10030    2    1    2    0    0  0.00000000000E+00  0.00000000000E+00 -0.81434324780E+03  0.14731850283E+04  0.12276478333E+04 0.  0.
        5    1    3    3  502    0  0.10669050713E+02  0.54362472434E+03 -0.65399318317E+02  0.54766854062E+03  0.46999998093E+01 0. -1.
       -5    1    3    3    0  502 -0.10669050713E+02 -0.54362472434E+03 -0.74894392948E+03  0.92551648773E+03  0.46999998093E+01 0.  1.
</event>
<event>
 5   0  0.7952121E-03  0.1104779E+04  0.7818609E-02  0.9200546E-01
        2   -1    0    0  501    0  0.00000000000E+00  0.00000000000E+00  0.48125717867E+03  0.48125717868E+03  0.25500000920E-02 0.  1.
       -2   -1    0    0    0  501  0.00000000000E+00  0.00000000000E+00 -0.63403575164E+03  0.63403575164E+03  0.25500000920E-02 0. -1.
    10030    2    1    2    0    0  0.00000000000E+00  0.00000000000E+00 -0.15277857296E+03  0.11152929303E+04  0.11047791762E+04 0.  0.
        3    1    3    3  502    0  0.13764303866E+03  0.43932359576E+03 -0.38455391612E+03  0.59986044417E+03  0.10100000352E+00 0.  1.
       -3    1    3    3    0  502 -0.13764303866E+03 -0.43932359576E+03  0.23177534316E+03  0.51543248615E+03  0.10100000352E+00 0. -1.
</event>
<event>
 5   0  0.7766551E-03  0.1098121E+04  0.7818609E-02  0.9207025E-01
       -2   -1    0    0    0  501  0.00000000000E+00  0.00000000000E+00  0.25556609570E+03  0.25556609571E+03  0.25500000920E-02 0.  1.
        2   -1    0    0  501    0  0.00000000000E+00  0.00000000000E+00 -0.11796073000E+04  0.11796073000E+04  0.25500000920E-02 0. -1.
    10030    2    1    2    0    0  0.00000000000E+00  0.00000000000E+00 -0.92404120430E+03  0.14351733957E+04  0.10981213633E+04 0.  0.
        5    1    3    3  502    0  0.30569941402E+03 -0.42276877245E+03 -0.68557901265E+03  0.86152553025E+03  0.46999998093E+01 0.  1.
       -5    1    3    3    0  502 -0.30569941402E+03  0.42276877245E+03 -0.23846219165E+03  0.57364786545E+03  0.46999998093E+01 0. -1.
</event>
<event>
 5   0  0.2992375E-03  0.1104479E+04  0.7818609E-02  0.9200837E-01
       -3   -1    0    0    0  501  0.00000000000E+00  0.00000000000E+00  0.66944890397E+03  0.66944891159E+03  0.10100000352E+00 0.  1.
        3   -1    0    0  501    0  0.00000000000E+00  0.00000000000E+00 -0.45555161189E+03  0.45555162309E+03  0.10100000352E+00 0. -1.
    10030    2    1    2    0    0  0.00000000000E+00  0.00000000000E+00  0.21389729208E+03  0.11250005347E+04  0.11044791313E+04 0.  0.
        2    1    3    3  502    0 -0.13023829738E+03  0.11981248075E+03 -0.42588804855E+03  0.46119158118E+03  0.25500000920E-02 0. -1.
       -2    1    3    3    0  502  0.13023829738E+03 -0.11981248075E+03  0.63978534063E+03  0.66380895350E+03  0.25500000920E-02 0.  1.
</event>
<event>
 5   0  0.7738497E-03  0.1255550E+04  0.7818609E-02  0.9065577E-01
       -2   -1    0    0    0  501  0.00000000000E+00  0.00000000000E+00  0.30275852467E+03  0.30275852468E+03  0.25500000920E-02 0.  1.
        2   -1    0    0  501    0  0.00000000000E+00  0.00000000000E+00 -0.13017022429E+04  0.13017022429E+04  0.25500000920E-02 0. -1.
    10030    2    1    2    0    0  0.00000000000E+00  0.00000000000E+00 -0.99894371826E+03  0.16044607676E+04  0.12555500000E+04 0.  0.
        4    1    3    3  502    0 -0.16665150096E+03 -0.39851892539E+03  0.82650627551E+02  0.43979858549E+03  0.12699999809E+01 0.  1.
       -4    1    3    3    0  502  0.16665150096E+03  0.39851892539E+03 -0.10815943458E+04  0.11646621821E+04  0.12699999809E+01 0. -1.
</event>
<event>
 5   0  0.4641021E-03  0.1002446E+04  0.7818609E-02  0.9305866E-01
        1   -1    0    0  501    0  0.00000000000E+00  0.00000000000E+00  0.55544012611E+03  0.55544012613E+03  0.50400001928E-02 0.  1.
       -1   -1    0    0    0  501  0.00000000000E+00  0.00000000000E+00 -0.45229831995E+03  0.45229831998E+03  0.50400001928E-02 0. -1.
    10030    2    1    2    0    0  0.00000000000E+00  0.00000000000E+00  0.10314180616E+03  0.10077384461E+04  0.10024462797E+04 0.  0.
        1    1    3    3  502    0 -0.45971706478E+03  0.18442052391E+03 -0.25475253003E+02  0.49598356609E+03  0.50400001928E-02 0. -1.
       -1    1    3    3    0  502  0.45971706478E+03 -0.18442052391E+03  0.12861705916E+03  0.51175488002E+03  0.50400001928E-02 0.  1.
</event>
<event>
 5   0  0.4598561E-03  0.1099569E+04  0.7818609E-02  0.9205612E-01
       -1   -1    0    0    0  501  0.00000000000E+00  0.00000000000E+00  0.44012851659E+03  0.44012851662E+03  0.50400001928E-02 0.  1.
        1   -1    0    0  501    0  0.00000000000E+00  0.00000000000E+00 -0.68676138105E+03  0.68676138107E+03  0.50400001928E-02 0. -1.
    10030    2    1    2    0    0  0.00000000000E+00  0.00000000000E+00 -0.24663286446E+03  0.11268898977E+04  0.10995694938E+04 0.  0.
        2    1    3    3  502    0 -0.45429678482E+03 -0.19553665967E+03  0.12273875218E+03  0.50959293094E+03  0.25500000920E-02 0.  1.
       -2    1    3    3    0  502  0.45429678482E+03  0.19553665967E+03 -0.36937161663E+03  0.61729696675E+03  0.25500000920E-02 0. -1.
</event>
<event>
 5   0  0.4428114E-03  0.1080629E+04  0.7818609E-02  0.9224281E-01
       -1   -1    0    0    0  501  0.00000000000E+00  0.00000000000E+00  0.24184871678E+03  0.24184871683E+03  0.50400001928E-02 0.  1.
        1   -1    0    0  501    0  0.00000000000E+00  0.00000000000E+00 -0.12071172768E+04  0.12071172768E+04  0.50400001928E-02 0. -1.
    10030    2    1    2    0    0  0.00000000000E+00  0.00000000000E+00 -0.96526856006E+03  0.14489659937E+04  0.10806290103E+04 0.  0.
        4    1    3    3  502    0 -0.40179583480E+01 -0.47391994084E+03 -0.83053853790E+03  0.95624898962E+03  0.12699999809E+01 0. -1.
       -4    1    3    3    0  502  0.40179583480E+01  0.47391994084E+03 -0.13473002216E+03  0.49271700406E+03  0.12699999809E+01 0.  1.
</event>
<event>
 5   0  0.4428114E-03  0.1082544E+04  0.7818609E-02  0.9222375E-01
       -1   -1    0    0    0  501  0.00000000000E+00  0.00000000000E+00  0.25649228043E+03  0.25649228048E+03  0.50400001928E-02 0.  1.
        1   -1    0    0  501    0  0.00000000000E+00  0.00000000000E+00 -0.11422387610E+04  0.11422387611E+04  0.50400001928E-02 0. -1.
    10030    2    1    2    0    0  0.00000000000E+00  0.00000000000E+00 -0.88574648062E+03  0.13987310415E+04  0.10825440862E+04 0.  0.
        4    1    3    3  502    0  0.27476089006E+03  0.14136024169E+03  0.13133507097E+03  0.33574808771E+03  0.12699999809E+01 0.  1.
       -4    1    3    3    0  502 -0.27476089006E+03 -0.14136024169E+03 -0.10170815516E+04  0.10629829538E+04  0.12699999809E+01 0. -1.
</event>
<event>
 5   0  0.4641021E-03  0.1112267E+04  0.7818609E-02  0.9193317E-01
       -1   -1    0    0    0  501  0.00000000000E+00  0.00000000000E+00  0.50743008078E+03  0.50743008081E+03  0.50400001928E-02 0.  1.
        1   -1    0    0  501    0  0.00000000000E+00  0.00000000000E+00 -0.60951144079E+03  0.60951144081E+03  0.50400001928E-02 0. -1.
    10030    2    1    2    0    0  0.00000000000E+00  0.00000000000E+00 -0.10208136001E+03  0.11169415216E+04  0.11122669458E+04 0.  0.
        1    1    3    3  502    0  0.14702749501E+03 -0.16509929657E+03 -0.56348877304E+03  0.60530526133E+03  0.50400001928E-02 0. -1.
       -1    1    3    3    0  502 -0.14702749501E+03  0.16509929657E+03  0.46140741303E+03  0.51163626029E+03  0.50400001928E-02 0.  1.
</event>
<event>
 5   0  0.4504740E-03  0.1195706E+04  0.7818609E-02  0.9116624E-01
        1   -1    0    0  501    0  0.00000000000E+00  0.00000000000E+00  0.10211165636E+04  0.10211165636E+04  0.50400001928E-02 0.  1.
       -1   -1    0    0    0  501  0.00000000000E+00  0.00000000000E+00 -0.35003638548E+03  0.35003638551E+03  0.50400001928E-02 0. -1.
    10030    2    1    2    0    0  0.00000000000E+00  0.00000000000E+00  0.67108017813E+03  0.13711529491E+04  0.11957055676E+04 0.  0.
        5    1    3    3  502    0  0.19983682920E+03  0.53053395237E+02 -0.30771016002E+03  0.37075201096E+03  0.46999998093E+01 0. -1.
       -5    1    3    3    0  502 -0.19983682920E+03 -0.53053395237E+02  0.97879033816E+03  0.10004009382E+04  0.46999998093E+01 0.  1.
</event>
<event>
 5   0  0.7738497E-03  0.1149927E+04  0.7818609E-02  0.9157851E-01
        2   -1    0    0  501    0  0.00000000000E+00  0.00000000000E+00  0.62739838319E+03  0.62739838320E+03  0.25500000920E-02 0.  1.
       -2   -1    0    0    0  501  0.00000000000E+00  0.00000000000E+00 -0.52691046418E+03  0.52691046419E+03  0.25500000920E-02 0. -1.
    10030    2    1    2    0    0  0.00000000000E+00  0.00000000000E+00  0.10048791901E+03  0.11543088474E+04  0.11499265600E+04 0.  0.
        4    1    3    3  502    0  0.27260043219E+03  0.42974502251E+03 -0.21833761857E+03  0.55377315625E+03  0.12699999809E+01 0. -1.
       -4    1    3    3    0  502 -0.27260043219E+03 -0.42974502251E+03  0.31882553759E+03  0.60053569113E+03  0.12699999809E+01 0.  1.
</event>
<event>
 5   0  0.4504740E-03  0.1097830E+04  0.7818609E-02  0.9207309E-01
       -1   -1    0    0    0  501  0.00000000000E+00  0.00000000000E+00  0.19893032510E+03  0.19893032516E+03  0.50400001928E-02 0.  1.
        1   -1    0    0  501    0  0.00000000000E+00  0.00000000000E+00 -0.15146399892E+04  0.15146399892E+04  0.50400001928E-02 0. -1.
    10030    2    1    2    0    0  0.00000000000E+00  0.00000000000E+00 -0.13157096641E+04  0.17135703144E+04  0.10978302702E+04 0.  0.
        5    1    3    3  502    0 -0.46107187336E+03 -0.22235147099E+03 -0.34858867452E+03  0.61932511903E+03  0.46999998093E+01 0.  1.
       -5    1    3    3    0  502  0.46107187336E+03  0.22235147099E+03 -0.96712098958E+03  0.10942451953E+04  0.46999998093E+01 0. -1.
</event>
<event>
 5   0  0.7738497E-03  0.1100301E+04  0.7818609E-02  0.9204899E-01
        2   -1    0    0  501    0  0.00000000000E+00  0.00000000000E+00  0.13345834335E+04  0.13345834335E+04  0.25500000920E-02 0.  1.
       -2   -1    0    0    0  501  0.00000000000E+00  0.00000000000E+00 -0.22678651921E+03  0.22678651923E+03  0.25500000920E-02 0. -1.
    10030    2    1    2    0    0  0.00000000000E+00  0.00000000000E+00  0.11077969143E+04  0.15613699527E+04  0.11003009252E+04 0.  0.
        4    1    3    3  502    0  0.33461697237E+02 -0.96497398781E+02 -0.21321320497E+03  0.23641682857E+03  0.12699999809E+01 0. -1.
       -4    1    3    3    0  502 -0.33461697237E+02  0.96497398781E+02  0.13210101192E+04  0.13249531241E+04  0.12699999809E+01 0.  1.
</event>
<event>
 5   0  0.4641021E-03  0.1094300E+04  0.7818609E-02  0.9210765E-01
       -1   -1    0    0    0  501  0.00000000000E+00  0.00000000000E+00  0.40696390997E+03  0.40696391000E+03  0.50400001928E-02 0.  1.
        1   -1    0    0  501    0  0.00000000000E+00  0.00000000000E+00 -0.73562600660E+03  0.73562600661E+03  0.50400001928E-02 0. -1.
    10030    2    1    2    0    0  0.00000000000E+00  0.00000000000E+00 -0.32866209663E+03  0.11425899166E+04  0.10943002073E+04 0.  0.
        1    1    3    3  502    0  0.23803176057E+03 -0.19231733494E+03 -0.63791914268E+03  0.70752096010E+03  0.50400001928E-02 0. -1.
       -1    1    3    3    0  502 -0.23803176057E+03  0.19231733494E+03  0.30925704606E+03  0.43506895651E+03  0.50400001928E-02 0.  1.
</event>
<event>
 5   0  0.2992375E-03  0.9546110E+03  0.7818609E-02  0.9359777E-01
       -3   -1    0    0    0  501  0.00000000000E+00  0.00000000000E+00  0.14245221582E+03  0.14245225163E+03  0.10100000352E+00 0.  1.
        3   -1    0    0  501    0  0.00000000000E+00  0.00000000000E+00 -0.15992767866E+04  0.15992767898E+04  0.10100000352E+00 0. -1.
    10030    2    1    2    0    0  0.00000000000E+00  0.00000000000E+00 -0.14568245708E+04  0.17417290414E+04  0.95461103266E+03 0.  0.
        5    1    3    3  502    0  0.13822473541E+03 -0.27790785382E+03 -0.66881104722E+02  0.31754373692E+03  0.46999998093E+01 0.  1.
       -5    1    3    3    0  502 -0.13822473541E+03  0.27790785382E+03 -0.13899434661E+04  0.14241853045E+04  0.46999998093E+01 0. -1.
</event>
<event>
 5   0  0.7537480E-03  0.1018398E+04  0.7818609E-02  0.9288594E-01
        2   -1    0    0  501    0  0.00000000000E+00  0.00000000000E+00  0.18765521721E+03  0.18765521723E+03  0.25500000920E-02 0.  1.
       -2   -1    0    0    0  501  0.00000000000E+00  0.00000000000E+00 -0.13817008448E+04  0.13817008448E+04  0.25500000920E-02 0. -1.
    10030    2    1    2    0    0  0.00000000000E+00  0.00000000000E+00 -0.11940456276E+04  0.15693560620E+04  0.10183975101E+04 0.  0.
        1    1    3    3  502    0  0.20481590659E+03 -0.15655763942E+03  0.79658472433E+02  0.26982461397E+03  0.50400001928E-02 0.  1.
       -1    1    3    3    0  502 -0.20481590659E+03  0.15655763942E+03 -0.12737041000E+04  0.12995314481E+04  0.50400001928E-02 0. -1.
</event>
<event>
 5   0  0.4298101E-03  0.1101855E+04  0.7818609E-02  0.9203385E-01
        1   -1    0    0  501    0  0.00000000000E+00  0.00000000000E+00  0.66045855616E+03  0.66045855618E+03  0.50400001928E-02 0. -1.
       -1   -1    0    0    0  501  0.00000000000E+00  0.00000000000E+00 -0.45956154420E+03  0.45956154423E+03  0.50400001928E-02 0.  1.
    10030    2    1    2    0    0  0.00000000000E+00  0.00000000000E+00  0.20089701196E+03  0.11200201004E+04  0.11018554424E+04 0.  0.
        3    1    3    3  502    0 -0.46274326377E+03  0.14072250805E+03 -0.16769411474E+03  0.51191354617E+03  0.10100000352E+00 0.  1.
       -3    1    3    3    0  502  0.46274326377E+03 -0.14072250805E+03  0.36859112669E+03  0.60810655424E+03  0.10100000352E+00 0. -1.
</event>
<event>
 5   0  0.7712816E-03  0.1071182E+04  0.7818609E-02  0.9233744E-01
       -2   -1    0    0    0  501  0.00000000000E+00  0.00000000000E+00  0.37894421578E+03  0.37894421579E+03  0.25500000920E-02 0.  1.
        2   -1    0    0  501    0  0.00000000000E+00  0.00000000000E+00 -0.75699262830E+03  0.75699262830E+03  0.25500000920E-02 0. -1.
    10030    2    1    2    0    0  0.00000000000E+00  0.00000000000E+00 -0.37804841252E+03  0.11359368441E+04  0.10711824828E+04 0.  0.
        2    1    3    3  502    0 -0.16503365622E+03  0.10114480918E+03  0.34055586402E+03  0.39172015092E+03  0.25500000920E-02 0.  1.
       -2    1    3    3    0  502  0.16503365622E+03 -0.10114480918E+03 -0.71860427655E+03  0.74421669317E+03  0.25500000920E-02 0. -1.
</event>
<event>
 5   0  0.4641021E-03  0.1089226E+04  0.7818609E-02  0.9215757E-01
       -1   -1    0    0    0  501  0.00000000000E+00  0.00000000000E+00  0.34832402701E+03  0.34832402705E+03  0.50400001928E-02 0.  1.
        1   -1    0    0  501    0  0.00000000000E+00  0.00000000000E+00 -0.85151493318E+03  0.85151493319E+03  0.50400001928E-02 0. -1.
    10030    2    1    2    0    0  0.00000000000E+00  0.00000000000E+00 -0.50319090617E+03  0.11998389602E+04  0.10892256160E+04 0.  0.
        1    1    3    3  502    0 -0.26633602962E+03 -0.33588628495E+03 -0.62163936701E+03  0.75510925020E+03  0.50400001928E-02 0. -1.
       -1    1    3    3    0  502  0.26633602962E+03  0.33588628495E+03  0.11844846084E+03  0.44472971004E+03  0.50400001928E-02 0.  1.
</event>
<event>
 5   0  0.4298101E-03  0.1080022E+04  0.7818609E-02  0.9224886E-01
       -1   -1    0    0    0  501  0.00000000000E+00  0.00000000000E+00  0.32411038136E+03  0.32411038140E+03  0.50400001928E-02 0.  1.
        1   -1    0    0  501    0  0.00000000000E+00  0.00000000000E+00 -0.89972972695E+03  0.89972972697E+03  0.50400001928E-02 0. -1.
    10030    2    1    2    0    0  0.00000000000E+00  0.00000000000E+00 -0.57561934559E+03  0.12238401084E+04  0.10800217497E+04 0.  0.
        3    1    3    3  502    0 -0.34776482807E+03 -0.39729519470E+03 -0.15946739294E+03  0.55155571522E+03  0.10100000352E+00 0. -1.
       -3    1    3    3    0  502  0.34776482807E+03  0.39729519470E+03 -0.41615195265E+03  0.67228439315E+03  0.10100000352E+00 0.  1.
</event>
<event>
 5   0  0.4641021E-03  0.1123683E+04  0.7818609E-02  0.9182411E-01
        1   -1    0    0  501    0  0.00000000000E+00  0.00000000000E+00  0.78219496490E+03  0.78219496492E+03  0.50400001928E-02 0.  1.
       -1   -1    0    0    0  501  0.00000000000E+00  0.00000000000E+00 -0.40356448738E+03  0.40356448741E+03  0.50400001928E-02 0. -1.
    10030    2    1    2    0    0  0.00000000000E+00  0.00000000000E+00  0.37863047752E+03  0.11857594523E+04  0.11236834253E+04 0.  0.
        1    1    3    3  502    0 -0.13571518691E+03  0.54494570312E+03  0.17160478619E+03  0.58722451752E+03  0.50400001928E-02 0.  1.
       -1    1    3    3    0  502  0.13571518691E+03 -0.54494570312E+03  0.20702569133E+03  0.59853493482E+03  0.50400001928E-02 0. -1.
</event>
<event>
 5   0  0.7766551E-03  0.1109397E+04  0.7818609E-02  0.9196081E-01
        2   -1    0    0  501    0  0.00000000000E+00  0.00000000000E+00  0.73475669184E+03  0.73475669184E+03  0.25500000920E-02 0.  1.
       -2   -1    0    0    0  501  0.00000000000E+00  0.00000000000E+00 -0.41876538912E+03  0.41876538912E+03  0.25500000920E-02 0. -1.
    10030    2    1    2    0    0  0.00000000000E+00  0.00000000000E+00  0.31599130272E+03  0.11535220810E+04  0.11093974436E+04 0.  0.
        5    1    3    3  502    0  0.15051959659E+03  0.41346954461E+03  0.50914884121E+03  0.67295456443E+03  0.46999998093E+01 0.  1.
       -5    1    3    3    0  502 -0.15051959659E+03 -0.41346954461E+03 -0.19315753849E+03  0.48056751654E+03  0.46999998093E+01 0. -1.
</event>
<event>
 5   0  0.7952121E-03  0.1093771E+04  0.7818609E-02  0.9211285E-01
       -2   -1    0    0    0  501  0.00000000000E+00  0.00000000000E+00  0.22236415557E+03  0.22236415558E+03  0.25500000920E-02 0.  1.
        2   -1    0    0  501    0  0.00000000000E+00  0.00000000000E+00 -0.13450171465E+04  0.13450171465E+04  0.25500000920E-02 0. -1.
    10030    2    1    2    0    0  0.00000000000E+00  0.00000000000E+00 -0.11226529909E+04  0.15673813020E+04  0.10937707292E+04 0.  0.
        3    1    3    3  502    0 -0.38427378427E+03  0.86421439981E+01 -0.11188060036E+04  0.11829910870E+04  0.10100000352E+00 0. -1.
       -3    1    3    3    0  502  0.38427378427E+03 -0.86421439981E+01 -0.38469872787E+01  0.38439021507E+03  0.10100000352E+00 0.  1.
</event>
<event>
 5   0  0.7537480E-03  0.1108626E+04  0.7818609E-02  0.9196825E-01
       -2   -1    0    0    0  501  0.00000000000E+00  0.00000000000E+00  0.15842877976E+03  0.15842877978E+03  0.25500000920E-02 0.  1.
        2   -1    0    0  501    0  0.00000000000E+00  0.00000000000E+00 -0.19394381825E+04  0.19394381825E+04  0.25500000920E-02 0. -1.
    10030    2    1    2    0    0  0.00000000000E+00  0.00000000000E+00 -0.17810094028E+04  0.20978669623E+04  0.11086258606E+04 0.  0.
        1    1    3    3  502    0  0.34230677137E+03 -0.26588498394E+03 -0.15443640310E+04  0.16040352274E+04  0.50400001928E-02 0. -1.
       -1    1    3    3    0  502 -0.34230677137E+03  0.26588498394E+03 -0.23664537174E+03  0.49383173491E+03  0.50400001928E-02 0.  1.
</event>
<event>
 5   0  0.4598561E-03  0.1111840E+04  0.7818609E-02  0.9193728E-01
       -1   -1    0    0    0  501  0.00000000000E+00  0.00000000000E+00  0.27172605398E+03  0.27172605403E+03  0.50400001928E-02 0.  1.
        1   -1    0    0  501    0  0.00000000000E+00  0.00000000000E+00 -0.11373486261E+04  0.11373486261E+04  0.50400001928E-02 0. -1.
    10030    2    1    2    0    0  0.00000000000E+00  0.00000000000E+00 -0.86562257208E+03  0.14090746801E+04  0.11118403738E+04 0.  0.
        2    1    3    3  502    0  0.36947424526E+03 -0.22891311932E+03 -0.87207570061E+03  0.97438619741E+03  0.25500000920E-02 0. -1.
       -2    1    3    3    0  502 -0.36947424526E+03  0.22891311932E+03  0.64531285262E+01  0.43468848269E+03  0.25500000920E-02 0.  1.
</event>
<event>
 5   0  0.4641021E-03  0.1094513E+04  0.7818609E-02  0.9210556E-01
        1   -1    0    0  501    0  0.00000000000E+00  0.00000000000E+00  0.67189409603E+03  0.67189409605E+03  0.50400001928E-02 0. -1.
       -1   -1    0    0    0  501  0.00000000000E+00  0.00000000000E+00 -0.44573943630E+03  0.44573943633E+03  0.50400001928E-02 0.  1.
    10030    2    1    2    0    0  0.00000000000E+00  0.00000000000E+00  0.22615465973E+03  0.11176335324E+04  0.10945130345E+04 0.  0.
        1    1    3    3  502    0 -0.24305402079E+03  0.49021274573E+03  0.12358560986E+03  0.56094313089E+03  0.50400001928E-02 0.  1.
       -1    1    3    3    0  502  0.24305402079E+03 -0.49021274573E+03  0.10256904987E+03  0.55669040149E+03  0.50400001928E-02 0. -1.
</event>
<event>
 5   0  0.7766551E-03  0.1120153E+04  0.7818609E-02  0.9185769E-01
        2   -1    0    0  501    0  0.00000000000E+00  0.00000000000E+00  0.12202954767E+04  0.12202954767E+04  0.25500000920E-02 0.  1.
       -2   -1    0    0    0  501  0.00000000000E+00  0.00000000000E+00 -0.25705697820E+03  0.25705697821E+03  0.25500000920E-02 0. -1.
    10030    2    1    2    0    0  0.00000000000E+00  0.00000000000E+00  0.96323849853E+03  0.14773524549E+04  0.11201526106E+04 0.  0.
        5    1    3    3  502    0 -0.80460811198E+02 -0.51980807652E+03  0.22796437435E+03  0.57329244241E+03  0.46999998093E+01 0. -1.
       -5    1    3    3    0  502  0.80460811198E+02  0.51980807652E+03  0.73527412418E+03  0.90406001253E+03  0.46999998093E+01 0.  1.
</event>
<event>
 5   0  0.4298101E-03  0.9994789E+03  0.7818609E-02  0.9309117E-01
       -1   -1    0    0    0  501  0.00000000000E+00  0.00000000000E+00  0.58760758775E+03  0.58760758777E+03  0.50400001928E-02 0. -1.
        1   -1    0    0  501    0  0.00000000000E+00  0.00000000000E+00 -0.42501070063E+03  0.42501070066E+03  0.50400001928E-02 0.  1.
    10030    2    1    2    0    0  0.00000000000E+00  0.00000000000E+00  0.16259688712E+03  0.10126182884E+04  0.99947888941E+03 0.  0.
        3    1    3    3  502    0 -0.28896881258E+03 -0.20225639076E+03 -0.27737375982E+03  0.44871687630E+03  0.10100000352E+00 0.  1.
       -3    1    3    3    0  502  0.28896881258E+03  0.20225639076E+03  0.43997064693E+03  0.56390141213E+03  0.10100000352E+00 0. -1.
</event>
<event>
 5   0  0.4428114E-03  0.1101741E+04  0.7818609E-02  0.9203497E-01
       -1   -1    0    0    0  501  0.00000000000E+00  0.00000000000E+00  0.40213149091E+03  0.40213149094E+03  0.50400001928E-02 0.  1.
        1   -1    0    0  501    0  0.00000000000E+00  0.00000000000E+00 -0.75462427636E+03  0.75462427638E+03  0.50400001928E-02 0. -1.
    10030    2    1    2    0    0  0.00000000000E+00  0.00000000000E+00 -0.35249278545E+03  0.11567557673E+04  0.11017407778E+04 0.  0.
        4    1    3    3  502    0 -0.90412320351E+02  0.22842767157E+03 -0.69392163342E+03  0.73612664334E+03  0.12699999809E+01 0. -1.
       -4    1    3    3    0  502  0.90412320351E+02 -0.22842767157E+03  0.34142884797E+03  0.42062912398E+03  0.12699999809E+01 0.  1.
</event>
<event>
 5   0  0.7766551E-03  0.1096282E+04  0.7818609E-02  0.9208823E-01
       -2   -1    0    0    0  501  0.00000000000E+00  0.00000000000E+00  0.53857370684E+03  0.53857370685E+03  0.25500000920E-02 0.  1.
        2   -1    0    0  501    0  0.00000000000E+00  0.00000000000E+00 -0.55787841886E+03  0.55787841886E+03  0.25500000920E-02 0. -1.
    10030    2    1    2    0    0  0.00000000000E+00  0.00000000000E+00 -0.19304712012E+02  0.10964521257E+04  0.10962821681E+04 0.  0.
        5    1    3    3  502    0  0.30010485481E+03 -0.26595299864E+03  0.36409346385E+03  0.54164569765E+03  0.46999998093E+01 0.  1.
       -5    1    3    3    0  502 -0.30010485481E+03  0.26595299864E+03 -0.38339817586E+03  0.55480642806E+03  0.46999998093E+01 0. -1.
</event>
<event>
 5   0  0.4504740E-03  0.1110111E+04  0.7818609E-02  0.9195393E-01
       -1   -1    0    0    0  501  0.00000000000E+00  0.00000000000E+00  0.45153668128E+03  0.45153668131E+03  0.50400001928E-02 0. -1.
        1   -1    0    0  501    0  0.00000000000E+00  0.00000000000E+00 -0.68230658097E+03  0.68230658098E+03  0.50400001928E-02 0.  1.
    10030    2    1    2    0    0  0.00000000000E+00  0.00000000000E+00 -0.23076989969E+03  0.11338432623E+04  0.11101107138E+04 0.  0.
        5    1    3    3  502    0  0.16677129573E+03  0.25674423637E+03  0.35747480913E+03  0.47068099298E+03  0.46999998093E+01 0. -1.
       -5    1    3    3    0  502 -0.16677129573E+03 -0.25674423637E+03 -0.58824470882E+03  0.66316226931E+03  0.46999998093E+01 0.  1.
</event>
<event>
 5   0  0.7766551E-03  0.1100421E+04  0.7818609E-02  0.9204782E-01
        2   -1    0    0  501    0  0.00000000000E+00  0.00000000000E+00  0.93237978913E+03  0.93237978913E+03  0.25500000920E-02 0. -1.
       -2   -1    0    0    0  501  0.00000000000E+00  0.00000000000E+00 -0.32468686625E+03  0.32468686626E+03  0.25500000920E-02 0.  1.
    10030    2    1    2    0    0  0.00000000000E+00  0.00000000000E+00  0.60769292287E+03  0.12570666554E+04  0.11004207775E+04 0.  0.
        5    1    3    3  502    0 -0.11530886571E+03  0.33702422468E+03 -0.17516228466E+03  0.39697024888E+03  0.46999998093E+01 0.  1.
       -5    1    3    3    0  502  0.11530886571E+03 -0.33702422468E+03  0.78285520753E+03  0.86009640651E+03  0.46999998093E+01 0. -1.
</event>
<event>
 5   0  0.7738497E-03  0.1110144E+04  0.7818609E-02  0.9195361E-01
       -2   -1    0    0    0  501  0.00000000000E+00  0.00000000000E+00  0.86667538005E+03  0.86667538005E+03  0.25500000920E-02 0. -1.
        2   -1    0    0  501    0  0.00000000000E+00  0.00000000000E+00 -0.35550223027E+03  0.35550223028E+03  0.25500000920E-02 0.  1.
    10030    2    1    2    0    0  0.00000000000E+00  0.00000000000E+00  0.51117314978E+03  0.12221776103E+04  0.11101441898E+04 0.  0.
        4    1    3    3  502    0 -0.35812735393E+02  0.37996122675E+03 -0.18813979051E+03  0.42550120978E+03  0.12699999809E+01 0.  1.
       -4    1    3    3    0  502  0.35812735393E+02 -0.37996122675E+03  0.69931294029E+03  0.79667640056E+03  0.12699999809E+01 0. -1.
</event>
<event>
 5   0  0.7537480E-03  0.1047754E+04  0.7818609E-02  0.9257666E-01
        2   -1    0    0  501    0  0.00000000000E+00  0.00000000000E+00  0.16957888632E+04  0.16957888632E+04  0.25500000920E-02 0.  1.
       -2   -1    0    0    0  501  0.00000000000E+00  0.00000000000E+00 -0.16184030750E+03  0.16184030752E+03  0.25500000920E-02 0. -1.
    10030    2    1    2    0    0  0.00000000000E+00  0.00000000000E+00  0.15339485557E+04  0.18576291707E+04  0.10477537709E+04 0.  0.
        1    1    3    3  502    0  0.40579155653E+03  0.49422199289E+02  0.18610844575E+03  0.44916110110E+03  0.50400001928E-02 0.  1.
       -1    1    3    3    0  502 -0.40579155653E+03 -0.49422199289E+02  0.13478401099E+04  0.14084680696E+04  0.50400001928E-02 0. -1.
</event>
<event>
 5   0  0.7537480E-03  0.1062407E+04  0.7818609E-02  0.9242628E-01
        2   -1    0    0  501    0  0.00000000000E+00  0.00000000000E+00  0.18511073346E+04  0.18511073346E+04  0.25500000920E-02 0.  1.
       -2   -1    0    0    0  501  0.00000000000E+00  0.00000000000E+00 -0.15243690746E+03  0.15243690748E+03  0.25500000920E-02 0. -1.
    10030    2    1    2    0    0  0.00000000000E+00  0.00000000000E+00  0.16986704271E+04  0.20035442420E+04  0.10624068476E+04 0.  0.
        1    1    3    3  502    0  0.52048404358E+03 -0.71150904061E+02  0.99795901816E+03  0.11277802502E+04  0.50400001928E-02 0.  1.
       -1    1    3    3    0  502 -0.52048404358E+03  0.71150904061E+02  0.70071140894E+03  0.87576399184E+03  0.50400001928E-02 0. -1.
</event>
<event>
 5   0  0.4598561E-03  0.9583967E+03  0.7818609E-02  0.9355390E-01
        1   -1    0    0  501    0  0.00000000000E+00  0.00000000000E+00  0.97984808743E+03  0.97984808744E+03  0.50400001928E-02 0. -1.
       -1   -1    0    0    0  501  0.00000000000E+00  0.00000000000E+00 -0.23435375202E+03  0.23435375207E+03  0.50400001928E-02 0.  1.
    10030    2    1    2    0    0  0.00000000000E+00  0.00000000000E+00  0.74549433541E+03  0.12142018395E+04  0.95839673567E+03 0.  0.
        2    1    3    3  502    0  0.13661997640E+03 -0.98782728198E+02  0.94103481442E+03  0.95601755595E+03  0.25500000920E-02 0. -1.
       -2    1    3    3    0  502 -0.13661997640E+03  0.98782728198E+02 -0.19554047901E+03  0.25818428356E+03  0.25500000920E-02 0.  1.
</event>
<event>
 5   0  0.7537480E-03  0.1100692E+04  0.7818609E-02  0.9204517E-01
       -2   -1    0    0    0  501  0.00000000000E+00  0.00000000000E+00  0.32390040439E+03  0.32390040440E+03  0.25500000920E-02 0.  1.
        2   -1    0    0  501    0  0.00000000000E+00  0.00000000000E+00 -0.93510493670E+03  0.93510493670E+03  0.25500000920E-02 0. -1.
    10030    2    1    2    0    0  0.00000000000E+00  0.00000000000E+00 -0.61120453231E+03  0.12590053411E+04  0.11006922679E+04 0.  0.
        1    1    3    3  502    0  0.23470720391E+02  0.16454789603E+03 -0.90570894791E+03  0.92083417788E+03  0.50400001928E-02 0. -1.
       -1    1    3    3    0  502 -0.23470720391E+02 -0.16454789603E+03  0.29450441560E+03  0.33817116323E+03  0.50400001928E-02 0.  1.
</event>
<event>
 5   0  0.4504740E-03  0.1124098E+04  0.7818609E-02  0.9182017E-01
        1   -1    0    0  501    0  0.00000000000E+00  0.00000000000E+00  0.24658260148E+03  0.24658260153E+03  0.50400001928E-02 0. -1.
       -1   -1    0    0    0  501  0.00000000000E+00  0.00000000000E+00 -0.12811093810E+04  0.12811093810E+04  0.50400001928E-02 0.  1.
    10030    2    1    2    0    0  0.00000000000E+00  0.00000000000E+00 -0.10345267795E+04  0.15276919825E+04  0.11240983658E+04 0.  0.
        5    1    3    3  502    0 -0.33915118157E+02  0.44037605202E+03 -0.98960647801E+03  0.10837086203E+04  0.46999998093E+01 0.  1.
       -5    1    3    3    0  502  0.33915118157E+02 -0.44037605202E+03 -0.44920301510E+02  0.44398336221E+03  0.46999998093E+01 0. -1.
</event>
<event>
 5   0  0.4298101E-03  0.1112251E+04  0.7818609E-02  0.9193332E-01
       -1   -1    0    0    0  501  0.00000000000E+00  0.00000000000E+00  0.10392822029E+04  0.10392822029E+04  0.50400001928E-02 0.  1.
        1   -1    0    0  501    0  0.00000000000E+00  0.00000000000E+00 -0.29758594323E+03  0.29758594327E+03  0.50400001928E-02 0. -1.
    10030    2    1    2    0    0  0.00000000000E+00  0.00000000000E+00  0.74169625968E+03  0.13368681462E+04  0.11122513649E+04 0.  0.
        3    1    3    3  502    0 -0.91567814718E+01 -0.20080252570E+03  0.99409056305E+03  0.10142098199E+04  0.10100000352E+00 0.  1.
       -3    1    3    3    0  502  0.91567814718E+01  0.20080252570E+03 -0.25239430337E+03  0.32265832633E+03  0.10100000352E+00 0. -1.
</event>
<event>
 5   0  0.7738497E-03  0.9915200E+03  0.7818609E-02  0.9317895E-01
       -2   -1    0    0    0  501  0.00000000000E+00  0.00000000000E+00  0.22908191372E+03  0.22908191374E+03  0.25500000920E-02 0.  1.
        2   -1    0    0  501    0  0.00000000000E+00  0.00000000000E+00 -0.10728826037E+04  0.10728826038E+04  0.25500000920E-02 0. -1.
    10030    2    1    2    0    0  0.00000000000E+00  0.00000000000E+00 -0.84380069002E+03  0.13019645175E+04  0.99152004534E+03 0.  0.
        4    1    3    3  502    0 -0.13577268465E+03 -0.22810032695E+03  0.12789869231E+03  0.29465856418E+03  0.12699999809E+01 0.  1.
       -4    1    3    3    0  502  0.13577268465E+03  0.22810032695E+03 -0.97169938233E+03  0.10073059533E+04  0.12699999809E+01 0. -1.
</event>
<event>
 5   0  0.4428114E-03  0.1096839E+04  0.7818609E-02  0.9208278E-01
        1   -1    0    0  501    0  0.00000000000E+00  0.00000000000E+00  0.83503994221E+03  0.83503994222E+03  0.50400001928E-02 0. -1.
       -1   -1    0    0    0  501  0.00000000000E+00  0.00000000000E+00 -0.36017917137E+03  0.36017917140E+03  0.50400001928E-02 0.  1.
    10030    2    1    2    0    0  0.00000000000E+00  0.00000000000E+00  0.47486077084E+03  0.11952191136E+04  0.10968390848E+04 0.  0.
        4    1    3    3  502    0 -0.59931294116E+01  0.53341664295E+03  0.37609647482E+03  0.65270161931E+03  0.12699999809E+01 0. -1.
       -4    1    3    3    0  502  0.59931294116E+01 -0.53341664295E+03  0.98764296017E+02  0.54251749432E+03  0.12699999809E+01 0.  1.
</event>
<event>
 5   0  0.7952121E-03  0.1113994E+04  0.7818609E-02  0.9191658E-01
       -2   -1    0    0    0  501  0.00000000000E+00  0.00000000000E+00  0.22454529465E+03  0.22454529466E+03  0.25500000920E-02 0. -1.
        2   -1    0    0  501    0  0.00000000000E+00  0.00000000000E+00 -0.13816625516E+04  0.13816625516E+04  0.25500000920E-02 0.  1.
    10030    2    1    2    0    0  0.00000000000E+00  0.00000000000E+00 -0.11571172569E+04  0.16062078462E+04  0.11139942994E+04 0.  0.
        3    1    3    3  502    0  0.42436578058E+01 -0.55402635090E+03 -0.49594944779E+03  0.74359200580E+03  0.10100000352E+00 0. -1.
       -3    1    3    3    0  502 -0.42436578058E+01  0.55402635090E+03 -0.66116780913E+03  0.86261584043E+03  0.10100000352E+00 0.  1.
</event>
<event>
 5   0  0.7952121E-03  0.1045877E+04  0.7818609E-02  0.9259611E-01
        2   -1    0    0  501    0  0.00000000000E+00  0.00000000000E+00  0.18014112458E+04  0.18014112458E+04  0.25500000920E-02 0. -1.
       -2   -1    0    0    0  501  0.00000000000E+00  0.00000000000E+00 -0.15180586297E+03  0.15180586299E+03  0.25500000920E-02 0.  1.
    10030    2    1    2    0    0  0.00000000000E+00  0.00000000000E+00  0.16496053828E+04  0.19532171088E+04  0.10458772179E+04 0.  0.
        3    1    3    3  502    0 -0.14238808865E+02 -0.37801266420E+03  0.15049814881E+03  0.40711917293E+03  0.10100000352E+00 0.  1.
       -3    1    3    3    0  502  0.14238808865E+02  0.37801266420E+03  0.14991072340E+04  0.15460979358E+04  0.10100000352E+00 0. -1.
</event>
<event>
 5   0  0.7952121E-03  0.1033369E+04  0.7818609E-02  0.9272685E-01
        2   -1    0    0  501    0  0.00000000000E+00  0.00000000000E+00  0.17790742399E+04  0.17790742399E+04  0.25500000920E-02 0.  1.
       -2   -1    0    0    0  501  0.00000000000E+00  0.00000000000E+00 -0.15005703996E+03  0.15005703999E+03  0.25500000920E-02 0. -1.
    10030    2    1    2    0    0  0.00000000000E+00  0.00000000000E+00  0.16290172000E+04  0.19291312799E+04  0.10333685003E+04 0.  0.
        3    1    3    3  502    0 -0.14351689896E+03  0.35357674369E+03  0.16419228851E+03  0.41541874268E+03  0.10100000352E+00 0. -1.
       -3    1    3    3    0  502  0.14351689896E+03 -0.35357674369E+03  0.14648249115E+04  0.15137125372E+04  0.10100000352E+00 0.  1.
</event>
<event>
 5   0  0.4598561E-03  0.1153914E+04  0.7818609E-02  0.9154180E-01
        1   -1    0    0  501    0  0.00000000000E+00  0.00000000000E+00  0.12099249350E+04  0.12099249350E+04  0.50400001928E-02 0. -1.
       -1   -1    0    0    0  501  0.00000000000E+00  0.00000000000E+00 -0.27512390338E+03  0.27512390343E+03  0.50400001928E-02 0.  1.
    10030    2    1    2    0    0  0.00000000000E+00  0.00000000000E+00  0.93480103160E+03  0.14850488384E+04  0.11539138113E+04 0.  0.
        2    1    3    3  502    0 -0.54277044293E+03 -0.14865823933E+03  0.30369628142E+03  0.63947670575E+03  0.25500000920E-02 0.  1.
       -2    1    3    3    0  502  0.54277044293E+03  0.14865823933E+03  0.63110475018E+03  0.84557213267E+03  0.25500000920E-02 0. -1.
</event>
<event>
 5   0  0.7766551E-03  0.1217641E+04  0.7818609E-02  0.9097554E-01
        2   -1    0    0  501    0  0.00000000000E+00  0.00000000000E+00  0.11472044446E+04  0.11472044446E+04  0.25500000920E-02 0. -1.
       -2   -1    0    0    0  501  0.00000000000E+00  0.00000000000E+00 -0.32310041474E+03  0.32310041475E+03  0.25500000920E-02 0.  1.
    10030    2    1    2    0    0  0.00000000000E+00  0.00000000000E+00  0.82410402984E+03  0.14703048593E+04  0.12176407218E+04 0.  0.
        5    1    3    3  502    0 -0.33982940295E+03  0.41153202767E+03  0.76574428466E+03  0.93339650331E+03  0.46999998093E+01 0. -1.
       -5    1    3    3    0  502  0.33982940295E+03 -0.41153202767E+03  0.58359745186E+02  0.53690835602E+03  0.46999998093E+01 0.  1.
</event>
<event>
 5   0  0.7766551E-03  0.1118814E+04  0.7818609E-02  0.9187046E-01
        2   -1    0    0  501    0  0.00000000000E+00  0.00000000000E+00  0.10593464385E+04  0.10593464385E+04  0.25500000920E-02 0. -1.
       -2   -1    0    0    0  501  0.00000000000E+00  0.00000000000E+00 -0.29540484838E+03  0.29540484839E+03  0.25500000920E-02 0.  1.
    10030    2    1    2    0    0  0.00000000000E+00  0.00000000000E+00  0.76394159013E+03  0.13547512869E+04  0.11188137898E+04 0.  0.
        5    1    3    3  502    0  0.49211336110E+03 -0.11186438247E+03  0.89787283667E+02  0.51261393519E+03  0.46999998093E+01 0.  1.
       -5    1    3    3    0  502 -0.49211336110E+03  0.11186438247E+03  0.67415430647E+03  0.84213735172E+03  0.46999998093E+01 0. -1.
</event>
<event>
 5   0  0.7738497E-03  0.1111457E+04  0.7818609E-02  0.9194096E-01
       -2   -1    0    0    0  501  0.00000000000E+00  0.00000000000E+00  0.36651555861E+03  0.36651555861E+03  0.25500000920E-02 0. -1.
        2   -1    0    0  501    0  0.00000000000E+00  0.00000000000E+00 -0.84262235129E+03  0.84262235129E+03  0.25500000920E-02 0.  1.
    10030    2    1    2    0    0  0.00000000000E+00  0.00000000000E+00 -0.47610679268E+03  0.12091379099E+04  0.11114570649E+04 0.  0.
        4    1    3    3  502    0 -0.95628233052E+02  0.54180611468E+03 -0.32325617513E+03  0.63811816502E+03  0.12699999809E+01 0. -1.
       -4    1    3    3    0  502  0.95628233052E+02 -0.54180611468E+03 -0.15285061755E+03  0.57101974489E+03  0.12699999809E+01 0.  1.
</event>
<event>
 5   0  0.7738497E-03  0.1069362E+04  0.7818609E-02  0.9235580E-01
        2   -1    0    0  501    0  0.00000000000E+00  0.00000000000E+00  0.15048787255E+04  0.15048787255E+04  0.25500000920E-02 0.  1.
       -2   -1    0    0    0  501  0.00000000000E+00  0.00000000000E+00 -0.18997114864E+03  0.18997114866E+03  0.25500000920E-02 0. -1.
    10030    2    1    2    0    0  0.00000000000E+00  0.00000000000E+00  0.13149075768E+04  0.16948498741E+04  0.10693615667E+04 0.  0.
        4    1    3    3  502    0 -0.43142582023E+03 -0.30894353173E+03  0.76147537934E+03  0.92812752917E+03  0.12699999809E+01 0.  1.
       -4    1    3    3    0  502  0.43142582023E+03  0.30894353173E+03  0.55343219749E+03  0.76672234497E+03  0.12699999809E+01 0. -1.
</event>
<event>
 5   0  0.4598561E-03  0.1115799E+04  0.7818609E-02  0.9189928E-01
        1   -1    0    0  501    0  0.00000000000E+00  0.00000000000E+00  0.71408621793E+03  0.71408621794E+03  0.50400001928E-02 0.  1.
       -1   -1    0    0    0  501  0.00000000000E+00  0.00000000000E+00 -0.43587462048E+03  0.43587462051E+03  0.50400001928E-02 0. -1.
    10030    2    1    2    0    0  0.00000000000E+00  0.00000000000E+00  0.27821159745E+03  0.11499608385E+04  0.11157993713E+04 0.  0.
        2    1    3    3  502    0 -0.26491097450E+03  0.55880342834E+02 -0.36363169222E+03  0.45335245088E+03  0.25500000920E-02 0. -1.
       -2    1    3    3    0  502  0.26491097450E+03 -0.55880342834E+02  0.64184328967E+03  0.69660838757E+03  0.25500000920E-02 0.  1.
</event>
<event>
 5   0  0.7952121E-03  0.1111718E+04  0.7818609E-02  0.9193845E-01
        2   -1    0    0  501    0  0.00000000000E+00  0.00000000000E+00  0.18215899500E+04  0.18215899500E+04  0.25500000920E-02 0.  1.
       -2   -1    0    0    0  501  0.00000000000E+00  0.00000000000E+00 -0.16962066854E+03  0.16962066855E+03  0.25500000920E-02 0. -1.
    10030    2    1    2    0    0  0.00000000000E+00  0.00000000000E+00  0.16519692815E+04  0.19912106186E+04  0.11117181390E+04 0.  0.
        3    1    3    3  502    0 -0.32990620928E+03  0.30807654479E+03  0.24496293620E+03  0.51357191773E+03  0.10100000352E+00 0. -1.
       -3    1    3    3    0  502  0.32990620928E+03 -0.30807654479E+03  0.14070063453E+04  0.14776387008E+04  0.10100000352E+00 0.  1.
</event>
<event>
 5   0  0.4428114E-03  0.1104079E+04  0.7818609E-02  0.9201225E-01
        1   -1    0    0  501    0  0.00000000000E+00  0.00000000000E+00  0.15467632611E+04  0.15467632611E+04  0.50400001928E-02 0. -1.
       -1   -1    0    0    0  501  0.00000000000E+00  0.00000000000E+00 -0.19702273793E+03  0.19702273799E+03  0.50400001928E-02 0.  1.
    10030    2    1    2    0    0  0.00000000000E+00  0.00000000000E+00  0.13497405232E+04  0.17437859991E+04  0.11040788608E+04 0.  0.
        4    1    3    3  502    0  0.21635265064E+03 -0.28889541928E+03  0.15146625821E+02  0.36124792857E+03  0.12699999809E+01 0.  1.
       -4    1    3    3    0  502 -0.21635265064E+03  0.28889541928E+03  0.13345938974E+04  0.13825380706E+04  0.12699999809E+01 0. -1.
</event>
<event>
 5   0  0.7537480E-03  0.1081623E+04  0.7818609E-02  0.9223291E-01
       -2   -1    0    0    0  501  0.00000000000E+00  0.00000000000E+00  0.36579459530E+03  0.36579459531E+03  0.25500000920E-02 0.  1.
        2   -1    0    0  501    0  0.00000000000E+00  0.00000000000E+00 -0.79956570487E+03  0.79956570487E+03  0.25500000920E-02 0. -1.
    10030    2    1    2    0    0  0.00000000000E+00  0.00000000000E+00 -0.43377110957E+03  0.11653603002E+04  0.10816225098E+04 0.  0.
        1    1    3    3  502    0 -0.12810326354E+03  0.52535431844E+03 -0.20792240411E+03  0.57934388077E+03  0.50400001928E-02 0. -1.
       -1    1    3    3    0  502  0.12810326354E+03 -0.52535431844E+03 -0.22584870546E+03  0.58601641941E+03  0.50400001928E-02 0.  1.
</event>
<event>
 5   0  0.7712816E-03  0.1092529E+04  0.7818609E-02  0.9212505E-01
        2   -1    0    0  501    0  0.00000000000E+00  0.00000000000E+00  0.14253487427E+04  0.14253487427E+04  0.25500000920E-02 0.  1.
       -2   -1    0    0    0  501  0.00000000000E+00  0.00000000000E+00 -0.20935559780E+03  0.20935559781E+03  0.25500000920E-02 0. -1.
    10030    2    1    2    0    0  0.00000000000E+00  0.00000000000E+00  0.12159931449E+04  0.16347043405E+04  0.10925286964E+04 0.  0.
        2    1    3    3  502    0  0.22522856866E+03 -0.19028603775E+02  0.13520966765E+04  0.13708593723E+04  0.25500000920E-02 0.  1.
       -2    1    3    3    0  502 -0.22522856866E+03  0.19028603775E+02 -0.13610353166E+03  0.26384496819E+03  0.25500000920E-02 0. -1.
</event>
<event>
 5   0  0.4428114E-03  0.1082939E+04  0.7818609E-02  0.9221982E-01
        1   -1    0    0  501    0  0.00000000000E+00  0.00000000000E+00  0.95970862975E+03  0.95970862977E+03  0.50400001928E-02 0. -1.
       -1   -1    0    0    0  501  0.00000000000E+00  0.00000000000E+00 -0.30549826270E+03  0.30549826274E+03  0.50400001928E-02 0.  1.
    10030    2    1    2    0    0  0.00000000000E+00  0.00000000000E+00  0.65421036706E+03  0.12652068925E+04  0.10829391841E+04 0.  0.
        4    1    3    3  502    0  0.21032389668E+03 -0.15122607835E+02 -0.25555500158E+03  0.33132281316E+03  0.12699999809E+01 0.  1.
       -4    1    3    3    0  502 -0.21032389668E+03  0.15122607835E+02  0.90976536864E+03  0.93388407935E+03  0.12699999809E+01 0. -1.
</event>
<event>
 5   0  0.4598561E-03  0.1111493E+04  0.7818609E-02  0.9194062E-01
        1   -1    0    0  501    0  0.00000000000E+00  0.00000000000E+00  0.11107805493E+04  0.11107805493E+04  0.50400001928E-02 0. -1.
       -1   -1    0    0    0  501  0.00000000000E+00  0.00000000000E+00 -0.27805123983E+03  0.27805123988E+03  0.50400001928E-02 0.  1.
    10030    2    1    2    0    0  0.00000000000E+00  0.00000000000E+00  0.83272930942E+03  0.13888317891E+04  0.11114925262E+04 0.  0.
        2    1    3    3  502    0 -0.38379601136E+03 -0.26603898719E+02 -0.84764032392E+02  0.39394426884E+03  0.25500000920E-02 0.  1.
       -2    1    3    3    0  502  0.38379601136E+03  0.26603898719E+02  0.91749334181E+03  0.99488752029E+03  0.25500000920E-02 0. -1.
</event>
<event>
 5   0  0.7738497E-03  0.1105612E+04  0.7818609E-02  0.9199739E-01
       -2   -1    0    0    0  501  0.00000000000E+00  0.00000000000E+00  0.33088026207E+03  0.33088026208E+03  0.25500000920E-02 0.  1.
        2   -1    0    0  501    0  0.00000000000E+00  0.00000000000E+00 -0.92358104021E+03  0.92358104021E+03  0.25500000920E-02 0. -1.
    10030    2    1    2    0    0  0.00000000000E+00  0.00000000000E+00 -0.59270077814E+03  0.12544613023E+04  0.11056124758E+04 0.  0.
        4    1    3    3  502    0  0.24034737357E+03 -0.49465514619E+03 -0.23274477595E+03  0.59717863095E+03  0.12699999809E+01 0.  1.
       -4    1    3    3    0  502 -0.24034737357E+03  0.49465514619E+03 -0.35995600219E+03  0.65728267134E+03  0.12699999809E+01 0. -1.
</event>
<event>
 5   0  0.7738497E-03  0.1081474E+04  0.7818609E-02  0.9223439E-01
        2   -1    0    0  501    0  0.00000000000E+00  0.00000000000E+00  0.77134590900E+03  0.77134590900E+03  0.25500000920E-02 0.  1.
       -2   -1    0    0    0  501  0.00000000000E+00  0.00000000000E+00 -0.37907324836E+03  0.37907324837E+03  0.25500000920E-02 0. -1.
    10030    2    1    2    0    0  0.00000000000E+00  0.00000000000E+00  0.39227266063E+03  0.11504191574E+04  0.10814741779E+04 0.  0.
        4    1    3    3  502    0 -0.15988878854E+03 -0.17610663541E+03  0.71270435429E+03  0.75135017219E+03  0.12699999809E+01 0.  1.
       -4    1    3    3    0  502  0.15988878854E+03  0.17610663541E+03 -0.32043169365E+03  0.39906898518E+03  0.12699999809E+01 0. -1.
</event>
<event>
 5   0  0.4428114E-03  0.9574209E+03  0.7818609E-02  0.9356518E-01
        1   -1    0    0  501    0  0.00000000000E+00  0.00000000000E+00  0.73013666320E+03  0.73013666321E+03  0.50400001928E-02 0. -1.
       -1   -1    0    0    0  501  0.00000000000E+00  0.00000000000E+00 -0.31386414378E+03  0.31386414382E+03  0.50400001928E-02 0.  1.
    10030    2    1    2    0    0  0.00000000000E+00  0.00000000000E+00  0.41627251941E+03  0.10440008070E+04  0.95742094957E+03 0.  0.
        4    1    3    3  502    0  0.12314723820E+03 -0.44704170101E+03  0.33784971997E+03  0.57372081268E+03  0.12699999809E+01 0.  1.
       -4    1    3    3    0  502 -0.12314723820E+03  0.44704170101E+03  0.78422799440E+02  0.47027999436E+03  0.12699999809E+01 0. -1.
</event>
<event>
 5   0  0.4598561E-03  0.1089556E+04  0.7818609E-02  0.9215431E-01
       -1   -1    0    0    0  501  0.00000000000E+00  0.00000000000E+00  0.49436734986E+03  0.49436734989E+03  0.50400001928E-02 0.  1.
        1   -1    0    0  501    0  0.00000000000E+00  0.00000000000E+00 -0.60032933555E+03  0.60032933557E+03  0.50400001928E-02 0. -1.
    10030    2    1    2    0    0  0.00000000000E+00  0.00000000000E+00 -0.10596198569E+03  0.10946966855E+04  0.10895562816E+04 0.  0.
        2    1    3    3  502    0 -0.30403600632E+03 -0.35687680196E+03 -0.33175042737E+03  0.57433203897E+03  0.25500000920E-02 0. -1.
       -2    1    3    3    0  502  0.30403600632E+03  0.35687680196E+03  0.22578844169E+03  0.52036464649E+03  0.25500000920E-02 0.  1.
</event>
<event>
 5   0  0.7766551E-03  0.1066714E+04  0.7818609E-02  0.9238256E-01
        2   -1    0    0  501    0  0.00000000000E+00  0.00000000000E+00  0.85374396751E+03  0.85374396751E+03  0.25500000920E-02 0.  1.
       -2   -1    0    0    0  501  0.00000000000E+00  0.00000000000E+00 -0.33320287134E+03  0.33320287135E+03  0.25500000920E-02 0. -1.
    10030    2    1    2    0    0  0.00000000000E+00  0.00000000000E+00  0.52054109617E+03  0.11869468389E+04  0.10667144723E+04 0.  0.
        5    1    3    3  502    0 -0.67867579807E+02  0.52763393758E+03  0.30255760016E+03  0.61201860420E+03  0.46999998093E+01 0.  1.
       -5    1    3    3    0  502  0.67867579807E+02 -0.52763393758E+03  0.21798349601E+03  0.57492823466E+03  0.46999998093E+01 0. -1.
</event>
<event>
 5   0  0.7766551E-03  0.1103798E+04  0.7818609E-02  0.9201498E-01
       -2   -1    0    0    0  501  0.00000000000E+00  0.00000000000E+00  0.47822652657E+03  0.47822652658E+03  0.25500000920E-02 0. -1.
        2   -1    0    0  501    0  0.00000000000E+00  0.00000000000E+00 -0.63692076094E+03  0.63692076095E+03  0.25500000920E-02 0.  1.
    10030    2    1    2    0    0  0.00000000000E+00  0.00000000000E+00 -0.15869423437E+03  0.11151472875E+04  0.11037978134E+04 0.  0.
        5    1    3    3  502    0 -0.54116435284E+02  0.54732028845E+03 -0.33246505526E+02  0.55101316395E+03  0.46999998093E+01 0. -1.
       -5    1    3    3    0  502  0.54116435284E+02 -0.54732028845E+03 -0.12544772885E+03  0.56413412358E+03  0.46999998093E+01 0.  1.
</event>
<event>
 5   0  0.4504740E-03  0.1179485E+04  0.7818609E-02  0.9131005E-01
        1   -1    0    0  501    0  0.00000000000E+00  0.00000000000E+00  0.22512392648E+04  0.22512392649E+04  0.50400001928E-02 0.  1.
       -1   -1    0    0    0  501  0.00000000000E+00  0.00000000000E+00 -0.15449110653E+03  0.15449110661E+03  0.50400001928E-02 0. -1.
    10030    2    1    2    0    0  0.00000000000E+00  0.00000000000E+00  0.20967481583E+04  0.24057303715E+04  0.11794853881E+04 0.  0.
        5    1    3    3  502    0 -0.98380198873E+02  0.56082154826E+03  0.13615433607E+04  0.14758122799E+04  0.46999998093E+01 0.  1.
       -5    1    3    3    0  502  0.98380198873E+02 -0.56082154826E+03  0.73520479766E+03  0.92991809157E+03  0.46999998093E+01 0. -1.
</event>
<event>
 5   0  0.7712816E-03  0.1072406E+04  0.7818609E-02  0.9232512E-01
       -2   -1    0    0    0  501  0.00000000000E+00  0.00000000000E+00  0.55195321218E+03  0.55195321218E+03  0.25500000920E-02 0. -1.
        2   -1    0    0  501    0  0.00000000000E+00  0.00000000000E+00 -0.52090197889E+03  0.52090197890E+03  0.25500000920E-02 0.  1.
    10030    2    1    2    0    0  0.00000000000E+00  0.00000000000E+00  0.31051233284E+02  0.10728551911E+04  0.10724057450E+04 0.  0.
        2    1    3    3  502    0  0.48847574438E+03 -0.45803744405E+02 -0.20091427463E+03  0.53016325939E+03  0.25500000920E-02 0.  1.
       -2    1    3    3    0  502 -0.48847574438E+03  0.45803744405E+02  0.23196550791E+03  0.54269193169E+03  0.25500000920E-02 0. -1.
</event>
<event>
 5   0  0.4428114E-03  0.1106983E+04  0.7818609E-02  0.9198412E-01
        1   -1    0    0  501    0  0.00000000000E+00  0.00000000000E+00  0.46169257982E+03  0.46169257985E+03  0.50400001928E-02 0.  1.
       -1   -1    0    0    0  501  0.00000000000E+00  0.00000000000E+00 -0.66354337557E+03  0.66354337559E+03  0.50400001928E-02 0. -1.
    10030    2    1    2    0    0  0.00000000000E+00  0.00000000000E+00 -0.20185079575E+03  0.11252359554E+04  0.11069833836E+04 0.  0.
        4    1    3    3  502    0 -0.12202987860E+03 -0.38413467509E+03  0.28467187397E+03  0.49344749327E+03  0.12699999809E+01 0.  1.
       -4    1    3    3    0  502  0.12202987860E+03  0.38413467509E+03 -0.48652266973E+03  0.63178846217E+03  0.12699999809E+01 0. -1.
</event>
<event>
 5   0  0.7952121E-03  0.1080255E+04  0.7818609E-02  0.9224653E-01
        2   -1    0    0  501    0  0.00000000000E+00  0.00000000000E+00  0.41650220158E+03  0.41650220159E+03  0.25500000920E-02 0. -1.
       -2   -1    0    0    0  501  0.00000000000E+00  0.00000000000E+00 -0.70044698149E+03  0.70044698150E+03  0.25500000920E-02 0.  1.
    10030    2    1    2    0    0  0.00000000000E+00  0.00000000000E+00 -0.28394477991E+03  0.11169491831E+04  0.10802549882E+04 0.  0.
        3    1    3    3  502    0 -0.44245584317E+03  0.12796921471E+03 -0.43368043661E+03  0.63263103336E+03  0.10100000352E+00 0.  1.
       -3    1    3    3    0  502  0.44245584317E+03 -0.12796921471E+03  0.14973565669E+03  0.48431814973E+03  0.10100000352E+00 0. -1.
</event>
<event>
 5   0  0.2992375E-03  0.1117174E+04  0.7818609E-02  0.9188613E-01
       -4   -1    0    0    0  501  0.00000000000E+00  0.00000000000E+00  0.34150415394E+03  0.34150651539E+03  0.12699999809E+01 0.  1.
        4   -1    0    0  501    0  0.00000000000E+00  0.00000000000E+00 -0.91365653428E+03  0.91365741694E+03  0.12699999809E+01 0. -1.
    10030    2    1    2    0    0  0.00000000000E+00  0.00000000000E+00 -0.57215238034E+03  0.12551639323E+04  0.11171741810E+04 0.  0.
        2    1    3    3  502    0  0.23204005364E+02 -0.11005673065E+03 -0.90080377863E+03  0.90779863264E+03  0.25500000920E-02 0. -1.
       -2    1    3    3    0  502 -0.23204005364E+02  0.11005673065E+03  0.32865139829E+03  0.34736529969E+03  0.25500000920E-02 0.  1.
</event>
<event>
 5   0  0.7712816E-03  0.1090337E+04  0.7818609E-02  0.9214662E-01
       -2   -1    0    0    0  501  0.00000000000E+00  0.00000000000E+00  0.17092600202E+03  0.17092600204E+03  0.25500000920E-02 0. -1.
        2   -1    0    0  501    0  0.00000000000E+00  0.00000000000E+00 -0.17388140186E+04  0.17388140186E+04  0.25500000920E-02 0.  1.
    10030    2    1    2    0    0  0.00000000000E+00  0.00000000000E+00 -0.15678880166E+04  0.19097400206E+04  0.10903366975E+04 0.  0.
        2    1    3    3  502    0 -0.28990799120E+02  0.25303625575E+03 -0.16282041396E+04  0.16480038026E+04  0.25500000920E-02 0.  1.
       -2    1    3    3    0  502  0.28990799120E+02 -0.25303625575E+03  0.60316122981E+02  0.26173621808E+03  0.25500000920E-02 0. -1.
</event>
<event>
 5   0  0.4298101E-03  0.1083734E+04  0.7818609E-02  0.9221193E-01
       -1   -1    0    0    0  501  0.00000000000E+00  0.00000000000E+00  0.19839633098E+03  0.19839633104E+03  0.50400001928E-02 0. -1.
        1   -1    0    0  501    0  0.00000000000E+00  0.00000000000E+00 -0.14799647708E+04  0.14799647708E+04  0.50400001928E-02 0.  1.
    10030    2    1    2    0    0  0.00000000000E+00  0.00000000000E+00 -0.12815684399E+04  0.16783611019E+04  0.10837335107E+04 0.  0.
        3    1    3    3  502    0 -0.83323911086E+01 -0.12707718596E+03  0.17489111396E+03  0.21634452125E+03  0.10100000352E+00 0. -1.
       -3    1    3    3    0  502  0.83323911086E+01  0.12707718596E+03 -0.14564595538E+04  0.14620165806E+04  0.10100000352E+00 0.  1.
</event>
<event>
 5   0  0.7712816E-03  0.1098458E+04  0.7818609E-02  0.9206696E-01
        2   -1    0    0  501    0  0.00000000000E+00  0.00000000000E+00  0.11135919897E+04  0.11135919897E+04  0.25500000920E-02 0. -1.
       -2   -1    0    0    0  501  0.00000000000E+00  0.00000000000E+00 -0.27088238254E+03  0.27088238255E+03  0.25500000920E-02 0.  1.
    10030    2    1    2    0    0  0.00000000000E+00  0.00000000000E+00  0.84270960720E+03  0.13844743723E+04  0.10984579216E+04 0.  0.
        2    1    3    3  502    0 -0.49331206821E+03 -0.24412777286E+01  0.11705800251E+03  0.50701610668E+03  0.25500000920E-02 0.  1.
       -2    1    3    3    0  502  0.49331206821E+03  0.24412777286E+01  0.72565160469E+03  0.87745826560E+03  0.25500000920E-02 0. -1.
</event>
<event>
 5   0  0.4504740E-03  0.1122792E+04  0.7818609E-02  0.9183258E-01
        1   -1    0    0  501    0  0.00000000000E+00  0.00000000000E+00  0.93729843300E+03  0.93729843302E+03  0.50400001928E-02 0.  1.
       -1   -1    0    0    0  501  0.00000000000E+00  0.00000000000E+00 -0.33624883206E+03  0.33624883210E+03  0.50400001928E-02 0. -1.
    10030    2    1    2    0    0  0.00000000000E+00  0.00000000000E+00  0.60104960094E+03  0.12735472651E+04  0.11227920616E+04 0.  0.
        5    1    3    3  502    0  0.38989544366E+01 -0.23253346976E+03  0.88006411666E+03  0.91028674375E+03  0.46999998093E+01 0.  1.
       -5    1    3    3    0  502 -0.38989544366E+01  0.23253346976E+03 -0.27901451572E+03  0.36326052137E+03  0.46999998093E+01 0. -1.
</event>
<event>
 5   0  0.4428114E-03  0.1082857E+04  0.7818609E-02  0.9222063E-01
       -1   -1    0    0    0  501  0.00000000000E+00  0.00000000000E+00  0.57032586943E+03  0.57032586946E+03  0.50400001928E-02 0.  1.
        1   -1    0    0  501    0  0.00000000000E+00  0.00000000000E+00 -0.51399573661E+03  0.51399573663E+03  0.50400001928E-02 0. -1.
    10030    2    1    2    0    0  0.00000000000E+00  0.00000000000E+00  0.56330132826E+02  0.10843216061E+04  0.10828574521E+04 0.  0.
        4    1    3    3  502    0  0.49802610096E+03 -0.20097383532E+03  0.96981877330E+02  0.54573581260E+03  0.12699999809E+01 0.  1.
       -4    1    3    3    0  502 -0.49802610096E+03  0.20097383532E+03 -0.40651744504E+02  0.53858579349E+03  0.12699999809E+01 0. -1.
</event>
<event>
 5   0  0.7952121E-03  0.1126370E+04  0.7818609E-02  0.9179865E-01
       -2   -1    0    0    0  501  0.00000000000E+00  0.00000000000E+00  0.73567496002E+03  0.73567496003E+03  0.25500000920E-02 0. -1.
        2   -1    0    0  501    0  0.00000000000E+00  0.00000000000E+00 -0.43113769957E+03  0.43113769958E+03  0.25500000920E-02 0.  1.
    10030    2    1    2    0    0  0.00000000000E+00  0.00000000000E+00  0.30453726045E+03  0.11668126596E+04  0.11263697615E+04 0.  0.
        3    1    3    3  502    0 -0.17968148402E+03  0.46906349002E+03  0.41611197053E+03  0.65226925084E+03  0.10100000352E+00 0. -1.
       -3    1    3    3    0  502  0.17968148402E+03 -0.46906349002E+03 -0.11157471008E+03  0.51454340877E+03  0.10100000352E+00 0.  1.
</event>
<event>
 5   0  0.4298101E-03  0.1084840E+04  0.7818609E-02  0.9220095E-01
        1   -1    0    0  501    0  0.00000000000E+00  0.00000000000E+00  0.53611811301E+03  0.53611811304E+03  0.50400001928E-02 0.  1.
       -1   -1    0    0    0  501  0.00000000000E+00  0.00000000000E+00 -0.54879601130E+03  0.54879601133E+03  0.50400001928E-02 0. -1.
    10030    2    1    2    0    0  0.00000000000E+00  0.00000000000E+00 -0.12677898288E+02  0.10849141244E+04  0.10848400473E+04 0.  0.
        3    1    3    3  502    0  0.22311603805E+03 -0.46383215556E+03  0.16484060055E+03  0.54045672237E+03  0.10100000352E+00 0.  1.
       -3    1    3    3    0  502 -0.22311603805E+03  0.46383215556E+03 -0.17751849883E+03  0.54445740200E+03  0.10100000352E+00 0. -1.
</event>
<event>
 5   0  0.4598561E-03  0.1168818E+04  0.7818609E-02  0.9140596E-01
       -1   -1    0    0    0  501  0.00000000000E+00  0.00000000000E+00  0.23420022830E+03  0.23420022835E+03  0.50400001928E-02 0.  1.
        1   -1    0    0  501    0  0.00000000000E+00  0.00000000000E+00 -0.14582995114E+04  0.14582995114E+04  0.50400001928E-02 0. -1.
    10030    2    1    2    0    0  0.00000000000E+00  0.00000000000E+00 -0.12240992831E+04  0.16924997397E+04  0.11688183410E+04 0.  0.
        2    1    3    3  502    0 -0.30836564246E+01  0.32366623617E+02 -0.14569888513E+04  0.14573515774E+04  0.25500000920E-02 0. -1.
       -2    1    3    3    0  502  0.30836564246E+01 -0.32366623617E+02  0.23288956823E+03  0.23514816235E+03  0.25500000920E-02 0.  1.
</event>
<event>
 5   0  0.4598561E-03  0.1082061E+04  0.7818609E-02  0.9222854E-01
        1   -1    0    0  501    0  0.00000000000E+00  0.00000000000E+00  0.65454823522E+03  0.65454823524E+03  0.50400001928E-02 0. -1.
       -1   -1    0    0    0  501  0.00000000000E+00  0.00000000000E+00 -0.44720042474E+03  0.44720042477E+03  0.50400001928E-02 0.  1.
    10030    2    1    2    0    0  0.00000000000E+00  0.00000000000E+00  0.20734781048E+03  0.11017486600E+04  0.10820614564E+04 0.  0.
        2    1    3    3  502    0 -0.30308725977E+03 -0.54508786801E+02  0.55660571295E+03  0.63611556699E+03  0.25500000920E-02 0. -1.
       -2    1    3    3    0  502  0.30308725977E+03  0.54508786801E+02 -0.34925790246E+03  0.46563309302E+03  0.25500000920E-02 0.  1.
</event>
<event>
 5   0  0.7738497E-03  0.1097725E+04  0.7818609E-02  0.9207412E-01
       -2   -1    0    0    0  501  0.00000000000E+00  0.00000000000E+00  0.65542690111E+03  0.65542690112E+03  0.25500000920E-02 0. -1.
        2   -1    0    0  501    0  0.00000000000E+00  0.00000000000E+00 -0.45962420120E+03  0.45962420121E+03  0.25500000920E-02 0.  1.
    10030    2    1    2    0    0  0.00000000000E+00  0.00000000000E+00  0.19580269991E+03  0.11150511023E+04  0.10977250400E+04 0.  0.
        4    1    3    3  502    0 -0.28315822091E+03  0.29845198024E+03 -0.27114597650E+03  0.49272093121E+03  0.12699999809E+01 0.  1.
       -4    1    3    3    0  502  0.28315822091E+03 -0.29845198024E+03  0.46694867641E+03  0.62233017112E+03  0.12699999809E+01 0. -1.
</event>
<event>
 5   0  0.4428114E-03  0.1108399E+04  0.7818609E-02  0.9197044E-01
       -1   -1    0    0    0  501  0.00000000000E+00  0.00000000000E+00  0.13272201256E+03  0.13272201265E+03  0.50400001928E-02 0.  1.
        1   -1    0    0  501    0  0.00000000000E+00  0.00000000000E+00 -0.23141383939E+04  0.23141383939E+04  0.50400001928E-02 0. -1.
    10030    2    1    2    0    0  0.00000000000E+00  0.00000000000E+00 -0.21814163813E+04  0.24468604065E+04  0.11083990348E+04 0.  0.
        4    1    3    3  502    0  0.50727416511E+03  0.22316096804E+03 -0.10967924000E+04  0.12288543762E+04  0.12699999809E+01 0.  1.
       -4    1    3    3    0  502 -0.50727416511E+03 -0.22316096804E+03 -0.10846239813E+04  0.12180060303E+04  0.12699999809E+01 0. -1.
</event>
<event>
 5   0  0.4641021E-03  0.1277434E+04  0.7818609E-02  0.9047654E-01
        1   -1    0    0  501    0  0.00000000000E+00  0.00000000000E+00  0.97763982450E+03  0.97763982452E+03  0.50400001928E-02 0. -1.
       -1   -1    0    0    0  501  0.00000000000E+00  0.00000000000E+00 -0.41729034978E+03  0.41729034981E+03  0.50400001928E-02 0.  1.
    10030    2    1    2    0    0  0.00000000000E+00  0.00000000000E+00  0.56034947472E+03  0.13949301743E+04  0.12774344044E+04 0.  0.
        1    1    3    3  502    0 -0.52901953154E+03 -0.12290270415E+03 -0.86887312495E+02  0.55001467666E+03  0.50400001928E-02 0.  1.
       -1    1    3    3    0  502  0.52901953154E+03  0.12290270415E+03  0.64723678722E+03  0.84491549767E+03  0.50400001928E-02 0. -1.
</event>
<event>
 5   0  0.7766551E-03  0.1083267E+04  0.7818609E-02  0.9221656E-01
        2   -1    0    0  501    0  0.00000000000E+00  0.00000000000E+00  0.12599425651E+04  0.12599425651E+04  0.25500000920E-02 0. -1.
       -2   -1    0    0    0  501  0.00000000000E+00  0.00000000000E+00 -0.23284131724E+03  0.23284131726E+03  0.25500000920E-02 0.  1.
    10030    2    1    2    0    0  0.00000000000E+00  0.00000000000E+00  0.10271012478E+04  0.14927838823E+04  0.10832667013E+04 0.  0.
        5    1    3    3  502    0  0.33308520662E+03  0.12771714307E+03  0.10751538454E+04  0.11327997638E+04  0.46999998093E+01 0. -1.
       -5    1    3    3    0  502 -0.33308520662E+03 -0.12771714307E+03 -0.48052597552E+02  0.35998411858E+03  0.46999998093E+01 0.  1.
</event>
<event>
 5   0  0.7537480E-03  0.1025469E+04  0.7818609E-02  0.9281043E-01
       -2   -1    0    0    0  501  0.00000000000E+00  0.00000000000E+00  0.43443184564E+03  0.43443184565E+03  0.25500000920E-02 0.  1.
        2   -1    0    0  501    0  0.00000000000E+00  0.00000000000E+00 -0.60515100013E+03  0.60515100013E+03  0.25500000920E-02 0. -1.
    10030    2    1    2    0    0  0.00000000000E+00  0.00000000000E+00 -0.17071915449E+03  0.10395828458E+04  0.10254693869E+04 0.  0.
        1    1    3    3  502    0  0.51036634217E+03  0.13807083837E+02 -0.13325842266E+03  0.52765731874E+03  0.50400001928E-02 0.  1.
       -1    1    3    3    0  502 -0.51036634217E+03 -0.13807083837E+02 -0.37460731823E+02  0.51192552704E+03  0.50400001928E-02 0. -1.
</event>
<event>
 5   0  0.7537480E-03  0.1097815E+04  0.7818609E-02  0.9207324E-01
        2   -1    0    0  501    0  0.00000000000E+00  0.00000000000E+00  0.63236360421E+03  0.63236360422E+03  0.25500000920E-02 0. -1.
       -2   -1    0    0    0  501  0.00000000000E+00  0.00000000000E+00 -0.47646556623E+03  0.47646556624E+03  0.25500000920E-02 0.  1.
    10030    2    1    2    0    0  0.00000000000E+00  0.00000000000E+00  0.15589803798E+03  0.11088291705E+04  0.10978150714E+04 0.  0.
        1    1    3    3  502    0  0.18843668958E+03  0.50660651186E+03  0.17451648972E+03  0.56799168044E+03  0.50400001928E-02 0. -1.
       -1    1    3    3    0  502 -0.18843668958E+03 -0.50660651186E+03 -0.18618451739E+02  0.54083749002E+03  0.50400001928E-02 0.  1.
</event>
<event>
 5   0  0.4298101E-03  0.1087179E+04  0.7818609E-02  0.9217779E-01
        1   -1    0    0  501    0  0.00000000000E+00  0.00000000000E+00  0.20680520012E+03  0.20680520018E+03  0.50400001928E-02 0.  1.
       -1   -1    0    0    0  501  0.00000000000E+00  0.00000000000E+00 -0.14288303860E+04  0.14288303860E+04  0.50400001928E-02 0. -1.
    10030    2    1    2    0    0  0.00000000000E+00  0.00000000000E+00 -0.12220251859E+04  0.16356355862E+04  0.10871790174E+04 0.  0.
        3    1    3    3  502    0  0.29495533146E+03  0.19318430867E+03 -0.12334565092E+04  0.12828615650E+04  0.10100000352E+00 0. -1.
       -3    1    3    3    0  502 -0.29495533146E+03 -0.19318430867E+03  0.11431323310E+02  0.35277402119E+03  0.10100000352E+00 0.  1.
</event>
<event>
 5   0  0.7766551E-03  0.1126046E+04  0.7818609E-02  0.9180171E-01
        2   -1    0    0  501    0  0.00000000000E+00  0.00000000000E+00  0.57115314821E+03  0.57115314821E+03  0.25500000920E-02 0.  1.
       -2   -1    0    0    0  501  0.00000000000E+00  0.00000000000E+00 -0.55500833438E+03  0.55500833438E+03  0.25500000920E-02 0. -1.
    10030    2    1    2    0    0  0.00000000000E+00  0.00000000000E+00  0.16144813828E+02  0.11261614826E+04  0.11260457495E+04 0.  0.
        5    1    3    3  502    0  0.35982641131E+03 -0.41691393515E+03 -0.10890282172E+03  0.56140376751E+03  0.46999998093E+01 0. -1.
       -5    1    3    3    0  502 -0.35982641131E+03  0.41691393515E+03  0.12504763555E+03  0.56475771509E+03  0.46999998093E+01 0.  1.
</event>
<event>
 5   0  0.7712816E-03  0.1076262E+04  0.7818609E-02  0.9228643E-01
       -2   -1    0    0    0  501  0.00000000000E+00  0.00000000000E+00  0.92577124462E+03  0.92577124463E+03  0.25500000920E-02 0.  1.
        2   -1    0    0  501    0  0.00000000000E+00  0.00000000000E+00 -0.31280392672E+03  0.31280392673E+03  0.25500000920E-02 0. -1.
    10030    2    1    2    0    0  0.00000000000E+00  0.00000000000E+00  0.61296731791E+03  0.12385751714E+04  0.10762618279E+04 0.  0.
        2    1    3    3  502    0  0.37025186329E+03 -0.33031105056E+03  0.54620931276E+03  0.73792712766E+03  0.25500000920E-02 0. -1.
       -2    1    3    3    0  502 -0.37025186329E+03  0.33031105056E+03  0.66758005150E+02  0.50064804369E+03  0.25500000920E-02 0.  1.
</event>
<event>
 5   0  0.4504740E-03  0.1089139E+04  0.7818609E-02  0.9215843E-01
        1   -1    0    0  501    0  0.00000000000E+00  0.00000000000E+00  0.71544831248E+03  0.71544831250E+03  0.50400001928E-02 0. -1.
       -1   -1    0    0    0  501  0.00000000000E+00  0.00000000000E+00 -0.41450352911E+03  0.41450352914E+03  0.50400001928E-02 0.  1.
    10030    2    1    2    0    0  0.00000000000E+00  0.00000000000E+00  0.30094478337E+03  0.11299518416E+04  0.10891388350E+04 0.  0.
        5    1    3    3  502    0 -0.28171101620E+03  0.29710908097E+03  0.52295090486E+03  0.66417967564E+03  0.46999998093E+01 0. -1.
       -5    1    3    3    0  502  0.28171101620E+03 -0.29710908097E+03 -0.22200612149E+03  0.46577216600E+03  0.46999998093E+01 0.  1.
</event>
<event>
 5   0  0.7537480E-03  0.1106507E+04  0.7818609E-02  0.9198873E-01
        2   -1    0    0  501    0  0.00000000000E+00  0.00000000000E+00  0.10879955382E+04  0.10879955382E+04  0.25500000920E-02 0.  1.
       -2   -1    0    0    0  501  0.00000000000E+00  0.00000000000E+00 -0.28133341102E+03  0.28133341103E+03  0.25500000920E-02 0. -1.
    10030    2    1    2    0    0  0.00000000000E+00  0.00000000000E+00  0.80666212721E+03  0.13693289493E+04  0.11065071097E+04 0.  0.
        1    1    3    3  502    0  0.13418858913E+03 -0.51069992816E+03  0.19897655678E+03  0.56428066089E+03  0.50400001928E-02 0. -1.
       -1    1    3    3    0  502 -0.13418858913E+03  0.51069992816E+03  0.60768557043E+03  0.80504828837E+03  0.50400001928E-02 0.  1.
</event>
<event>
 5   0  0.7738497E-03  0.1241051E+04  0.7818609E-02  0.9077665E-01
        2   -1    0    0  501    0  0.00000000000E+00  0.00000000000E+00  0.18263410747E+04  0.18263410747E+04  0.25500000920E-02 0. -1.
       -2   -1    0    0    0  501  0.00000000000E+00  0.00000000000E+00 -0.21083240395E+03  0.21083240397E+03  0.25500000920E-02 0.  1.
    10030    2    1    2    0    0  0.00000000000E+00  0.00000000000E+00  0.16155086707E+04  0.20371734786E+04  0.12410509727E+04 0.  0.
        4    1    3    3  502    0 -0.58096775780E+03 -0.82563476353E+01  0.45015583542E+03  0.73500584484E+03  0.12699999809E+01 0.  1.
       -4    1    3    3    0  502  0.58096775780E+03  0.82563476353E+01  0.11653528353E+04  0.13021676338E+04  0.12699999809E+01 0. -1.
</event>
<event>
 5   0  0.7537480E-03  0.1103539E+04  0.7818609E-02  0.9201750E-01
        2   -1    0    0  501    0  0.00000000000E+00  0.00000000000E+00  0.15093672073E+04  0.15093672073E+04  0.25500000920E-02 0.  1.
       -2   -1    0    0    0  501  0.00000000000E+00  0.00000000000E+00 -0.20170659121E+03  0.20170659122E+03  0.25500000920E-02 0. -1.
    10030    2    1    2    0    0  0.00000000000E+00  0.00000000000E+00  0.13076606161E+04  0.17110737985E+04  0.11035385164E+04 0.  0.
        1    1    3    3  502    0  0.22045419651E+03 -0.14635484343E+03 -0.96905957427E+02  0.28179878915E+03  0.50400001928E-02 0. -1.
       -1    1    3    3    0  502 -0.22045419651E+03  0.14635484343E+03  0.14045665735E+04  0.14292750094E+04  0.50400001928E-02 0.  1.
</event>
<event>
 5   0  0.7712816E-03  0.1131425E+04  0.7818609E-02  0.9175093E-01
        2   -1    0    0  501    0  0.00000000000E+00  0.00000000000E+00  0.50190006128E+03  0.50190006129E+03  0.25500000920E-02 0.  1.
       -2   -1    0    0    0  501  0.00000000000E+00  0.00000000000E+00 -0.63763849375E+03  0.63763849376E+03  0.25500000920E-02 0. -1.
    10030    2    1    2    0    0  0.00000000000E+00  0.00000000000E+00 -0.13573843247E+03  0.11395385550E+04  0.11314252942E+04 0.  0.
        2    1    3    3  502    0 -0.50068475526E+03 -0.24463079788E+03  0.30304616228E+02  0.55807510354E+03  0.25500000920E-02 0.  1.
       -2    1    3    3    0  502  0.50068475526E+03  0.24463079788E+03 -0.16604304870E+03  0.58146345151E+03  0.25500000920E-02 0. -1.
</event>
<event>
 5   0  0.4598561E-03  0.1083913E+04  0.7818609E-02  0.9221014E-01
       -1   -1    0    0    0  501  0.00000000000E+00  0.00000000000E+00  0.19032787007E+03  0.19032787013E+03  0.50400001928E-02 0.  1.
        1   -1    0    0  501    0  0.00000000000E+00  0.00000000000E+00 -0.15432158282E+04  0.15432158282E+04  0.50400001928E-02 0. -1.
    10030    2    1    2    0    0  0.00000000000E+00  0.00000000000E+00 -0.13528879581E+04  0.17335436984E+04  0.10839132469E+04 0.  0.
        2    1    3    3  502    0  0.57328323771E+02  0.20296216773E+03  0.12200350352E+03  0.24364940615E+03  0.25500000920E-02 0.  1.
       -2    1    3    3    0  502 -0.57328323771E+02 -0.20296216773E+03 -0.14748914617E+04  0.14898942922E+04  0.25500000920E-02 0. -1.
</event>
<event>
 5   0  0.4598561E-03  0.1117360E+04  0.7818609E-02  0.9188435E-01
        1   -1    0    0  501    0  0.00000000000E+00  0.00000000000E+00  0.11633836490E+04  0.11633836490E+04  0.50400001928E-02 0.  1.
       -1   -1    0    0    0  501  0.00000000000E+00  0.00000000000E+00 -0.26828919005E+03  0.26828919009E+03  0.50400001928E-02 0. -1.
    10030    2    1    2    0    0  0.00000000000E+00  0.00000000000E+00  0.89509445895E+03  0.14316728391E+04  0.11173598470E+04 0.  0.
        2    1    3    3  502    0  0.86137801279E+02  0.26135507918E+03  0.10705238658E+04  0.11053268953E+04  0.25500000920E-02 0.  1.
       -2    1    3    3    0  502 -0.86137801279E+02 -0.26135507918E+03 -0.17542940687E+03  0.32634594378E+03  0.25500000920E-02 0. -1.
</event>
<event>
 5   0  0.7537480E-03  0.1100746E+04  0.7818609E-02  0.9204465E-01
       -2   -1    0    0    0  501  0.00000000000E+00  0.00000000000E+00  0.12577127548E+03  0.12577127550E+03  0.25500000920E-02 0.  1.
        2   -1    0    0  501    0  0.00000000000E+00  0.00000000000E+00 -0.24084230833E+04  0.24084230833E+04  0.25500000920E-02 0. -1.
    10030    2    1    2    0    0  0.00000000000E+00  0.00000000000E+00 -0.22826518078E+04  0.25341943588E+04  0.11007460072E+04 0.  0.
        1    1    3    3  502    0 -0.14585128231E+03  0.51071030605E+03 -0.14734637521E+04  0.15662672320E+04  0.50400001928E-02 0. -1.
       -1    1    3    3    0  502  0.14585128231E+03 -0.51071030605E+03 -0.80918805573E+03  0.96792712682E+03  0.50400001928E-02 0.  1.
</event>
<event>
 5   0  0.4641021E-03  0.1058194E+04  0.7818609E-02  0.9246925E-01
        1   -1    0    0  501    0  0.00000000000E+00  0.00000000000E+00  0.71032713166E+03  0.71032713167E+03  0.50400001928E-02 0. -1.
       -1   -1    0    0    0  501  0.00000000000E+00  0.00000000000E+00 -0.39410539397E+03  0.39410539401E+03  0.50400001928E-02 0.  1.
    10030    2    1    2    0    0  0.00000000000E+00  0.00000000000E+00  0.31622173768E+03  0.11044325257E+04  0.10581942243E+04 0.  0.
        1    1    3    3  502    0 -0.17484331750E+03 -0.28507374471E+02 -0.36223271764E+03  0.40323119650E+03  0.50400001928E-02 0.  1.
       -1    1    3    3    0  502  0.17484331750E+03  0.28507374471E+02  0.67845445532E+03  0.70120132918E+03  0.50400001928E-02 0. -1.
</event>
<event>
 5   0  0.4504740E-03  0.1109983E+04  0.7818609E-02  0.9195516E-01
        1   -1    0    0  501    0  0.00000000000E+00  0.00000000000E+00  0.45532877996E+03  0.45532877999E+03  0.50400001928E-02 0.  1.
       -1   -1    0    0    0  501  0.00000000000E+00  0.00000000000E+00 -0.67646832708E+03  0.67646832710E+03  0.50400001928E-02 0. -1.
    10030    2    1    2    0    0  0.00000000000E+00  0.00000000000E+00 -0.22113954712E+03  0.11317971071E+04  0.11099828793E+04 0.  0.
        5    1    3    3  502    0  0.30097268714E+03  0.41680453036E+03 -0.32368167218E+03  0.60753805629E+03  0.46999998093E+01 0. -1.
       -5    1    3    3    0  502 -0.30097268714E+03 -0.41680453036E+03  0.10254212506E+03  0.52425905080E+03  0.46999998093E+01 0.  1.
</event>
<event>
 5   0  0.7537480E-03  0.8847372E+03  0.7818609E-02  0.9444864E-01
        2   -1    0    0  501    0  0.00000000000E+00  0.00000000000E+00  0.18256710046E+03  0.18256710048E+03  0.25500000920E-02 0.  1.
       -2   -1    0    0    0  501  0.00000000000E+00  0.00000000000E+00 -0.10718798076E+04  0.10718798076E+04  0.25500000920E-02 0. -1.
    10030    2    1    2    0    0  0.00000000000E+00  0.00000000000E+00 -0.88931270713E+03  0.12544469081E+04  0.88473722320E+03 0.  0.
        1    1    3    3  502    0  0.24703974239E+03  0.28556263710E+03 -0.77143069358E+03  0.85888297750E+03  0.50400001928E-02 0. -1.
       -1    1    3    3    0  502 -0.24703974239E+03 -0.28556263710E+03 -0.11788201355E+03  0.39556393057E+03  0.50400001928E-02 0.  1.
</event>
<event>
 5   0  0.4428114E-03  0.1072536E+04  0.7818609E-02  0.9232382E-01
       -1   -1    0    0    0  501  0.00000000000E+00  0.00000000000E+00  0.45595410613E+03  0.45595410616E+03  0.50400001928E-02 0.  1.
        1   -1    0    0  501    0  0.00000000000E+00  0.00000000000E+00 -0.63072830553E+03  0.63072830555E+03  0.50400001928E-02 0. -1.
    10030    2    1    2    0    0  0.00000000000E+00  0.00000000000E+00 -0.17477419940E+03  0.10866824117E+04  0.10725356139E+04 0.  0.
        4    1    3    3  502    0  0.26450867746E+03  0.12626828888E+03  0.36761649105E+03  0.47016169412E+03  0.12699999809E+01 0.  1.
       -4    1    3    3    0  502 -0.26450867746E+03 -0.12626828888E+03 -0.54239069045E+03  0.61652071759E+03  0.12699999809E+01 0. -1.
</event>
<event>
 5   0  0.7712816E-03  0.1096149E+04  0.7818609E-02  0.9208953E-01
        2   -1    0    0  501    0  0.00000000000E+00  0.00000000000E+00  0.23424898781E+04  0.23424898781E+04  0.25500000920E-02 0. -1.
       -2   -1    0    0    0  501  0.00000000000E+00  0.00000000000E+00 -0.12823351053E+03  0.12823351056E+03  0.25500000920E-02 0.  1.
    10030    2    1    2    0    0  0.00000000000E+00  0.00000000000E+00  0.22142563676E+04  0.24707233887E+04  0.10961490784E+04 0.  0.
        2    1    3    3  502    0 -0.16891781993E+03 -0.12143706266E+03 -0.35776982217E+02  0.21109282920E+03  0.25500000920E-02 0.  1.
       -2    1    3    3    0  502  0.16891781993E+03  0.12143706266E+03  0.22500333498E+04  0.22596305595E+04  0.25500000920E-02 0. -1.
</event>
<event>
 5   0  0.4428114E-03  0.1095414E+04  0.7818609E-02  0.9209673E-01
        1   -1    0    0  501    0  0.00000000000E+00  0.00000000000E+00  0.17069727771E+04  0.17069727771E+04  0.50400001928E-02 0.  1.
       -1   -1    0    0    0  501  0.00000000000E+00  0.00000000000E+00 -0.17573972328E+03  0.17573972335E+03  0.50400001928E-02 0. -1.
    10030    2    1    2    0    0  0.00000000000E+00  0.00000000000E+00  0.15312330539E+04  0.18827125005E+04  0.10954139374E+04 0.  0.
        4    1    3    3  502    0  0.29627251464E+03  0.97808942757E+02  0.15393038103E+04  0.15706055601E+04  0.12699999809E+01 0.  1.
       -4    1    3    3    0  502 -0.29627251464E+03 -0.97808942757E+02 -0.80707564469E+01  0.31210694036E+03  0.12699999809E+01 0. -1.
</event>
<event>
 5   0  0.4641021E-03  0.1095194E+04  0.7818609E-02  0.9209889E-01
        1   -1    0    0  501    0  0.00000000000E+00  0.00000000000E+00  0.79675450579E+03  0.79675450581E+03  0.50400001928E-02 0. -1.
       -1   -1    0    0    0  501  0.00000000000E+00  0.00000000000E+00 -0.37635461281E+03  0.37635461284E+03  0.50400001928E-02 0.  1.
    10030    2    1    2    0    0  0.00000000000E+00  0.00000000000E+00  0.42039989298E+03  0.11731091186E+04  0.10951935602E+04 0.  0.
        1    1    3    3  502    0  0.22519838192E+03 -0.11034684534E+03 -0.31122953727E+03  0.39969308524E+03  0.50400001928E-02 0.  1.
       -1    1    3    3    0  502 -0.22519838192E+03  0.11034684534E+03  0.73162943025E+03  0.77341603341E+03  0.50400001928E-02 0. -1.
</event>
<event>
 5   0  0.7766551E-03  0.1129663E+04  0.7818609E-02  0.9176753E-01
       -2   -1    0    0    0  501  0.00000000000E+00  0.00000000000E+00  0.17266460586E+03  0.17266460588E+03  0.25500000920E-02 0. -1.
        2   -1    0    0  501    0  0.00000000000E+00  0.00000000000E+00 -0.18477135599E+04  0.18477135599E+04  0.25500000920E-02 0.  1.
    10030    2    1    2    0    0  0.00000000000E+00  0.00000000000E+00 -0.16750489541E+04  0.20203781658E+04  0.11296631951E+04 0.  0.
        5    1    3    3  502    0  0.24909687261E+03  0.10241378978E+02  0.68897992645E+02  0.25869511239E+03  0.46999998093E+01 0. -1.
       -5    1    3    3    0  502 -0.24909687261E+03 -0.10241378978E+02 -0.17439469467E+04  0.17616830534E+04  0.46999998093E+01 0.  1.
</event>
<event>
 5   0  0.4298101E-03  0.1088828E+04  0.7818609E-02  0.9216150E-01
       -1   -1    0    0    0  501  0.00000000000E+00  0.00000000000E+00  0.22304863705E+03  0.22304863710E+03  0.50400001928E-02 0. -1.
        1   -1    0    0  501    0  0.00000000000E+00  0.00000000000E+00 -0.13287977300E+04  0.13287977300E+04  0.50400001928E-02 0.  1.
    10030    2    1    2    0    0  0.00000000000E+00  0.00000000000E+00 -0.11057490929E+04  0.15518463671E+04  0.10888278517E+04 0.  0.
        3    1    3    3  502    0 -0.25146017034E+02 -0.19894948098E+03  0.16849271611E+03  0.26192178935E+03  0.10100000352E+00 0. -1.
       -3    1    3    3    0  502  0.25146017034E+02  0.19894948098E+03 -0.12742418090E+04  0.12899245777E+04  0.10100000352E+00 0.  1.
</event>
<event>
 5   0  0.4298101E-03  0.1145777E+04  0.7818609E-02  0.9161688E-01
        1   -1    0    0  501    0  0.00000000000E+00  0.00000000000E+00  0.12265660119E+04  0.12265660119E+04  0.50400001928E-02 0.  1.
       -1   -1    0    0    0  501  0.00000000000E+00  0.00000000000E+00 -0.26757750715E+03  0.26757750720E+03  0.50400001928E-02 0. -1.
    10030    2    1    2    0    0  0.00000000000E+00  0.00000000000E+00  0.95898850470E+03  0.14941435191E+04  0.11457774231E+04 0.  0.
        3    1    3    3  502    0 -0.10427502978E+03  0.55342126405E+03  0.61659312218E+03  0.83506614461E+03  0.10100000352E+00 0.  1.
       -3    1    3    3    0  502  0.10427502978E+03 -0.55342126405E+03  0.34239538252E+03  0.65907737445E+03  0.10100000352E+00 0. -1.
</event>
<event>
 5   0  0.7712816E-03  0.1116139E+04  0.7818609E-02  0.9189603E-01
        2   -1    0    0  501    0  0.00000000000E+00  0.00000000000E+00  0.20733390012E+04  0.20733390012E+04  0.25500000920E-02 0. -1.
       -2   -1    0    0    0  501  0.00000000000E+00  0.00000000000E+00 -0.15021253124E+03  0.15021253126E+03  0.25500000920E-02 0.  1.
    10030    2    1    2    0    0  0.00000000000E+00  0.00000000000E+00  0.19231264700E+04  0.22235515325E+04  0.11161388794E+04 0.  0.
        2    1    3    3  502    0 -0.41105989489E+03  0.21353448587E+03  0.15816225255E+04  0.16480585630E+04  0.25500000920E-02 0. -1.
       -2    1    3    3    0  502  0.41105989489E+03 -0.21353448587E+03  0.34150394447E+03  0.57549296949E+03  0.25500000920E-02 0.  1.
</event>
<event>
 5   0  0.7738497E-03  0.1087398E+04  0.7818609E-02  0.9217562E-01
        2   -1    0    0  501    0  0.00000000000E+00  0.00000000000E+00  0.14431280122E+04  0.14431280122E+04  0.25500000920E-02 0. -1.
       -2   -1    0    0    0  501  0.00000000000E+00  0.00000000000E+00 -0.20483883765E+03  0.20483883766E+03  0.25500000920E-02 0.  1.
    10030    2    1    2    0    0  0.00000000000E+00  0.00000000000E+00  0.12382891746E+04  0.16479668499E+04  0.10873981141E+04 0.  0.
        4    1    3    3  502    0  0.40927761700E+03  0.26468972443E+03  0.25404025239E+03  0.54964250266E+03  0.12699999809E+01 0.  1.
       -4    1    3    3    0  502 -0.40927761700E+03 -0.26468972443E+03  0.98424892220E+03  0.10983243472E+04  0.12699999809E+01 0. -1.
</event>
<event>
 5   0  0.4298101E-03  0.1104195E+04  0.7818609E-02  0.9201112E-01
       -1   -1    0    0    0  501  0.00000000000E+00  0.00000000000E+00  0.10192441085E+04  0.10192441085E+04  0.50400001928E-02 0. -1.
        1   -1    0    0  501    0  0.00000000000E+00  0.00000000000E+00 -0.29905677113E+03  0.29905677117E+03  0.50400001928E-02 0.  1.
    10030    2    1    2    0    0  0.00000000000E+00  0.00000000000E+00  0.72018733738E+03  0.13183008797E+04  0.11041953670E+04 0.  0.
        3    1    3    3  502    0  0.32126686741E+03  0.41636819256E+03  0.15947207877E+03  0.54955093120E+03  0.10100000352E+00 0.  1.
       -3    1    3    3    0  502 -0.32126686741E+03 -0.41636819256E+03  0.56071525861E+03  0.76874994850E+03  0.10100000352E+00 0. -1.
</event>
<event>
 5   0  0.7712816E-03  0.1099989E+04  0.7818609E-02  0.9205203E-01
       -2   -1    0    0    0  501  0.00000000000E+00  0.00000000000E+00  0.18608997378E+03  0.18608997380E+03  0.25500000920E-02 0.  1.
        2   -1    0    0  501    0  0.00000000000E+00  0.00000000000E+00 -0.16255242172E+04  0.16255242172E+04  0.25500000920E-02 0. -1.
    10030    2    1    2    0    0  0.00000000000E+00  0.00000000000E+00 -0.14394342434E+04  0.18116141910E+04  0.10999886526E+04 0.  0.
        2    1    3    3  502    0  0.53290787691E+03  0.13076599612E+03 -0.65802374685E+03  0.85678807324E+03  0.25500000920E-02 0.  1.
       -2    1    3    3    0  502 -0.53290787691E+03 -0.13076599612E+03 -0.78141049653E+03  0.95482611773E+03  0.25500000920E-02 0. -1.
</event>
<event>
 5   0  0.7738497E-03  0.1125365E+04  0.7818609E-02  0.9180816E-01
        2   -1    0    0  501    0  0.00000000000E+00  0.00000000000E+00  0.11337146962E+04  0.11337146962E+04  0.25500000920E-02 0. -1.
       -2   -1    0    0    0  501  0.00000000000E+00  0.00000000000E+00 -0.27926926730E+03  0.27926926731E+03  0.25500000920E-02 0.  1.
    10030    2    1    2    0    0  0.00000000000E+00  0.00000000000E+00  0.85444542891E+03  0.14129839635E+04  0.11253651364E+04 0.  0.
        4    1    3    3  502    0  0.46547174698E+03  0.23579060083E+03  0.69163718974E+03  0.86638603971E+03  0.12699999809E+01 0.  1.
       -4    1    3    3    0  502 -0.46547174698E+03 -0.23579060083E+03  0.16280823917E+03  0.54659792381E+03  0.12699999809E+01 0. -1.
</event>
<event>
 5   0  0.7952121E-03  0.9241190E+03  0.7818609E-02  0.9395924E-01
       -2   -1    0    0    0  501  0.00000000000E+00  0.00000000000E+00  0.26079456184E+03  0.26079456185E+03  0.25500000920E-02 0.  1.
        2   -1    0    0  501    0  0.00000000000E+00  0.00000000000E+00 -0.81864821728E+03  0.81864821729E+03  0.25500000920E-02 0. -1.
    10030    2    1    2    0    0  0.00000000000E+00  0.00000000000E+00 -0.55785365544E+03  0.10794427791E+04  0.92411904674E+03 0.  0.
        3    1    3    3  502    0  0.35849689752E+01 -0.43296072617E+03 -0.46738648016E+03  0.63711692368E+03  0.10100000352E+00 0. -1.
       -3    1    3    3    0  502 -0.35849689752E+01  0.43296072617E+03 -0.90467175282E+02  0.44232585546E+03  0.10100000352E+00 0.  1.
</event>
<event>
 5   0  0.4298101E-03  0.1066846E+04  0.7818609E-02  0.9238122E-01
       -1   -1    0    0    0  501  0.00000000000E+00  0.00000000000E+00  0.35489471226E+03  0.35489471229E+03  0.50400001928E-02 0. -1.
        1   -1    0    0  501    0  0.00000000000E+00  0.00000000000E+00 -0.80175966830E+03  0.80175966832E+03  0.50400001928E-02 0.  1.
    10030    2    1    2    0    0  0.00000000000E+00  0.00000000000E+00 -0.44686495605E+03  0.11566543806E+04  0.10668463185E+04 0.  0.
        3    1    3    3  502    0  0.20609000281E+03 -0.26352682626E+03 -0.67388423006E+03  0.75235592849E+03  0.10100000352E+00 0.  1.
       -3    1    3    3    0  502 -0.20609000281E+03  0.26352682626E+03  0.22701927401E+03  0.40429845212E+03  0.10100000352E+00 0. -1.
</event>
<event>
 5   0  0.7712816E-03  0.1055818E+04  0.7818609E-02  0.9249358E-01
        2   -1    0    0  501    0  0.00000000000E+00  0.00000000000E+00  0.37869998341E+03  0.37869998342E+03  0.25500000920E-02 0. -1.
       -2   -1    0    0    0  501  0.00000000000E+00  0.00000000000E+00 -0.73590697746E+03  0.73590697746E+03  0.25500000920E-02 0.  1.
    10030    2    1    2    0    0  0.00000000000E+00  0.00000000000E+00 -0.35720699405E+03  0.11146069609E+04  0.10558180907E+04 0.  0.
        2    1    3    3  502    0 -0.43070122076E+03  0.87360693463E+02 -0.48738343456E+03  0.65626065295E+03  0.25500000920E-02 0.  1.
       -2    1    3    3    0  502  0.43070122076E+03 -0.87360693463E+02  0.13017644051E+03  0.45834630793E+03  0.25500000920E-02 0. -1.
</event>
<event>
 5   0  0.4504740E-03  0.1113996E+04  0.7818609E-02  0.9191656E-01
        1   -1    0    0  501    0  0.00000000000E+00  0.00000000000E+00  0.11524080878E+04  0.11524080878E+04  0.50400001928E-02 0.  1.
       -1   -1    0    0    0  501  0.00000000000E+00  0.00000000000E+00 -0.26921626322E+03  0.26921626326E+03  0.50400001928E-02 0. -1.
    10030    2    1    2    0    0  0.00000000000E+00  0.00000000000E+00  0.88319182455E+03  0.14216243510E+04  0.11139964078E+04 0.  0.
        5    1    3    3  502    0 -0.48662452570E+03 -0.18607301869E+03  0.19022936596E+03  0.55464934776E+03  0.46999998093E+01 0. -1.
       -5    1    3    3    0  502  0.48662452570E+03  0.18607301869E+03  0.69296245858E+03  0.86697500327E+03  0.46999998093E+01 0.  1.
</event>
<event>
 5   0  0.4428114E-03  0.1074400E+04  0.7818609E-02  0.9230509E-01
       -1   -1    0    0    0  501  0.00000000000E+00  0.00000000000E+00  0.36535998250E+03  0.36535998254E+03  0.50400001928E-02 0. -1.
        1   -1    0    0  501    0  0.00000000000E+00  0.00000000000E+00 -0.78986093402E+03  0.78986093404E+03  0.50400001928E-02 0.  1.
    10030    2    1    2    0    0  0.00000000000E+00  0.00000000000E+00 -0.42450095152E+03  0.11552209166E+04  0.10743995105E+04 0.  0.
        4    1    3    3  502    0 -0.53280230263E+03  0.38500034105E+02 -0.15122337023E+03  0.55518525460E+03  0.12699999809E+01 0. -1.
       -4    1    3    3    0  502  0.53280230263E+03 -0.38500034105E+02 -0.27327758129E+03  0.60003566198E+03  0.12699999809E+01 0.  1.
</event>
<event>
 5   0  0.7712816E-03  0.1092336E+04  0.7818609E-02  0.9212694E-01
        2   -1    0    0  501    0  0.00000000000E+00  0.00000000000E+00  0.97173920545E+03  0.97173920546E+03  0.25500000920E-02 0. -1.
       -2   -1    0    0    0  501  0.00000000000E+00  0.00000000000E+00 -0.30697490773E+03  0.30697490774E+03  0.25500000920E-02 0.  1.
    10030    2    1    2    0    0  0.00000000000E+00  0.00000000000E+00  0.66476429772E+03  0.12787141132E+04  0.10923361258E+04 0.  0.
        2    1    3    3  502    0  0.50120191947E+03  0.20149214361E+03  0.42673979572E+03  0.68841070683E+03  0.25500000920E-02 0. -1.
       -2    1    3    3    0  502 -0.50120191947E+03 -0.20149214361E+03  0.23802450200E+03  0.59030340637E+03  0.25500000920E-02 0.  1.
</event>
<event>
 5   0  0.4504740E-03  0.1047607E+04  0.7818609E-02  0.9257818E-01
        1   -1    0    0  501    0  0.00000000000E+00  0.00000000000E+00  0.73761112011E+03  0.73761112013E+03  0.50400001928E-02 0. -1.
       -1   -1    0    0    0  501  0.00000000000E+00  0.00000000000E+00 -0.37197136174E+03  0.37197136178E+03  0.50400001928E-02 0.  1.
    10030    2    1    2    0    0  0.00000000000E+00  0.00000000000E+00  0.36563975837E+03  0.11095824819E+04  0.10476072027E+04 0.  0.
        5    1    3    3  502    0  0.36584409767E+03  0.43390079140E+02  0.57716781970E+03  0.68474037771E+03  0.46999998093E+01 0. -1.
       -5    1    3    3    0  502 -0.36584409767E+03 -0.43390079140E+02 -0.21152806133E+03  0.42484210420E+03  0.46999998093E+01 0.  1.
</event>
<event>
 5   0  0.4298101E-03  0.1065100E+04  0.7818609E-02  0.9239892E-01
        1   -1    0    0  501    0  0.00000000000E+00  0.00000000000E+00  0.35805707013E+03  0.35805707017E+03  0.50400001928E-02 0. -1.
       -1   -1    0    0    0  501  0.00000000000E+00  0.00000000000E+00 -0.79207834860E+03  0.79207834861E+03  0.50400001928E-02 0.  1.
    10030    2    1    2    0    0  0.00000000000E+00  0.00000000000E+00 -0.43402127846E+03  0.11501354188E+04  0.10650995312E+04 0.  0.
        3    1    3    3  502    0 -0.16093197311E+03 -0.32933010467E+02  0.33001633095E+03  0.36863867410E+03  0.10100000352E+00 0. -1.
       -3    1    3    3    0  502  0.16093197311E+03  0.32933010467E+02 -0.76403760942E+03  0.78149674468E+03  0.10100000352E+00 0.  1.
</event>
<event>
 5   0  0.4298101E-03  0.1100473E+04  0.7818609E-02  0.9204731E-01
       -1   -1    0    0    0  501  0.00000000000E+00  0.00000000000E+00  0.26617366980E+03  0.26617366984E+03  0.50400001928E-02 0.  1.
        1   -1    0    0  501    0  0.00000000000E+00  0.00000000000E+00 -0.11374526850E+04  0.11374526850E+04  0.50400001928E-02 0. -1.
    10030    2    1    2    0    0  0.00000000000E+00  0.00000000000E+00 -0.87127901520E+03  0.14036263548E+04  0.11004725447E+04 0.  0.
        3    1    3    3  502    0 -0.21220884998E+01  0.25037837856E+03  0.18929963793E+03  0.31389201779E+03  0.10100000352E+00 0.  1.
       -3    1    3    3    0  502  0.21220884998E+01 -0.25037837856E+03 -0.10605786531E+04  0.10897343371E+04  0.10100000352E+00 0. -1.
</event>
<event>
 5   0  0.4598561E-03  0.1102949E+04  0.7818609E-02  0.9202322E-01
       -1   -1    0    0    0  501  0.00000000000E+00  0.00000000000E+00  0.35347491394E+03  0.35347491398E+03  0.50400001928E-02 0. -1.
        1   -1    0    0  501    0  0.00000000000E+00  0.00000000000E+00 -0.86038415731E+03  0.86038415732E+03  0.50400001928E-02 0.  1.
    10030    2    1    2    0    0  0.00000000000E+00  0.00000000000E+00 -0.50690924336E+03  0.12138590713E+04  0.11029491665E+04 0.  0.
        2    1    3    3  502    0  0.17438818986E+03  0.42124216684E+03  0.88016336557E+02  0.46433078661E+03  0.25500000920E-02 0. -1.
       -2    1    3    3    0  502 -0.17438818986E+03 -0.42124216684E+03 -0.59492557992E+03  0.74952828468E+03  0.25500000920E-02 0.  1.
</event>
<event>
 5   0  0.7766551E-03  0.1119898E+04  0.7818609E-02  0.9186012E-01
       -2   -1    0    0    0  501  0.00000000000E+00  0.00000000000E+00  0.21657215736E+03  0.21657215737E+03  0.25500000920E-02 0. -1.
        2   -1    0    0  501    0  0.00000000000E+00  0.00000000000E+00 -0.14477532018E+04  0.14477532018E+04  0.25500000920E-02 0.  1.
    10030    2    1    2    0    0  0.00000000000E+00  0.00000000000E+00 -0.12311810445E+04  0.16643253592E+04  0.11198982708E+04 0.  0.
        5    1    3    3  502    0 -0.43393465373E+03  0.18833313640E+03 -0.10608184785E+04  0.11615190865E+04  0.46999998093E+01 0.  1.
       -5    1    3    3    0  502  0.43393465373E+03 -0.18833313640E+03 -0.17036256595E+03  0.50280627268E+03  0.46999998093E+01 0. -1.
</event>
<event>
 5   0  0.4428114E-03  0.1167463E+04  0.7818609E-02  0.9141823E-01
       -1   -1    0    0    0  501  0.00000000000E+00  0.00000000000E+00  0.24983260575E+03  0.24983260580E+03  0.50400001928E-02 0.  1.
        1   -1    0    0  501    0  0.00000000000E+00  0.00000000000E+00 -0.13638825410E+04  0.13638825410E+04  0.50400001928E-02 0. -1.
    10030    2    1    2    0    0  0.00000000000E+00  0.00000000000E+00 -0.11140499352E+04  0.16137151468E+04  0.11674627689E+04 0.  0.
        4    1    3    3  502    0  0.37094377566E+03 -0.19914866839E+03 -0.11159039748E+04  0.11926872057E+04  0.12699999809E+01 0. -1.
       -4    1    3    3    0  502 -0.37094377566E+03  0.19914866839E+03  0.18540395354E+01  0.42102794110E+03  0.12699999809E+01 0.  1.
</event>
<event>
 5   0  0.4298101E-03  0.1095323E+04  0.7818609E-02  0.9209762E-01
        1   -1    0    0  501    0  0.00000000000E+00  0.00000000000E+00  0.31957145409E+03  0.31957145413E+03  0.50400001928E-02 0.  1.
       -1   -1    0    0    0  501  0.00000000000E+00  0.00000000000E+00 -0.93854808357E+03  0.93854808359E+03  0.50400001928E-02 0. -1.
    10030    2    1    2    0    0  0.00000000000E+00  0.00000000000E+00 -0.61897662949E+03  0.12581195377E+04  0.10953231045E+04 0.  0.
        3    1    3    3  502    0  0.50254595765E+03 -0.66336191901E+02 -0.71358346231E+02  0.51190326594E+03  0.10100000352E+00 0.  1.
       -3    1    3    3    0  502 -0.50254595765E+03  0.66336191901E+02 -0.54761828326E+03  0.74621627177E+03  0.10100000352E+00 0. -1.
</event>
<event>
 5   0  0.7712816E-03  0.1101942E+04  0.7818609E-02  0.9203301E-01
        2   -1    0    0  501    0  0.00000000000E+00  0.00000000000E+00  0.25226326673E+03  0.25226326674E+03  0.25500000920E-02 0.  1.
       -2   -1    0    0    0  501  0.00000000000E+00  0.00000000000E+00 -0.12033821967E+04  0.12033821967E+04  0.25500000920E-02 0. -1.
    10030    2    1    2    0    0  0.00000000000E+00  0.00000000000E+00 -0.95111892999E+03  0.14556454635E+04  0.11019421474E+04 0.  0.
        2    1    3    3  502    0  0.31992160902E+03 -0.44450253212E+03 -0.55522229957E+03  0.77987443792E+03  0.25500000920E-02 0.  1.
       -2    1    3    3    0  502 -0.31992160902E+03  0.44450253212E+03 -0.39589663042E+03  0.67577102555E+03  0.25500000920E-02 0. -1.
</event>
<event>
 5   0  0.2992375E-03  0.1103704E+04  0.7818609E-02  0.9201589E-01
       -4   -1    0    0    0  501  0.00000000000E+00  0.00000000000E+00  0.85257009592E+03  0.85257104183E+03  0.12699999809E+01 0. -1.
        4   -1    0    0  501    0  0.00000000000E+00  0.00000000000E+00 -0.35720065254E+03  0.35720291023E+03  0.12699999809E+01 0.  1.
    10030    2    1    2    0    0  0.00000000000E+00  0.00000000000E+00  0.49536944338E+03  0.12097739521E+04  0.11037038233E+04 0.  0.
        5    1    3    3  502    0 -0.20936364796E+03  0.49648572168E+03  0.11712760788E+03  0.55142739816E+03  0.46999998093E+01 0.  1.
       -5    1    3    3    0  502  0.20936364796E+03 -0.49648572168E+03  0.37824183550E+03  0.65834655390E+03  0.46999998093E+01 0. -1.
</event>
<event>
 5   0  0.7766551E-03  0.1027730E+04  0.7818609E-02  0.9278643E-01
        2   -1    0    0  501    0  0.00000000000E+00  0.00000000000E+00  0.25399987049E+04  0.25399987049E+04  0.25500000920E-02 0. -1.
       -2   -1    0    0    0  501  0.00000000000E+00  0.00000000000E+00 -0.10395966870E+03  0.10395966873E+03  0.25500000920E-02 0.  1.
    10030    2    1    2    0    0  0.00000000000E+00  0.00000000000E+00  0.24360390362E+04  0.26439583737E+04  0.10277303614E+04 0.  0.
        5    1    3    3  502    0  0.24329382877E+03 -0.42631357937E+03  0.82701380977E+03  0.96172193831E+03  0.46999998093E+01 0.  1.
       -5    1    3    3    0  502 -0.24329382877E+03  0.42631357937E+03  0.16090252264E+04  0.16822364353E+04  0.46999998093E+01 0. -1.
</event>
<event>
 5   0  0.4641021E-03  0.1069692E+04  0.7818609E-02  0.9235247E-01
        1   -1    0    0  501    0  0.00000000000E+00  0.00000000000E+00  0.26417697423E+04  0.26417697423E+04  0.50400001928E-02 0. -1.
       -1   -1    0    0    0  501  0.00000000000E+00  0.00000000000E+00 -0.10828348442E+03  0.10828348453E+03  0.50400001928E-02 0.  1.
    10030    2    1    2    0    0  0.00000000000E+00  0.00000000000E+00  0.25334862579E+04  0.27500532269E+04  0.10696916058E+04 0.  0.
        1    1    3    3  502    0 -0.14822890148E+03  0.58702280441E+02  0.25792601216E+04  0.25841827606E+04  0.50400001928E-02 0. -1.
       -1    1    3    3    0  502  0.14822890148E+03 -0.58702280441E+02 -0.45773863728E+02  0.16587046629E+03  0.50400001928E-02 0.  1.
</event>
<event>
 5   0  0.7952121E-03  0.1119575E+04  0.7818609E-02  0.9186320E-01
        2   -1    0    0  501    0  0.00000000000E+00  0.00000000000E+00  0.11396983205E+04  0.11396983205E+04  0.25500000920E-02 0.  1.
       -2   -1    0    0    0  501  0.00000000000E+00  0.00000000000E+00 -0.27495177897E+03  0.27495177899E+03  0.25500000920E-02 0. -1.
    10030    2    1    2    0    0  0.00000000000E+00  0.00000000000E+00  0.86474654155E+03  0.14146500995E+04  0.11195750636E+04 0.  0.
        3    1    3    3  502    0  0.27233213645E+03  0.45634723771E+03  0.65464661741E+03  0.84319617990E+03  0.10100000352E+00 0.  1.
       -3    1    3    3    0  502 -0.27233213645E+03 -0.45634723771E+03  0.21009992414E+03  0.57145391961E+03  0.10100000352E+00 0. -1.
</event>
<event>
 5   0  0.7766551E-03  0.1088106E+04  0.7818609E-02  0.9216863E-01
        2   -1    0    0  501    0  0.00000000000E+00  0.00000000000E+00  0.11699161463E+04  0.11699161463E+04  0.25500000920E-02 0. -1.
       -2   -1    0    0    0  501  0.00000000000E+00  0.00000000000E+00 -0.25300419304E+03  0.25300419305E+03  0.25500000920E-02 0.  1.
    10030    2    1    2    0    0  0.00000000000E+00  0.00000000000E+00  0.91691195328E+03  0.14229203394E+04  0.10881060436E+04 0.  0.
        5    1    3    3  502    0  0.45779823947E+03 -0.28942717988E+03  0.52544666686E+03  0.75462812711E+03  0.46999998093E+01 0. -1.
       -5    1    3    3    0  502 -0.45779823947E+03  0.28942717988E+03  0.39146528642E+03  0.66829221227E+03  0.46999998093E+01 0.  1.
</event>
<event>
 5   0  0.4641021E-03  0.1032134E+04  0.7818609E-02  0.9273986E-01
       -1   -1    0    0    0  501  0.00000000000E+00  0.00000000000E+00  0.17864696063E+03  0.17864696070E+03  0.50400001928E-02 0.  1.
        1   -1    0    0  501    0  0.00000000000E+00  0.00000000000E+00 -0.14907914022E+04  0.14907914022E+04  0.50400001928E-02 0. -1.
    10030    2    1    2    0    0  0.00000000000E+00  0.00000000000E+00 -0.13121444415E+04  0.16694383629E+04  0.10321343963E+04 0.  0.
        1    1    3    3  502    0 -0.37499168478E+03  0.11949911651E+03 -0.11615338237E+03  0.41035400664E+03  0.50400001928E-02 0.  1.
       -1    1    3    3    0  502  0.37499168478E+03 -0.11949911651E+03 -0.11959910591E+04  0.12590843562E+04  0.50400001928E-02 0. -1.
</event>
<event>
 5   0  0.7712816E-03  0.1168956E+04  0.7818609E-02  0.9140472E-01
        2   -1    0    0  501    0  0.00000000000E+00  0.00000000000E+00  0.97443026240E+03  0.97443026240E+03  0.25500000920E-02 0. -1.
       -2   -1    0    0    0  501  0.00000000000E+00  0.00000000000E+00 -0.35057844419E+03  0.35057844420E+03  0.25500000920E-02 0.  1.
    10030    2    1    2    0    0  0.00000000000E+00  0.00000000000E+00  0.62385181821E+03  0.13250087066E+04  0.11689555088E+04 0.  0.
        2    1    3    3  502    0 -0.33847251415E+03 -0.13654847676E+03  0.82938370950E+03  0.90613821624E+03  0.25500000920E-02 0. -1.
       -2    1    3    3    0  502  0.33847251415E+03  0.13654847676E+03 -0.20553189129E+03  0.41887049035E+03  0.25500000920E-02 0.  1.
</event>
<event>
 5   0  0.7766551E-03  0.1057129E+04  0.7818609E-02  0.9248015E-01
       -2   -1    0    0    0  501  0.00000000000E+00  0.00000000000E+00  0.79137649285E+03  0.79137649285E+03  0.25500000920E-02 0.  1.
        2   -1    0    0  501    0  0.00000000000E+00  0.00000000000E+00 -0.35303094370E+03  0.35303094371E+03  0.25500000920E-02 0. -1.
    10030    2    1    2    0    0  0.00000000000E+00  0.00000000000E+00  0.43834554914E+03  0.11444074366E+04  0.10571289233E+04 0.  0.
        5    1    3    3  502    0  0.22956907321E+03  0.47597954321E+03  0.22998838402E+03  0.57634645112E+03  0.46999998093E+01 0.  1.
       -5    1    3    3    0  502 -0.22956907321E+03 -0.47597954321E+03  0.20835716512E+03  0.56806098545E+03  0.46999998093E+01 0. -1.
</event>
<event>
 5   0  0.4598561E-03  0.1121400E+04  0.7818609E-02  0.9184582E-01
       -1   -1    0    0    0  501  0.00000000000E+00  0.00000000000E+00  0.16751729715E+03  0.16751729722E+03  0.50400001928E-02 0. -1.
        1   -1    0    0  501    0  0.00000000000E+00  0.00000000000E+00 -0.18767275721E+04  0.18767275721E+04  0.50400001928E-02 0.  1.
    10030    2    1    2    0    0  0.00000000000E+00  0.00000000000E+00 -0.17092102749E+04  0.20442448693E+04  0.11213997154E+04 0.  0.
        2    1    3    3  502    0  0.29014271208E+03  0.47978421159E+03 -0.85996575215E+03  0.10266044895E+04  0.25500000920E-02 0. -1.
       -2    1    3    3    0  502 -0.29014271208E+03 -0.47978421159E+03 -0.84924452277E+03  0.10176403798E+04  0.25500000920E-02 0.  1.
</event>
<event>
 5   0  0.7766551E-03  0.1127315E+04  0.7818609E-02  0.9178970E-01
        2   -1    0    0  501    0  0.00000000000E+00  0.00000000000E+00  0.10535114777E+04  0.10535114777E+04  0.25500000920E-02 0.  1.
       -2   -1    0    0    0  501  0.00000000000E+00  0.00000000000E+00 -0.30157236729E+03  0.30157236730E+03  0.25500000920E-02 0. -1.
    10030    2    1    2    0    0  0.00000000000E+00  0.00000000000E+00  0.75193911046E+03  0.13550838450E+04  0.11273153069E+04 0.  0.
        5    1    3    3  502    0  0.54053798548E+03 -0.97598286193E+02  0.22401126969E+03  0.59321992394E+03  0.46999998093E+01 0. -1.
       -5    1    3    3    0  502 -0.54053798548E+03  0.97598286193E+02  0.52792784077E+03  0.76186392110E+03  0.46999998093E+01 0.  1.
</event>
<event>
 5   0  0.4428114E-03  0.1082652E+04  0.7818609E-02  0.9222267E-01
        1   -1    0    0  501    0  0.00000000000E+00  0.00000000000E+00  0.75495730001E+03  0.75495730002E+03  0.50400001928E-02 0. -1.
       -1   -1    0    0    0  501  0.00000000000E+00  0.00000000000E+00 -0.38814641114E+03  0.38814641117E+03  0.50400001928E-02 0.  1.
    10030    2    1    2    0    0  0.00000000000E+00  0.00000000000E+00  0.36681088886E+03  0.11431037112E+04  0.10826522370E+04 0.  0.
        4    1    3    3  502    0 -0.29852160060E+03 -0.13223908378E+03  0.63928970104E+03  0.71784068989E+03  0.12699999809E+01 0. -1.
       -4    1    3    3    0  502  0.29852160060E+03  0.13223908378E+03 -0.27247881218E+03  0.42526302131E+03  0.12699999809E+01 0.  1.
</event>
<event>
 5   0  0.4504740E-03  0.1096918E+04  0.7818609E-02  0.9208201E-01
       -1   -1    0    0    0  501  0.00000000000E+00  0.00000000000E+00  0.37636092131E+03  0.37636092134E+03  0.50400001928E-02 0.  1.
        1   -1    0    0  501    0  0.00000000000E+00  0.00000000000E+00 -0.79925264539E+03  0.79925264541E+03  0.50400001928E-02 0. -1.
    10030    2    1    2    0    0  0.00000000000E+00  0.00000000000E+00 -0.42289172408E+03  0.11756135668E+04  0.10969183416E+04 0.  0.
        5    1    3    3  502    0  0.34261162015E+03 -0.14830836276E+03  0.21913215107E+03  0.43291925616E+03  0.46999998093E+01 0.  1.
       -5    1    3    3    0  502 -0.34261162015E+03  0.14830836276E+03 -0.64202387515E+03  0.74269431059E+03  0.46999998093E+01 0. -1.
</event>
<event>
 5   0  0.4504740E-03  0.1086374E+04  0.7818609E-02  0.9218576E-01
       -1   -1    0    0    0  501  0.00000000000E+00  0.00000000000E+00  0.86366299648E+03  0.86366299649E+03  0.50400001928E-02 0.  1.
        1   -1    0    0  501    0  0.00000000000E+00  0.00000000000E+00 -0.34162854861E+03  0.34162854865E+03  0.50400001928E-02 0. -1.
    10030    2    1    2    0    0  0.00000000000E+00  0.00000000000E+00  0.52203444787E+03  0.12052915451E+04  0.10863736668E+04 0.  0.
        5    1    3    3  502    0  0.12795847316E+03  0.42798862852E+03 -0.81809058364E+02  0.45416125883E+03  0.46999998093E+01 0. -1.
       -5    1    3    3    0  502 -0.12795847316E+03 -0.42798862852E+03  0.60384350623E+03  0.75113028631E+03  0.46999998093E+01 0.  1.
</event>
<event>
 5   0  0.4504740E-03  0.1107535E+04  0.7818609E-02  0.9197879E-01
        1   -1    0    0  501    0  0.00000000000E+00  0.00000000000E+00  0.76463805881E+03  0.76463805883E+03  0.50400001928E-02 0.  1.
       -1   -1    0    0    0  501  0.00000000000E+00  0.00000000000E+00 -0.40105021468E+03  0.40105021471E+03  0.50400001928E-02 0. -1.
    10030    2    1    2    0    0  0.00000000000E+00  0.00000000000E+00  0.36358784413E+03  0.11656882735E+04  0.11075346634E+04 0.  0.
        5    1    3    3  502    0  0.24436457064E+03 -0.48023991166E+03  0.31613504956E+03  0.62474624905E+03  0.46999998093E+01 0.  1.
       -5    1    3    3    0  502 -0.24436457064E+03  0.48023991166E+03  0.47452794570E+02  0.54094202448E+03  0.46999998093E+01 0. -1.
</event>
<event>
 5   0  0.7952121E-03  0.1118409E+04  0.7818609E-02  0.9187433E-01
        2   -1    0    0  501    0  0.00000000000E+00  0.00000000000E+00  0.18459489608E+04  0.18459489608E+04  0.25500000920E-02 0. -1.
       -2   -1    0    0    0  501  0.00000000000E+00  0.00000000000E+00 -0.16940317475E+03  0.16940317477E+03  0.25500000920E-02 0.  1.
    10030    2    1    2    0    0  0.00000000000E+00  0.00000000000E+00  0.16765457860E+04  0.20153521356E+04  0.11184088956E+04 0.  0.
        3    1    3    3  502    0  0.47767201723E+03 -0.20014782553E+02  0.31557879303E+03  0.57285349993E+03  0.10100000352E+00 0.  1.
       -3    1    3    3    0  502 -0.47767201723E+03  0.20014782553E+02  0.13609669930E+04  0.14424986356E+04  0.10100000352E+00 0. -1.
</event>
<event>
 5   0  0.4504740E-03  0.1092721E+04  0.7818609E-02  0.9212316E-01
        1   -1    0    0  501    0  0.00000000000E+00  0.00000000000E+00  0.54979541608E+03  0.54979541610E+03  0.50400001928E-02 0. -1.
       -1   -1    0    0    0  501  0.00000000000E+00  0.00000000000E+00 -0.54294682332E+03  0.54294682335E+03  0.50400001928E-02 0.  1.
    10030    2    1    2    0    0  0.00000000000E+00  0.00000000000E+00  0.68485927540E+01  0.10927422394E+04  0.10927207780E+04 0.  0.
        5    1    3    3  502    0 -0.40489583799E+03 -0.26245529098E+03 -0.25283093702E+03  0.54476507973E+03  0.46999998093E+01 0.  1.
       -5    1    3    3    0  502  0.40489583799E+03  0.26245529098E+03  0.25967952977E+03  0.54797715971E+03  0.46999998093E+01 0. -1.
</event>
<event>
 5   0  0.4504740E-03  0.1095792E+04  0.7818609E-02  0.9209303E-01
       -1   -1    0    0    0  501  0.00000000000E+00  0.00000000000E+00  0.22246044174E+03  0.22246044180E+03  0.50400001928E-02 0.  1.
        1   -1    0    0  501    0  0.00000000000E+00  0.00000000000E+00 -0.13494083569E+04  0.13494083569E+04  0.50400001928E-02 0. -1.
    10030    2    1    2    0    0  0.00000000000E+00  0.00000000000E+00 -0.11269479151E+04  0.15718687987E+04  0.10957919131E+04 0.  0.
        5    1    3    3  502    0 -0.30503081946E+03 -0.19317261645E+03  0.27635385580E+02  0.36213984191E+03  0.46999998093E+01 0.  1.
       -5    1    3    3    0  502  0.30503081946E+03  0.19317261645E+03 -0.11545833007E+04  0.12097289568E+04  0.46999998093E+01 0. -1.
</event>
<event>
 5   0  0.7952121E-03  0.1108396E+04  0.7818609E-02  0.9197047E-01
        2   -1    0    0  501    0  0.00000000000E+00  0.00000000000E+00  0.61919533438E+03  0.61919533439E+03  0.25500000920E-02 0.  1.
       -2   -1    0    0    0  501  0.00000000000E+00  0.00000000000E+00 -0.49602319677E+03  0.49602319677E+03  0.25500000920E-02 0. -1.
    10030    2    1    2    0    0  0.00000000000E+00  0.00000000000E+00  0.12317213762E+03  0.11152185312E+04  0.11083956860E+04 0.  0.
        3    1    3    3  502    0  0.56760053604E+02  0.50193092978E+03 -0.16780610495E+03  0.53227367116E+03  0.10100000352E+00 0. -1.
       -3    1    3    3    0  502 -0.56760053604E+02 -0.50193092978E+03  0.29097824256E+03  0.58294486000E+03  0.10100000352E+00 0.  1.
</event>
<event>
 5   0  0.7537480E-03  0.1148953E+04  0.7818609E-02  0.9158750E-01
       -2   -1    0    0    0  501  0.00000000000E+00  0.00000000000E+00  0.12785533378E+03  0.12785533381E+03  0.25500000920E-02 0. -1.
        2   -1    0    0  501    0  0.00000000000E+00  0.00000000000E+00 -0.25812239337E+04  0.25812239337E+04  0.25500000920E-02 0.  1.
    10030    2    1    2    0    0  0.00000000000E+00  0.00000000000E+00 -0.24533685999E+04  0.27090792675E+04  0.11489529976E+04 0.  0.
        1    1    3    3  502    0 -0.41760197494E+03 -0.12170420108E+03 -0.34187127847E+03  0.55324433400E+03  0.50400001928E-02 0. -1.
       -1    1    3    3    0  502  0.41760197494E+03  0.12170420108E+03 -0.21114973214E+04  0.21558349335E+04  0.50400001928E-02 0.  1.
</event>
<event>
 5   0  0.7738497E-03  0.1083967E+04  0.7818609E-02  0.9220962E-01
       -2   -1    0    0    0  501  0.00000000000E+00  0.00000000000E+00  0.35953570656E+03  0.35953570656E+03  0.25500000920E-02 0.  1.
        2   -1    0    0  501    0  0.00000000000E+00  0.00000000000E+00 -0.81701450999E+03  0.81701450999E+03  0.25500000920E-02 0. -1.
    10030    2    1    2    0    0  0.00000000000E+00  0.00000000000E+00 -0.45747880343E+03  0.11765502166E+04  0.10839665846E+04 0.  0.
        4    1    3    3  502    0 -0.24722368457E+03  0.26717537307E+03 -0.66458606337E+03  0.75774565568E+03  0.12699999809E+01 0. -1.
       -4    1    3    3    0  502  0.24722368457E+03 -0.26717537307E+03  0.20710725994E+03  0.41880456087E+03  0.12699999809E+01 0.  1.
</event>
<event>
 5   0  0.4598561E-03  0.1129284E+04  0.7818609E-02  0.9177110E-01
       -1   -1    0    0    0  501  0.00000000000E+00  0.00000000000E+00  0.60565810407E+03  0.60565810410E+03  0.50400001928E-02 0. -1.
        1   -1    0    0  501    0  0.00000000000E+00  0.00000000000E+00 -0.52640398433E+03  0.52640398435E+03  0.50400001928E-02 0.  1.
    10030    2    1    2    0    0  0.00000000000E+00  0.00000000000E+00  0.79254119748E+02  0.11320620884E+04  0.11292844445E+04 0.  0.
        2    1    3    3  502    0  0.96832742100E+02 -0.69823732471E+02 -0.51360798395E+03  0.52729981485E+03  0.25500000920E-02 0.  1.
       -2    1    3    3    0  502 -0.96832742100E+02  0.69823732471E+02  0.59286210370E+03  0.60476227360E+03  0.25500000920E-02 0. -1.
</event>
<event>
 5   0  0.7766551E-03  0.8974708E+03  0.7818609E-02  0.9428749E-01
       -2   -1    0    0    0  501  0.00000000000E+00  0.00000000000E+00  0.26354724450E+03  0.26354724451E+03  0.25500000920E-02 0. -1.
        2   -1    0    0  501    0  0.00000000000E+00  0.00000000000E+00 -0.76405074521E+03  0.76405074522E+03  0.25500000920E-02 0.  1.
    10030    2    1    2    0    0  0.00000000000E+00  0.00000000000E+00 -0.50050350072E+03  0.10275979897E+04  0.89747082084E+03 0.  0.
        5    1    3    3  502    0  0.35393516991E+03 -0.16830369558E+03 -0.50044033756E+03  0.63565624350E+03  0.46999998093E+01 0.  1.
       -5    1    3    3    0  502 -0.35393516991E+03  0.16830369558E+03 -0.63163157567E-01  0.39194174623E+03  0.46999998093E+01 0. -1.
</event>
<event>
 5   0  0.4428114E-03  0.1083196E+04  0.7818609E-02  0.9221727E-01
       -1   -1    0    0    0  501  0.00000000000E+00  0.00000000000E+00  0.53018526541E+03  0.53018526544E+03  0.50400001928E-02 0.  1.
        1   -1    0    0  501    0  0.00000000000E+00  0.00000000000E+00 -0.55325615914E+03  0.55325615917E+03  0.50400001928E-02 0. -1.
    10030    2    1    2    0    0  0.00000000000E+00  0.00000000000E+00 -0.23070893732E+02  0.10834414246E+04  0.10831957600E+04 0.  0.
        4    1    3    3  502    0 -0.21168101103E+02  0.36895177705E+03  0.38447498039E+03  0.53328803262E+03  0.12699999809E+01 0.  1.
       -4    1    3    3    0  502  0.21168101103E+02 -0.36895177705E+03 -0.40754587412E+03  0.55015339198E+03  0.12699999809E+01 0. -1.
</event>
<event>
 5   0  0.7537480E-03  0.1099587E+04  0.7818609E-02  0.9205595E-01
        2   -1    0    0  501    0  0.00000000000E+00  0.00000000000E+00  0.61990832633E+03  0.61990832634E+03  0.25500000920E-02 0. -1.
       -2   -1    0    0    0  501  0.00000000000E+00  0.00000000000E+00 -0.48760896395E+03  0.48760896396E+03  0.25500000920E-02 0.  1.
    10030    2    1    2    0    0  0.00000000000E+00  0.00000000000E+00  0.13229936239E+03  0.11075172903E+04  0.10995869347E+04 0.  0.
        1    1    3    3  502    0  0.13339327186E+03 -0.53183579508E+03  0.10681135761E+03  0.55861591818E+03  0.50400001928E-02 0.  1.
       -1    1    3    3    0  502 -0.13339327186E+03  0.53183579508E+03  0.25488004772E+02  0.54890137212E+03  0.50400001928E-02 0. -1.
</event>
<event>
 5   0  0.7766551E-03  0.1105393E+04  0.7818609E-02  0.9199951E-01
       -2   -1    0    0    0  501  0.00000000000E+00  0.00000000000E+00  0.16649255721E+03  0.16649255723E+03  0.25500000920E-02 0.  1.
        2   -1    0    0  501    0  0.00000000000E+00  0.00000000000E+00 -0.18347581815E+04  0.18347581815E+04  0.25500000920E-02 0. -1.
    10030    2    1    2    0    0  0.00000000000E+00  0.00000000000E+00 -0.16682656243E+04  0.20012507387E+04  0.11053932902E+04 0.  0.
        5    1    3    3  502    0  0.50351784808E+03  0.21234189935E+03 -0.68448701622E+03  0.87587891339E+03  0.46999998093E+01 0. -1.
       -5    1    3    3    0  502 -0.50351784808E+03 -0.21234189935E+03 -0.98377860809E+03  0.11253718254E+04  0.46999998093E+01 0.  1.
</event>
<event>
 5   0  0.7712816E-03  0.1100050E+04  0.7818609E-02  0.9205143E-01
        2   -1    0    0  501    0  0.00000000000E+00  0.00000000000E+00  0.95317111499E+03  0.95317111499E+03  0.25500000920E-02 0. -1.
       -2   -1    0    0    0  501  0.00000000000E+00  0.00000000000E+00 -0.31739045512E+03  0.31739045513E+03  0.25500000920E-02 0.  1.
    10030    2    1    2    0    0  0.00000000000E+00  0.00000000000E+00  0.63578065987E+03  0.12705615701E+04  0.11000498425E+04 0.  0.
        2    1    3    3  502    0  0.29286203391E+03  0.76515346248E+02  0.84831830930E+03  0.90070346009E+03  0.25500000920E-02 0. -1.
       -2    1    3    3    0  502 -0.29286203391E+03 -0.76515346248E+02 -0.21253764943E+03  0.36985811002E+03  0.25500000920E-02 0.  1.
</event>
<event>
 5   0  0.4641021E-03  0.1082521E+04  0.7818609E-02  0.9222397E-01
       -1   -1    0    0    0  501  0.00000000000E+00  0.00000000000E+00  0.40242600006E+03  0.40242600009E+03  0.50400001928E-02 0.  1.
        1   -1    0    0  501    0  0.00000000000E+00  0.00000000000E+00 -0.72799260754E+03  0.72799260755E+03  0.50400001928E-02 0. -1.
    10030    2    1    2    0    0  0.00000000000E+00  0.00000000000E+00 -0.32556660748E+03  0.11304186076E+04  0.10825214144E+04 0.  0.
        1    1    3    3  502    0  0.48315132571E+03 -0.15679497200E+03 -0.35798548891E+03  0.62142857761E+03  0.50400001928E-02 0. -1.
       -1    1    3    3    0  502 -0.48315132571E+03  0.15679497200E+03  0.32418881436E+02  0.50899003003E+03  0.50400001928E-02 0.  1.
</event>
<event>
 5   0  0.4428114E-03  0.1068313E+04  0.7818609E-02  0.9236639E-01
       -1   -1    0    0    0  501  0.00000000000E+00  0.00000000000E+00  0.15718687901E+03  0.15718687909E+03  0.50400001928E-02 0. -1.
        1   -1    0    0  501    0  0.00000000000E+00  0.00000000000E+00 -0.18151837940E+04  0.18151837940E+04  0.50400001928E-02 0.  1.
    10030    2    1    2    0    0  0.00000000000E+00  0.00000000000E+00 -0.16579969150E+04  0.19723706731E+04  0.10683128296E+04 0.  0.
        4    1    3    3  502    0 -0.37958724890E+03  0.87796357381E+02 -0.15435504373E+03  0.41907251440E+03  0.12699999809E+01 0. -1.
       -4    1    3    3    0  502  0.37958724890E+03 -0.87796357381E+02 -0.15036418712E+04  0.15532981587E+04  0.12699999809E+01 0.  1.
</event>
<event>
 5   0  0.7712816E-03  0.1110751E+04  0.7818609E-02  0.9194776E-01
       -2   -1    0    0    0  501  0.00000000000E+00  0.00000000000E+00  0.14933444087E+03  0.14933444089E+03  0.25500000920E-02 0. -1.
        2   -1    0    0  501    0  0.00000000000E+00  0.00000000000E+00 -0.20654439317E+04  0.20654439317E+04  0.25500000920E-02 0.  1.
    10030    2    1    2    0    0  0.00000000000E+00  0.00000000000E+00 -0.19161094908E+04  0.22147783726E+04  0.11107509437E+04 0.  0.
        2    1    3    3  502    0  0.71550466706E+01 -0.24100532865E+03 -0.19556404387E+04  0.19704477381E+04  0.25500000920E-02 0.  1.
       -2    1    3    3    0  502 -0.71550466706E+01  0.24100532865E+03  0.39530947819E+02  0.24433063453E+03  0.25500000920E-02 0. -1.
</event>
<event>
 5   0  0.7766551E-03  0.1101972E+04  0.7818609E-02  0.9203272E-01
        2   -1    0    0  501    0  0.00000000000E+00  0.00000000000E+00  0.74783869740E+03  0.74783869740E+03  0.25500000920E-02 0. -1.
       -2   -1    0    0    0  501  0.00000000000E+00  0.00000000000E+00 -0.40595063240E+03  0.40595063241E+03  0.25500000920E-02 0.  1.
    10030    2    1    2    0    0  0.00000000000E+00  0.00000000000E+00  0.34188806500E+03  0.11537893298E+04  0.11019720362E+04 0.  0.
        5    1    3    3  502    0 -0.25982443200E+03  0.22134069902E+02 -0.33722850074E+03  0.42631420833E+03  0.46999998093E+01 0.  1.
       -5    1    3    3    0  502  0.25982443200E+03 -0.22134069902E+02  0.67911656574E+03  0.72747512148E+03  0.46999998093E+01 0. -1.
</event>
<event>
 5   0  0.4428114E-03  0.1069745E+04  0.7818609E-02  0.9235193E-01
        1   -1    0    0  501    0  0.00000000000E+00  0.00000000000E+00  0.49654471826E+03  0.49654471828E+03  0.50400001928E-02 0. -1.
       -1   -1    0    0    0  501  0.00000000000E+00  0.00000000000E+00 -0.57615847071E+03  0.57615847073E+03  0.50400001928E-02 0.  1.
    10030    2    1    2    0    0  0.00000000000E+00  0.00000000000E+00 -0.79613752454E+02  0.10727031890E+04  0.10697447276E+04 0.  0.
        4    1    3    3  502    0  0.49147369043E+03 -0.81851355689E+02 -0.23487197444E+03  0.55082891181E+03  0.12699999809E+01 0.  1.
       -4    1    3    3    0  502 -0.49147369043E+03  0.81851355689E+02  0.15525822199E+03  0.52187427720E+03  0.12699999809E+01 0. -1.
</event>
<event>
 5   0  0.4598561E-03  0.1095432E+04  0.7818609E-02  0.9209655E-01
       -1   -1    0    0    0  501  0.00000000000E+00  0.00000000000E+00  0.38324205676E+03  0.38324205679E+03  0.50400001928E-02 0.  1.
        1   -1    0    0  501    0  0.00000000000E+00  0.00000000000E+00 -0.78277703766E+03  0.78277703768E+03  0.50400001928E-02 0. -1.
    10030    2    1    2    0    0  0.00000000000E+00  0.00000000000E+00 -0.39953498090E+03  0.11660190945E+04  0.10954324843E+04 0.  0.
        2    1    3    3  502    0 -0.15055925540E+03 -0.28264798125E+03 -0.67273601643E+03  0.74507161971E+03  0.25500000920E-02 0. -1.
       -2    1    3    3    0  502  0.15055925540E+03  0.28264798125E+03  0.27320103552E+03  0.42094747476E+03  0.25500000920E-02 0.  1.
</event>
<event>
 5   0  0.7738497E-03  0.1096962E+04  0.7818609E-02  0.9208158E-01
        2   -1    0    0  501    0  0.00000000000E+00  0.00000000000E+00  0.12466563347E+04  0.12466563347E+04  0.25500000920E-02 0.  1.
       -2   -1    0    0    0  501  0.00000000000E+00  0.00000000000E+00 -0.24131054324E+03  0.24131054325E+03  0.25500000920E-02 0. -1.
    10030    2    1    2    0    0  0.00000000000E+00  0.00000000000E+00  0.10053457915E+04  0.14879668780E+04  0.10969618359E+04 0.  0.
        4    1    3    3  502    0  0.41286292251E+03 -0.19156701872E+03  0.87512526962E+02  0.46348006508E+03  0.12699999809E+01 0. -1.
       -4    1    3    3    0  502 -0.41286292251E+03  0.19156701872E+03  0.91783326451E+03  0.10244868129E+04  0.12699999809E+01 0.  1.
</event>
<event>
 5   0  0.4504740E-03  0.1100179E+04  0.7818609E-02  0.9205017E-01
        1   -1    0    0  501    0  0.00000000000E+00  0.00000000000E+00  0.10089845388E+04  0.10089845388E+04  0.50400001928E-02 0.  1.
       -1   -1    0    0    0  501  0.00000000000E+00  0.00000000000E+00 -0.29990407787E+03  0.29990407791E+03  0.50400001928E-02 0. -1.
    10030    2    1    2    0    0  0.00000000000E+00  0.00000000000E+00  0.70908046093E+03  0.13088886167E+04  0.11001792176E+04 0.  0.
        5    1    3    3  502    0 -0.19934134250E+03 -0.40802186530E+03  0.72384286731E+03  0.85451120528E+03  0.46999998093E+01 0.  1.
       -5    1    3    3    0  502  0.19934134250E+03  0.40802186530E+03 -0.14762406380E+02  0.45437741145E+03  0.46999998093E+01 0. -1.
</event>
<event>
 5   0  0.7738497E-03  0.1010605E+04  0.7818609E-02  0.9296989E-01
        2   -1    0    0  501    0  0.00000000000E+00  0.00000000000E+00  0.76281699315E+03  0.76281699316E+03  0.25500000920E-02 0.  1.
       -2   -1    0    0    0  501  0.00000000000E+00  0.00000000000E+00 -0.33472089976E+03  0.33472089977E+03  0.25500000920E-02 0. -1.
    10030    2    1    2    0    0  0.00000000000E+00  0.00000000000E+00  0.42809609339E+03  0.10975378929E+04  0.10106053440E+04 0.  0.
        4    1    3    3  502    0  0.46286203011E+03 -0.18228278716E+03  0.31033649305E+03  0.58632638114E+03  0.12699999809E+01 0.  1.
       -4    1    3    3    0  502 -0.46286203011E+03  0.18228278716E+03  0.11775960034E+03  0.51121151179E+03  0.12699999809E+01 0. -1.
</event>
<event>
 5   0  0.7738497E-03  0.1107362E+04  0.7818609E-02  0.9198046E-01
       -2   -1    0    0    0  501  0.00000000000E+00  0.00000000000E+00  0.30390901781E+03  0.30390901782E+03  0.25500000920E-02 0. -1.
        2   -1    0    0  501    0  0.00000000000E+00  0.00000000000E+00 -0.10087319996E+04  0.10087319996E+04  0.25500000920E-02 0.  1.
    10030    2    1    2    0    0  0.00000000000E+00  0.00000000000E+00 -0.70482298179E+03  0.13126410174E+04  0.11073621833E+04 0.  0.
        4    1    3    3  502    0 -0.52225222109E+03 -0.76509144764E+02 -0.15420143007E+03  0.54989155804E+03  0.12699999809E+01 0.  1.
       -4    1    3    3    0  502  0.52225222109E+03  0.76509144764E+02 -0.55062155172E+03  0.76274945938E+03  0.12699999809E+01 0. -1.
</event>
<event>
 5   0  0.7952121E-03  0.1177663E+04  0.7818609E-02  0.9132636E-01
       -2   -1    0    0    0  501  0.00000000000E+00  0.00000000000E+00  0.30937989984E+03  0.30937989985E+03  0.25500000920E-02 0. -1.
        2   -1    0    0  501    0  0.00000000000E+00  0.00000000000E+00 -0.11207013761E+04  0.11207013761E+04  0.25500000920E-02 0.  1.
    10030    2    1    2    0    0  0.00000000000E+00  0.00000000000E+00 -0.81132147627E+03  0.14300812760E+04  0.11776629051E+04 0.  0.
        3    1    3    3  502    0  0.17338189794E+03 -0.12166844853E+03  0.26151624062E+03  0.33653417094E+03  0.10100000352E+00 0. -1.
       -3    1    3    3    0  502 -0.17338189794E+03  0.12166844853E+03 -0.10728377169E+04  0.10935471050E+04  0.10100000352E+00 0.  1.
</event>
<event>
 5   0  0.4598561E-03  0.1095573E+04  0.7818609E-02  0.9209518E-01
       -1   -1    0    0    0  501  0.00000000000E+00  0.00000000000E+00  0.21372679815E+03  0.21372679821E+03  0.50400001928E-02 0. -1.
        1   -1    0    0  501    0  0.00000000000E+00  0.00000000000E+00 -0.14039887611E+04  0.14039887611E+04  0.50400001928E-02 0.  1.
    10030    2    1    2    0    0  0.00000000000E+00  0.00000000000E+00 -0.11902619629E+04  0.16177155593E+04  0.10955729508E+04 0.  0.
        2    1    3    3  502    0 -0.48421438443E+03  0.12459826571E+03 -0.92557698190E+03  0.10519890909E+04  0.25500000920E-02 0.  1.
       -2    1    3    3    0  502  0.48421438443E+03 -0.12459826571E+03 -0.26468498105E+03  0.56572646845E+03  0.25500000920E-02 0. -1.
</event>
<event>
 5   0  0.4428114E-03  0.1097198E+04  0.7818609E-02  0.9207928E-01
       -1   -1    0    0    0  501  0.00000000000E+00  0.00000000000E+00  0.28241236040E+03  0.28241236044E+03  0.50400001928E-02 0. -1.
        1   -1    0    0  501    0  0.00000000000E+00  0.00000000000E+00 -0.10656781313E+04  0.10656781313E+04  0.50400001928E-02 0.  1.
    10030    2    1    2    0    0  0.00000000000E+00  0.00000000000E+00 -0.78326577089E+03  0.13480904917E+04  0.10971976604E+04 0.  0.
        4    1    3    3  502    0  0.40019776831E+03 -0.77900019514E+02  0.59360518962E+02  0.41200964905E+03  0.12699999809E+01 0. -1.
       -4    1    3    3    0  502 -0.40019776831E+03  0.77900019514E+02 -0.84262628985E+03  0.93608084269E+03  0.12699999809E+01 0.  1.
</event>
<event>
 5   0  0.4504740E-03  0.1110988E+04  0.7818609E-02  0.9194548E-01
       -1   -1    0    0    0  501  0.00000000000E+00  0.00000000000E+00  0.53072555283E+03  0.53072555285E+03  0.50400001928E-02 0.  1.
        1   -1    0    0  501    0  0.00000000000E+00  0.00000000000E+00 -0.58141874650E+03  0.58141874652E+03  0.50400001928E-02 0. -1.
    10030    2    1    2    0    0  0.00000000000E+00  0.00000000000E+00 -0.50693193668E+02  0.11121442994E+04  0.11109883630E+04 0.  0.
        5    1    3    3  502    0  0.34042569638E+03  0.25521187792E+03 -0.38283009754E+03  0.57236678011E+03  0.46999998093E+01 0. -1.
       -5    1    3    3    0  502 -0.34042569638E+03 -0.25521187792E+03  0.33213690388E+03  0.53977751926E+03  0.46999998093E+01 0.  1.
</event>
<event>
 5   0  0.7537480E-03  0.1102366E+04  0.7818609E-02  0.9202889E-01
       -2   -1    0    0    0  501  0.00000000000E+00  0.00000000000E+00  0.22699169844E+03  0.22699169845E+03  0.25500000920E-02 0. -1.
        2   -1    0    0  501    0  0.00000000000E+00  0.00000000000E+00 -0.13383859905E+04  0.13383859905E+04  0.25500000920E-02 0.  1.
    10030    2    1    2    0    0  0.00000000000E+00  0.00000000000E+00 -0.11113942921E+04  0.15653776890E+04  0.11023656547E+04 0.  0.
        1    1    3    3  502    0 -0.28900043602E+03 -0.39998100074E+03 -0.90438703939E+03  0.10302533523E+04  0.50400001928E-02 0.  1.
       -1    1    3    3    0  502  0.28900043602E+03  0.39998100074E+03 -0.20700725270E+03  0.53512433665E+03  0.50400001928E-02 0. -1.
</event>
<event>
 5   0  0.7766551E-03  0.1096020E+04  0.7818609E-02  0.9209079E-01
       -2   -1    0    0    0  501  0.00000000000E+00  0.00000000000E+00  0.42037231219E+03  0.42037231220E+03  0.25500000920E-02 0.  1.
        2   -1    0    0  501    0  0.00000000000E+00  0.00000000000E+00 -0.71440297325E+03  0.71440297326E+03  0.25500000920E-02 0. -1.
    10030    2    1    2    0    0  0.00000000000E+00  0.00000000000E+00 -0.29403066107E+03  0.11347752855E+04  0.10960204920E+04 0.  0.
        5    1    3    3  502    0  0.50122078912E+03 -0.66276706237E+02  0.71831021986E+02  0.51068255007E+03  0.46999998093E+01 0.  1.
       -5    1    3    3    0  502 -0.50122078912E+03  0.66276706237E+02 -0.36586168305E+03  0.62409273538E+03  0.46999998093E+01 0. -1.
</event>
<event>
 5   0  0.7738497E-03  0.1106175E+04  0.7818609E-02  0.9199194E-01
        2   -1    0    0  501    0  0.00000000000E+00  0.00000000000E+00  0.82076949151E+03  0.82076949152E+03  0.25500000920E-02 0. -1.
       -2   -1    0    0    0  501  0.00000000000E+00  0.00000000000E+00 -0.37270621766E+03  0.37270621767E+03  0.25500000920E-02 0.  1.
    10030    2    1    2    0    0  0.00000000000E+00  0.00000000000E+00  0.44806327385E+03  0.11934757092E+04  0.11061751991E+04 0.  0.
        4    1    3    3  502    0 -0.35382715220E+02  0.47455753017E+03  0.52814098359E+03  0.71090878277E+03  0.12699999809E+01 0. -1.
       -4    1    3    3    0  502  0.35382715220E+02 -0.47455753017E+03 -0.80077709734E+02  0.48256692642E+03  0.12699999809E+01 0.  1.
</event>
<event>
 5   0  0.4504740E-03  0.1074601E+04  0.7818609E-02  0.9230307E-01
       -1   -1    0    0    0  501  0.00000000000E+00  0.00000000000E+00  0.33314353841E+03  0.33314353845E+03  0.50400001928E-02 0.  1.
        1   -1    0    0  501    0  0.00000000000E+00  0.00000000000E+00 -0.86656945436E+03  0.86656945438E+03  0.50400001928E-02 0. -1.
    10030    2    1    2    0    0  0.00000000000E+00  0.00000000000E+00 -0.53342591595E+03  0.11997129928E+04  0.10746013481E+04 0.  0.
        5    1    3    3  502    0  0.67102823702E+02 -0.13093934537E+03 -0.84361692096E+03  0.85636411675E+03  0.46999998093E+01 0. -1.
       -5    1    3    3    0  502 -0.67102823702E+02  0.13093934537E+03  0.31019100501E+03  0.34334887608E+03  0.46999998093E+01 0.  1.
</event>
<event>
 5   0  0.4641021E-03  0.1241935E+04  0.7818609E-02  0.9076922E-01
        1   -1    0    0  501    0  0.00000000000E+00  0.00000000000E+00  0.68933401423E+03  0.68933401425E+03  0.50400001928E-02 0.  1.
       -1   -1    0    0    0  501  0.00000000000E+00  0.00000000000E+00 -0.55938173988E+03  0.55938173990E+03  0.50400001928E-02 0. -1.
    10030    2    1    2    0    0  0.00000000000E+00  0.00000000000E+00  0.12995227435E+03  0.12487157541E+04  0.12419353611E+04 0.  0.
        1    1    3    3  502    0 -0.19486790652E+03 -0.14398123623E+03 -0.50989421083E+03  0.56453184466E+03  0.50400001928E-02 0. -1.
       -1    1    3    3    0  502  0.19486790652E+03  0.14398123623E+03  0.63984648518E+03  0.68418390949E+03  0.50400001928E-02 0.  1.
</event>
<event>
 5   0  0.4598561E-03  0.1092008E+04  0.7818609E-02  0.9213017E-01
       -1   -1    0    0    0  501  0.00000000000E+00  0.00000000000E+00  0.22700996904E+03  0.22700996910E+03  0.50400001928E-02 0.  1.
        1   -1    0    0  501    0  0.00000000000E+00  0.00000000000E+00 -0.13132478444E+04  0.13132478444E+04  0.50400001928E-02 0. -1.
    10030    2    1    2    0    0  0.00000000000E+00  0.00000000000E+00 -0.10862378753E+04  0.15402578135E+04  0.10920079717E+04 0.  0.
        2    1    3    3  502    0 -0.13136091758E+03  0.52671228534E+03 -0.46040608739E+03  0.71179722359E+03  0.25500000920E-02 0.  1.
       -2    1    3    3    0  502  0.13136091758E+03 -0.52671228534E+03 -0.62583178795E+03  0.82846058990E+03  0.25500000920E-02 0. -1.
</event>
<event>
 5   0  0.4598561E-03  0.1122242E+04  0.7818609E-02  0.9183781E-01
       -1   -1    0    0    0  501  0.00000000000E+00  0.00000000000E+00  0.32182350768E+03  0.32182350772E+03  0.50400001928E-02 0. -1.
        1   -1    0    0  501    0  0.00000000000E+00  0.00000000000E+00 -0.97835150873E+03  0.97835150874E+03  0.50400001928E-02 0.  1.
    10030    2    1    2    0    0  0.00000000000E+00  0.00000000000E+00 -0.65652800104E+03  0.13001750165E+04  0.11222415325E+04 0.  0.
        2    1    3    3  502    0  0.34214867796E+03 -0.20095995361E+02 -0.84298832787E+03  0.90999938890E+03  0.25500000920E-02 0.  1.
       -2    1    3    3    0  502 -0.34214867796E+03  0.20095995361E+02  0.18646032682E+03  0.39017562757E+03  0.25500000920E-02 0. -1.
</event>
<event>
 5   0  0.4298101E-03  0.1060214E+04  0.7818609E-02  0.9244862E-01
       -1   -1    0    0    0  501  0.00000000000E+00  0.00000000000E+00  0.14147492245E+03  0.14147492254E+03  0.50400001928E-02 0. -1.
        1   -1    0    0  501    0  0.00000000000E+00  0.00000000000E+00 -0.19863134666E+04  0.19863134666E+04  0.50400001928E-02 0.  1.
    10030    2    1    2    0    0  0.00000000000E+00  0.00000000000E+00 -0.18448385441E+04  0.21277883891E+04  0.10602142118E+04 0.  0.
        3    1    3    3  502    0 -0.37414513679E+03 -0.37549942007E+03 -0.93325223928E+03  0.10732866114E+04  0.10100000352E+00 0.  1.
       -3    1    3    3    0  502  0.37414513679E+03  0.37549942007E+03 -0.91158630484E+03  0.10545017777E+04  0.10100000352E+00 0. -1.
</event>
<event>
 5   0  0.7537480E-03  0.1132255E+04  0.7818609E-02  0.9174312E-01
       -2   -1    0    0    0  501  0.00000000000E+00  0.00000000000E+00  0.56221502233E+03  0.56221502234E+03  0.25500000920E-02 0.  1.
        2   -1    0    0  501    0  0.00000000000E+00  0.00000000000E+00 -0.57006743998E+03  0.57006743999E+03  0.25500000920E-02 0. -1.
    10030    2    1    2    0    0  0.00000000000E+00  0.00000000000E+00 -0.78524176495E+01  0.11322824623E+04  0.11322552336E+04 0.  0.
        1    1    3    3  502    0  0.33555621243E+02 -0.53926302578E+03 -0.17295656679E+03  0.56731346249E+03  0.50400001928E-02 0. -1.
       -1    1    3    3    0  502 -0.33555621243E+02  0.53926302578E+03  0.16510414914E+03  0.56496899984E+03  0.50400001928E-02 0.  1.
</event>
<event>
 5   0  0.4598561E-03  0.1098174E+04  0.7818609E-02  0.9206974E-01
       -1   -1    0    0    0  501  0.00000000000E+00  0.00000000000E+00  0.61392943781E+03  0.61392943783E+03  0.50400001928E-02 0.  1.
        1   -1    0    0  501    0  0.00000000000E+00  0.00000000000E+00 -0.49109279769E+03  0.49109279772E+03  0.50400001928E-02 0. -1.
    10030    2    1    2    0    0  0.00000000000E+00  0.00000000000E+00  0.12283664011E+03  0.11050222355E+04  0.10981736206E+04 0.  0.
        2    1    3    3  502    0 -0.98144641320E+02  0.15178259098E+03  0.58313610846E+03  0.61050638534E+03  0.25500000920E-02 0.  1.
       -2    1    3    3    0  502  0.98144641320E+02 -0.15178259098E+03 -0.46029946834E+03  0.49451585021E+03  0.25500000920E-02 0. -1.
</event>
<event>
 5   0  0.4641021E-03  0.1103167E+04  0.7818609E-02  0.9202110E-01
       -1   -1    0    0    0  501  0.00000000000E+00  0.00000000000E+00  0.62208041288E+03  0.62208041290E+03  0.50400001928E-02 0. -1.
        1   -1    0    0  501    0  0.00000000000E+00  0.00000000000E+00 -0.48907585484E+03  0.48907585487E+03  0.50400001928E-02 0.  1.
    10030    2    1    2    0    0  0.00000000000E+00  0.00000000000E+00  0.13300455803E+03  0.11111562678E+04  0.11031672760E+04 0.  0.
        1    1    3    3  502    0  0.54280764457E+03  0.68766225328E+02 -0.38287186319E+01  0.54715956709E+03  0.50400001928E-02 0. -1.
       -1    1    3    3    0  502 -0.54280764457E+03 -0.68766225328E+02  0.13683327667E+03  0.56399670068E+03  0.50400001928E-02 0.  1.
</event>
<event>
 5   0  0.7738497E-03  0.1091671E+04  0.7818609E-02  0.9213349E-01
       -2   -1    0    0    0  501  0.00000000000E+00  0.00000000000E+00  0.14076838684E+03  0.14076838686E+03  0.25500000920E-02 0.  1.
        2   -1    0    0  501    0  0.00000000000E+00  0.00000000000E+00 -0.21164989294E+04  0.21164989294E+04  0.25500000920E-02 0. -1.
    10030    2    1    2    0    0  0.00000000000E+00  0.00000000000E+00 -0.19757305426E+04  0.22572673163E+04  0.10916705365E+04 0.  0.
        4    1    3    3  502    0 -0.48384426443E+03  0.17058832528E+03 -0.13731987843E+04  0.14659066011E+04  0.12699999809E+01 0. -1.
       -4    1    3    3    0  502  0.48384426443E+03 -0.17058832528E+03 -0.60253175825E+03  0.79136071519E+03  0.12699999809E+01 0.  1.
</event>
<event>
 5   0  0.4504740E-03  0.1091603E+04  0.7818609E-02  0.9213415E-01
        1   -1    0    0  501    0  0.00000000000E+00  0.00000000000E+00  0.53139361796E+03  0.53139361798E+03  0.50400001928E-02 0.  1.
       -1   -1    0    0    0  501  0.00000000000E+00  0.00000000000E+00 -0.56059970353E+03  0.56059970356E+03  0.50400001928E-02 0. -1.
    10030    2    1    2    0    0  0.00000000000E+00  0.00000000000E+00 -0.29206085576E+02  0.10919933215E+04  0.10916026836E+04 0.  0.
        5    1    3    3  502    0  0.44962396245E+03  0.30696093445E+03  0.24015070129E+02  0.54496379373E+03  0.46999998093E+01 0.  1.
       -5    1    3    3    0  502 -0.44962396245E+03 -0.30696093445E+03 -0.53221155706E+02  0.54702952781E+03  0.46999998093E+01 0. -1.
</event>
<event>
 5   0  0.4504740E-03  0.1054007E+04  0.7818609E-02  0.9251217E-01
       -1   -1    0    0    0  501  0.00000000000E+00  0.00000000000E+00  0.16450975075E+03  0.16450975082E+03  0.50400001928E-02 0. -1.
        1   -1    0    0  501    0  0.00000000000E+00  0.00000000000E+00 -0.16882440780E+04  0.16882440780E+04  0.50400001928E-02 0.  1.
    10030    2    1    2    0    0  0.00000000000E+00  0.00000000000E+00 -0.15237343272E+04  0.18527538288E+04  0.10540068549E+04 0.  0.
        5    1    3    3  502    0  0.14758937252E+03  0.88279428539E+02 -0.16374918242E+04  0.16465046142E+04  0.46999998093E+01 0.  1.
       -5    1    3    3    0  502 -0.14758937252E+03 -0.88279428539E+02  0.11375749699E+03  0.20624921455E+03  0.46999998093E+01 0. -1.
</event>
<event>
 5   0  0.4598561E-03  0.1102823E+04  0.7818609E-02  0.9202445E-01
        1   -1    0    0  501    0  0.00000000000E+00  0.00000000000E+00  0.96232450903E+03  0.96232450904E+03  0.50400001928E-02 0. -1.
       -1   -1    0    0    0  501  0.00000000000E+00  0.00000000000E+00 -0.31595864980E+03  0.31595864984E+03  0.50400001928E-02 0.  1.
    10030    2    1    2    0    0  0.00000000000E+00  0.00000000000E+00  0.64636585923E+03  0.12782831589E+04  0.11028231999E+04 0.  0.
        2    1    3    3  502    0 -0.50753357112E+03 -0.21217816840E+02  0.74545070478E+02  0.51341746085E+03  0.25500000920E-02 0.  1.
       -2    1    3    3    0  502  0.50753357112E+03  0.21217816840E+02  0.57182078875E+03  0.76486569803E+03  0.25500000920E-02 0. -1.
</event>
<event>
 5   0  0.7537480E-03  0.9358327E+03  0.7818609E-02  0.9381865E-01
       -2   -1    0    0    0  501  0.00000000000E+00  0.00000000000E+00  0.11197381677E+04  0.11197381677E+04  0.25500000920E-02 0.  1.
        2   -1    0    0  501    0  0.00000000000E+00  0.00000000000E+00 -0.19553294526E+03  0.19553294527E+03  0.25500000920E-02 0. -1.
    10030    2    1    2    0    0  0.00000000000E+00  0.00000000000E+00  0.92420522241E+03  0.13152711129E+04  0.93583268131E+03 0.  0.
        1    1    3    3  502    0 -0.15701211629E+03  0.15872966400E+03 -0.11584176393E+03  0.25152976999E+03  0.50400001928E-02 0. -1.
       -1    1    3    3    0  502  0.15701211629E+03 -0.15872966400E+03  0.10400469863E+04  0.10637413430E+04  0.50400001928E-02 0.  1.
</event>
<event>
 5   0  0.4598561E-03  0.1076110E+04  0.7818609E-02  0.9228795E-01
       -1   -1    0    0    0  501  0.00000000000E+00  0.00000000000E+00  0.10926026341E+04  0.10926026341E+04  0.50400001928E-02 0.  1.
        1   -1    0    0  501    0  0.00000000000E+00  0.00000000000E+00 -0.26496639842E+03  0.26496639847E+03  0.50400001928E-02 0. -1.
    10030    2    1    2    0    0  0.00000000000E+00  0.00000000000E+00  0.82763623571E+03  0.13575690326E+04  0.10761096318E+04 0.  0.
        2    1    3    3  502    0  0.24506814506E+03  0.47354939236E+03  0.32288508477E+03  0.62334757616E+03  0.25500000920E-02 0.  1.
       -2    1    3    3    0  502 -0.24506814506E+03 -0.47354939236E+03  0.50475115094E+03  0.73422145645E+03  0.25500000920E-02 0. -1.
</event>
<event>
 5   0  0.7537480E-03  0.1098779E+04  0.7818609E-02  0.9206383E-01
        2   -1    0    0  501    0  0.00000000000E+00  0.00000000000E+00  0.12374444096E+04  0.12374444096E+04  0.25500000920E-02 0.  1.
       -2   -1    0    0    0  501  0.00000000000E+00  0.00000000000E+00 -0.24391296398E+03  0.24391296399E+03  0.25500000920E-02 0. -1.
    10030    2    1    2    0    0  0.00000000000E+00  0.00000000000E+00  0.99353144562E+03  0.14813573736E+04  0.10987788380E+04 0.  0.
        1    1    3    3  502    0  0.16600524162E+03 -0.26050084384E+03 -0.11574718265E+03  0.32987246051E+03  0.50400001928E-02 0. -1.
       -1    1    3    3    0  502 -0.16600524162E+03  0.26050084384E+03  0.11092786283E+04  0.11514849131E+04  0.50400001928E-02 0.  1.
</event>
<event>
 5   0  0.7952121E-03  0.1223575E+04  0.7818609E-02  0.9092468E-01
        2   -1    0    0  501    0  0.00000000000E+00  0.00000000000E+00  0.11292908746E+04  0.11292908746E+04  0.25500000920E-02 0. -1.
       -2   -1    0    0    0  501  0.00000000000E+00  0.00000000000E+00 -0.33143290437E+03  0.33143290438E+03  0.25500000920E-02 0.  1.
    10030    2    1    2    0    0  0.00000000000E+00  0.00000000000E+00  0.79785797018E+03  0.14607237789E+04  0.12235753421E+04 0.  0.
        3    1    3    3  502    0  0.35769950510E+03 -0.29784208210E+03 -0.75040464211E+02  0.47147632315E+03  0.10100000352E+00 0.  1.
       -3    1    3    3    0  502 -0.35769950510E+03  0.29784208210E+03  0.87289843439E+03  0.98924745579E+03  0.10100000352E+00 0. -1.
</event>
<event>
 5   0  0.7952121E-03  0.1124293E+04  0.7818609E-02  0.9181833E-01
        2   -1    0    0  501    0  0.00000000000E+00  0.00000000000E+00  0.43588893222E+03  0.43588893222E+03  0.25500000920E-02 0.  1.
       -2   -1    0    0    0  501  0.00000000000E+00  0.00000000000E+00 -0.72497483967E+03  0.72497483967E+03  0.25500000920E-02 0. -1.
    10030    2    1    2    0    0  0.00000000000E+00  0.00000000000E+00 -0.28908590745E+03  0.11608637719E+04  0.11242926821E+04 0.  0.
        3    1    3    3  502    0 -0.20365464456E+03 -0.40455894913E+03 -0.48833812505E+03  0.66604601353E+03  0.10100000352E+00 0. -1.
       -3    1    3    3    0  502  0.20365464456E+03  0.40455894913E+03  0.19925221760E+03  0.49481775836E+03  0.10100000352E+00 0.  1.
</event>
<event>
 5   0  0.4641021E-03  0.1095524E+04  0.7818609E-02  0.9209566E-01
        1   -1    0    0  501    0  0.00000000000E+00  0.00000000000E+00  0.12696579304E+04  0.12696579304E+04  0.50400001928E-02 0. -1.
       -1   -1    0    0    0  501  0.00000000000E+00  0.00000000000E+00 -0.23631805468E+03  0.23631805474E+03  0.50400001928E-02 0.  1.
    10030    2    1    2    0    0  0.00000000000E+00  0.00000000000E+00  0.10333398757E+04  0.15059759851E+04  0.10955237875E+04 0.  0.
        1    1    3    3  502    0  0.38280786975E+03 -0.12908611420E+03  0.10251800539E+04  0.11019070891E+04  0.50400001928E-02 0. -1.
       -1    1    3    3    0  502 -0.38280786975E+03  0.12908611420E+03  0.81598217686E+01  0.40406889602E+03  0.50400001928E-02 0.  1.
</event>
<event>
 5   0  0.4504740E-03  0.1086032E+04  0.7818609E-02  0.9218914E-01
        1   -1    0    0  501    0  0.00000000000E+00  0.00000000000E+00  0.75272835412E+03  0.75272835414E+03  0.50400001928E-02 0. -1.
       -1   -1    0    0    0  501  0.00000000000E+00  0.00000000000E+00 -0.39173026570E+03  0.39173026574E+03  0.50400001928E-02 0.  1.
    10030    2    1    2    0    0  0.00000000000E+00  0.00000000000E+00  0.36099808842E+03  0.11444586199E+04  0.10860321877E+04 0.  0.
        5    1    3    3  502    0 -0.15777483154E+03 -0.51181680207E+03  0.27472445501E+03  0.60195095525E+03  0.46999998093E+01 0.  1.
       -5    1    3    3    0  502  0.15777483154E+03  0.51181680207E+03  0.86273633411E+02  0.54250766462E+03  0.46999998093E+01 0. -1.
</event>
<event>
 5   0  0.7952121E-03  0.1088890E+04  0.7818609E-02  0.9216088E-01
        2   -1    0    0  501    0  0.00000000000E+00  0.00000000000E+00  0.10234111229E+04  0.10234111229E+04  0.25500000920E-02 0. -1.
       -2   -1    0    0    0  501  0.00000000000E+00  0.00000000000E+00 -0.28963962572E+03  0.28963962573E+03  0.25500000920E-02 0.  1.
    10030    2    1    2    0    0  0.00000000000E+00  0.00000000000E+00  0.73377149718E+03  0.13130507486E+04  0.10888901039E+04 0.  0.
        3    1    3    3  502    0  0.11881377148E+03 -0.19375305861E+03  0.96346856330E+03  0.98991345211E+03  0.10100000352E+00 0. -1.
       -3    1    3    3    0  502 -0.11881377148E+03  0.19375305861E+03 -0.22969706612E+03  0.32313729651E+03  0.10100000352E+00 0.  1.
</event>
<event>
 5   0  0.4504740E-03  0.1085181E+04  0.7818609E-02  0.9219757E-01
        1   -1    0    0  501    0  0.00000000000E+00  0.00000000000E+00  0.61733239241E+03  0.61733239243E+03  0.50400001928E-02 0. -1.
       -1   -1    0    0    0  501  0.00000000000E+00  0.00000000000E+00 -0.47689797784E+03  0.47689797787E+03  0.50400001928E-02 0.  1.
    10030    2    1    2    0    0  0.00000000000E+00  0.00000000000E+00  0.14043441457E+03  0.10942303703E+04  0.10851812192E+04 0.  0.
        5    1    3    3  502    0  0.50432419831E+03 -0.15716446898E+03 -0.54665923492E+02  0.53108758270E+03  0.46999998093E+01 0.  1.
       -5    1    3    3    0  502 -0.50432419831E+03  0.15716446898E+03  0.19510033807E+03  0.56314278760E+03  0.46999998093E+01 0. -1.
</event>
<event>
 5   0  0.7712816E-03  0.1089095E+04  0.7818609E-02  0.9215886E-01
       -2   -1    0    0    0  501  0.00000000000E+00  0.00000000000E+00  0.21639691384E+03  0.21639691386E+03  0.25500000920E-02 0. -1.
        2   -1    0    0  501    0  0.00000000000E+00  0.00000000000E+00 -0.13703146388E+04  0.13703146388E+04  0.25500000920E-02 0.  1.
    10030    2    1    2    0    0  0.00000000000E+00  0.00000000000E+00 -0.11539177249E+04  0.15867115526E+04  0.10890947779E+04 0.  0.
        2    1    3    3  502    0 -0.17124185337E+03 -0.26892108547E+03  0.66212307852E+02  0.32561694101E+03  0.25500000920E-02 0. -1.
       -2    1    3    3    0  502  0.17124185337E+03  0.26892108547E+03 -0.12201300328E+04  0.12610946116E+04  0.25500000920E-02 0.  1.
</event>
<event>
 5   0  0.4641021E-03  0.1138001E+04  0.7818609E-02  0.9168925E-01
       -1   -1    0    0    0  501  0.00000000000E+00  0.00000000000E+00  0.58201340926E+03  0.58201340928E+03  0.50400001928E-02 0.  1.
        1   -1    0    0  501    0  0.00000000000E+00  0.00000000000E+00 -0.55627866485E+03  0.55627866487E+03  0.50400001928E-02 0. -1.
    10030    2    1    2    0    0  0.00000000000E+00  0.00000000000E+00  0.25734744410E+02  0.11382920742E+04  0.11380011287E+04 0.  0.
        1    1    3    3  502    0 -0.28039680996E+03 -0.20127227430E+03  0.46534211005E+03  0.57937568024E+03  0.50400001928E-02 0.  1.
       -1    1    3    3    0  502  0.28039680996E+03  0.20127227430E+03 -0.43960736564E+03  0.55891639392E+03  0.50400001928E-02 0. -1.
</event>
<event>
 5   0  0.4641021E-03  0.1124313E+04  0.7818609E-02  0.9181813E-01
        1   -1    0    0  501    0  0.00000000000E+00  0.00000000000E+00  0.51396518648E+03  0.51396518651E+03  0.50400001928E-02 0.  1.
       -1   -1    0    0    0  501  0.00000000000E+00  0.00000000000E+00 -0.61486666734E+03  0.61486666736E+03  0.50400001928E-02 0. -1.
    10030    2    1    2    0    0  0.00000000000E+00  0.00000000000E+00 -0.10090148086E+03  0.11288318539E+04  0.11243132328E+04 0.  0.
        1    1    3    3  502    0  0.14679701539E+03  0.42517304892E+03  0.28809663143E+03  0.53415461650E+03  0.50400001928E-02 0.  1.
       -1    1    3    3    0  502 -0.14679701539E+03 -0.42517304892E+03 -0.38899811229E+03  0.59467723737E+03  0.50400001928E-02 0. -1.
</event>
<event>
 5   0  0.4598561E-03  0.1087987E+04  0.7818609E-02  0.9216980E-01
        1   -1    0    0  501    0  0.00000000000E+00  0.00000000000E+00  0.13795519057E+04  0.13795519057E+04  0.50400001928E-02 0.  1.
       -1   -1    0    0    0  501  0.00000000000E+00  0.00000000000E+00 -0.21451099745E+03  0.21451099751E+03  0.50400001928E-02 0. -1.
    10030    2    1    2    0    0  0.00000000000E+00  0.00000000000E+00  0.11650409083E+04  0.15940629032E+04  0.10879872341E+04 0.  0.
        2    1    3    3  502    0  0.52065950059E+03  0.86237752138E+02  0.77581897215E+03  0.93830610304E+03  0.25500000920E-02 0.  1.
       -2    1    3    3    0  502 -0.52065950059E+03 -0.86237752138E+02  0.38922193613E+03  0.65575680021E+03  0.25500000920E-02 0. -1.
</event>
<event>
 5   0  0.7738497E-03  0.1101877E+04  0.7818609E-02  0.9203365E-01
        2   -1    0    0  501    0  0.00000000000E+00  0.00000000000E+00  0.65402438516E+03  0.65402438517E+03  0.25500000920E-02 0. -1.
       -2   -1    0    0    0  501  0.00000000000E+00  0.00000000000E+00 -0.46410057841E+03  0.46410057841E+03  0.25500000920E-02 0.  1.
    10030    2    1    2    0    0  0.00000000000E+00  0.00000000000E+00  0.18992380676E+03  0.11181249636E+04  0.11018767544E+04 0.  0.
        4    1    3    3  502    0 -0.34553600064E+03  0.29444809326E+03 -0.22178950222E+03  0.50525934287E+03  0.12699999809E+01 0.  1.
       -4    1    3    3    0  502  0.34553600064E+03 -0.29444809326E+03  0.41171330898E+03  0.61286562071E+03  0.12699999809E+01 0. -1.
</event>
<event>
 5   0  0.4298101E-03  0.1111754E+04  0.7818609E-02  0.9193810E-01
       -1   -1    0    0    0  501  0.00000000000E+00  0.00000000000E+00  0.93298250803E+03  0.93298250804E+03  0.50400001928E-02 0. -1.
        1   -1    0    0  501    0  0.00000000000E+00  0.00000000000E+00 -0.33119535463E+03  0.33119535467E+03  0.50400001928E-02 0.  1.
    10030    2    1    2    0    0  0.00000000000E+00  0.00000000000E+00  0.60178715340E+03  0.12641778627E+04  0.11117544201E+04 0.  0.
        3    1    3    3  502    0 -0.30844144829E+03 -0.38607397827E+03  0.11411913073E+02  0.49428684555E+03  0.10100000352E+00 0.  1.
       -3    1    3    3    0  502  0.30844144829E+03  0.38607397827E+03  0.59037524033E+03  0.76989101717E+03  0.10100000352E+00 0. -1.
</event>
<event>
 5   0  0.4504740E-03  0.1049800E+04  0.7818609E-02  0.9255551E-01
       -1   -1    0    0    0  501  0.00000000000E+00  0.00000000000E+00  0.56183837245E+03  0.56183837247E+03  0.50400001928E-02 0.  1.
        1   -1    0    0  501    0  0.00000000000E+00  0.00000000000E+00 -0.49039019739E+03  0.49039019741E+03  0.50400001928E-02 0. -1.
    10030    2    1    2    0    0  0.00000000000E+00  0.00000000000E+00  0.71448175061E+02  0.10522285699E+04  0.10498000388E+04 0.  0.
        5    1    3    3  502    0 -0.51054301574E+03 -0.10590898226E+03  0.96088460312E+02  0.53021313228E+03  0.46999998093E+01 0.  1.
       -5    1    3    3    0  502  0.51054301574E+03  0.10590898226E+03 -0.24640285251E+02  0.52201543760E+03  0.46999998093E+01 0. -1.
</event>
<event>
 5   0  0.4428114E-03  0.1109895E+04  0.7818609E-02  0.9195601E-01
        1   -1    0    0  501    0  0.00000000000E+00  0.00000000000E+00  0.19614658128E+04  0.19614658128E+04  0.50400001928E-02 0.  1.
       -1   -1    0    0    0  501  0.00000000000E+00  0.00000000000E+00 -0.15700854768E+03  0.15700854776E+03  0.50400001928E-02 0. -1.
    10030    2    1    2    0    0  0.00000000000E+00  0.00000000000E+00  0.18044572651E+04  0.21184743606E+04  0.11098953080E+04 0.  0.
        4    1    3    3  502    0  0.26065618868E+03  0.33855045579E+03  0.15781598078E+04  0.16349764682E+04  0.12699999809E+01 0.  1.
       -4    1    3    3    0  502 -0.26065618868E+03 -0.33855045579E+03  0.22629745734E+03  0.48349789236E+03  0.12699999809E+01 0. -1.
</event>
<event>
 5   0  0.7712816E-03  0.1168802E+04  0.7818609E-02  0.9140611E-01
       -2   -1    0    0    0  501  0.00000000000E+00  0.00000000000E+00  0.40204479759E+03  0.40204479760E+03  0.25500000920E-02 0.  1.
        2   -1    0    0  501    0  0.00000000000E+00  0.00000000000E+00 -0.84946935913E+03  0.84946935914E+03  0.25500000920E-02 0. -1.
    10030    2    1    2    0    0  0.00000000000E+00  0.00000000000E+00 -0.44742456155E+03  0.12515141567E+04  0.11688023555E+04 0.  0.
        2    1    3    3  502    0 -0.49135999424E+03  0.11762778194E+03  0.90761035768E+02  0.51333079456E+03  0.25500000920E-02 0.  1.
       -2    1    3    3    0  502  0.49135999424E+03 -0.11762778194E+03 -0.53818559731E+03  0.73818336217E+03  0.25500000920E-02 0. -1.
</event>
<event>
 5   0  0.2992375E-03  0.1077864E+04  0.7818609E-02  0.9227040E-01
        3   -1    0    0  501    0  0.00000000000E+00  0.00000000000E+00  0.50059435436E+03  0.50059436455E+03  0.10100000352E+00 0.  1.
       -3   -1    0    0    0  501  0.00000000000E+00  0.00000000000E+00 -0.58020528284E+03  0.58020529163E+03  0.10100000352E+00 0. -1.
    10030    2    1    2    0    0  0.00000000000E+00  0.00000000000E+00 -0.79610928471E+02  0.10807996562E+04  0.10778636263E+04 0.  0.
        3    1    3    3  502    0  0.18973498720E+03  0.49584254839E+03  0.53120002981E+02  0.53355500474E+03  0.10100000352E+00 0.  1.
       -3    1    3    3    0  502 -0.18973498720E+03 -0.49584254839E+03 -0.13273093145E+03  0.54724465144E+03  0.10100000352E+00 0. -1.
</event>
<event>
 5   0  0.7738497E-03  0.1103258E+04  0.7818609E-02  0.9202022E-01
        2   -1    0    0  501    0  0.00000000000E+00  0.00000000000E+00  0.28464089710E+03  0.28464089711E+03  0.25500000920E-02 0. -1.
       -2   -1    0    0    0  501  0.00000000000E+00  0.00000000000E+00 -0.10690470486E+04  0.10690470486E+04  0.25500000920E-02 0.  1.
    10030    2    1    2    0    0  0.00000000000E+00  0.00000000000E+00 -0.78440615145E+03  0.13536879457E+04  0.11032579226E+04 0.  0.
        4    1    3    3  502    0 -0.43035016284E+03  0.31801549278E+03 -0.55662807601E+03  0.77212145690E+03  0.12699999809E+01 0.  1.
       -4    1    3    3    0  502  0.43035016284E+03 -0.31801549278E+03 -0.22777807544E+03  0.58156648876E+03  0.12699999809E+01 0. -1.
</event>
<event>
 5   0  0.7738497E-03  0.1072801E+04  0.7818609E-02  0.9232115E-01
        2   -1    0    0  501    0  0.00000000000E+00  0.00000000000E+00  0.67573591672E+03  0.67573591672E+03  0.25500000920E-02 0.  1.
       -2   -1    0    0    0  501  0.00000000000E+00  0.00000000000E+00 -0.42579596891E+03  0.42579596891E+03  0.25500000920E-02 0. -1.
    10030    2    1    2    0    0  0.00000000000E+00  0.00000000000E+00  0.24993994781E+03  0.11015318856E+04  0.10728012479E+04 0.  0.
        4    1    3    3  502    0  0.39917299234E+03 -0.24507378790E+03  0.39335837112E+03  0.61166384588E+03  0.12699999809E+01 0.  1.
       -4    1    3    3    0  502 -0.39917299234E+03  0.24507378790E+03 -0.14341842331E+03  0.48986803975E+03  0.12699999809E+01 0. -1.
</event>
<event>
 5   0  0.4428114E-03  0.9573474E+03  0.7818609E-02  0.9356604E-01
       -1   -1    0    0    0  501  0.00000000000E+00  0.00000000000E+00  0.45890020110E+03  0.45890020112E+03  0.50400001928E-02 0.  1.
        1   -1    0    0  501    0  0.00000000000E+00  0.00000000000E+00 -0.49929925879E+03  0.49929925882E+03  0.50400001928E-02 0. -1.
    10030    2    1    2    0    0  0.00000000000E+00  0.00000000000E+00 -0.40399057695E+02  0.95819945994E+03  0.95734744015E+03 0.  0.
        4    1    3    3  502    0 -0.47775578923E+03 -0.29543366416E+02 -0.22075429324E+02  0.47917882061E+03  0.12699999809E+01 0.  1.
       -4    1    3    3    0  502  0.47775578923E+03  0.29543366416E+02 -0.18323628371E+02  0.47902063933E+03  0.12699999809E+01 0. -1.
</event>
<event>
 5   0  0.7712816E-03  0.1101348E+04  0.7818609E-02  0.9203879E-01
        2   -1    0    0  501    0  0.00000000000E+00  0.00000000000E+00  0.11020315941E+04  0.11020315941E+04  0.25500000920E-02 0.  1.
       -2   -1    0    0    0  501  0.00000000000E+00  0.00000000000E+00 -0.27516637144E+03  0.27516637145E+03  0.25500000920E-02 0. -1.
    10030    2    1    2    0    0  0.00000000000E+00  0.00000000000E+00  0.82686522270E+03  0.13771979656E+04  0.11013483281E+04 0.  0.
        2    1    3    3  502    0 -0.11289515170E+03 -0.46809594009E+03  0.79338514924E+02  0.48800996339E+03  0.25500000920E-02 0. -1.
       -2    1    3    3    0  502  0.11289515170E+03  0.46809594009E+03  0.74752670778E+03  0.88918800220E+03  0.25500000920E-02 0.  1.
</event>
<event>
 5   0  0.7738497E-03  0.1099723E+04  0.7818609E-02  0.9205462E-01
        2   -1    0    0  501    0  0.00000000000E+00  0.00000000000E+00  0.90708890553E+03  0.90708890553E+03  0.25500000920E-02 0.  1.
       -2   -1    0    0    0  501  0.00000000000E+00  0.00000000000E+00 -0.33331669544E+03  0.33331669545E+03  0.25500000920E-02 0. -1.
    10030    2    1    2    0    0  0.00000000000E+00  0.00000000000E+00  0.57377221008E+03  0.12404056010E+04  0.10997233770E+04 0.  0.
        4    1    3    3  502    0 -0.27241039399E+03 -0.46356418946E+03  0.41670574232E+03  0.68025323894E+03  0.12699999809E+01 0.  1.
       -4    1    3    3    0  502  0.27241039399E+03  0.46356418946E+03  0.15706646776E+03  0.56015236204E+03  0.12699999809E+01 0. -1.
</event>
<event>
 5   0  0.7766551E-03  0.1118546E+04  0.7818609E-02  0.9187302E-01
       -2   -1    0    0    0  501  0.00000000000E+00  0.00000000000E+00  0.61456693748E+03  0.61456693748E+03  0.25500000920E-02 0. -1.
        2   -1    0    0  501    0  0.00000000000E+00  0.00000000000E+00 -0.50895431417E+03  0.50895431417E+03  0.25500000920E-02 0.  1.
    10030    2    1    2    0    0  0.00000000000E+00  0.00000000000E+00  0.10561262331E+03  0.11235212517E+04  0.11185463677E+04 0.  0.
        5    1    3    3  502    0  0.42257370274E+03  0.34960230003E+03 -0.57106614954E+02  0.55142865169E+03  0.46999998093E+01 0.  1.
       -5    1    3    3    0  502 -0.42257370274E+03 -0.34960230003E+03  0.16271923827E+03  0.57209259997E+03  0.46999998093E+01 0. -1.
</event>
<event>
 5   0  0.2992375E-03  0.1078691E+04  0.7818609E-02  0.9226213E-01
        4   -1    0    0  501    0  0.00000000000E+00  0.00000000000E+00  0.63048677312E+03  0.63048805221E+03  0.12699999809E+01 0. -1.
       -4   -1    0    0    0  501  0.00000000000E+00  0.00000000000E+00 -0.46137695823E+03  0.46137870615E+03  0.12699999809E+01 0.  1.
    10030    2    1    2    0    0  0.00000000000E+00  0.00000000000E+00  0.16910981489E+03  0.10918667584E+04  0.10786912851E+04 0.  0.
        4    1    3    3  502    0 -0.56838241538E+02 -0.22741920856E+03  0.57622651210E+03  0.62208414887E+03  0.12699999809E+01 0. -1.
       -4    1    3    3    0  502  0.56838241538E+02  0.22741920856E+03 -0.40711669721E+03  0.46978260949E+03  0.12699999809E+01 0.  1.
</event>
<event>
 5   0  0.7766551E-03  0.1130478E+04  0.7818609E-02  0.9175985E-01
        2   -1    0    0  501    0  0.00000000000E+00  0.00000000000E+00  0.14947667325E+04  0.14947667325E+04  0.25500000920E-02 0.  1.
       -2   -1    0    0    0  501  0.00000000000E+00  0.00000000000E+00 -0.21374255862E+03  0.21374255863E+03  0.25500000920E-02 0. -1.
    10030    2    1    2    0    0  0.00000000000E+00  0.00000000000E+00  0.12810241738E+04  0.17085092911E+04  0.11304782456E+04 0.  0.
        5    1    3    3  502    0 -0.19598490832E+02 -0.13602791173E+03  0.14691010347E+04  0.14755228340E+04  0.46999998093E+01 0.  1.
       -5    1    3    3    0  502  0.19598490832E+02  0.13602791173E+03 -0.18807686082E+03  0.23298645709E+03  0.46999998093E+01 0. -1.
</event>
<event>
 5   0  0.4504740E-03  0.1096903E+04  0.7818609E-02  0.9208216E-01
        1   -1    0    0  501    0  0.00000000000E+00  0.00000000000E+00  0.77060583015E+03  0.77060583017E+03  0.50400001928E-02 0.  1.
       -1   -1    0    0    0  501  0.00000000000E+00  0.00000000000E+00 -0.39034088002E+03  0.39034088005E+03  0.50400001928E-02 0. -1.
    10030    2    1    2    0    0  0.00000000000E+00  0.00000000000E+00  0.38026495013E+03  0.11609467102E+04  0.10969028360E+04 0.  0.
        5    1    3    3  502    0  0.39379700841E+03  0.20592902558E+02 -0.21327332077E+03  0.44833887944E+03  0.46999998093E+01 0. -1.
       -5    1    3    3    0  502 -0.39379700841E+03 -0.20592902558E+02  0.59353827090E+03  0.71260783078E+03  0.46999998093E+01 0.  1.
</event>
<event>
 5   0  0.4598561E-03  0.1111869E+04  0.7818609E-02  0.9193700E-01
        1   -1    0    0  501    0  0.00000000000E+00  0.00000000000E+00  0.10881949462E+04  0.10881949462E+04  0.50400001928E-02 0.  1.
       -1   -1    0    0    0  501  0.00000000000E+00  0.00000000000E+00 -0.28401452686E+03  0.28401452690E+03  0.50400001928E-02 0. -1.
    10030    2    1    2    0    0  0.00000000000E+00  0.00000000000E+00  0.80418041932E+03  0.13722094731E+04  0.11118690081E+04 0.  0.
        2    1    3    3  502    0 -0.18164688718E+02  0.47254284046E+03  0.76282536110E+03  0.89751279853E+03  0.25500000920E-02 0.  1.
       -2    1    3    3    0  502  0.18164688718E+02 -0.47254284046E+03  0.41355058221E+02  0.47469667456E+03  0.25500000920E-02 0. -1.
</event>
<event>
 5   0  0.7537480E-03  0.1084418E+04  0.7818609E-02  0.9220514E-01
       -2   -1    0    0    0  501  0.00000000000E+00  0.00000000000E+00  0.27825830331E+03  0.27825830332E+03  0.25500000920E-02 0. -1.
        2   -1    0    0  501    0  0.00000000000E+00  0.00000000000E+00 -0.10565382920E+04  0.10565382920E+04  0.25500000920E-02 0.  1.
    10030    2    1    2    0    0  0.00000000000E+00  0.00000000000E+00 -0.77827998869E+03  0.13347965953E+04  0.10844179130E+04 0.  0.
        1    1    3    3  502    0  0.62659073217E+02  0.15867628181E+03 -0.10226421529E+04  0.10367744667E+04  0.50400001928E-02 0.  1.
       -1    1    3    3    0  502 -0.62659073217E+02 -0.15867628181E+03  0.24436216418E+03  0.29802212866E+03  0.50400001928E-02 0. -1.
</event>
<event>
 5   0  0.4428114E-03  0.1126260E+04  0.7818609E-02  0.9179968E-01
       -1   -1    0    0    0  501  0.00000000000E+00  0.00000000000E+00  0.28832627195E+03  0.28832627199E+03  0.50400001928E-02 0. -1.
        1   -1    0    0  501    0  0.00000000000E+00  0.00000000000E+00 -0.10998490799E+04  0.10998490799E+04  0.50400001928E-02 0.  1.
    10030    2    1    2    0    0  0.00000000000E+00  0.00000000000E+00 -0.81152280796E+03  0.13881753519E+04  0.11262599788E+04 0.  0.
        4    1    3    3  502    0  0.31814843280E+03  0.36988071053E+03 -0.59145160715E+02  0.49145694445E+03  0.12699999809E+01 0. -1.
       -4    1    3    3    0  502 -0.31814843280E+03 -0.36988071053E+03 -0.75237764724E+03  0.89671840746E+03  0.12699999809E+01 0.  1.
</event>
<event>
 5   0  0.7952121E-03  0.1102868E+04  0.7818609E-02  0.9202401E-01
       -2   -1    0    0    0  501  0.00000000000E+00  0.00000000000E+00  0.35081113153E+03  0.35081113154E+03  0.25500000920E-02 0. -1.
        2   -1    0    0  501    0  0.00000000000E+00  0.00000000000E+00 -0.86678920679E+03  0.86678920679E+03  0.25500000920E-02 0.  1.
    10030    2    1    2    0    0  0.00000000000E+00  0.00000000000E+00 -0.51597807526E+03  0.12176003383E+04  0.11028677209E+04 0.  0.
        3    1    3    3  502    0 -0.23482514935E+03 -0.45054401915E+03 -0.21338396645E+02  0.50851558612E+03  0.10100000352E+00 0. -1.
       -3    1    3    3    0  502  0.23482514935E+03  0.45054401915E+03 -0.49463967861E+03  0.70908475221E+03  0.10100000352E+00 0.  1.
</event>
<event>
 5   0  0.4504740E-03  0.1131435E+04  0.7818609E-02  0.9175083E-01
        1   -1    0    0  501    0  0.00000000000E+00  0.00000000000E+00  0.39685990772E+03  0.39685990775E+03  0.50400001928E-02 0.  1.
       -1   -1    0    0    0  501  0.00000000000E+00  0.00000000000E+00 -0.80642126300E+03  0.80642126301E+03  0.50400001928E-02 0. -1.
    10030    2    1    2    0    0  0.00000000000E+00  0.00000000000E+00 -0.40956135527E+03  0.12032811708E+04  0.11314349615E+04 0.  0.
        5    1    3    3  502    0 -0.20687118825E+03 -0.45873732273E+02 -0.76260050032E+03  0.79150597024E+03  0.46999998093E+01 0. -1.
       -5    1    3    3    0  502  0.20687118825E+03  0.45873732273E+02  0.35303914504E+03  0.41177520053E+03  0.46999998093E+01 0.  1.
</event>
<event>
 5   0  0.4298101E-03  0.1100259E+04  0.7818609E-02  0.9204939E-01
        1   -1    0    0  501    0  0.00000000000E+00  0.00000000000E+00  0.16052233289E+04  0.16052233289E+04  0.50400001928E-02 0.  1.
       -1   -1    0    0    0  501  0.00000000000E+00  0.00000000000E+00 -0.18853612315E+03  0.18853612322E+03  0.50400001928E-02 0. -1.
    10030    2    1    2    0    0  0.00000000000E+00  0.00000000000E+00  0.14166872058E+04  0.17937594521E+04  0.11002592118E+04 0.  0.
        3    1    3    3  502    0 -0.41588933348E+03 -0.31407763942E+03  0.99554541131E+03  0.11237078702E+04  0.10100000352E+00 0. -1.
       -3    1    3    3    0  502  0.41588933348E+03  0.31407763942E+03  0.42114179444E+03  0.67005158198E+03  0.10100000352E+00 0.  1.
</event>
<event>
 5   0  0.2992375E-03  0.1088023E+04  0.7818609E-02  0.9216944E-01
        3   -1    0    0  501    0  0.00000000000E+00  0.00000000000E+00  0.96069765762E+03  0.96069766292E+03  0.10100000352E+00 0. -1.
       -3   -1    0    0    0  501  0.00000000000E+00  0.00000000000E+00 -0.30805597380E+03  0.30805599036E+03  0.10100000352E+00 0.  1.
    10030    2    1    2    0    0  0.00000000000E+00  0.00000000000E+00  0.65264168381E+03  0.12687536533E+04  0.10880232834E+04 0.  0.
        2    1    3    3  502    0  0.26448948036E+03 -0.13315186105E+03  0.85848645238E+03  0.90812063750E+03  0.25500000920E-02 0. -1.
       -2    1    3    3    0  502 -0.26448948036E+03  0.13315186105E+03 -0.20584476856E+03  0.36063301579E+03  0.25500000920E-02 0.  1.
</event>
<event>
 5   0  0.7712816E-03  0.9768900E+03  0.7818609E-02  0.9334261E-01
        2   -1    0    0  501    0  0.00000000000E+00  0.00000000000E+00  0.13856402255E+04  0.13856402255E+04  0.25500000920E-02 0. -1.
       -2   -1    0    0    0  501  0.00000000000E+00  0.00000000000E+00 -0.17217926938E+03  0.17217926940E+03  0.25500000920E-02 0.  1.
    10030    2    1    2    0    0  0.00000000000E+00  0.00000000000E+00  0.12134609561E+04  0.15578194949E+04  0.97689000743E+03 0.  0.
        2    1    3    3  502    0  0.47082996851E+03  0.67701415546E+02  0.78369011917E+03  0.91675217142E+03  0.25500000920E-02 0. -1.
       -2    1    3    3    0  502 -0.47082996851E+03 -0.67701415546E+02  0.42977083691E+03  0.64106732344E+03  0.25500000920E-02 0.  1.
</event>
<event>
 5   0  0.7766551E-03  0.1113436E+04  0.7818609E-02  0.9192194E-01
       -2   -1    0    0    0  501  0.00000000000E+00  0.00000000000E+00  0.44794733964E+03  0.44794733964E+03  0.25500000920E-02 0. -1.
        2   -1    0    0  501    0  0.00000000000E+00  0.00000000000E+00 -0.69190058741E+03  0.69190058741E+03  0.25500000920E-02 0.  1.
    10030    2    1    2    0    0  0.00000000000E+00  0.00000000000E+00 -0.24395324777E+03  0.11398479271E+04  0.11134361723E+04 0.  0.
        5    1    3    3  502    0 -0.52656119643E+03  0.16160102678E+03 -0.20471045442E+03  0.58763087528E+03  0.46999998093E+01 0.  1.
       -5    1    3    3    0  502  0.52656119643E+03 -0.16160102678E+03 -0.39242793354E+02  0.55221705177E+03  0.46999998093E+01 0. -1.
</event>
<event>
 5   0  0.4428114E-03  0.1096774E+04  0.7818609E-02  0.9208342E-01
       -1   -1    0    0    0  501  0.00000000000E+00  0.00000000000E+00  0.18976466809E+03  0.18976466816E+03  0.50400001928E-02 0.  1.
        1   -1    0    0  501    0  0.00000000000E+00  0.00000000000E+00 -0.15847426876E+04  0.15847426877E+04  0.50400001928E-02 0. -1.
    10030    2    1    2    0    0  0.00000000000E+00  0.00000000000E+00 -0.13949780196E+04  0.17745073558E+04  0.10967737601E+04 0.  0.
        4    1    3    3  502    0  0.16238131229E+01 -0.36405710579E+03 -0.33965801788E+02  0.36564395474E+03  0.12699999809E+01 0.  1.
       -4    1    3    3    0  502 -0.16238131229E+01  0.36405710579E+03 -0.13610122178E+04  0.14088634011E+04  0.12699999809E+01 0. -1.
</event>
<event>
 5   0  0.7738497E-03  0.1082972E+04  0.7818609E-02  0.9221949E-01
        2   -1    0    0  501    0  0.00000000000E+00  0.00000000000E+00  0.21464130142E+04  0.21464130142E+04  0.25500000920E-02 0. -1.
       -2   -1    0    0    0  501  0.00000000000E+00  0.00000000000E+00 -0.13660326371E+03  0.13660326373E+03  0.25500000920E-02 0.  1.
    10030    2    1    2    0    0  0.00000000000E+00  0.00000000000E+00  0.20098097505E+04  0.22830162779E+04  0.10829718797E+04 0.  0.
        4    1    3    3  502    0 -0.12343987302E+03 -0.15082529176E+03 -0.60093532364E+02  0.20395714358E+03  0.12699999809E+01 0.  1.
       -4    1    3    3    0  502  0.12343987302E+03  0.15082529176E+03  0.20699032828E+04  0.20790591344E+04  0.12699999809E+01 0. -1.
</event>
<event>
 5   0  0.4504740E-03  0.1070429E+04  0.7818609E-02  0.9234502E-01
        1   -1    0    0  501    0  0.00000000000E+00  0.00000000000E+00  0.43708738421E+03  0.43708738424E+03  0.50400001928E-02 0. -1.
       -1   -1    0    0    0  501  0.00000000000E+00  0.00000000000E+00 -0.65537189583E+03  0.65537189585E+03  0.50400001928E-02 0.  1.
    10030    2    1    2    0    0  0.00000000000E+00  0.00000000000E+00 -0.21828451162E+03  0.10924592801E+04  0.10704294235E+04 0.  0.
        5    1    3    3  502    0  0.29025967976E+03 -0.42259358639E+03  0.47631239503E+02  0.51490469596E+03  0.46999998093E+01 0. -1.
       -5    1    3    3    0  502 -0.29025967976E+03  0.42259358639E+03 -0.26591575112E+03  0.57755458412E+03  0.46999998093E+01 0.  1.
</event>
<event>
 5   0  0.7712816E-03  0.9879709E+03  0.7818609E-02  0.9321837E-01
       -2   -1    0    0    0  501  0.00000000000E+00  0.00000000000E+00  0.14448543206E+03  0.14448543208E+03  0.25500000920E-02 0.  1.
        2   -1    0    0  501    0  0.00000000000E+00  0.00000000000E+00 -0.16889012686E+04  0.16889012686E+04  0.25500000920E-02 0. -1.
    10030    2    1    2    0    0  0.00000000000E+00  0.00000000000E+00 -0.15444158365E+04  0.18333867007E+04  0.98797090953E+03 0.  0.
        2    1    3    3  502    0 -0.41584423300E+02  0.20634219161E+03 -0.16015153365E+04  0.16152887474E+04  0.25500000920E-02 0. -1.
       -2    1    3    3    0  502  0.41584423300E+02 -0.20634219161E+03  0.57099500045E+02  0.21809795324E+03  0.25500000920E-02 0.  1.
</event>
<event>
 5   0  0.7952121E-03  0.1108970E+04  0.7818609E-02  0.9196493E-01
        2   -1    0    0  501    0  0.00000000000E+00  0.00000000000E+00  0.16788623678E+04  0.16788623678E+04  0.25500000920E-02 0.  1.
       -2   -1    0    0    0  501  0.00000000000E+00  0.00000000000E+00 -0.18313214479E+03  0.18313214480E+03  0.25500000920E-02 0. -1.
    10030    2    1    2    0    0  0.00000000000E+00  0.00000000000E+00  0.14957302230E+04  0.18619945126E+04  0.11089700920E+04 0.  0.
        3    1    3    3  502    0  0.31106431181E+03 -0.58917824539E+01  0.15184978876E+04  0.15500424395E+04  0.10100000352E+00 0.  1.
       -3    1    3    3    0  502 -0.31106431181E+03  0.58917824539E+01 -0.22767664621E+02  0.31195207314E+03  0.10100000352E+00 0. -1.
</event>
<event>
 5   0  0.4598561E-03  0.1089111E+04  0.7818609E-02  0.9215871E-01
       -1   -1    0    0    0  501  0.00000000000E+00  0.00000000000E+00  0.55307191037E+03  0.55307191039E+03  0.50400001928E-02 0. -1.
        1   -1    0    0  501    0  0.00000000000E+00  0.00000000000E+00 -0.53617009735E+03  0.53617009737E+03  0.50400001928E-02 0.  1.
    10030    2    1    2    0    0  0.00000000000E+00  0.00000000000E+00  0.16901813021E+02  0.10892420078E+04  0.10891108668E+04 0.  0.
        2    1    3    3  502    0 -0.54406256776E+03 -0.15614142177E+02  0.25562641427E+02  0.54488652738E+03  0.25500000920E-02 0.  1.
       -2    1    3    3    0  502  0.54406256776E+03  0.15614142177E+02 -0.86608284055E+01  0.54435548039E+03  0.25500000920E-02 0. -1.
</event>
<event>
 5   0  0.4504740E-03  0.1248605E+04  0.7818609E-02  0.9071345E-01
        1   -1    0    0  501    0  0.00000000000E+00  0.00000000000E+00  0.81692631275E+03  0.81692631276E+03  0.50400001928E-02 0.  1.
       -1   -1    0    0    0  501  0.00000000000E+00  0.00000000000E+00 -0.47709794794E+03  0.47709794796E+03  0.50400001928E-02 0. -1.
    10030    2    1    2    0    0  0.00000000000E+00  0.00000000000E+00  0.33982836481E+03  0.12940242607E+04  0.12486054100E+04 0.  0.
        5    1    3    3  502    0 -0.48493699208E+03 -0.70681498465E+02  0.57072771987E+03  0.75227121488E+03  0.46999998093E+01 0.  1.
       -5    1    3    3    0  502  0.48493699208E+03  0.70681498465E+02 -0.23089935506E+03  0.54175304584E+03  0.46999998093E+01 0. -1.
</event>
<event>
 5   0  0.7952121E-03  0.1096694E+04  0.7818609E-02  0.9208420E-01
       -2   -1    0    0    0  501  0.00000000000E+00  0.00000000000E+00  0.28849285276E+03  0.28849285277E+03  0.25500000920E-02 0.  1.
        2   -1    0    0  501    0  0.00000000000E+00  0.00000000000E+00 -0.10422601930E+04  0.10422601930E+04  0.25500000920E-02 0. -1.
    10030    2    1    2    0    0  0.00000000000E+00  0.00000000000E+00 -0.75376734024E+03  0.13307530458E+04  0.10966943355E+04 0.  0.
        3    1    3    3  502    0  0.44173979220E+03 -0.75966663245E+02 -0.76017836590E+03  0.88248293815E+03  0.10100000352E+00 0. -1.
       -3    1    3    3    0  502 -0.44173979220E+03  0.75966663245E+02  0.64110256596E+01  0.44827010762E+03  0.10100000352E+00 0.  1.
</event>
<event>
 5   0  0.7952121E-03  0.1085915E+04  0.7818609E-02  0.9219030E-01
        2   -1    0    0  501    0  0.00000000000E+00  0.00000000000E+00  0.95117823612E+03  0.95117823612E+03  0.25500000920E-02 0.  1.
       -2   -1    0    0    0  501  0.00000000000E+00  0.00000000000E+00 -0.30993427743E+03  0.30993427744E+03  0.25500000920E-02 0. -1.
    10030    2    1    2    0    0  0.00000000000E+00  0.00000000000E+00  0.64124395869E+03  0.12611125136E+04  0.10859148020E+04 0.  0.
        3    1    3    3  502    0  0.23868962946E+03 -0.45090175531E+03  0.53638566836E+03  0.74026665978E+03  0.10100000352E+00 0.  1.
       -3    1    3    3    0  502 -0.23868962946E+03  0.45090175531E+03  0.10485829033E+03  0.52084585378E+03  0.10100000352E+00 0. -1.
</event>
<event>
 5   0  0.7712816E-03  0.1110521E+04  0.7818609E-02  0.9194998E-01
        2   -1    0    0  501    0  0.00000000000E+00  0.00000000000E+00  0.73580281166E+03  0.73580281166E+03  0.25500000920E-02 0. -1.
       -2   -1    0    0    0  501  0.00000000000E+00  0.00000000000E+00 -0.41901742626E+03  0.41901742626E+03  0.25500000920E-02 0.  1.
    10030    2    1    2    0    0  0.00000000000E+00  0.00000000000E+00  0.31678538540E+03  0.11548202379E+04  0.11105209595E+04 0.  0.
        2    1    3    3  502    0  0.60519529292E+02  0.17733761161E+03 -0.38514582476E+03  0.42830894020E+03  0.25500000920E-02 0.  1.
       -2    1    3    3    0  502 -0.60519529292E+02 -0.17733761161E+03  0.70193121017E+03  0.72651129773E+03  0.25500000920E-02 0. -1.
</event>
<event>
 5   0  0.4641021E-03  0.1099718E+04  0.7818609E-02  0.9205467E-01
        1   -1    0    0  501    0  0.00000000000E+00  0.00000000000E+00  0.12154642756E+04  0.12154642756E+04  0.50400001928E-02 0. -1.
       -1   -1    0    0    0  501  0.00000000000E+00  0.00000000000E+00 -0.24874829467E+03  0.24874829473E+03  0.50400001928E-02 0.  1.
    10030    2    1    2    0    0  0.00000000000E+00  0.00000000000E+00  0.96671598090E+03  0.14642125703E+04  0.10997175380E+04 0.  0.
        1    1    3    3  502    0 -0.45501761500E+03  0.51635296588E+02  0.78114326253E+02  0.46455256087E+03  0.50400001928E-02 0.  1.
       -1    1    3    3    0  502  0.45501761500E+03 -0.51635296588E+02  0.88860165464E+03  0.99966000944E+03  0.50400001928E-02 0. -1.
</event>
<event>
 5   0  0.7738497E-03  0.1049467E+04  0.7818609E-02  0.9255895E-01
        2   -1    0    0  501    0  0.00000000000E+00  0.00000000000E+00  0.90383140411E+03  0.90383140412E+03  0.25500000920E-02 0.  1.
       -2   -1    0    0    0  501  0.00000000000E+00  0.00000000000E+00 -0.30464203980E+03  0.30464203981E+03  0.25500000920E-02 0. -1.
    10030    2    1    2    0    0  0.00000000000E+00  0.00000000000E+00  0.59918936431E+03  0.12084734439E+04  0.10494666123E+04 0.  0.
        4    1    3    3  502    0  0.27065145781E+03 -0.28495391579E+03 -0.10078140902E+03  0.40572090289E+03  0.12699999809E+01 0. -1.
       -4    1    3    3    0  502 -0.27065145781E+03  0.28495391579E+03  0.69997077333E+03  0.80275254104E+03  0.12699999809E+01 0.  1.
</event>
<event>
 5   0  0.7952121E-03  0.1112171E+04  0.7818609E-02  0.9193410E-01
       -2   -1    0    0    0  501  0.00000000000E+00  0.00000000000E+00  0.51088875930E+03  0.51088875931E+03  0.25500000920E-02 0. -1.
        2   -1    0    0  501    0  0.00000000000E+00  0.00000000000E+00 -0.60528078466E+03  0.60528078467E+03  0.25500000920E-02 0.  1.
    10030    2    1    2    0    0  0.00000000000E+00  0.00000000000E+00 -0.94392025362E+02  0.11161695440E+04  0.11121711183E+04 0.  0.
        3    1    3    3  502    0  0.46311038099E+03 -0.29056186450E+03 -0.14921636840E+03  0.56671241109E+03  0.10100000352E+00 0.  1.
       -3    1    3    3    0  502 -0.46311038099E+03  0.29056186450E+03  0.54824343043E+02  0.54945713288E+03  0.10100000352E+00 0. -1.
</event>
<event>
 5   0  0.4598561E-03  0.1089586E+04  0.7818609E-02  0.9215401E-01
        1   -1    0    0  501    0  0.00000000000E+00  0.00000000000E+00  0.15307911957E+04  0.15307911957E+04  0.50400001928E-02 0. -1.
       -1   -1    0    0    0  501  0.00000000000E+00  0.00000000000E+00 -0.19388645102E+03  0.19388645108E+03  0.50400001928E-02 0.  1.
    10030    2    1    2    0    0  0.00000000000E+00  0.00000000000E+00  0.13369047447E+04  0.17246776468E+04  0.10895864761E+04 0.  0.
        2    1    3    3  502    0 -0.82644453412E+02 -0.51554524448E+03  0.42230322691E+03  0.67153333517E+03  0.25500000920E-02 0.  1.
       -2    1    3    3    0  502  0.82644453412E+02  0.51554524448E+03  0.91460151778E+03  0.10531443116E+04  0.25500000920E-02 0. -1.
</event>
<event>
 5   0  0.4641021E-03  0.1115215E+04  0.7818609E-02  0.9190487E-01
        1   -1    0    0  501    0  0.00000000000E+00  0.00000000000E+00  0.73186866524E+03  0.73186866526E+03  0.50400001928E-02 0.  1.
       -1   -1    0    0    0  501  0.00000000000E+00  0.00000000000E+00 -0.42483903264E+03  0.42483903267E+03  0.50400001928E-02 0. -1.
    10030    2    1    2    0    0  0.00000000000E+00  0.00000000000E+00  0.30702963260E+03  0.11567076979E+04  0.11152154515E+04 0.  0.
        1    1    3    3  502    0  0.37805211208E+03 -0.40722703787E+03  0.10520824302E+03  0.56553163859E+03  0.50400001928E-02 0.  1.
       -1    1    3    3    0  502 -0.37805211208E+03  0.40722703787E+03  0.20182138958E+03  0.59117605934E+03  0.50400001928E-02 0. -1.
</event>
<event>
 5   0  0.7537480E-03  0.1088941E+04  0.7818609E-02  0.9216038E-01
       -2   -1    0    0    0  501  0.00000000000E+00  0.00000000000E+00  0.15658463507E+04  0.15658463507E+04  0.25500000920E-02 0.  1.
        2   -1    0    0  501    0  0.00000000000E+00  0.00000000000E+00 -0.18932132499E+03  0.18932132501E+03  0.25500000920E-02 0. -1.
    10030    2    1    2    0    0  0.00000000000E+00  0.00000000000E+00  0.13765250257E+04  0.17551676757E+04  0.10889409642E+04 0.  0.
        1    1    3    3  502    0 -0.10187087841E+03 -0.38859802426E+03  0.12806158965E+04  0.13421487156E+04  0.50400001928E-02 0.  1.
       -1    1    3    3    0  502  0.10187087841E+03  0.38859802426E+03  0.95909129191E+02  0.41301896012E+03  0.50400001928E-02 0. -1.
</event>
<event>
 5   0  0.4504740E-03  0.1124931E+04  0.7818609E-02  0.9181227E-01
       -1   -1    0    0    0  501  0.00000000000E+00  0.00000000000E+00  0.45127117377E+03  0.45127117379E+03  0.50400001928E-02 0.  1.
        1   -1    0    0  501    0  0.00000000000E+00  0.00000000000E+00 -0.70105849986E+03  0.70105849988E+03  0.50400001928E-02 0. -1.
    10030    2    1    2    0    0  0.00000000000E+00  0.00000000000E+00 -0.24978732610E+03  0.11523296737E+04  0.11249310950E+04 0.  0.
        5    1    3    3  502    0 -0.13499271095E+03 -0.41304135544E+03 -0.49068939067E+03  0.65545736812E+03  0.46999998093E+01 0. -1.
       -5    1    3    3    0  502  0.13499271095E+03  0.41304135544E+03  0.24090206457E+03  0.49687230555E+03  0.46999998093E+01 0.  1.
</event>
<event>
 5   0  0.4428114E-03  0.1164763E+04  0.7818609E-02  0.9144271E-01
        1   -1    0    0  501    0  0.00000000000E+00  0.00000000000E+00  0.87248314101E+03  0.87248314103E+03  0.50400001928E-02 0. -1.
       -1   -1    0    0    0  501  0.00000000000E+00  0.00000000000E+00 -0.38873906238E+03  0.38873906241E+03  0.50400001928E-02 0.  1.
    10030    2    1    2    0    0  0.00000000000E+00  0.00000000000E+00  0.48374407864E+03  0.12612222034E+04  0.11647631145E+04 0.  0.
        4    1    3    3  502    0  0.65383473349E+02  0.17228950506E+03 -0.35633559389E+03  0.40116747190E+03  0.12699999809E+01 0.  1.
       -4    1    3    3    0  502 -0.65383473349E+02 -0.17228950506E+03  0.84007967253E+03  0.86005473154E+03  0.12699999809E+01 0. -1.
</event>
<event>
 5   0  0.7952121E-03  0.1168320E+04  0.7818609E-02  0.9141047E-01
       -2   -1    0    0    0  501  0.00000000000E+00  0.00000000000E+00  0.27399714562E+03  0.27399714564E+03  0.25500000920E-02 0.  1.
        2   -1    0    0  501    0  0.00000000000E+00  0.00000000000E+00 -0.12454253484E+04  0.12454253484E+04  0.25500000920E-02 0. -1.
    10030    2    1    2    0    0  0.00000000000E+00  0.00000000000E+00 -0.97142820274E+03  0.15194224940E+04  0.11683201454E+04 0.  0.
        3    1    3    3  502    0 -0.43964370040E+03 -0.35209957705E+03 -0.68711526019E+03  0.88847514678E+03  0.10100000352E+00 0. -1.
       -3    1    3    3    0  502  0.43964370040E+03  0.35209957705E+03 -0.28431294255E+03  0.63094734722E+03  0.10100000352E+00 0.  1.
</event>
<event>
 5   0  0.4428114E-03  0.1082294E+04  0.7818609E-02  0.9222623E-01
       -1   -1    0    0    0  501  0.00000000000E+00  0.00000000000E+00  0.65219817848E+03  0.65219817850E+03  0.50400001928E-02 0.  1.
        1   -1    0    0  501    0  0.00000000000E+00  0.00000000000E+00 -0.44900504025E+03  0.44900504028E+03  0.50400001928E-02 0. -1.
    10030    2    1    2    0    0  0.00000000000E+00  0.00000000000E+00  0.20319313823E+03  0.11012032188E+04  0.10822943581E+04 0.  0.
        4    1    3    3  502    0  0.14549159738E+03  0.45780372703E+03 -0.15192856044E+03  0.50382135502E+03  0.12699999809E+01 0. -1.
       -4    1    3    3    0  502 -0.14549159738E+03 -0.45780372703E+03  0.35512169867E+03  0.59738186377E+03  0.12699999809E+01 0.  1.
</event>
<event>
 5   0  0.4641021E-03  0.9722786E+03  0.7818609E-02  0.9339483E-01
       -1   -1    0    0    0  501  0.00000000000E+00  0.00000000000E+00  0.64185515449E+03  0.64185515451E+03  0.50400001928E-02 0. -1.
        1   -1    0    0  501    0  0.00000000000E+00  0.00000000000E+00 -0.36820052885E+03  0.36820052889E+03  0.50400001928E-02 0.  1.
    10030    2    1    2    0    0  0.00000000000E+00  0.00000000000E+00  0.27365462564E+03  0.10100556834E+04  0.97227857605E+03 0.  0.
        1    1    3    3  502    0  0.13059600210E+03  0.45510943002E+03  0.25134419496E+03  0.53605392771E+03  0.50400001928E-02 0. -1.
       -1    1    3    3    0  502 -0.13059600210E+03 -0.45510943002E+03  0.22310430683E+02  0.47400175569E+03  0.50400001928E-02 0.  1.
</event>
<event>
 5   0  0.4598561E-03  0.1077610E+04  0.7818609E-02  0.9227293E-01
       -1   -1    0    0    0  501  0.00000000000E+00  0.00000000000E+00  0.90839361125E+03  0.90839361127E+03  0.50400001928E-02 0. -1.
        1   -1    0    0  501    0  0.00000000000E+00  0.00000000000E+00 -0.31958717202E+03  0.31958717206E+03  0.50400001928E-02 0.  1.
    10030    2    1    2    0    0  0.00000000000E+00  0.00000000000E+00  0.58880643923E+03  0.12279807833E+04  0.10776102177E+04 0.  0.
        2    1    3    3  502    0  0.10583563943E+03 -0.43221193846E+03  0.64061101647E+03  0.77999411328E+03  0.25500000920E-02 0. -1.
       -2    1    3    3    0  502 -0.10583563943E+03  0.43221193846E+03 -0.51804577237E+02  0.44798667006E+03  0.25500000920E-02 0.  1.
</event>
<event>
 5   0  0.7537480E-03  0.9946486E+03  0.7818609E-02  0.9314434E-01
       -2   -1    0    0    0  501  0.00000000000E+00  0.00000000000E+00  0.12408631968E+03  0.12408631971E+03  0.25500000920E-02 0.  1.
        2   -1    0    0  501    0  0.00000000000E+00  0.00000000000E+00 -0.19932210827E+04  0.19932210827E+04  0.25500000920E-02 0. -1.
    10030    2    1    2    0    0  0.00000000000E+00  0.00000000000E+00 -0.18691347630E+04  0.21173074024E+04  0.99464861834E+03 0.  0.
        1    1    3    3  502    0 -0.48389853747E+03 -0.11397674469E+03 -0.96336196378E+03  0.10840732292E+04  0.50400001928E-02 0.  1.
       -1    1    3    3    0  502  0.48389853747E+03  0.11397674469E+03 -0.90577279922E+03  0.10332341732E+04  0.50400001928E-02 0. -1.
</event>
<event>
 5   0  0.2992375E-03  0.8974404E+03  0.7818609E-02  0.9428787E-01
        3   -1    0    0  501    0  0.00000000000E+00  0.00000000000E+00  0.78415127423E+03  0.78415128074E+03  0.10100000352E+00 0. -1.
       -3   -1    0    0    0  501  0.00000000000E+00  0.00000000000E+00 -0.25677417629E+03  0.25677419616E+03  0.10100000352E+00 0.  1.
    10030    2    1    2    0    0  0.00000000000E+00  0.00000000000E+00  0.52737709794E+03  0.10409254769E+04  0.89744038521E+03 0.  0.
        2    1    3    3  502    0 -0.44360838070E+03 -0.29807778739E+02  0.33398271762E+03  0.55607675260E+03  0.25500000920E-02 0. -1.
       -2    1    3    3    0  502  0.44360838070E+03  0.29807778739E+02  0.19339438032E+03  0.48484872430E+03  0.25500000920E-02 0.  1.
</event>
<event>
 5   0  0.7952121E-03  0.9142224E+03  0.7818609E-02  0.9407975E-01
       -2   -1    0    0    0  501  0.00000000000E+00  0.00000000000E+00  0.54838760388E+03  0.54838760388E+03  0.25500000920E-02 0. -1.
        2   -1    0    0  501    0  0.00000000000E+00  0.00000000000E+00 -0.38102732068E+03  0.38102732069E+03  0.25500000920E-02 0.  1.
    10030    2    1    2    0    0  0.00000000000E+00  0.00000000000E+00  0.16736028320E+03  0.92941492457E+03  0.91422242240E+03 0.  0.
        3    1    3    3  502    0  0.35985454139E+03 -0.24547381498E+03  0.22453938927E+03  0.49007206851E+03  0.10100000352E+00 0. -1.
       -3    1    3    3    0  502 -0.35985454139E+03  0.24547381498E+03 -0.57179106074E+02  0.43934285606E+03  0.10100000352E+00 0.  1.
</event>
<event>
 5   0  0.7712816E-03  0.1041205E+04  0.7818609E-02  0.9264471E-01
        2   -1    0    0  501    0  0.00000000000E+00  0.00000000000E+00  0.16018682992E+04  0.16018682992E+04  0.25500000920E-02 0.  1.
       -2   -1    0    0    0  501  0.00000000000E+00  0.00000000000E+00 -0.16919444233E+03  0.16919444235E+03  0.25500000920E-02 0. -1.
    10030    2    1    2    0    0  0.00000000000E+00  0.00000000000E+00  0.14326738569E+04  0.17710627416E+04  0.10412054813E+04 0.  0.
        2    1    3    3  502    0  0.16362173775E+03  0.13919644991E+03 -0.90289456415E+02  0.23302341229E+03  0.25500000920E-02 0. -1.
       -2    1    3    3    0  502 -0.16362173775E+03 -0.13919644991E+03  0.15229633133E+04  0.15380393293E+04  0.25500000920E-02 0.  1.
</event>
<event>
 5   0  0.7738497E-03  0.1100863E+04  0.7818609E-02  0.9204352E-01
        2   -1    0    0  501    0  0.00000000000E+00  0.00000000000E+00  0.45267283144E+03  0.45267283145E+03  0.25500000920E-02 0.  1.
       -2   -1    0    0    0  501  0.00000000000E+00  0.00000000000E+00 -0.66930142949E+03  0.66930142950E+03  0.25500000920E-02 0. -1.
    10030    2    1    2    0    0  0.00000000000E+00  0.00000000000E+00 -0.21662859805E+03  0.11219742609E+04  0.11008625222E+04 0.  0.
        4    1    3    3  502    0  0.43327314752E+02 -0.10451518977E+03 -0.65732115456E+03  0.66698830142E+03  0.12699999809E+01 0. -1.
       -4    1    3    3    0  502 -0.43327314752E+02  0.10451518977E+03  0.44069255652E+03  0.45498595952E+03  0.12699999809E+01 0.  1.
</event>
<event>
 5   0  0.7952121E-03  0.1078027E+04  0.7818609E-02  0.9226876E-01
        2   -1    0    0  501    0  0.00000000000E+00  0.00000000000E+00  0.81745715093E+03  0.81745715094E+03  0.25500000920E-02 0. -1.
       -2   -1    0    0    0  501  0.00000000000E+00  0.00000000000E+00 -0.35541404643E+03  0.35541404644E+03  0.25500000920E-02 0.  1.
    10030    2    1    2    0    0  0.00000000000E+00  0.00000000000E+00  0.46204310450E+03  0.11728711974E+04  0.10780273722E+04 0.  0.
        3    1    3    3  502    0 -0.25500078536E+02 -0.53745125432E+03  0.26596649817E+03  0.60020187698E+03  0.10100000352E+00 0.  1.
       -3    1    3    3    0  502  0.25500078536E+02  0.53745125432E+03  0.19607660633E+03  0.57266932040E+03  0.10100000352E+00 0. -1.
</event>
<event>
 5   0  0.4641021E-03  0.1120045E+04  0.7818609E-02  0.9185872E-01
       -1   -1    0    0    0  501  0.00000000000E+00  0.00000000000E+00  0.96783328765E+03  0.96783328767E+03  0.50400001928E-02 0.  1.
        1   -1    0    0  501    0  0.00000000000E+00  0.00000000000E+00 -0.32404863982E+03  0.32404863986E+03  0.50400001928E-02 0. -1.
    10030    2    1    2    0    0  0.00000000000E+00  0.00000000000E+00  0.64378464784E+03  0.12918819275E+04  0.11200447499E+04 0.  0.
        1    1    3    3  502    0  0.14502245251E+03  0.29767419450E+03 -0.19904454849E+03  0.38634203772E+03  0.50400001928E-02 0. -1.
       -1    1    3    3    0  502 -0.14502245251E+03 -0.29767419450E+03  0.84282919633E+03  0.90553988980E+03  0.50400001928E-02 0.  1.
</event>
<event>
 5   0  0.4504740E-03  0.1157881E+04  0.7818609E-02  0.9150543E-01
        1   -1    0    0  501    0  0.00000000000E+00  0.00000000000E+00  0.80872088454E+03  0.80872088455E+03  0.50400001928E-02 0. -1.
       -1   -1    0    0    0  501  0.00000000000E+00  0.00000000000E+00 -0.41444735896E+03  0.41444735899E+03  0.50400001928E-02 0.  1.
    10030    2    1    2    0    0  0.00000000000E+00  0.00000000000E+00  0.39427352557E+03  0.12231682435E+04  0.11578812284E+04 0.  0.
        5    1    3    3  502    0  0.12362374370E+03 -0.79985826190E+02  0.78858928296E+03  0.80223170568E+03  0.46999998093E+01 0. -1.
       -5    1    3    3    0  502 -0.12362374370E+03  0.79985826190E+02 -0.39431575738E+03  0.42093653787E+03  0.46999998093E+01 0.  1.
</event>
<event>
 5   0  0.2992375E-03  0.1025472E+04  0.7818609E-02  0.9281040E-01
       -3   -1    0    0    0  501  0.00000000000E+00  0.00000000000E+00  0.64435894930E+03  0.64435895722E+03  0.10100000352E+00 0.  1.
        3   -1    0    0  501    0  0.00000000000E+00  0.00000000000E+00 -0.40799993918E+03  0.40799995168E+03  0.10100000352E+00 0. -1.
    10030    2    1    2    0    0  0.00000000000E+00  0.00000000000E+00  0.23635901013E+03  0.10523589089E+04  0.10254724236E+04 0.  0.
        4    1    3    3  502    0 -0.83136305404E+02 -0.14223746710E+03 -0.38009552596E+03  0.41426726165E+03  0.12699999809E+01 0. -1.
       -4    1    3    3    0  502  0.83136305404E+02  0.14223746710E+03  0.61645453609E+03  0.63809164725E+03  0.12699999809E+01 0.  1.
</event>
<event>
 5   0  0.7738497E-03  0.1094762E+04  0.7818609E-02  0.9210312E-01
        2   -1    0    0  501    0  0.00000000000E+00  0.00000000000E+00  0.19089678233E+04  0.19089678233E+04  0.25500000920E-02 0.  1.
       -2   -1    0    0    0  501  0.00000000000E+00  0.00000000000E+00 -0.15695705764E+03  0.15695705766E+03  0.25500000920E-02 0. -1.
    10030    2    1    2    0    0  0.00000000000E+00  0.00000000000E+00  0.17520107656E+04  0.20659248809E+04  0.10947620247E+04 0.  0.
        4    1    3    3  502    0  0.14853238438E+03  0.33590984341E+03  0.11009618364E+03  0.38343196875E+03  0.12699999809E+01 0. -1.
       -4    1    3    3    0  502 -0.14853238438E+03 -0.33590984341E+03  0.16419145820E+04  0.16824929122E+04  0.12699999809E+01 0.  1.
</event>
<event>
 5   0  0.7712816E-03  0.1120286E+04  0.7818609E-02  0.9185642E-01
        2   -1    0    0  501    0  0.00000000000E+00  0.00000000000E+00  0.12110245811E+04  0.12110245811E+04  0.25500000920E-02 0.  1.
       -2   -1    0    0    0  501  0.00000000000E+00  0.00000000000E+00 -0.25908660937E+03  0.25908660938E+03  0.25500000920E-02 0. -1.
    10030    2    1    2    0    0  0.00000000000E+00  0.00000000000E+00  0.95193797171E+03  0.14701111905E+04  0.11202861288E+04 0.  0.
        2    1    3    3  502    0 -0.30630670354E+03  0.42381025303E+03  0.73947384267E+03  0.90568233460E+03  0.25500000920E-02 0.  1.
       -2    1    3    3    0  502  0.30630670354E+03 -0.42381025303E+03  0.21246412904E+03  0.56442885587E+03  0.25500000920E-02 0. -1.
</event>
<event>
 5   0  0.4598561E-03  0.1111008E+04  0.7818609E-02  0.9194529E-01
       -1   -1    0    0    0  501  0.00000000000E+00  0.00000000000E+00  0.49772673147E+03  0.49772673149E+03  0.50400001928E-02 0. -1.
        1   -1    0    0  501    0  0.00000000000E+00  0.00000000000E+00 -0.61998795693E+03  0.61998795695E+03  0.50400001928E-02 0.  1.
    10030    2    1    2    0    0  0.00000000000E+00  0.00000000000E+00 -0.12226122547E+03  0.11177146884E+04  0.11110077936E+04 0.  0.
        2    1    3    3  502    0 -0.23259027901E+03 -0.69298091678E+02  0.44156987921E+03  0.50386944899E+03  0.25500000920E-02 0. -1.
       -2    1    3    3    0  502  0.23259027901E+03  0.69298091678E+02 -0.56383110467E+03  0.61384523946E+03  0.25500000920E-02 0.  1.
</event>
<event>
 5   0  0.2992375E-03  0.1103321E+04  0.7818609E-02  0.9201961E-01
        4   -1    0    0  501    0  0.00000000000E+00  0.00000000000E+00  0.12964845103E+04  0.12964851323E+04  0.12699999809E+01 0.  1.
       -4   -1    0    0    0  501  0.00000000000E+00  0.00000000000E+00 -0.23473170247E+03  0.23473513807E+03  0.12699999809E+01 0. -1.
    10030    2    1    2    0    0  0.00000000000E+00  0.00000000000E+00  0.10617528078E+04  0.15312202704E+04  0.11033206658E+04 0.  0.
        1    1    3    3  502    0  0.21403518930E+03  0.47329016590E+03  0.78870826341E+03  0.94439153331E+03  0.50400001928E-02 0.  1.
       -1    1    3    3    0  502 -0.21403518930E+03 -0.47329016590E+03  0.27304454441E+03  0.58682873707E+03  0.50400001928E-02 0. -1.
</event>
<event>
 5   0  0.7537480E-03  0.8466601E+03  0.7818609E-02  0.9494831E-01
       -2   -1    0    0    0  501  0.00000000000E+00  0.00000000000E+00  0.20332403221E+03  0.20332403223E+03  0.25500000920E-02 0.  1.
        2   -1    0    0  501    0  0.00000000000E+00  0.00000000000E+00 -0.88139269673E+03  0.88139269673E+03  0.25500000920E-02 0. -1.
    10030    2    1    2    0    0  0.00000000000E+00  0.00000000000E+00 -0.67806866452E+03  0.10847167290E+04  0.84666006654E+03 0.  0.
        1    1    3    3  502    0  0.33995909957E+03  0.23142523263E+02 -0.66086234125E+03  0.74353668360E+03  0.50400001928E-02 0. -1.
       -1    1    3    3    0  502 -0.33995909957E+03 -0.23142523263E+02 -0.17206323274E+02  0.34118004535E+03  0.50400001928E-02 0.  1.
</event>
<event>
 5   0  0.4428114E-03  0.1106373E+04  0.7818609E-02  0.9199002E-01
        1   -1    0    0  501    0  0.00000000000E+00  0.00000000000E+00  0.16824570096E+04  0.16824570096E+04  0.50400001928E-02 0. -1.
       -1   -1    0    0    0  501  0.00000000000E+00  0.00000000000E+00 -0.18188596254E+03  0.18188596261E+03  0.50400001928E-02 0.  1.
    10030    2    1    2    0    0  0.00000000000E+00  0.00000000000E+00  0.15005710470E+04  0.18643429722E+04  0.11063730161E+04 0.  0.
        4    1    3    3  502    0 -0.84291809482E+02  0.40519792899E+03  0.13687937447E+04  0.14299959438E+04  0.12699999809E+01 0. -1.
       -4    1    3    3    0  502  0.84291809482E+02 -0.40519792899E+03  0.13177730237E+03  0.43434702845E+03  0.12699999809E+01 0.  1.
</event>
<event>
 5   0  0.4504740E-03  0.1093222E+04  0.7818609E-02  0.9211823E-01
       -1   -1    0    0    0  501  0.00000000000E+00  0.00000000000E+00  0.29376492450E+03  0.29376492455E+03  0.50400001928E-02 0. -1.
        1   -1    0    0  501    0  0.00000000000E+00  0.00000000000E+00 -0.10170841782E+04  0.10170841782E+04  0.50400001928E-02 0.  1.
    10030    2    1    2    0    0  0.00000000000E+00  0.00000000000E+00 -0.72331925368E+03  0.13108491027E+04  0.10932221309E+04 0.  0.
        5    1    3    3  502    0 -0.35405206174E+02 -0.54088028681E+03 -0.27724179596E+03  0.60884326120E+03  0.46999998093E+01 0. -1.
       -5    1    3    3    0  502  0.35405206174E+02  0.54088028681E+03 -0.44607745772E+03  0.70200584155E+03  0.46999998093E+01 0.  1.
</event>
<event>
 5   0  0.4641021E-03  0.1080486E+04  0.7818609E-02  0.9224423E-01
       -1   -1    0    0    0  501  0.00000000000E+00  0.00000000000E+00  0.15040722969E+03  0.15040722977E+03  0.50400001928E-02 0. -1.
        1   -1    0    0  501    0  0.00000000000E+00  0.00000000000E+00 -0.19404819421E+04  0.19404819421E+04  0.50400001928E-02 0.  1.
    10030    2    1    2    0    0  0.00000000000E+00  0.00000000000E+00 -0.17900747124E+04  0.20908891719E+04  0.10804860263E+04 0.  0.
        1    1    3    3  502    0 -0.28238343209E+03 -0.45071339737E+03 -0.71166283239E+03  0.88845200001E+03  0.50400001928E-02 0. -1.
       -1    1    3    3    0  502  0.28238343209E+03  0.45071339737E+03 -0.10784118800E+04  0.12024371719E+04  0.50400001928E-02 0.  1.
</event>
<event>
 5   0  0.4298101E-03  0.1090433E+04  0.7818609E-02  0.9214567E-01
       -1   -1    0    0    0  501  0.00000000000E+00  0.00000000000E+00  0.33557548593E+03  0.33557548597E+03  0.50400001928E-02 0. -1.
        1   -1    0    0  501    0  0.00000000000E+00  0.00000000000E+00 -0.88582475648E+03  0.88582475649E+03  0.50400001928E-02 0.  1.
    10030    2    1    2    0    0  0.00000000000E+00  0.00000000000E+00 -0.55024927055E+03  0.12214002425E+04  0.10904330757E+04 0.  0.
        3    1    3    3  502    0  0.34005210855E+03  0.27095934764E+03  0.93331657547E+02  0.44470800881E+03  0.10100000352E+00 0. -1.
       -3    1    3    3    0  502 -0.34005210855E+03 -0.27095934764E+03 -0.64358092809E+03  0.77669223365E+03  0.10100000352E+00 0.  1.
</event>
<event>
 5   0  0.7952121E-03  0.9356799E+03  0.7818609E-02  0.9382047E-01
        2   -1    0    0  501    0  0.00000000000E+00  0.00000000000E+00  0.19345899412E+04  0.19345899412E+04  0.25500000920E-02 0.  1.
       -2   -1    0    0    0  501  0.00000000000E+00  0.00000000000E+00 -0.11313727787E+03  0.11313727790E+03  0.25500000920E-02 0. -1.
    10030    2    1    2    0    0  0.00000000000E+00  0.00000000000E+00  0.18214526633E+04  0.20477272191E+04  0.93567994479E+03 0.  0.
        3    1    3    3  502    0  0.17825816227E+03 -0.38157305780E+03  0.13565572507E+04  0.14204300601E+04  0.10100000352E+00 0.  1.
       -3    1    3    3    0  502 -0.17825816227E+03  0.38157305780E+03  0.46489541256E+03  0.62729715899E+03  0.10100000352E+00 0. -1.
</event>
<event>
 5   0  0.7537480E-03  0.1116939E+04  0.7818609E-02  0.9188838E-01
       -2   -1    0    0    0  501  0.00000000000E+00  0.00000000000E+00  0.61961911676E+03  0.61961911677E+03  0.25500000920E-02 0. -1.
        2   -1    0    0  501    0  0.00000000000E+00  0.00000000000E+00 -0.50335439938E+03  0.50335439938E+03  0.25500000920E-02 0.  1.
    10030    2    1    2    0    0  0.00000000000E+00  0.00000000000E+00  0.11626471738E+03  0.11229735162E+04  0.11169386883E+04 0.  0.
        1    1    3    3  502    0 -0.44439069863E+02  0.19422423243E+03 -0.46640492434E+03  0.50717988610E+03  0.50400001928E-02 0.  1.
       -1    1    3    3    0  502  0.44439069863E+02 -0.19422423243E+03  0.58266964172E+03  0.61579363005E+03  0.50400001928E-02 0. -1.
</event>
<event>
 5   0  0.2992375E-03  0.1071290E+04  0.7818609E-02  0.9233636E-01
        3   -1    0    0  501    0  0.00000000000E+00  0.00000000000E+00  0.56187322928E+03  0.56187323836E+03  0.10100000352E+00 0.  1.
       -3   -1    0    0    0  501  0.00000000000E+00  0.00000000000E+00 -0.51064062718E+03  0.51064063717E+03  0.10100000352E+00 0. -1.
    10030    2    1    2    0    0  0.00000000000E+00  0.00000000000E+00  0.51232602099E+02  0.10725138755E+04  0.10712895191E+04 0.  0.
        2    1    3    3  502    0  0.14816763200E+03 -0.50890925718E+03 -0.51757402005E+02  0.53256089594E+03  0.25500000920E-02 0. -1.
       -2    1    3    3    0  502 -0.14816763200E+03  0.50890925718E+03  0.10299000410E+03  0.53995297959E+03  0.25500000920E-02 0.  1.
</event>
<event>
 5   0  0.7738497E-03  0.1106740E+04  0.7818609E-02  0.9198647E-01
        2   -1    0    0  501    0  0.00000000000E+00  0.00000000000E+00  0.16269621833E+04  0.16269621833E+04  0.25500000920E-02 0.  1.
       -2   -1    0    0    0  501  0.00000000000E+00  0.00000000000E+00 -0.18821495798E+03  0.18821495800E+03  0.25500000920E-02 0. -1.
    10030    2    1    2    0    0  0.00000000000E+00  0.00000000000E+00  0.14387472253E+04  0.18151771413E+04  0.11067404736E+04 0.  0.
        4    1    3    3  502    0 -0.48590782785E+03  0.23398805481E+03  0.92264271141E+03  0.10687038939E+04  0.12699999809E+01 0.  1.
       -4    1    3    3    0  502  0.48590782785E+03 -0.23398805481E+03  0.51610451394E+03  0.74647324746E+03  0.12699999809E+01 0. -1.
</event>
<event>
 5   0  0.4598561E-03  0.1113844E+04  0.7818609E-02  0.9191802E-01
        1   -1    0    0  501    0  0.00000000000E+00  0.00000000000E+00  0.84224514073E+03  0.84224514074E+03  0.50400001928E-02 0. -1.
       -1   -1    0    0    0  501  0.00000000000E+00  0.00000000000E+00 -0.36825648420E+03  0.36825648423E+03  0.50400001928E-02 0.  1.
    10030    2    1    2    0    0  0.00000000000E+00  0.00000000000E+00  0.47398865653E+03  0.12105016250E+04  0.11138442160E+04 0.  0.
        2    1    3    3  502    0  0.25409532574E+03 -0.29838588382E+03  0.66701210671E+03  0.77363022222E+03  0.25500000920E-02 0. -1.
       -2    1    3    3    0  502 -0.25409532574E+03  0.29838588382E+03 -0.19302345017E+03  0.43687140276E+03  0.25500000920E-02 0.  1.
</event>
<event>
 5   0  0.7766551E-03  0.1143294E+04  0.7818609E-02  0.9163993E-01
        2   -1    0    0  501    0  0.00000000000E+00  0.00000000000E+00  0.10911662236E+04  0.10911662236E+04  0.25500000920E-02 0. -1.
       -2   -1    0    0    0  501  0.00000000000E+00  0.00000000000E+00 -0.29947795489E+03  0.29947795490E+03  0.25500000920E-02 0.  1.
    10030    2    1    2    0    0  0.00000000000E+00  0.00000000000E+00  0.79168826873E+03  0.13906441785E+04  0.11432938889E+04 0.  0.
        5    1    3    3  502    0 -0.35382827788E+03 -0.10470724820E+03 -0.13518662822E+03  0.39300836187E+03  0.46999998093E+01 0.  1.
       -5    1    3    3    0  502  0.35382827788E+03  0.10470724820E+03  0.92687489695E+03  0.99763581665E+03  0.46999998093E+01 0. -1.
</event>
<event>
 5   0  0.7766551E-03  0.1120939E+04  0.7818609E-02  0.9185021E-01
       -2   -1    0    0    0  501  0.00000000000E+00  0.00000000000E+00  0.16290649342E+03  0.16290649344E+03  0.25500000920E-02 0.  1.
        2   -1    0    0  501    0  0.00000000000E+00  0.00000000000E+00 -0.19282587494E+04  0.19282587494E+04  0.25500000920E-02 0. -1.
    10030    2    1    2    0    0  0.00000000000E+00  0.00000000000E+00 -0.17653522560E+04  0.20911652429E+04  0.11209386625E+04 0.  0.
        5    1    3    3  502    0  0.34831992623E+03  0.34213013473E+03 -0.13960375421E+04  0.14789600093E+04  0.46999998093E+01 0. -1.
       -5    1    3    3    0  502 -0.34831992623E+03 -0.34213013473E+03 -0.36931471387E+03  0.61220523355E+03  0.46999998093E+01 0.  1.
</event>
<event>
 5   0  0.7952121E-03  0.1068413E+04  0.7818609E-02  0.9236538E-01
        2   -1    0    0  501    0  0.00000000000E+00  0.00000000000E+00  0.13083022261E+04  0.13083022261E+04  0.25500000920E-02 0. -1.
       -2   -1    0    0    0  501  0.00000000000E+00  0.00000000000E+00 -0.21812740865E+03  0.21812740867E+03  0.25500000920E-02 0.  1.
    10030    2    1    2    0    0  0.00000000000E+00  0.00000000000E+00  0.10901748174E+04  0.15264296347E+04  0.10684129807E+04 0.  0.
        3    1    3    3  502    0  0.13093907989E+03  0.24718924321E+03  0.11953040597E+04  0.12275990266E+04  0.10100000352E+00 0. -1.
       -3    1    3    3    0  502 -0.13093907989E+03 -0.24718924321E+03 -0.10512924230E+03  0.29883060819E+03  0.10100000352E+00 0.  1.
</event>
<event>
 5   0  0.7766551E-03  0.1119449E+04  0.7818609E-02  0.9186440E-01
       -2   -1    0    0    0  501  0.00000000000E+00  0.00000000000E+00  0.13209800571E+03  0.13209800573E+03  0.25500000920E-02 0.  1.
        2   -1    0    0  501    0  0.00000000000E+00  0.00000000000E+00 -0.23716589470E+04  0.23716589470E+04  0.25500000920E-02 0. -1.
    10030    2    1    2    0    0  0.00000000000E+00  0.00000000000E+00 -0.22395609413E+04  0.25037569527E+04  0.11194488236E+04 0.  0.
        5    1    3    3  502    0  0.25433720949E+03  0.35602091615E+03 -0.19004493395E+04  0.19501712978E+04  0.46999998093E+01 0. -1.
       -5    1    3    3    0  502 -0.25433720949E+03 -0.35602091615E+03 -0.33911160183E+03  0.55358565494E+03  0.46999998093E+01 0.  1.
</event>
<event>
 5   0  0.7712816E-03  0.1088078E+04  0.7818609E-02  0.9216891E-01
        2   -1    0    0  501    0  0.00000000000E+00  0.00000000000E+00  0.20434517267E+04  0.20434517267E+04  0.25500000920E-02 0.  1.
       -2   -1    0    0    0  501  0.00000000000E+00  0.00000000000E+00 -0.14484233720E+03  0.14484233722E+03  0.25500000920E-02 0. -1.
    10030    2    1    2    0    0  0.00000000000E+00  0.00000000000E+00  0.18986093895E+04  0.21882940640E+04  0.10880777988E+04 0.  0.
        2    1    3    3  502    0 -0.28139549706E+03  0.36826855928E+03  0.37630818412E+03  0.59700335591E+03  0.25500000920E-02 0.  1.
       -2    1    3    3    0  502  0.28139549706E+03 -0.36826855928E+03  0.15223012054E+04  0.15912907081E+04  0.25500000920E-02 0. -1.
</event>
<event>
 5   0  0.7766551E-03  0.1144361E+04  0.7818609E-02  0.9163002E-01
        2   -1    0    0  501    0  0.00000000000E+00  0.00000000000E+00  0.17670047413E+04  0.17670047413E+04  0.25500000920E-02 0.  1.
       -2   -1    0    0    0  501  0.00000000000E+00  0.00000000000E+00 -0.18527985006E+03  0.18527985007E+03  0.25500000920E-02 0. -1.
    10030    2    1    2    0    0  0.00000000000E+00  0.00000000000E+00  0.15817248913E+04  0.19522845914E+04  0.11443607360E+04 0.  0.
        5    1    3    3  502    0 -0.20336700701E+03 -0.27745203939E+03  0.10879659498E+02  0.34420666857E+03  0.46999998093E+01 0. -1.
       -5    1    3    3    0  502  0.20336700701E+03  0.27745203939E+03  0.15708452318E+04  0.16080779228E+04  0.46999998093E+01 0.  1.
</event>
<event>
 5   0  0.7712816E-03  0.1089488E+04  0.7818609E-02  0.9215499E-01
       -2   -1    0    0    0  501  0.00000000000E+00  0.00000000000E+00  0.43725589989E+03  0.43725589990E+03  0.25500000920E-02 0. -1.
        2   -1    0    0  501    0  0.00000000000E+00  0.00000000000E+00 -0.67865496586E+03  0.67865496586E+03  0.25500000920E-02 0.  1.
    10030    2    1    2    0    0  0.00000000000E+00  0.00000000000E+00 -0.24139906597E+03  0.11159108658E+04  0.10894877472E+04 0.  0.
        2    1    3    3  502    0 -0.53736821436E+03  0.81484544044E+02 -0.15821514700E+03  0.56607098625E+03  0.25500000920E-02 0. -1.
       -2    1    3    3    0  502  0.53736821436E+03 -0.81484544044E+02 -0.83183918964E+02  0.54983987952E+03  0.25500000920E-02 0.  1.
</event>
<event>
 5   0  0.7738497E-03  0.1078205E+04  0.7818609E-02  0.9226699E-01
       -2   -1    0    0    0  501  0.00000000000E+00  0.00000000000E+00  0.39381543357E+03  0.39381543358E+03  0.25500000920E-02 0.  1.
        2   -1    0    0  501    0  0.00000000000E+00  0.00000000000E+00 -0.73798853048E+03  0.73798853048E+03  0.25500000920E-02 0. -1.
    10030    2    1    2    0    0  0.00000000000E+00  0.00000000000E+00 -0.34417309691E+03  0.11318039641E+04  0.10782045689E+04 0.  0.
        4    1    3    3  502    0 -0.35325002558E+02 -0.71767740921E+02  0.38754979963E+03  0.39572076587E+03  0.12699999809E+01 0.  1.
       -4    1    3    3    0  502  0.35325002558E+02  0.71767740921E+02 -0.73172289654E+03  0.73608319820E+03  0.12699999809E+01 0. -1.
</event>
<event>
 5   0  0.7537480E-03  0.1026390E+04  0.7818609E-02  0.9280065E-01
       -2   -1    0    0    0  501  0.00000000000E+00  0.00000000000E+00  0.60788924092E+03  0.60788924093E+03  0.25500000920E-02 0.  1.
        2   -1    0    0  501    0  0.00000000000E+00  0.00000000000E+00 -0.43325152433E+03  0.43325152433E+03  0.25500000920E-02 0. -1.
    10030    2    1    2    0    0  0.00000000000E+00  0.00000000000E+00  0.17463771660E+03  0.10411407653E+04  0.10263896731E+04 0.  0.
        1    1    3    3  502    0  0.46083770767E+03 -0.42978484567E+02  0.31220396459E+03  0.55829191152E+03  0.50400001928E-02 0.  1.
       -1    1    3    3    0  502 -0.46083770767E+03  0.42978484567E+02 -0.13756624799E+03  0.48284885374E+03  0.50400001928E-02 0. -1.
</event>
<event>
 5   0  0.4641021E-03  0.1102592E+04  0.7818609E-02  0.9202669E-01
       -1   -1    0    0    0  501  0.00000000000E+00  0.00000000000E+00  0.27459544142E+03  0.27459544147E+03  0.50400001928E-02 0. -1.
        1   -1    0    0  501    0  0.00000000000E+00  0.00000000000E+00 -0.11068186073E+04  0.11068186073E+04  0.50400001928E-02 0.  1.
    10030    2    1    2    0    0  0.00000000000E+00  0.00000000000E+00 -0.83222316591E+03  0.13814140488E+04  0.11025921170E+04 0.  0.
        1    1    3    3  502    0  0.42028275060E+03 -0.13994034775E+03 -0.49336048891E+01  0.44299574700E+03  0.50400001928E-02 0. -1.
       -1    1    3    3    0  502 -0.42028275060E+03  0.13994034775E+03 -0.82728956102E+03  0.93841830181E+03  0.50400001928E-02 0.  1.
</event>
<event>
 5   0  0.4504740E-03  0.1076775E+04  0.7818609E-02  0.9228129E-01
        1   -1    0    0  501    0  0.00000000000E+00  0.00000000000E+00  0.86082398067E+03  0.86082398069E+03  0.50400001928E-02 0.  1.
       -1   -1    0    0    0  501  0.00000000000E+00  0.00000000000E+00 -0.33672522973E+03  0.33672522977E+03  0.50400001928E-02 0. -1.
    10030    2    1    2    0    0  0.00000000000E+00  0.00000000000E+00  0.52409875094E+03  0.11975492105E+04  0.10767750976E+04 0.  0.
        5    1    3    3  502    0  0.23268959984E+03  0.43306267242E+03  0.50609584531E+03  0.70557977774E+03  0.46999998093E+01 0. -1.
       -5    1    3    3    0  502 -0.23268959984E+03 -0.43306267242E+03  0.18002905628E+02  0.49196943272E+03  0.46999998093E+01 0.  1.
</event>
<event>
 5   0  0.4598561E-03  0.1094125E+04  0.7818609E-02  0.9210937E-01
       -1   -1    0    0    0  501  0.00000000000E+00  0.00000000000E+00  0.16403316225E+03  0.16403316233E+03  0.50400001928E-02 0. -1.
        1   -1    0    0  501    0  0.00000000000E+00  0.00000000000E+00 -0.18244918527E+04  0.18244918527E+04  0.50400001928E-02 0.  1.
    10030    2    1    2    0    0  0.00000000000E+00  0.00000000000E+00 -0.16604586905E+04  0.19885250151E+04  0.10941246148E+04 0.  0.
        2    1    3    3  502    0 -0.48052711040E+03 -0.76539313954E+02 -0.12846395162E+04  0.13737042101E+04  0.25500000920E-02 0.  1.
       -2    1    3    3    0  502  0.48052711040E+03  0.76539313954E+02 -0.37581917431E+03  0.61482080494E+03  0.25500000920E-02 0. -1.
</event>
<event>
 5   0  0.4504740E-03  0.1072061E+04  0.7818609E-02  0.9232859E-01
       -1   -1    0    0    0  501  0.00000000000E+00  0.00000000000E+00  0.18085038537E+03  0.18085038544E+03  0.50400001928E-02 0.  1.
        1   -1    0    0  501    0  0.00000000000E+00  0.00000000000E+00 -0.15887656436E+04  0.15887656436E+04  0.50400001928E-02 0. -1.
    10030    2    1    2    0    0  0.00000000000E+00  0.00000000000E+00 -0.14079152582E+04  0.17696160290E+04  0.10720613396E+04 0.  0.
        5    1    3    3  502    0 -0.22437652269E+03 -0.32163723840E+03 -0.10081688429E+03  0.40494625719E+03  0.46999998093E+01 0.  1.
       -5    1    3    3    0  502  0.22437652269E+03  0.32163723840E+03 -0.13070983739E+04  0.13646697718E+04  0.46999998093E+01 0. -1.
</event>
<event>
 5   0  0.7537480E-03  0.1061694E+04  0.7818609E-02  0.9243354E-01
       -2   -1    0    0    0  501  0.00000000000E+00  0.00000000000E+00  0.12657563626E+03  0.12657563629E+03  0.25500000920E-02 0.  1.
        2   -1    0    0  501    0  0.00000000000E+00  0.00000000000E+00 -0.22263243269E+04  0.22263243269E+04  0.25500000920E-02 0. -1.
    10030    2    1    2    0    0  0.00000000000E+00  0.00000000000E+00 -0.20997486906E+04  0.23528999632E+04  0.10616937755E+04 0.  0.
        1    1    3    3  502    0  0.14969788468E+03 -0.93526312639E+02 -0.21593836119E+04  0.21665858421E+04  0.50400001928E-02 0. -1.
       -1    1    3    3    0  502 -0.14969788468E+03  0.93526312639E+02  0.59634921309E+02  0.18631412104E+03  0.50400001928E-02 0.  1.
</event>
<event>
 5   0  0.7738497E-03  0.1105095E+04  0.7818609E-02  0.9200240E-01
        2   -1    0    0  501    0  0.00000000000E+00  0.00000000000E+00  0.95650892074E+03  0.95650892074E+03  0.25500000920E-02 0.  1.
       -2   -1    0    0    0  501  0.00000000000E+00  0.00000000000E+00 -0.31919081723E+03  0.31919081724E+03  0.25500000920E-02 0. -1.
    10030    2    1    2    0    0  0.00000000000E+00  0.00000000000E+00  0.63731810351E+03  0.12756997380E+04  0.11050952250E+04 0.  0.
        4    1    3    3  502    0  0.38708360080E+02  0.12682951112E+03 -0.30054843208E+03  0.32850423888E+03  0.12699999809E+01 0. -1.
       -4    1    3    3    0  502 -0.38708360080E+02 -0.12682951112E+03  0.93786653560E+03  0.94719549910E+03  0.12699999809E+01 0.  1.
</event>
<event>
 5   0  0.4428114E-03  0.1127226E+04  0.7818609E-02  0.9179055E-01
       -1   -1    0    0    0  501  0.00000000000E+00  0.00000000000E+00  0.19505668402E+03  0.19505668409E+03  0.50400001928E-02 0. -1.
        1   -1    0    0  501    0  0.00000000000E+00  0.00000000000E+00 -0.16285495219E+04  0.16285495219E+04  0.50400001928E-02 0.  1.
    10030    2    1    2    0    0  0.00000000000E+00  0.00000000000E+00 -0.14334928379E+04  0.18236062060E+04  0.11272257442E+04 0.  0.
        4    1    3    3  502    0 -0.38121165646E+02  0.19101014740E+02  0.19244134043E+03  0.19711254258E+03  0.12699999809E+01 0. -1.
       -4    1    3    3    0  502  0.38121165646E+02 -0.19101014740E+02 -0.16259341783E+04  0.16264936635E+04  0.12699999809E+01 0.  1.
</event>
<event>
 5   0  0.4598561E-03  0.1180160E+04  0.7818609E-02  0.9130402E-01
        1   -1    0    0  501    0  0.00000000000E+00  0.00000000000E+00  0.31801053015E+03  0.31801053019E+03  0.50400001928E-02 0. -1.
       -1   -1    0    0    0  501  0.00000000000E+00  0.00000000000E+00 -0.10949154639E+04  0.10949154639E+04  0.50400001928E-02 0.  1.
    10030    2    1    2    0    0  0.00000000000E+00  0.00000000000E+00 -0.77690493375E+03  0.14129259941E+04  0.11801604080E+04 0.  0.
        2    1    3    3  502    0 -0.38547067701E+03 -0.44400016973E+03 -0.32894083181E+03  0.67374020541E+03  0.25500000920E-02 0. -1.
       -2    1    3    3    0  502  0.38547067701E+03  0.44400016973E+03 -0.44796410195E+03  0.73918578868E+03  0.25500000920E-02 0.  1.
</event>
<event>
 5   0  0.4598561E-03  0.1142619E+04  0.7818609E-02  0.9164620E-01
       -1   -1    0    0    0  501  0.00000000000E+00  0.00000000000E+00  0.59018949206E+03  0.59018949208E+03  0.50400001928E-02 0.  1.
        1   -1    0    0  501    0  0.00000000000E+00  0.00000000000E+00 -0.55303301039E+03  0.55303301041E+03  0.50400001928E-02 0. -1.
    10030    2    1    2    0    0  0.00000000000E+00  0.00000000000E+00  0.37156481673E+02  0.11432225025E+04  0.11426185217E+04 0.  0.
        2    1    3    3  502    0 -0.28919707880E+03 -0.31583637195E+03 -0.35978392970E+03  0.55931390141E+03  0.25500000920E-02 0. -1.
       -2    1    3    3    0  502  0.28919707880E+03  0.31583637195E+03  0.39694041137E+03  0.58390860108E+03  0.25500000920E-02 0.  1.
</event>
<event>
 5   0  0.7712816E-03  0.1110193E+04  0.7818609E-02  0.9195314E-01
       -2   -1    0    0    0  501  0.00000000000E+00  0.00000000000E+00  0.38119769082E+03  0.38119769083E+03  0.25500000920E-02 0. -1.
        2   -1    0    0  501    0  0.00000000000E+00  0.00000000000E+00 -0.80832650582E+03  0.80832650582E+03  0.25500000920E-02 0.  1.
    10030    2    1    2    0    0  0.00000000000E+00  0.00000000000E+00 -0.42712881500E+03  0.11895241966E+04  0.11101931318E+04 0.  0.
        2    1    3    3  502    0  0.31128454606E+03 -0.28649601535E+03  0.17149607208E+03  0.45649637257E+03  0.25500000920E-02 0. -1.
       -2    1    3    3    0  502 -0.31128454606E+03  0.28649601535E+03 -0.59862488708E+03  0.73302782407E+03  0.25500000920E-02 0.  1.
</event>
<event>
 5   0  0.4641021E-03  0.1116107E+04  0.7818609E-02  0.9189633E-01
       -1   -1    0    0    0  501  0.00000000000E+00  0.00000000000E+00  0.31552888301E+03  0.31552888305E+03  0.50400001928E-02 0.  1.
        1   -1    0    0  501    0  0.00000000000E+00  0.00000000000E+00 -0.98699017711E+03  0.98699017712E+03  0.50400001928E-02 0. -1.
    10030    2    1    2    0    0  0.00000000000E+00  0.00000000000E+00 -0.67146129410E+03  0.13025190602E+04  0.11161073571E+04 0.  0.
        1    1    3    3  502    0  0.37579610862E+03 -0.27744104931E+02 -0.81609983143E+03  0.89889453525E+03  0.50400001928E-02 0. -1.
       -1    1    3    3    0  502 -0.37579610862E+03  0.27744104931E+02  0.14463853734E+03  0.40362452492E+03  0.50400001928E-02 0.  1.
</event>
<event>
 5   0  0.4598561E-03  0.1091421E+04  0.7818609E-02  0.9213594E-01
        1   -1    0    0  501    0  0.00000000000E+00  0.00000000000E+00  0.11695314690E+04  0.11695314690E+04  0.50400001928E-02 0. -1.
       -1   -1    0    0    0  501  0.00000000000E+00  0.00000000000E+00 -0.25463175886E+03  0.25463175891E+03  0.50400001928E-02 0.  1.
    10030    2    1    2    0    0  0.00000000000E+00  0.00000000000E+00  0.91489971014E+03  0.14241632279E+04  0.10914208263E+04 0.  0.
        2    1    3    3  502    0 -0.26347852857E+03 -0.24379145019E+03  0.99378931653E+03  0.10566325813E+04  0.25500000920E-02 0. -1.
       -2    1    3    3    0  502  0.26347852857E+03  0.24379145019E+03 -0.78889606389E+02  0.36753064663E+03  0.25500000920E-02 0.  1.
</event>
<event>
 5   0  0.4298101E-03  0.1107848E+04  0.7818609E-02  0.9197576E-01
        1   -1    0    0  501    0  0.00000000000E+00  0.00000000000E+00  0.83818959451E+03  0.83818959452E+03  0.50400001928E-02 0. -1.
       -1   -1    0    0    0  501  0.00000000000E+00  0.00000000000E+00 -0.36606479190E+03  0.36606479194E+03  0.50400001928E-02 0.  1.
    10030    2    1    2    0    0  0.00000000000E+00  0.00000000000E+00  0.47212480260E+03  0.12042543865E+04  0.11078478226E+04 0.  0.
        3    1    3    3  502    0  0.33107438369E+03 -0.28002944585E+03  0.61073799024E+03  0.74901778417E+03  0.10100000352E+00 0. -1.
       -3    1    3    3    0  502 -0.33107438369E+03  0.28002944585E+03 -0.13861318764E+03  0.45523660229E+03  0.10100000352E+00 0.  1.
</event>
<event>
 5   0  0.4428114E-03  0.1101194E+04  0.7818609E-02  0.9204029E-01
       -1   -1    0    0    0  501  0.00000000000E+00  0.00000000000E+00  0.19718479643E+03  0.19718479649E+03  0.50400001928E-02 0.  1.
        1   -1    0    0  501    0  0.00000000000E+00  0.00000000000E+00 -0.15374266868E+04  0.15374266868E+04  0.50400001928E-02 0. -1.
    10030    2    1    2    0    0  0.00000000000E+00  0.00000000000E+00 -0.13402418904E+04  0.17346114833E+04  0.11011942033E+04 0.  0.
        4    1    3    3  502    0  0.35889280515E+03  0.23314746446E+03 -0.12157753296E+04  0.12889038174E+04  0.12699999809E+01 0. -1.
       -4    1    3    3    0  502 -0.35889280515E+03 -0.23314746446E+03 -0.12446656086E+03  0.44570766590E+03  0.12699999809E+01 0.  1.
</event>
<event>
 5   0  0.7738497E-03  0.1086058E+04  0.7818609E-02  0.9218889E-01
       -2   -1    0    0    0  501  0.00000000000E+00  0.00000000000E+00  0.26695824493E+03  0.26695824495E+03  0.25500000920E-02 0. -1.
        2   -1    0    0  501    0  0.00000000000E+00  0.00000000000E+00 -0.11045933519E+04  0.11045933519E+04  0.25500000920E-02 0.  1.
    10030    2    1    2    0    0  0.00000000000E+00  0.00000000000E+00 -0.83763510693E+03  0.13715515968E+04  0.10860576460E+04 0.  0.
        4    1    3    3  502    0 -0.19063182753E+03  0.48960407080E+03 -0.24554136942E+03  0.57995242633E+03  0.12699999809E+01 0.  1.
       -4    1    3    3    0  502  0.19063182753E+03 -0.48960407080E+03 -0.59209373752E+03  0.79159917049E+03  0.12699999809E+01 0. -1.
</event>
<event>
 5   0  0.7712816E-03  0.1101085E+04  0.7818609E-02  0.9204135E-01
        2   -1    0    0  501    0  0.00000000000E+00  0.00000000000E+00  0.42043938831E+03  0.42043938832E+03  0.25500000920E-02 0. -1.
       -2   -1    0    0    0  501  0.00000000000E+00  0.00000000000E+00 -0.72090575781E+03  0.72090575782E+03  0.25500000920E-02 0.  1.
    10030    2    1    2    0    0  0.00000000000E+00  0.00000000000E+00 -0.30046636950E+03  0.11413451461E+04  0.11010852389E+04 0.  0.
        2    1    3    3  502    0 -0.40666166732E+03 -0.35445386799E+03 -0.26418884639E+03  0.60067212584E+03  0.25500000920E-02 0. -1.
       -2    1    3    3    0  502  0.40666166732E+03  0.35445386799E+03 -0.36277523109E+02  0.54067302030E+03  0.25500000920E-02 0.  1.
</event>
<event>
 5   0  0.7766551E-03  0.1114897E+04  0.7818609E-02  0.9190793E-01
       -2   -1    0    0    0  501  0.00000000000E+00  0.00000000000E+00  0.17647360858E+03  0.17647360860E+03  0.25500000920E-02 0.  1.
        2   -1    0    0  501    0  0.00000000000E+00  0.00000000000E+00 -0.17608788354E+04  0.17608788354E+04  0.25500000920E-02 0. -1.
    10030    2    1    2    0    0  0.00000000000E+00  0.00000000000E+00 -0.15844052269E+04  0.19373524441E+04  0.11148966632E+04 0.  0.
        5    1    3    3  502    0  0.29130854107E+03 -0.67833386680E+02  0.25188491443E+02  0.30019757586E+03  0.46999998093E+01 0.  1.
       -5    1    3    3    0  502 -0.29130854107E+03  0.67833386680E+02 -0.16095937183E+04  0.16371548682E+04  0.46999998093E+01 0. -1.
</event>
<event>
 5   0  0.7952121E-03  0.1092825E+04  0.7818609E-02  0.9212214E-01
       -2   -1    0    0    0  501  0.00000000000E+00  0.00000000000E+00  0.21048539952E+03  0.21048539953E+03  0.25500000920E-02 0.  1.
        2   -1    0    0  501    0  0.00000000000E+00  0.00000000000E+00 -0.14184664576E+04  0.14184664576E+04  0.25500000920E-02 0. -1.
    10030    2    1    2    0    0  0.00000000000E+00  0.00000000000E+00 -0.12079810581E+04  0.16289518571E+04  0.10928247418E+04 0.  0.
        3    1    3    3  502    0  0.41978594641E+03 -0.27004424715E+03 -0.93536523078E+03  0.10602133094E+04  0.10100000352E+00 0. -1.
       -3    1    3    3    0  502 -0.41978594641E+03  0.27004424715E+03 -0.27261582731E+03  0.56873854777E+03  0.10100000352E+00 0.  1.
</event>
<event>
 5   0  0.7537480E-03  0.1326359E+04  0.7818609E-02  0.9008920E-01
        2   -1    0    0  501    0  0.00000000000E+00  0.00000000000E+00  0.14406372969E+04  0.14406372969E+04  0.25500000920E-02 0. -1.
       -2   -1    0    0    0  501  0.00000000000E+00  0.00000000000E+00 -0.30528638723E+03  0.30528638724E+03  0.25500000920E-02 0.  1.
    10030    2    1    2    0    0  0.00000000000E+00  0.00000000000E+00  0.11353509096E+04  0.17459236841E+04  0.13263588589E+04 0.  0.
        1    1    3    3  502    0 -0.12355764656E+02  0.50252571025E+03  0.11370877923E+04  0.12432430985E+04  0.50400001928E-02 0. -1.
       -1    1    3    3    0  502  0.12355764656E+02 -0.50252571025E+03 -0.17368827113E+01  0.50268058563E+03  0.50400001928E-02 0.  1.
</event>
<event>
 5   0  0.4298101E-03  0.1096240E+04  0.7818609E-02  0.9208865E-01
        1   -1    0    0  501    0  0.00000000000E+00  0.00000000000E+00  0.67536958557E+03  0.67536958559E+03  0.50400001928E-02 0. -1.
       -1   -1    0    0    0  501  0.00000000000E+00  0.00000000000E+00 -0.44484575776E+03  0.44484575779E+03  0.50400001928E-02 0.  1.
    10030    2    1    2    0    0  0.00000000000E+00  0.00000000000E+00  0.23052382781E+03  0.11202153434E+04  0.10962395634E+04 0.  0.
        3    1    3    3  502    0 -0.60500105316E+02  0.44589682708E+02 -0.43955545494E+03  0.44593442423E+03  0.10100000352E+00 0.  1.
       -3    1    3    3    0  502  0.60500105316E+02 -0.44589682708E+02  0.67007928275E+03  0.67428091914E+03  0.10100000352E+00 0. -1.
</event>
<event>
 5   0  0.4298101E-03  0.1105303E+04  0.7818609E-02  0.9200039E-01
        1   -1    0    0  501    0  0.00000000000E+00  0.00000000000E+00  0.80275136813E+03  0.80275136815E+03  0.50400001928E-02 0. -1.
       -1   -1    0    0    0  501  0.00000000000E+00  0.00000000000E+00 -0.38047083641E+03  0.38047083645E+03  0.50400001928E-02 0.  1.
    10030    2    1    2    0    0  0.00000000000E+00  0.00000000000E+00  0.42228053172E+03  0.11832222046E+04  0.11053026454E+04 0.  0.
        3    1    3    3  502    0 -0.36533657354E+01 -0.54185746245E+03  0.32742895376E+03  0.63311340742E+03  0.10100000352E+00 0. -1.
       -3    1    3    3    0  502  0.36533657354E+01  0.54185746245E+03  0.94851577962E+02  0.55010879718E+03  0.10100000352E+00 0.  1.
</event>
<event>
 5   0  0.7766551E-03  0.1087258E+04  0.7818609E-02  0.9217701E-01
       -2   -1    0    0    0  501  0.00000000000E+00  0.00000000000E+00  0.20809857742E+03  0.20809857743E+03  0.25500000920E-02 0. -1.
        2   -1    0    0  501    0  0.00000000000E+00  0.00000000000E+00 -0.14201550821E+04  0.14201550821E+04  0.25500000920E-02 0.  1.
    10030    2    1    2    0    0  0.00000000000E+00  0.00000000000E+00 -0.12120565046E+04  0.16282536595E+04  0.10872575634E+04 0.  0.
        5    1    3    3  502    0 -0.20161981031E+03  0.43997018673E+03 -0.23528800997E+03  0.53815132700E+03  0.46999998093E+01 0. -1.
       -5    1    3    3    0  502  0.20161981031E+03 -0.43997018673E+03 -0.97676849467E+03  0.10901023325E+04  0.46999998093E+01 0.  1.
</event>
<event>
 5   0  0.4428114E-03  0.1311783E+04  0.7818609E-02  0.9020273E-01
        1   -1    0    0  501    0  0.00000000000E+00  0.00000000000E+00  0.31258785677E+03  0.31258785681E+03  0.50400001928E-02 0.  1.
       -1   -1    0    0    0  501  0.00000000000E+00  0.00000000000E+00 -0.13762319999E+04  0.13762319999E+04  0.50400001928E-02 0. -1.
    10030    2    1    2    0    0  0.00000000000E+00  0.00000000000E+00 -0.10636441431E+04  0.16888198567E+04  0.13117826212E+04 0.  0.
        4    1    3    3  502    0 -0.36182825155E+03 -0.41781771799E+03 -0.77194785700E+02  0.55807882680E+03  0.12699999809E+01 0.  1.
       -4    1    3    3    0  502  0.36182825155E+03  0.41781771799E+03 -0.98644935744E+03  0.11307410299E+04  0.12699999809E+01 0. -1.
</event>
<event>
 5   0  0.7537480E-03  0.1058579E+04  0.7818609E-02  0.9246531E-01
        2   -1    0    0  501    0  0.00000000000E+00  0.00000000000E+00  0.23105552237E+04  0.23105552237E+04  0.25500000920E-02 0. -1.
       -2   -1    0    0    0  501  0.00000000000E+00  0.00000000000E+00 -0.12124680590E+03  0.12124680593E+03  0.25500000920E-02 0.  1.
    10030    2    1    2    0    0  0.00000000000E+00  0.00000000000E+00  0.21893084178E+04  0.24318020297E+04  0.10585791246E+04 0.  0.
        1    1    3    3  502    0  0.50209384748E+03  0.94333200504E+01  0.14787815281E+04  0.15617240560E+04  0.50400001928E-02 0. -1.
       -1    1    3    3    0  502 -0.50209384748E+03 -0.94333200504E+01  0.71052688970E+03  0.87007797364E+03  0.50400001928E-02 0.  1.
</event>
<event>
 5   0  0.7952121E-03  0.1101223E+04  0.7818609E-02  0.9204001E-01
       -2   -1    0    0    0  501  0.00000000000E+00  0.00000000000E+00  0.78972852748E+03  0.78972852748E+03  0.25500000920E-02 0. -1.
        2   -1    0    0  501    0  0.00000000000E+00  0.00000000000E+00 -0.38389504526E+03  0.38389504527E+03  0.25500000920E-02 0.  1.
    10030    2    1    2    0    0  0.00000000000E+00  0.00000000000E+00  0.40583348222E+03  0.11736235727E+04  0.11012227183E+04 0.  0.
        3    1    3    3  502    0 -0.36321605076E+03 -0.20558780689E+03  0.58566734050E+03  0.71916513389E+03  0.10100000352E+00 0. -1.
       -3    1    3    3    0  502  0.36321605076E+03  0.20558780689E+03 -0.17983385828E+03  0.45445843886E+03  0.10100000352E+00 0.  1.
</event>
<event>
 5   0  0.4641021E-03  0.1085834E+04  0.7818609E-02  0.9219110E-01
        1   -1    0    0  501    0  0.00000000000E+00  0.00000000000E+00  0.49596911607E+03  0.49596911610E+03  0.50400001928E-02 0.  1.
       -1   -1    0    0    0  501  0.00000000000E+00  0.00000000000E+00 -0.59430857627E+03  0.59430857629E+03  0.50400001928E-02 0. -1.
    10030    2    1    2    0    0  0.00000000000E+00  0.00000000000E+00 -0.98339460204E+02  0.10902776924E+04  0.10858336876E+04 0.  0.
        1    1    3    3  502    0 -0.78248508589E+02 -0.18736762511E+03 -0.55474735458E+03  0.59074028428E+03  0.50400001928E-02 0. -1.
       -1    1    3    3    0  502  0.78248508589E+02  0.18736762511E+03  0.45640789437E+03  0.49953740811E+03  0.50400001928E-02 0.  1.
</event>
<event>
 5   0  0.7952121E-03  0.1071123E+04  0.7818609E-02  0.9233803E-01
        2   -1    0    0  501    0  0.00000000000E+00  0.00000000000E+00  0.27125310285E+03  0.27125310286E+03  0.25500000920E-02 0.  1.
       -2   -1    0    0    0  501  0.00000000000E+00  0.00000000000E+00 -0.10574123332E+04  0.10574123332E+04  0.25500000920E-02 0. -1.
    10030    2    1    2    0    0  0.00000000000E+00  0.00000000000E+00 -0.78615923037E+03  0.13286654361E+04  0.10711234782E+04 0.  0.
        3    1    3    3  502    0  0.11149862912E+03  0.32111276609E+03  0.12029065007E+03  0.36057621044E+03  0.10100000352E+00 0.  1.
       -3    1    3    3    0  502 -0.11149862912E+03 -0.32111276609E+03 -0.90644988044E+03  0.96808922563E+03  0.10100000352E+00 0. -1.
</event>
<event>
 5   0  0.7537480E-03  0.1114478E+04  0.7818609E-02  0.9191194E-01
       -2   -1    0    0    0  501  0.00000000000E+00  0.00000000000E+00  0.31615890904E+03  0.31615890905E+03  0.25500000920E-02 0.  1.
        2   -1    0    0  501    0  0.00000000000E+00  0.00000000000E+00 -0.98215004738E+03  0.98215004739E+03  0.25500000920E-02 0. -1.
    10030    2    1    2    0    0  0.00000000000E+00  0.00000000000E+00 -0.66599113835E+03  0.12983089564E+04  0.11144783309E+04 0.  0.
        1    1    3    3  502    0  0.43659660423E+03  0.52291154558E+02 -0.73174905959E+03  0.85370231691E+03  0.50400001928E-02 0. -1.
       -1    1    3    3    0  502 -0.43659660423E+03 -0.52291154558E+02  0.65757921240E+02  0.44460663952E+03  0.50400001928E-02 0.  1.
</event>
<event>
 5   0  0.4598561E-03  0.1104198E+04  0.7818609E-02  0.9201110E-01
        1   -1    0    0  501    0  0.00000000000E+00  0.00000000000E+00  0.84911796688E+03  0.84911796689E+03  0.50400001928E-02 0. -1.
       -1   -1    0    0    0  501  0.00000000000E+00  0.00000000000E+00 -0.35897644847E+03  0.35897644851E+03  0.50400001928E-02 0.  1.
    10030    2    1    2    0    0  0.00000000000E+00  0.00000000000E+00  0.49014151840E+03  0.12080944154E+04  0.11041980839E+04 0.  0.
        2    1    3    3  502    0 -0.32264263338E+03  0.40145912074E+03  0.46264290176E+03  0.69231939815E+03  0.25500000920E-02 0.  1.
       -2    1    3    3    0  502  0.32264263338E+03 -0.40145912074E+03  0.27498616645E+02  0.51577501725E+03  0.25500000920E-02 0. -1.
</event>
<event>
 5   0  0.7738497E-03  0.1114572E+04  0.7818609E-02  0.9191104E-01
       -2   -1    0    0    0  501  0.00000000000E+00  0.00000000000E+00  0.22901840245E+03  0.22901840246E+03  0.25500000920E-02 0.  1.
        2   -1    0    0  501    0  0.00000000000E+00  0.00000000000E+00 -0.13560821488E+04  0.13560821488E+04  0.25500000920E-02 0. -1.
    10030    2    1    2    0    0  0.00000000000E+00  0.00000000000E+00 -0.11270637463E+04  0.15851005512E+04  0.11145721463E+04 0.  0.
        4    1    3    3  502    0 -0.51672424271E+03 -0.84032778175E+02 -0.29182586031E+03  0.59935748636E+03  0.12699999809E+01 0.  1.
       -4    1    3    3    0  502  0.51672424271E+03  0.84032778175E+02 -0.83523788602E+03  0.98574306487E+03  0.12699999809E+01 0. -1.
</event>
<event>
 5   0  0.7712816E-03  0.1105831E+04  0.7818609E-02  0.9199527E-01
       -2   -1    0    0    0  501  0.00000000000E+00  0.00000000000E+00  0.20269166325E+03  0.20269166327E+03  0.25500000920E-02 0.  1.
        2   -1    0    0  501    0  0.00000000000E+00  0.00000000000E+00 -0.15082786655E+04  0.15082786655E+04  0.25500000920E-02 0. -1.
    10030    2    1    2    0    0  0.00000000000E+00  0.00000000000E+00 -0.13055870022E+04  0.17109703288E+04  0.11058309299E+04 0.  0.
        2    1    3    3  502    0  0.48408263931E+01 -0.47050932842E+03 -0.11020570096E+04  0.11983038488E+04  0.25500000920E-02 0. -1.
       -2    1    3    3    0  502 -0.48408263931E+01  0.47050932842E+03 -0.20352999264E+03  0.51266647992E+03  0.25500000920E-02 0.  1.
</event>
<event>
 5   0  0.4298101E-03  0.1079369E+04  0.7818609E-02  0.9225536E-01
        1   -1    0    0  501    0  0.00000000000E+00  0.00000000000E+00  0.41465124036E+03  0.41465124039E+03  0.50400001928E-02 0.  1.
       -1   -1    0    0    0  501  0.00000000000E+00  0.00000000000E+00 -0.70242059912E+03  0.70242059913E+03  0.50400001928E-02 0. -1.
    10030    2    1    2    0    0  0.00000000000E+00  0.00000000000E+00 -0.28776935875E+03  0.11170718395E+04  0.10793693950E+04 0.  0.
        3    1    3    3  502    0  0.18140632782E+03 -0.40898158358E+02  0.38044673088E+03  0.42346267884E+03  0.10100000352E+00 0.  1.
       -3    1    3    3    0  502 -0.18140632782E+03  0.40898158358E+02 -0.66821608964E+03  0.69360916068E+03  0.10100000352E+00 0. -1.
</event>
<event>
 5   0  0.4428114E-03  0.1092802E+04  0.7818609E-02  0.9212236E-01
        1   -1    0    0  501    0  0.00000000000E+00  0.00000000000E+00  0.38625452324E+03  0.38625452327E+03  0.50400001928E-02 0. -1.
       -1   -1    0    0    0  501  0.00000000000E+00  0.00000000000E+00 -0.77294683618E+03  0.77294683620E+03  0.50400001928E-02 0.  1.
    10030    2    1    2    0    0  0.00000000000E+00  0.00000000000E+00 -0.38669231294E+03  0.11592013595E+04  0.10928022909E+04 0.  0.
        4    1    3    3  502    0  0.10647144750E+03 -0.43186748792E+03  0.14327926048E+03  0.46730745301E+03  0.12699999809E+01 0.  1.
       -4    1    3    3    0  502 -0.10647144750E+03  0.43186748792E+03 -0.52997157342E+03  0.69189390646E+03  0.12699999809E+01 0. -1.
</event>
<event>
 5   0  0.4504740E-03  0.1109198E+04  0.7818609E-02  0.9196273E-01
        1   -1    0    0  501    0  0.00000000000E+00  0.00000000000E+00  0.13517772322E+04  0.13517772322E+04  0.50400001928E-02 0. -1.
       -1   -1    0    0    0  501  0.00000000000E+00  0.00000000000E+00 -0.22753755859E+03  0.22753755864E+03  0.50400001928E-02 0.  1.
    10030    2    1    2    0    0  0.00000000000E+00  0.00000000000E+00  0.11242396736E+04  0.15793147909E+04  0.11091980729E+04 0.  0.
        5    1    3    3  502    0  0.34911089343E+03 -0.37274616271E+03  0.86994449729E+03  0.10087832453E+04  0.46999998093E+01 0. -1.
       -5    1    3    3    0  502 -0.34911089343E+03  0.37274616271E+03  0.25429517633E+03  0.57053154551E+03  0.46999998093E+01 0.  1.
</event>
<event>
 5   0  0.4428114E-03  0.1109136E+04  0.7818609E-02  0.9196333E-01
       -1   -1    0    0    0  501  0.00000000000E+00  0.00000000000E+00  0.61020679616E+03  0.61020679619E+03  0.50400001928E-02 0. -1.
        1   -1    0    0  501    0  0.00000000000E+00  0.00000000000E+00 -0.50400197614E+03  0.50400197617E+03  0.50400001928E-02 0.  1.
    10030    2    1    2    0    0  0.00000000000E+00  0.00000000000E+00  0.10620482002E+03  0.11142087724E+04  0.11091355754E+04 0.  0.
        4    1    3    3  502    0  0.15989407577E+03 -0.52182701468E+02 -0.47776022576E+03  0.50650330307E+03  0.12699999809E+01 0.  1.
       -4    1    3    3    0  502 -0.15989407577E+03  0.52182701468E+02  0.58396504579E+03  0.60770546928E+03  0.12699999809E+01 0. -1.
</event>
<event>
 5   0  0.4641021E-03  0.1119724E+04  0.7818609E-02  0.9186178E-01
        1   -1    0    0  501    0  0.00000000000E+00  0.00000000000E+00  0.24143468886E+03  0.24143468891E+03  0.50400001928E-02 0. -1.
       -1   -1    0    0    0  501  0.00000000000E+00  0.00000000000E+00 -0.12982608484E+04  0.12982608485E+04  0.50400001928E-02 0.  1.
    10030    2    1    2    0    0  0.00000000000E+00  0.00000000000E+00 -0.10568261596E+04  0.15396955374E+04  0.11197235445E+04 0.  0.
        1    1    3    3  502    0  0.38427708859E+03 -0.38316253615E+03 -0.33905876514E+03  0.63987753216E+03  0.50400001928E-02 0.  1.
       -1    1    3    3    0  502 -0.38427708859E+03  0.38316253615E+03 -0.71776739445E+03  0.89981800520E+03  0.50400001928E-02 0. -1.
</event>
<event>
 5   0  0.7766551E-03  0.1085991E+04  0.7818609E-02  0.9218955E-01
       -2   -1    0    0    0  501  0.00000000000E+00  0.00000000000E+00  0.27303153800E+03  0.27303153801E+03  0.25500000920E-02 0. -1.
        2   -1    0    0  501    0  0.00000000000E+00  0.00000000000E+00 -0.10798903038E+04  0.10798903038E+04  0.25500000920E-02 0.  1.
    10030    2    1    2    0    0  0.00000000000E+00  0.00000000000E+00 -0.80685876578E+03  0.13529218418E+04  0.10859909954E+04 0.  0.
        5    1    3    3  502    0 -0.42985967558E+03  0.33172680183E+03 -0.40331262315E+03  0.67639128744E+03  0.46999998093E+01 0. -1.
       -5    1    3    3    0  502  0.42985967558E+03 -0.33172680183E+03 -0.40354614264E+03  0.67653055436E+03  0.46999998093E+01 0.  1.
</event>
<event>
 5   0  0.4428114E-03  0.7930406E+03  0.7818609E-02  0.9570146E-01
       -1   -1    0    0    0  501  0.00000000000E+00  0.00000000000E+00  0.13920959836E+03  0.13920959845E+03  0.50400001928E-02 0.  1.
        1   -1    0    0  501    0  0.00000000000E+00  0.00000000000E+00 -0.11294360062E+04  0.11294360062E+04  0.50400001928E-02 0. -1.
    10030    2    1    2    0    0  0.00000000000E+00  0.00000000000E+00 -0.99022640785E+03  0.12686456047E+04  0.79304056103E+03 0.  0.
        4    1    3    3  502    0  0.18180558207E+03  0.17663387654E+03 -0.98289489957E+03  0.10150550687E+04  0.12699999809E+01 0. -1.
       -4    1    3    3    0  502 -0.18180558207E+03 -0.17663387654E+03 -0.73315082753E+01  0.25359053595E+03  0.12699999809E+01 0.  1.
</event>
<event>
 5   0  0.2992375E-03  0.1125073E+04  0.7818609E-02  0.9181093E-01
       -4   -1    0    0    0  501  0.00000000000E+00  0.00000000000E+00  0.22647161273E+03  0.22647517363E+03  0.12699999809E+01 0.  1.
        4   -1    0    0  501    0  0.00000000000E+00  0.00000000000E+00 -0.13972791482E+04  0.13972797254E+04  0.12699999809E+01 0. -1.
    10030    2    1    2    0    0  0.00000000000E+00  0.00000000000E+00 -0.11708075355E+04  0.16237548990E+04  0.11250731918E+04 0.  0.
        2    1    3    3  502    0  0.22067982760E+03  0.11788247190E+03 -0.13125631545E+04  0.13361953069E+04  0.25500000920E-02 0. -1.
       -2    1    3    3    0  502 -0.22067982760E+03 -0.11788247190E+03  0.14175561904E+03  0.28755959213E+03  0.25500000920E-02 0.  1.
</event>
<event>
 5   0  0.7952121E-03  0.1081192E+04  0.7818609E-02  0.9223720E-01
       -2   -1    0    0    0  501  0.00000000000E+00  0.00000000000E+00  0.40620030958E+03  0.40620030959E+03  0.25500000920E-02 0. -1.
        2   -1    0    0  501    0  0.00000000000E+00  0.00000000000E+00 -0.71945757877E+03  0.71945757877E+03  0.25500000920E-02 0.  1.
    10030    2    1    2    0    0  0.00000000000E+00  0.00000000000E+00 -0.31325726919E+03  0.11256578884E+04  0.10811917337E+04 0.  0.
        3    1    3    3  502    0 -0.19720356504E+03 -0.26394528833E+02 -0.67995208776E+03  0.70846366814E+03  0.10100000352E+00 0.  1.
       -3    1    3    3    0  502  0.19720356504E+03  0.26394528833E+02  0.36669481858E+03  0.41719422022E+03  0.10100000352E+00 0. -1.
</event>
<event>
 5   0  0.7952121E-03  0.9173948E+03  0.7818609E-02  0.9404094E-01
       -2   -1    0    0    0  501  0.00000000000E+00  0.00000000000E+00  0.15341193333E+03  0.15341193335E+03  0.25500000920E-02 0. -1.
        2   -1    0    0  501    0  0.00000000000E+00  0.00000000000E+00 -0.13714925667E+04  0.13714925667E+04  0.25500000920E-02 0.  1.
    10030    2    1    2    0    0  0.00000000000E+00  0.00000000000E+00 -0.12180806334E+04  0.15249045001E+04  0.91739484678E+03 0.  0.
        3    1    3    3  502    0  0.41192976414E+03 -0.13476095399E+03 -0.35939475484E+03  0.56303751679E+03  0.10100000352E+00 0. -1.
       -3    1    3    3    0  502 -0.41192976414E+03  0.13476095399E+03 -0.85868587854E+03  0.96186698328E+03  0.10100000352E+00 0.  1.
</event>
<event>
 5   0  0.4504740E-03  0.1108897E+04  0.7818609E-02  0.9196563E-01
       -1   -1    0    0    0  501  0.00000000000E+00  0.00000000000E+00  0.42535678246E+03  0.42535678249E+03  0.50400001928E-02 0. -1.
        1   -1    0    0  501    0  0.00000000000E+00  0.00000000000E+00 -0.72271852656E+03  0.72271852658E+03  0.50400001928E-02 0.  1.
    10030    2    1    2    0    0  0.00000000000E+00  0.00000000000E+00 -0.29736174410E+03  0.11480753091E+04  0.11088971586E+04 0.  0.
        5    1    3    3  502    0 -0.87542545099E+02  0.34752477841E+03  0.28929458341E+03  0.46059810551E+03  0.46999998093E+01 0. -1.
       -5    1    3    3    0  502  0.87542545099E+02 -0.34752477841E+03 -0.58665632750E+03  0.68747720356E+03  0.46999998093E+01 0.  1.
</event>
<event>
 5   0  0.7766551E-03  0.1120867E+04  0.7818609E-02  0.9185089E-01
       -2   -1    0    0    0  501  0.00000000000E+00  0.00000000000E+00  0.23833501978E+03  0.23833501979E+03  0.25500000920E-02 0.  1.
        2   -1    0    0  501    0  0.00000000000E+00  0.00000000000E+00 -0.13178326824E+04  0.13178326824E+04  0.25500000920E-02 0. -1.
    10030    2    1    2    0    0  0.00000000000E+00  0.00000000000E+00 -0.10794976626E+04  0.15561677022E+04  0.11208669474E+04 0.  0.
        5    1    3    3  502    0  0.36661827100E+03  0.42384808638E+03 -0.54353360412E+03  0.78070930939E+03  0.46999998093E+01 0.  1.
       -5    1    3    3    0  502 -0.36661827100E+03 -0.42384808638E+03 -0.53596405847E+03  0.77545839278E+03  0.46999998093E+01 0. -1.
</event>
<event>
 5   0  0.7952121E-03  0.1078529E+04  0.7818609E-02  0.9226375E-01
       -2   -1    0    0    0  501  0.00000000000E+00  0.00000000000E+00  0.27374295826E+03  0.27374295828E+03  0.25500000920E-02 0. -1.
        2   -1    0    0  501    0  0.00000000000E+00  0.00000000000E+00 -0.10623340405E+04  0.10623340405E+04  0.25500000920E-02 0.  1.
    10030    2    1    2    0    0  0.00000000000E+00  0.00000000000E+00 -0.78859108226E+03  0.13360769988E+04  0.10785294858E+04 0.  0.
        3    1    3    3  502    0 -0.40987875727E+03  0.34593574742E+03 -0.46364943268E+03  0.70897316143E+03  0.10100000352E+00 0. -1.
       -3    1    3    3    0  502  0.40987875727E+03 -0.34593574742E+03 -0.32494164958E+03  0.62710383737E+03  0.10100000352E+00 0.  1.
</event>
<event>
 5   0  0.4298101E-03  0.1053641E+04  0.7818609E-02  0.9251593E-01
        1   -1    0    0  501    0  0.00000000000E+00  0.00000000000E+00  0.66610821768E+03  0.66610821770E+03  0.50400001928E-02 0. -1.
       -1   -1    0    0    0  501  0.00000000000E+00  0.00000000000E+00 -0.41665890358E+03  0.41665890361E+03  0.50400001928E-02 0.  1.
    10030    2    1    2    0    0  0.00000000000E+00  0.00000000000E+00  0.24944931411E+03  0.10827671213E+04  0.10536411527E+04 0.  0.
        3    1    3    3  502    0  0.10725739920E+03  0.43720879061E+03  0.40593903949E+03  0.60617010010E+03  0.10100000352E+00 0.  1.
       -3    1    3    3    0  502 -0.10725739920E+03 -0.43720879061E+03 -0.15648972538E+03  0.47659702121E+03  0.10100000352E+00 0. -1.
</event>
<event>
 5   0  0.4298101E-03  0.1123670E+04  0.7818609E-02  0.9182424E-01
        1   -1    0    0  501    0  0.00000000000E+00  0.00000000000E+00  0.40337014785E+03  0.40337014788E+03  0.50400001928E-02 0. -1.
       -1   -1    0    0    0  501  0.00000000000E+00  0.00000000000E+00 -0.78255263756E+03  0.78255263758E+03  0.50400001928E-02 0.  1.
    10030    2    1    2    0    0  0.00000000000E+00  0.00000000000E+00 -0.37918248971E+03  0.11859227855E+04  0.11236696546E+04 0.  0.
        3    1    3    3  502    0 -0.27095275953E+02  0.55748199087E+03 -0.12169980168E+03  0.57125403811E+03  0.10100000352E+00 0. -1.
       -3    1    3    3    0  502  0.27095275953E+02 -0.55748199087E+03 -0.25748268803E+03  0.61466874735E+03  0.10100000352E+00 0.  1.
</event>
<event>
 5   0  0.4428114E-03  0.1117998E+04  0.7818609E-02  0.9187826E-01
       -1   -1    0    0    0  501  0.00000000000E+00  0.00000000000E+00  0.82201828754E+03  0.82201828756E+03  0.50400001928E-02 0. -1.
        1   -1    0    0  501    0  0.00000000000E+00  0.00000000000E+00 -0.38013709872E+03  0.38013709875E+03  0.50400001928E-02 0.  1.
    10030    2    1    2    0    0  0.00000000000E+00  0.00000000000E+00  0.44188118882E+03  0.12021553863E+04  0.11179975795E+04 0.  0.
        4    1    3    3  502    0 -0.12719108407E+03  0.39796396946E+03  0.62027935156E+03  0.74786427895E+03  0.12699999809E+01 0. -1.
       -4    1    3    3    0  502  0.12719108407E+03 -0.39796396946E+03 -0.17839816274E+03  0.45429110736E+03  0.12699999809E+01 0.  1.
</event>
<event>
 5   0  0.7537480E-03  0.1098141E+04  0.7818609E-02  0.9207005E-01
       -2   -1    0    0    0  501  0.00000000000E+00  0.00000000000E+00  0.11778205205E+03  0.11778205208E+03  0.25500000920E-02 0. -1.
        2   -1    0    0  501    0  0.00000000000E+00  0.00000000000E+00 -0.25596307981E+04  0.25596307981E+04  0.25500000920E-02 0.  1.
    10030    2    1    2    0    0  0.00000000000E+00  0.00000000000E+00 -0.24418487460E+04  0.26774128502E+04  0.10981412804E+04 0.  0.
        1    1    3    3  502    0  0.42268742049E+03  0.26076625023E+03 -0.17917537834E+04  0.18593131294E+04  0.50400001928E-02 0.  1.
       -1    1    3    3    0  502 -0.42268742049E+03 -0.26076625023E+03 -0.65009496264E+03  0.81809972081E+03  0.50400001928E-02 0. -1.
</event>
<event>
 5   0  0.7766551E-03  0.1137562E+04  0.7818609E-02  0.9169335E-01
       -2   -1    0    0    0  501  0.00000000000E+00  0.00000000000E+00  0.60564999336E+03  0.60564999337E+03  0.25500000920E-02 0.  1.
        2   -1    0    0  501    0  0.00000000000E+00  0.00000000000E+00 -0.53415636158E+03  0.53415636158E+03  0.25500000920E-02 0. -1.
    10030    2    1    2    0    0  0.00000000000E+00  0.00000000000E+00  0.71493631787E+02  0.11398063550E+04  0.11375619488E+04 0.  0.
        5    1    3    3  502    0 -0.52942364479E+03 -0.18556887285E+03 -0.58056826973E+02  0.56401940338E+03  0.46999998093E+01 0. -1.
       -5    1    3    3    0  502  0.52942364479E+03  0.18556887285E+03  0.12955045876E+03  0.57578695157E+03  0.46999998093E+01 0.  1.
</event>
<event>
 5   0  0.7712816E-03  0.1441935E+04  0.7818609E-02  0.8924011E-01
       -2   -1    0    0    0  501  0.00000000000E+00  0.00000000000E+00  0.42031880403E+03  0.42031880404E+03  0.25500000920E-02 0. -1.
        2   -1    0    0  501    0  0.00000000000E+00  0.00000000000E+00 -0.12366671840E+04  0.12366671840E+04  0.25500000920E-02 0.  1.
    10030    2    1    2    0    0  0.00000000000E+00  0.00000000000E+00 -0.81634838001E+03  0.16569859881E+04  0.14419354657E+04 0.  0.
        2    1    3    3  502    0 -0.13441140908E+02 -0.66350621764E+03 -0.73192454160E+03  0.98799529337E+03  0.25500000920E-02 0.  1.
       -2    1    3    3    0  502  0.13441140908E+02  0.66350621764E+03 -0.84423838411E+02  0.66899069472E+03  0.25500000920E-02 0. -1.
</event>
<event>
 5   0  0.7952121E-03  0.1099989E+04  0.7818609E-02  0.9205203E-01
       -2   -1    0    0    0  501  0.00000000000E+00  0.00000000000E+00  0.31371869743E+03  0.31371869744E+03  0.25500000920E-02 0.  1.
        2   -1    0    0  501    0  0.00000000000E+00  0.00000000000E+00 -0.96422030553E+03  0.96422030554E+03  0.25500000920E-02 0. -1.
    10030    2    1    2    0    0  0.00000000000E+00  0.00000000000E+00 -0.65050160810E+03  0.12779390030E+04  0.10999889787E+04 0.  0.
        3    1    3    3  502    0  0.15133910803E+03  0.38458695835E+02  0.28742556973E+03  0.32710253017E+03  0.10100000352E+00 0.  1.
       -3    1    3    3    0  502 -0.15133910803E+03 -0.38458695835E+02 -0.93792717784E+03  0.95083647281E+03  0.10100000352E+00 0. -1.
</event>
<event>
 5   0  0.4598561E-03  0.7025181E+03  0.7818609E-02  0.9712936E-01
       -1   -1    0    0    0  501  0.00000000000E+00  0.00000000000E+00  0.38398261939E+03  0.38398261942E+03  0.50400001928E-02 0. -1.
        1   -1    0    0  501    0  0.00000000000E+00  0.00000000000E+00 -0.32132425906E+03  0.32132425910E+03  0.50400001928E-02 0.  1.
    10030    2    1    2    0    0  0.00000000000E+00  0.00000000000E+00  0.62658360328E+02  0.70530687852E+03  0.70251812985E+03 0.  0.
        2    1    3    3  502    0 -0.55852985956E+02  0.23064636719E+03 -0.22866916300E+03  0.32955559296E+03  0.25500000920E-02 0.  1.
       -2    1    3    3    0  502  0.55852985956E+02 -0.23064636719E+03  0.29132752333E+03  0.37575128555E+03  0.25500000920E-02 0. -1.
</event>
<event>
 5   0  0.4641021E-03  0.1088638E+04  0.7818609E-02  0.9216338E-01
       -1   -1    0    0    0  501  0.00000000000E+00  0.00000000000E+00  0.22985982876E+03  0.22985982881E+03  0.50400001928E-02 0. -1.
        1   -1    0    0  501    0  0.00000000000E+00  0.00000000000E+00 -0.12889723748E+04  0.12889723748E+04  0.50400001928E-02 0.  1.
    10030    2    1    2    0    0  0.00000000000E+00  0.00000000000E+00 -0.10591125461E+04  0.15188322036E+04  0.10886376246E+04 0.  0.
        1    1    3    3  502    0  0.38524229314E+03 -0.17284556037E+03 -0.10088035487E+04  0.10936049616E+04  0.50400001928E-02 0.  1.
       -1    1    3    3    0  502 -0.38524229314E+03  0.17284556037E+03 -0.50308997411E+02  0.42522724208E+03  0.50400001928E-02 0. -1.
</event>
<event>
 5   0  0.7952121E-03  0.1035227E+04  0.7818609E-02  0.9270731E-01
       -2   -1    0    0    0  501  0.00000000000E+00  0.00000000000E+00  0.41497315127E+03  0.41497315128E+03  0.25500000920E-02 0. -1.
        2   -1    0    0  501    0  0.00000000000E+00  0.00000000000E+00 -0.64564060300E+03  0.64564060300E+03  0.25500000920E-02 0.  1.
    10030    2    1    2    0    0  0.00000000000E+00  0.00000000000E+00 -0.23066745173E+03  0.10606137543E+04  0.10352265754E+04 0.  0.
        3    1    3    3  502    0 -0.10180031135E+03 -0.47885183056E+03 -0.28756680914E+03  0.56776496804E+03  0.10100000352E+00 0.  1.
       -3    1    3    3    0  502  0.10180031135E+03  0.47885183056E+03  0.56899357408E+02  0.49284878624E+03  0.10100000352E+00 0. -1.
</event>
<event>
 5   0  0.7766551E-03  0.1098145E+04  0.7818609E-02  0.9207002E-01
       -2   -1    0    0    0  501  0.00000000000E+00  0.00000000000E+00  0.56522478086E+03  0.56522478087E+03  0.25500000920E-02 0. -1.
        2   -1    0    0  501    0  0.00000000000E+00  0.00000000000E+00 -0.53338175740E+03  0.53338175740E+03  0.25500000920E-02 0.  1.
    10030    2    1    2    0    0  0.00000000000E+00  0.00000000000E+00  0.31843023464E+02  0.10986065383E+04  0.10981449575E+04 0.  0.
        5    1    3    3  502    0 -0.14693108520E+03 -0.32228101494E+03  0.43562699293E+03  0.56146839925E+03  0.46999998093E+01 0. -1.
       -5    1    3    3    0  502  0.14693108520E+03  0.32228101494E+03 -0.40378396947E+03  0.53713813902E+03  0.46999998093E+01 0.  1.
</event>
<event>
 5   0  0.4298101E-03  0.1102656E+04  0.7818609E-02  0.9202607E-01
       -1   -1    0    0    0  501  0.00000000000E+00  0.00000000000E+00  0.25415076547E+03  0.25415076552E+03  0.50400001928E-02 0.  1.
        1   -1    0    0  501    0  0.00000000000E+00  0.00000000000E+00 -0.11959922542E+04  0.11959922543E+04  0.50400001928E-02 0. -1.
    10030    2    1    2    0    0  0.00000000000E+00  0.00000000000E+00 -0.94184148877E+03  0.14501430198E+04  0.11026556071E+04 0.  0.
        3    1    3    3  502    0 -0.99144704675E+02  0.52098192709E+03 -0.27272959546E+03  0.59634996710E+03  0.10100000352E+00 0.  1.
       -3    1    3    3    0  502  0.99144704675E+02 -0.52098192709E+03 -0.66911189331E+03  0.85379305267E+03  0.10100000352E+00 0. -1.
</event>
<event>
 5   0  0.4598561E-03  0.1114073E+04  0.7818609E-02  0.9191583E-01
        1   -1    0    0  501    0  0.00000000000E+00  0.00000000000E+00  0.64364713794E+03  0.64364713796E+03  0.50400001928E-02 0. -1.
       -1   -1    0    0    0  501  0.00000000000E+00  0.00000000000E+00 -0.48208065318E+03  0.48208065321E+03  0.50400001928E-02 0.  1.
    10030    2    1    2    0    0  0.00000000000E+00  0.00000000000E+00  0.16156648476E+03  0.11257277912E+04  0.11140733058E+04 0.  0.
        2    1    3    3  502    0 -0.89556879093E+02 -0.44970425094E+03 -0.23880931726E+03  0.51699539449E+03  0.25500000920E-02 0.  1.
       -2    1    3    3    0  502  0.89556879093E+02  0.44970425094E+03  0.40037580202E+03  0.60873239667E+03  0.25500000920E-02 0. -1.
</event>
<event>
 5   0  0.4598561E-03  0.1085090E+04  0.7818609E-02  0.9219847E-01
        1   -1    0    0  501    0  0.00000000000E+00  0.00000000000E+00  0.60689885454E+03  0.60689885456E+03  0.50400001928E-02 0.  1.
       -1   -1    0    0    0  501  0.00000000000E+00  0.00000000000E+00 -0.48501516689E+03  0.48501516692E+03  0.50400001928E-02 0. -1.
    10030    2    1    2    0    0  0.00000000000E+00  0.00000000000E+00  0.12188368765E+03  0.10919140215E+04  0.10850901331E+04 0.  0.
        2    1    3    3  502    0  0.78492654282E+02  0.35983043065E+03 -0.33995546311E+03  0.50120729494E+03  0.25500000920E-02 0. -1.
       -2    1    3    3    0  502 -0.78492654282E+02 -0.35983043065E+03  0.46183915076E+03  0.59070672654E+03  0.25500000920E-02 0.  1.
</event>
<event>
 5   0  0.7738497E-03  0.1227400E+04  0.7818609E-02  0.9089206E-01
        2   -1    0    0  501    0  0.00000000000E+00  0.00000000000E+00  0.14137443393E+04  0.14137443393E+04  0.25500000920E-02 0.  1.
       -2   -1    0    0    0  501  0.00000000000E+00  0.00000000000E+00 -0.26640437635E+03  0.26640437636E+03  0.25500000920E-02 0. -1.
    10030    2    1    2    0    0  0.00000000000E+00  0.00000000000E+00  0.11473399630E+04  0.16801487157E+04  0.12273999821E+04 0.  0.
        4    1    3    3  502    0 -0.39785788526E+03  0.32540191821E+03  0.10326977396E+04  0.11535352355E+04  0.12699999809E+01 0.  1.
       -4    1    3    3    0  502  0.39785788526E+03 -0.32540191821E+03  0.11464222337E+03  0.52661348019E+03  0.12699999809E+01 0. -1.
</event>
<event>
 5   0  0.4504740E-03  0.8485791E+03  0.7818609E-02  0.9492246E-01
       -1   -1    0    0    0  501  0.00000000000E+00  0.00000000000E+00  0.31600256287E+03  0.31600256291E+03  0.50400001928E-02 0. -1.
        1   -1    0    0  501    0  0.00000000000E+00  0.00000000000E+00 -0.56968406867E+03  0.56968406869E+03  0.50400001928E-02 0.  1.
    10030    2    1    2    0    0  0.00000000000E+00  0.00000000000E+00 -0.25368150581E+03  0.88568663160E+03  0.84857910828E+03 0.  0.
        5    1    3    3  502    0  0.25986414097E+02 -0.32208941934E+03  0.16010434231E+03  0.36065548408E+03  0.46999998093E+01 0. -1.
       -5    1    3    3    0  502 -0.25986414097E+02  0.32208941934E+03 -0.41378584812E+03  0.52503114752E+03  0.46999998093E+01 0.  1.
</event>
<event>
 5   0  0.7766551E-03  0.1137745E+04  0.7818609E-02  0.9169164E-01
        2   -1    0    0  501    0  0.00000000000E+00  0.00000000000E+00  0.20699225255E+04  0.20699225255E+04  0.25500000920E-02 0. -1.
       -2   -1    0    0    0  501  0.00000000000E+00  0.00000000000E+00 -0.15634201732E+03  0.15634201735E+03  0.25500000920E-02 0.  1.
    10030    2    1    2    0    0  0.00000000000E+00  0.00000000000E+00  0.19135805082E+04  0.22262645429E+04  0.11377448982E+04 0.  0.
        5    1    3    3  502    0  0.28631652361E+03  0.39686567511E+03  0.15242913190E+04  0.16009264914E+04  0.46999998093E+01 0. -1.
       -5    1    3    3    0  502 -0.28631652361E+03 -0.39686567511E+03  0.38928918924E+03  0.62533805148E+03  0.46999998093E+01 0.  1.
</event>
<event>
 5   0  0.4598561E-03  0.1099423E+04  0.7818609E-02  0.9205754E-01
        1   -1    0    0  501    0  0.00000000000E+00  0.00000000000E+00  0.10076746833E+04  0.10076746833E+04  0.50400001928E-02 0.  1.
       -1   -1    0    0    0  501  0.00000000000E+00  0.00000000000E+00 -0.29988142305E+03  0.29988142309E+03  0.50400001928E-02 0. -1.
    10030    2    1    2    0    0  0.00000000000E+00  0.00000000000E+00  0.70779326027E+03  0.13075561064E+04  0.10994233362E+04 0.  0.
        2    1    3    3  502    0  0.41818448692E+01  0.54542239110E+03  0.43525666762E+03  0.69781905911E+03  0.25500000920E-02 0. -1.
       -2    1    3    3    0  502 -0.41818448692E+01 -0.54542239110E+03  0.27253659265E+03  0.60973704732E+03  0.25500000920E-02 0.  1.
</event>
<event>
 5   0  0.7537480E-03  0.1064973E+04  0.7818609E-02  0.9240021E-01
       -2   -1    0    0    0  501  0.00000000000E+00  0.00000000000E+00  0.20476830940E+03  0.20476830941E+03  0.25500000920E-02 0. -1.
        2   -1    0    0  501    0  0.00000000000E+00  0.00000000000E+00 -0.13846951217E+04  0.13846951217E+04  0.25500000920E-02 0.  1.
    10030    2    1    2    0    0  0.00000000000E+00  0.00000000000E+00 -0.11799268123E+04  0.15894634311E+04  0.10649726365E+04 0.  0.
        1    1    3    3  502    0 -0.30959210718E+03 -0.24809659731E+03 -0.59881741970E+02  0.40122938261E+03  0.50400001928E-02 0. -1.
       -1    1    3    3    0  502  0.30959210718E+03  0.24809659731E+03 -0.11200450704E+04  0.11882340485E+04  0.50400001928E-02 0.  1.
</event>
<event>
 5   0  0.4504740E-03  0.1126201E+04  0.7818609E-02  0.9180024E-01
        1   -1    0    0  501    0  0.00000000000E+00  0.00000000000E+00  0.63750676737E+03  0.63750676739E+03  0.50400001928E-02 0.  1.
       -1   -1    0    0    0  501  0.00000000000E+00  0.00000000000E+00 -0.49737883671E+03  0.49737883674E+03  0.50400001928E-02 0. -1.
    10030    2    1    2    0    0  0.00000000000E+00  0.00000000000E+00  0.14012793066E+03  0.11348856041E+04  0.11262013574E+04 0.  0.
        5    1    3    3  502    0  0.41759305417E+03 -0.16867351846E+03  0.41064284058E+03  0.60949515768E+03  0.46999998093E+01 0.  1.
       -5    1    3    3    0  502 -0.41759305417E+03  0.16867351846E+03 -0.27051490993E+03  0.52539044644E+03  0.46999998093E+01 0. -1.
</event>
<event>
 5   0  0.2992375E-03  0.1098250E+04  0.7818609E-02  0.9206899E-01
       -4   -1    0    0    0  501  0.00000000000E+00  0.00000000000E+00  0.98600069614E+03  0.98600151404E+03  0.12699999809E+01 0. -1.
        4   -1    0    0  501    0  0.00000000000E+00  0.00000000000E+00 -0.30581751807E+03  0.30582015509E+03  0.12699999809E+01 0.  1.
    10030    2    1    2    0    0  0.00000000000E+00  0.00000000000E+00  0.68018317807E+03  0.12918216691E+04  0.10982504583E+04 0.  0.
        3    1    3    3  502    0  0.94054855878E+02 -0.34243115909E+03  0.83276251218E+03  0.90531697572E+03  0.10100000352E+00 0. -1.
       -3    1    3    3    0  502 -0.94054855878E+02  0.34243115909E+03 -0.15257933411E+03  0.38650469341E+03  0.10100000352E+00 0.  1.
</event>
<event>
 5   0  0.7712816E-03  0.1057766E+04  0.7818609E-02  0.9247362E-01
       -2   -1    0    0    0  501  0.00000000000E+00  0.00000000000E+00  0.63208421065E+03  0.63208421066E+03  0.25500000920E-02 0. -1.
        2   -1    0    0  501    0  0.00000000000E+00  0.00000000000E+00 -0.44253181147E+03  0.44253181147E+03  0.25500000920E-02 0.  1.
    10030    2    1    2    0    0  0.00000000000E+00  0.00000000000E+00  0.18955239919E+03  0.10746160221E+04  0.10577662705E+04 0.  0.
        2    1    3    3  502    0  0.26823450911E+03 -0.22181441897E+03  0.49932284886E+03  0.60866632545E+03  0.25500000920E-02 0. -1.
       -2    1    3    3    0  502 -0.26823450911E+03  0.22181441897E+03 -0.30977044967E+03  0.46594969668E+03  0.25500000920E-02 0.  1.
</event>
<event>
 5   0  0.7712816E-03  0.1103908E+04  0.7818609E-02  0.9201392E-01
       -2   -1    0    0    0  501  0.00000000000E+00  0.00000000000E+00  0.30573358187E+03  0.30573358188E+03  0.25500000920E-02 0.  1.
        2   -1    0    0  501    0  0.00000000000E+00  0.00000000000E+00 -0.99646549681E+03  0.99646549681E+03  0.25500000920E-02 0. -1.
    10030    2    1    2    0    0  0.00000000000E+00  0.00000000000E+00 -0.69073191494E+03  0.13021990787E+04  0.11039075424E+04 0.  0.
        2    1    3    3  502    0  0.49826639163E+03 -0.23699761376E+03 -0.36269080213E+03  0.66028924262E+03  0.25500000920E-02 0. -1.
       -2    1    3    3    0  502 -0.49826639163E+03  0.23699761376E+03 -0.32804111280E+03  0.64190983608E+03  0.25500000920E-02 0.  1.
</event>
<event>
 5   0  0.7738497E-03  0.1082712E+04  0.7818609E-02  0.9222208E-01
       -2   -1    0    0    0  501  0.00000000000E+00  0.00000000000E+00  0.55871326402E+03  0.55871326403E+03  0.25500000920E-02 0. -1.
        2   -1    0    0  501    0  0.00000000000E+00  0.00000000000E+00 -0.52453758688E+03  0.52453758688E+03  0.25500000920E-02 0.  1.
    10030    2    1    2    0    0  0.00000000000E+00  0.00000000000E+00  0.34175677145E+02  0.10832508509E+04  0.10827116094E+04 0.  0.
        4    1    3    3  502    0  0.28849565251E+03  0.40768518590E+03  0.22606393775E+03  0.54821845023E+03  0.12699999809E+01 0.  1.
       -4    1    3    3    0  502 -0.28849565251E+03 -0.40768518590E+03 -0.19188826061E+03  0.53503240068E+03  0.12699999809E+01 0. -1.
</event>
<event>
 5   0  0.7712816E-03  0.1085730E+04  0.7818609E-02  0.9219213E-01
        2   -1    0    0  501    0  0.00000000000E+00  0.00000000000E+00  0.59681267885E+03  0.59681267886E+03  0.25500000920E-02 0.  1.
       -2   -1    0    0    0  501  0.00000000000E+00  0.00000000000E+00 -0.49379404582E+03  0.49379404582E+03  0.25500000920E-02 0. -1.
    10030    2    1    2    0    0  0.00000000000E+00  0.00000000000E+00  0.10301863303E+03  0.10906067247E+04  0.10857302562E+04 0.  0.
        2    1    3    3  502    0 -0.84112927563E+02  0.14703499094E+03 -0.46656707653E+03  0.49636590339E+03  0.25500000920E-02 0. -1.
       -2    1    3    3    0  502  0.84112927563E+02 -0.14703499094E+03  0.56958570956E+03  0.59424082129E+03  0.25500000920E-02 0.  1.
</event>
<event>
 5   0  0.7712816E-03  0.1088666E+04  0.7818609E-02  0.9216309E-01
        2   -1    0    0  501    0  0.00000000000E+00  0.00000000000E+00  0.13161927916E+04  0.13161927916E+04  0.25500000920E-02 0.  1.
       -2   -1    0    0    0  501  0.00000000000E+00  0.00000000000E+00 -0.22511796847E+03  0.22511796849E+03  0.25500000920E-02 0. -1.
    10030    2    1    2    0    0  0.00000000000E+00  0.00000000000E+00  0.10910748231E+04  0.15413107600E+04  0.10886664271E+04 0.  0.
        2    1    3    3  502    0  0.28787693655E+03  0.27835036248E+03  0.23526545381E+02  0.40113034444E+03  0.25500000920E-02 0. -1.
       -2    1    3    3    0  502 -0.28787693655E+03 -0.27835036248E+03  0.10675482777E+04  0.11401804156E+04  0.25500000920E-02 0.  1.
</event>
<event>
 5   0  0.7952121E-03  0.1109459E+04  0.7818609E-02  0.9196021E-01
       -2   -1    0    0    0  501  0.00000000000E+00  0.00000000000E+00  0.86512463333E+03  0.86512463333E+03  0.25500000920E-02 0.  1.
        2   -1    0    0  501    0  0.00000000000E+00  0.00000000000E+00 -0.35570001071E+03  0.35570001072E+03  0.25500000920E-02 0. -1.
    10030    2    1    2    0    0  0.00000000000E+00  0.00000000000E+00  0.50942462262E+03  0.12208246441E+04  0.11094590418E+04 0.  0.
        3    1    3    3  502    0 -0.45321569048E+03 -0.19545107824E+03  0.53334766134E+03  0.72668103329E+03  0.10100000352E+00 0. -1.
       -3    1    3    3    0  502  0.45321569048E+03  0.19545107824E+03 -0.23923038721E+02  0.49414361077E+03  0.10100000352E+00 0.  1.
</event>
<event>
 5   0  0.4428114E-03  0.1074072E+04  0.7818609E-02  0.9230838E-01
       -1   -1    0    0    0  501  0.00000000000E+00  0.00000000000E+00  0.62240781471E+03  0.62240781473E+03  0.50400001928E-02 0.  1.
        1   -1    0    0  501    0  0.00000000000E+00  0.00000000000E+00 -0.46337431581E+03  0.46337431584E+03  0.50400001928E-02 0. -1.
    10030    2    1    2    0    0  0.00000000000E+00  0.00000000000E+00  0.15903349890E+03  0.10857821306E+04  0.10740722421E+04 0.  0.
        4    1    3    3  502    0 -0.47934803687E+02 -0.40341478344E+03 -0.27554598190E+03  0.49088535723E+03  0.12699999809E+01 0. -1.
       -4    1    3    3    0  502  0.47934803687E+02  0.40341478344E+03  0.43457948080E+03  0.59489677334E+03  0.12699999809E+01 0.  1.
</event>
<event>
 5   0  0.4641021E-03  0.1104245E+04  0.7818609E-02  0.9201064E-01
        1   -1    0    0  501    0  0.00000000000E+00  0.00000000000E+00  0.51452030770E+03  0.51452030773E+03  0.50400001928E-02 0.  1.
       -1   -1    0    0    0  501  0.00000000000E+00  0.00000000000E+00 -0.59247316469E+03  0.59247316472E+03  0.50400001928E-02 0. -1.
    10030    2    1    2    0    0  0.00000000000E+00  0.00000000000E+00 -0.77952856992E+02  0.11069934724E+04  0.11042453985E+04 0.  0.
        1    1    3    3  502    0 -0.54052968195E+03 -0.10848311340E+03 -0.69026885375E+02  0.55561284533E+03  0.50400001928E-02 0. -1.
       -1    1    3    3    0  502  0.54052968195E+03  0.10848311340E+03 -0.89259716165E+01  0.55138062712E+03  0.50400001928E-02 0.  1.
</event>
<event>
 5   0  0.4298101E-03  0.1086813E+04  0.7818609E-02  0.9218141E-01
        1   -1    0    0  501    0  0.00000000000E+00  0.00000000000E+00  0.28622478418E+04  0.28622478418E+04  0.50400001928E-02 0.  1.
       -1   -1    0    0    0  501  0.00000000000E+00  0.00000000000E+00 -0.10316729375E+03  0.10316729387E+03  0.50400001928E-02 0. -1.
    10030    2    1    2    0    0  0.00000000000E+00  0.00000000000E+00  0.27590805481E+04  0.29654151357E+04  0.10868125212E+04 0.  0.
        3    1    3    3  502    0 -0.23811754967E+03  0.48768389795E+03  0.13045771959E+04  0.14129604461E+04  0.10100000352E+00 0. -1.
       -3    1    3    3    0  502  0.23811754967E+03 -0.48768389795E+03  0.14545033521E+04  0.15524546896E+04  0.10100000352E+00 0.  1.
</event>
<event>
 5   0  0.4598561E-03  0.1142251E+04  0.7818609E-02  0.9164962E-01
        1   -1    0    0  501    0  0.00000000000E+00  0.00000000000E+00  0.13510736692E+04  0.13510736692E+04  0.50400001928E-02 0. -1.
       -1   -1    0    0    0  501  0.00000000000E+00  0.00000000000E+00 -0.24142610129E+03  0.24142610134E+03  0.50400001928E-02 0.  1.
    10030    2    1    2    0    0  0.00000000000E+00  0.00000000000E+00  0.11096475679E+04  0.15924997706E+04  0.11422511958E+04 0.  0.
        2    1    3    3  502    0 -0.68828277421E+02  0.24866803463E+03  0.12651855434E+04  0.12912271614E+04  0.25500000920E-02 0. -1.
       -2    1    3    3    0  502  0.68828277421E+02 -0.24866803463E+03 -0.15553797544E+03  0.30127260916E+03  0.25500000920E-02 0.  1.
</event>
<event>
 5   0  0.4641021E-03  0.1110546E+04  0.7818609E-02  0.9194974E-01
       -1   -1    0    0    0  501  0.00000000000E+00  0.00000000000E+00  0.31805075526E+03  0.31805075530E+03  0.50400001928E-02 0.  1.
        1   -1    0    0  501    0  0.00000000000E+00  0.00000000000E+00 -0.96943005399E+03  0.96943005400E+03  0.50400001928E-02 0. -1.
    10030    2    1    2    0    0  0.00000000000E+00  0.00000000000E+00 -0.65137929873E+03  0.12874808093E+04  0.11105457413E+04 0.  0.
        1    1    3    3  502    0  0.45197377300E+03  0.32077985733E+03 -0.36496917846E+03  0.66361322289E+03  0.50400001928E-02 0. -1.
       -1    1    3    3    0  502 -0.45197377300E+03 -0.32077985733E+03 -0.28641012027E+03  0.62386758641E+03  0.50400001928E-02 0.  1.
</event>
<event>
 5   0  0.7738497E-03  0.1118512E+04  0.7818609E-02  0.9187334E-01
       -2   -1    0    0    0  501  0.00000000000E+00  0.00000000000E+00  0.19792480146E+03  0.19792480148E+03  0.25500000920E-02 0.  1.
        2   -1    0    0  501    0  0.00000000000E+00  0.00000000000E+00 -0.15802335247E+04  0.15802335247E+04  0.25500000920E-02 0. -1.
    10030    2    1    2    0    0  0.00000000000E+00  0.00000000000E+00 -0.13823087232E+04  0.17781583261E+04  0.11185122380E+04 0.  0.
        4    1    3    3  502    0 -0.39944175114E+03 -0.93098237150E+02 -0.12955633620E+04  0.13589359926E+04  0.12699999809E+01 0. -1.
       -4    1    3    3    0  502  0.39944175114E+03  0.93098237150E+02 -0.86745361237E+02  0.41922233351E+03  0.12699999809E+01 0.  1.
</event>
<event>
 5   0  0.7738497E-03  0.1075595E+04  0.7818609E-02  0.9229311E-01
       -2   -1    0    0    0  501  0.00000000000E+00  0.00000000000E+00  0.45352580105E+03  0.45352580106E+03  0.25500000920E-02 0. -1.
        2   -1    0    0  501    0  0.00000000000E+00  0.00000000000E+00 -0.63772781684E+03  0.63772781684E+03  0.25500000920E-02 0.  1.
    10030    2    1    2    0    0  0.00000000000E+00  0.00000000000E+00 -0.18420201579E+03  0.10912536179E+04  0.10755947545E+04 0.  0.
        4    1    3    3  502    0 -0.44380758999E+03 -0.14804787164E+03 -0.36118103675E+03  0.59104712455E+03  0.12699999809E+01 0.  1.
       -4    1    3    3    0  502  0.44380758999E+03  0.14804787164E+03  0.17697902096E+03  0.50020649335E+03  0.12699999809E+01 0. -1.
</event>
<event>
 5   0  0.7712816E-03  0.1100465E+04  0.7818609E-02  0.9204739E-01
       -2   -1    0    0    0  501  0.00000000000E+00  0.00000000000E+00  0.48801450739E+03  0.48801450739E+03  0.25500000920E-02 0. -1.
        2   -1    0    0  501    0  0.00000000000E+00  0.00000000000E+00 -0.62038273263E+03  0.62038273264E+03  0.25500000920E-02 0.  1.
    10030    2    1    2    0    0  0.00000000000E+00  0.00000000000E+00 -0.13236822524E+03  0.11083972400E+04  0.11004649448E+04 0.  0.
        2    1    3    3  502    0 -0.40634542416E+03  0.36166799875E+03  0.17088482334E+02  0.54425394927E+03  0.25500000920E-02 0.  1.
       -2    1    3    3    0  502  0.40634542416E+03 -0.36166799875E+03 -0.14945670758E+03  0.56414329076E+03  0.25500000920E-02 0. -1.
</event>
<event>
 5   0  0.4504740E-03  0.8967417E+03  0.7818609E-02  0.9429664E-01
        1   -1    0    0  501    0  0.00000000000E+00  0.00000000000E+00  0.12994321232E+04  0.12994321232E+04  0.50400001928E-02 0.  1.
       -1   -1    0    0    0  501  0.00000000000E+00  0.00000000000E+00 -0.15471096504E+03  0.15471096513E+03  0.50400001928E-02 0. -1.
    10030    2    1    2    0    0  0.00000000000E+00  0.00000000000E+00  0.11447211582E+04  0.14541430883E+04  0.89674165256E+03 0.  0.
        5    1    3    3  502    0  0.35028594872E+03  0.57699807256E+02  0.12831617361E+03  0.37751376669E+03  0.46999998093E+01 0. -1.
       -5    1    3    3    0  502 -0.35028594872E+03 -0.57699807256E+02  0.10164049846E+04  0.10766293217E+04  0.46999998093E+01 0.  1.
</event>
<event>
 5   0  0.4428114E-03  0.1090466E+04  0.7818609E-02  0.9214534E-01
       -1   -1    0    0    0  501  0.00000000000E+00  0.00000000000E+00  0.28168169968E+03  0.28168169973E+03  0.50400001928E-02 0. -1.
        1   -1    0    0  501    0  0.00000000000E+00  0.00000000000E+00 -0.10553721860E+04  0.10553721860E+04  0.50400001928E-02 0.  1.
    10030    2    1    2    0    0  0.00000000000E+00  0.00000000000E+00 -0.77369048634E+03  0.13370538858E+04  0.10904660127E+04 0.  0.
        4    1    3    3  502    0 -0.18981258630E+03  0.50938064403E+03 -0.43857517202E+03  0.69846063085E+03  0.12699999809E+01 0. -1.
       -4    1    3    3    0  502  0.18981258630E+03 -0.50938064403E+03 -0.33511531432E+03  0.63859325492E+03  0.12699999809E+01 0.  1.
</event>
<event>
 5   0  0.4298101E-03  0.1097360E+04  0.7818609E-02  0.9207769E-01
       -1   -1    0    0    0  501  0.00000000000E+00  0.00000000000E+00  0.53035870363E+03  0.53035870365E+03  0.50400001928E-02 0. -1.
        1   -1    0    0  501    0  0.00000000000E+00  0.00000000000E+00 -0.56763420341E+03  0.56763420343E+03  0.50400001928E-02 0.  1.
    10030    2    1    2    0    0  0.00000000000E+00  0.00000000000E+00 -0.37275499783E+02  0.10979929071E+04  0.10973599961E+04 0.  0.
        3    1    3    3  502    0  0.25161087990E+03 -0.13585587820E+02 -0.50631718546E+03  0.56555256659E+03  0.10100000352E+00 0.  1.
       -3    1    3    3    0  502 -0.25161087990E+03  0.13585587820E+02  0.46904168568E+03  0.53244034049E+03  0.10100000352E+00 0. -1.
</event>
<event>
 5   0  0.2992375E-03  0.1098194E+04  0.7818609E-02  0.9206954E-01
       -3   -1    0    0    0  501  0.00000000000E+00  0.00000000000E+00  0.91061903510E+03  0.91061904070E+03  0.10100000352E+00 0.  1.
        3   -1    0    0  501    0  0.00000000000E+00  0.00000000000E+00 -0.33110147740E+03  0.33110149280E+03  0.10100000352E+00 0. -1.
    10030    2    1    2    0    0  0.00000000000E+00  0.00000000000E+00  0.57951755770E+03  0.12417205335E+04  0.10981936458E+04 0.  0.
        3    1    3    3  502    0  0.31344277260E+03 -0.29804331341E+03  0.67224607491E+03  0.79936911611E+03  0.10100000352E+00 0.  1.
       -3    1    3    3    0  502 -0.31344277260E+03  0.29804331341E+03 -0.92728517208E+02  0.44235141739E+03  0.10100000352E+00 0. -1.
</event>
<event>
 5   0  0.4428114E-03  0.1105192E+04  0.7818609E-02  0.9200146E-01
        1   -1    0    0  501    0  0.00000000000E+00  0.00000000000E+00  0.57509382469E+03  0.57509382471E+03  0.50400001928E-02 0. -1.
       -1   -1    0    0    0  501  0.00000000000E+00  0.00000000000E+00 -0.53097822120E+03  0.53097822122E+03  0.50400001928E-02 0.  1.
    10030    2    1    2    0    0  0.00000000000E+00  0.00000000000E+00  0.44115603495E+02  0.11060720459E+04  0.11051919219E+04 0.  0.
        4    1    3    3  502    0  0.51278349075E+03 -0.18100900227E+03 -0.76252375132E+02  0.54911492868E+03  0.12699999809E+01 0.  1.
       -4    1    3    3    0  502 -0.51278349075E+03  0.18100900227E+03  0.12036797863E+03  0.55695711726E+03  0.12699999809E+01 0. -1.
</event>
<event>
 5   0  0.4598561E-03  0.1105632E+04  0.7818609E-02  0.9199720E-01
        1   -1    0    0  501    0  0.00000000000E+00  0.00000000000E+00  0.85498504091E+03  0.85498504093E+03  0.50400001928E-02 0.  1.
       -1   -1    0    0    0  501  0.00000000000E+00  0.00000000000E+00 -0.35743978890E+03  0.35743978894E+03  0.50400001928E-02 0. -1.
    10030    2    1    2    0    0  0.00000000000E+00  0.00000000000E+00  0.49754525201E+03  0.12124248299E+04  0.11056322582E+04 0.  0.
        2    1    3    3  502    0 -0.17875229699E+03 -0.52122126996E+03  0.29758843763E+03  0.62624505918E+03  0.25500000920E-02 0.  1.
       -2    1    3    3    0  502  0.17875229699E+03  0.52122126996E+03  0.19995681438E+03  0.58617977068E+03  0.25500000920E-02 0. -1.
</event>
<event>
 5   0  0.7537480E-03  0.1083164E+04  0.7818609E-02  0.9221759E-01
        2   -1    0    0  501    0  0.00000000000E+00  0.00000000000E+00  0.52929550884E+03  0.52929550885E+03  0.25500000920E-02 0.  1.
       -2   -1    0    0    0  501  0.00000000000E+00  0.00000000000E+00 -0.55415334983E+03  0.55415334984E+03  0.25500000920E-02 0. -1.
    10030    2    1    2    0    0  0.00000000000E+00  0.00000000000E+00 -0.24857840990E+02  0.10834488587E+04  0.10831636613E+04 0.  0.
        1    1    3    3  502    0  0.18930754502E+03  0.75893809408E+02 -0.51427175685E+03  0.55323833637E+03  0.50400001928E-02 0. -1.
       -1    1    3    3    0  502 -0.18930754502E+03 -0.75893809408E+02  0.48941391586E+03  0.53021052231E+03  0.50400001928E-02 0.  1.
</event>
<event>
 5   0  0.7712816E-03  0.1069801E+04  0.7818609E-02  0.9235136E-01
        2   -1    0    0  501    0  0.00000000000E+00  0.00000000000E+00  0.11655597024E+04  0.11655597024E+04  0.25500000920E-02 0. -1.
       -2   -1    0    0    0  501  0.00000000000E+00  0.00000000000E+00 -0.24547738082E+03  0.24547738084E+03  0.25500000920E-02 0.  1.
    10030    2    1    2    0    0  0.00000000000E+00  0.00000000000E+00  0.92008232157E+03  0.14110370832E+04  0.10698009964E+04 0.  0.
        2    1    3    3  502    0  0.51364408182E+03 -0.25758534930E+02  0.26608148056E+03  0.57904498894E+03  0.25500000920E-02 0. -1.
       -2    1    3    3    0  502 -0.51364408182E+03  0.25758534930E+02  0.65400084101E+03  0.83199209429E+03  0.25500000920E-02 0.  1.
</event>
<event>
 5   0  0.7952121E-03  0.1072781E+04  0.7818609E-02  0.9232135E-01
        2   -1    0    0  501    0  0.00000000000E+00  0.00000000000E+00  0.94412483888E+03  0.94412483888E+03  0.25500000920E-02 0.  1.
       -2   -1    0    0    0  501  0.00000000000E+00  0.00000000000E+00 -0.30474210435E+03  0.30474210436E+03  0.25500000920E-02 0. -1.
    10030    2    1    2    0    0  0.00000000000E+00  0.00000000000E+00  0.63938273453E+03  0.12488669432E+04  0.10727806676E+04 0.  0.
        3    1    3    3  502    0  0.35221288542E+03  0.37570971120E+03  0.14505919855E+03  0.53502699467E+03  0.10100000352E+00 0. -1.
       -3    1    3    3    0  502 -0.35221288542E+03 -0.37570971120E+03  0.49432353598E+03  0.71383994856E+03  0.10100000352E+00 0.  1.
</event>
<event>
 5   0  0.7766551E-03  0.7605266E+03  0.7818609E-02  0.9618979E-01
        2   -1    0    0  501    0  0.00000000000E+00  0.00000000000E+00  0.79012705269E+03  0.79012705269E+03  0.25500000920E-02 0.  1.
       -2   -1    0    0    0  501  0.00000000000E+00  0.00000000000E+00 -0.18300878494E+03  0.18300878496E+03  0.25500000920E-02 0. -1.
    10030    2    1    2    0    0  0.00000000000E+00  0.00000000000E+00  0.60711826774E+03  0.97313583765E+03  0.76052663825E+03 0.  0.
        5    1    3    3  502    0  0.93788875939E+02 -0.23660798350E+03  0.66501573245E+03  0.71207282318E+03  0.46999998093E+01 0. -1.
       -5    1    3    3    0  502 -0.93788875939E+02  0.23660798350E+03 -0.57897464704E+02  0.26106301447E+03  0.46999998093E+01 0.  1.
</event>
<event>
 5   0  0.4504740E-03  0.1142589E+04  0.7818609E-02  0.9164648E-01
        1   -1    0    0  501    0  0.00000000000E+00  0.00000000000E+00  0.95098045612E+03  0.95098045613E+03  0.50400001928E-02 0. -1.
       -1   -1    0    0    0  501  0.00000000000E+00  0.00000000000E+00 -0.34320092012E+03  0.34320092016E+03  0.50400001928E-02 0.  1.
    10030    2    1    2    0    0  0.00000000000E+00  0.00000000000E+00  0.60777953599E+03  0.12941813763E+04  0.11425889332E+04 0.  0.
        5    1    3    3  502    0 -0.42015258712E+03  0.38272063214E+03  0.23831193467E+03  0.61629371808E+03  0.46999998093E+01 0. -1.
       -5    1    3    3    0  502  0.42015258712E+03 -0.38272063214E+03  0.36946760132E+03  0.67788765822E+03  0.46999998093E+01 0.  1.
</event>
<event>
 5   0  0.4598561E-03  0.1099643E+04  0.7818609E-02  0.9205540E-01
       -1   -1    0    0    0  501  0.00000000000E+00  0.00000000000E+00  0.29543646998E+03  0.29543647002E+03  0.50400001928E-02 0. -1.
        1   -1    0    0  501    0  0.00000000000E+00  0.00000000000E+00 -0.10232447016E+04  0.10232447016E+04  0.50400001928E-02 0.  1.
    10030    2    1    2    0    0  0.00000000000E+00  0.00000000000E+00 -0.72780823157E+03  0.13186811716E+04  0.10996432196E+04 0.  0.
        2    1    3    3  502    0  0.11525491129E+03  0.37110021004E+03  0.10255574080E+03  0.40189145356E+03  0.25500000920E-02 0. -1.
       -2    1    3    3    0  502 -0.11525491129E+03 -0.37110021004E+03 -0.83036397237E+03  0.91678971803E+03  0.25500000920E-02 0.  1.
</event>
<event>
 5   0  0.4504740E-03  0.9521377E+03  0.7818609E-02  0.9362655E-01
       -1   -1    0    0    0  501  0.00000000000E+00  0.00000000000E+00  0.78384147459E+03  0.78384147461E+03  0.50400001928E-02 0. -1.
        1   -1    0    0  501    0  0.00000000000E+00  0.00000000000E+00 -0.28914208649E+03  0.28914208653E+03  0.50400001928E-02 0.  1.
    10030    2    1    2    0    0  0.00000000000E+00  0.00000000000E+00  0.49469938810E+03  0.10729835611E+04  0.95213772002E+03 0.  0.
        5    1    3    3  502    0  0.45662984973E+03 -0.87583376968E+01  0.96023349756E+02  0.46672272479E+03  0.46999998093E+01 0.  1.
       -5    1    3    3    0  502 -0.45662984973E+03  0.87583376968E+01  0.39867603835E+03  0.60626083635E+03  0.46999998093E+01 0. -1.
</event>
<event>
 5   0  0.7712816E-03  0.1095609E+04  0.7818609E-02  0.9209482E-01
        2   -1    0    0  501    0  0.00000000000E+00  0.00000000000E+00  0.38034834888E+03  0.38034834889E+03  0.25500000920E-02 0. -1.
       -2   -1    0    0    0  501  0.00000000000E+00  0.00000000000E+00 -0.78898716376E+03  0.78898716377E+03  0.25500000920E-02 0.  1.
    10030    2    1    2    0    0  0.00000000000E+00  0.00000000000E+00 -0.40863881488E+03  0.11693355127E+04  0.10956093556E+04 0.  0.
        2    1    3    3  502    0 -0.21287375035E+03 -0.43193140375E+03 -0.48306461708E+03  0.68207873110E+03  0.25500000920E-02 0.  1.
       -2    1    3    3    0  502  0.21287375035E+03  0.43193140375E+03  0.74425802208E+02  0.48725678156E+03  0.25500000920E-02 0. -1.
</event>
<event>
 5   0  0.7537480E-03  0.1102484E+04  0.7818609E-02  0.9202774E-01
       -2   -1    0    0    0  501  0.00000000000E+00  0.00000000000E+00  0.19239014326E+03  0.19239014327E+03  0.25500000920E-02 0. -1.
        2   -1    0    0  501    0  0.00000000000E+00  0.00000000000E+00 -0.15794364913E+04  0.15794364913E+04  0.25500000920E-02 0.  1.
    10030    2    1    2    0    0  0.00000000000E+00  0.00000000000E+00 -0.13870463481E+04  0.17718266346E+04  0.11024844903E+04 0.  0.
        1    1    3    3  502    0 -0.24847957375E+03  0.10150328190E+03  0.80273745138E+02  0.28015868537E+03  0.50400001928E-02 0. -1.
       -1    1    3    3    0  502  0.24847957375E+03 -0.10150328190E+03 -0.14673200932E+04  0.14916679492E+04  0.50400001928E-02 0.  1.
</event>
<event>
 5   0  0.7537480E-03  0.1100946E+04  0.7818609E-02  0.9204270E-01
       -2   -1    0    0    0  501  0.00000000000E+00  0.00000000000E+00  0.63206492211E+03  0.63206492212E+03  0.25500000920E-02 0. -1.
        2   -1    0    0  501    0  0.00000000000E+00  0.00000000000E+00 -0.47941378408E+03  0.47941378408E+03  0.25500000920E-02 0.  1.
    10030    2    1    2    0    0  0.00000000000E+00  0.00000000000E+00  0.15265113804E+03  0.11114787062E+04  0.11009462041E+04 0.  0.
        1    1    3    3  502    0  0.15917994035E+03  0.14276488750E+03 -0.43577519317E+03  0.48540713378E+03  0.50400001928E-02 0.  1.
       -1    1    3    3    0  502 -0.15917994035E+03 -0.14276488750E+03  0.58842633121E+03  0.62607157242E+03  0.50400001928E-02 0. -1.
</event>
<event>
 5   0  0.7952121E-03  0.1292280E+04  0.7818609E-02  0.9035710E-01
        2   -1    0    0  501    0  0.00000000000E+00  0.00000000000E+00  0.17363664407E+04  0.17363664407E+04  0.25500000920E-02 0.  1.
       -2   -1    0    0    0  501  0.00000000000E+00  0.00000000000E+00 -0.24044267684E+03  0.24044267685E+03  0.25500000920E-02 0. -1.
    10030    2    1    2    0    0  0.00000000000E+00  0.00000000000E+00  0.14959237639E+04  0.19768091175E+04  0.12922795286E+04 0.  0.
        3    1    3    3  502    0 -0.56221969078E+03  0.95880588005E+02  0.12124805894E+04  0.13399228552E+04  0.10100000352E+00 0.  1.
       -3    1    3    3    0  502  0.56221969078E+03 -0.95880588005E+02  0.28344317441E+03  0.63688626236E+03  0.10100000352E+00 0. -1.
</event>
<event>
 5   0  0.4428114E-03  0.1065146E+04  0.7818609E-02  0.9239845E-01
        1   -1    0    0  501    0  0.00000000000E+00  0.00000000000E+00  0.59003230493E+03  0.59003230495E+03  0.50400001928E-02 0.  1.
       -1   -1    0    0    0  501  0.00000000000E+00  0.00000000000E+00 -0.48070917177E+03  0.48070917179E+03  0.50400001928E-02 0. -1.
    10030    2    1    2    0    0  0.00000000000E+00  0.00000000000E+00  0.10932313317E+03  0.10707414767E+04  0.10651458879E+04 0.  0.
        4    1    3    3  502    0  0.12321308816E+03 -0.44950570136E+03  0.31368843296E+03  0.56181748506E+03  0.12699999809E+01 0.  1.
       -4    1    3    3    0  502 -0.12321308816E+03  0.44950570136E+03 -0.20436529979E+03  0.50892399168E+03  0.12699999809E+01 0. -1.
</event>
<event>
 5   0  0.7952121E-03  0.1105043E+04  0.7818609E-02  0.9200291E-01
       -2   -1    0    0    0  501  0.00000000000E+00  0.00000000000E+00  0.26394727385E+03  0.26394727386E+03  0.25500000920E-02 0.  1.
        2   -1    0    0  501    0  0.00000000000E+00  0.00000000000E+00 -0.11565937437E+04  0.11565937437E+04  0.25500000920E-02 0. -1.
    10030    2    1    2    0    0  0.00000000000E+00  0.00000000000E+00 -0.89264646981E+03  0.14205410175E+04  0.11050425613E+04 0.  0.
        3    1    3    3  502    0  0.44810384731E+03 -0.29717718629E+03 -0.60978211855E+03  0.81298559664E+03  0.10100000352E+00 0. -1.
       -3    1    3    3    0  502 -0.44810384731E+03  0.29717718629E+03 -0.28286435126E+03  0.60755542088E+03  0.10100000352E+00 0.  1.
</event>
<event>
 5   0  0.4598561E-03  0.1075211E+04  0.7818609E-02  0.9229695E-01
       -1   -1    0    0    0  501  0.00000000000E+00  0.00000000000E+00  0.54097765397E+03  0.54097765400E+03  0.50400001928E-02 0. -1.
        1   -1    0    0  501    0  0.00000000000E+00  0.00000000000E+00 -0.53425455002E+03  0.53425455004E+03  0.50400001928E-02 0.  1.
    10030    2    1    2    0    0  0.00000000000E+00  0.00000000000E+00  0.67231039574E+01  0.10752322040E+04  0.10752111851E+04 0.  0.
        2    1    3    3  502    0 -0.18535658274E+03  0.26797489745E+03 -0.42425897348E+03  0.53494231933E+03  0.25500000920E-02 0.  1.
       -2    1    3    3    0  502  0.18535658274E+03 -0.26797489745E+03  0.43098207744E+03  0.54028988470E+03  0.25500000920E-02 0. -1.
</event>
<event>
 5   0  0.7766551E-03  0.1134980E+04  0.7818609E-02  0.9171753E-01
        2   -1    0    0  501    0  0.00000000000E+00  0.00000000000E+00  0.20034080929E+03  0.20034080930E+03  0.25500000920E-02 0.  1.
       -2   -1    0    0    0  501  0.00000000000E+00  0.00000000000E+00 -0.16074862337E+04  0.16074862337E+04  0.25500000920E-02 0. -1.
    10030    2    1    2    0    0  0.00000000000E+00  0.00000000000E+00 -0.14071454244E+04  0.18078270430E+04  0.11349803399E+04 0.  0.
        5    1    3    3  502    0 -0.12484645667E+03 -0.18064611016E+03 -0.15370387679E+04  0.15526525429E+04  0.46999998093E+01 0. -1.
       -5    1    3    3    0  502  0.12484645667E+03  0.18064611016E+03  0.12989334346E+03  0.25517450016E+03  0.46999998093E+01 0.  1.
</event>
<event>
 5   0  0.7952121E-03  0.1092765E+04  0.7818609E-02  0.9212272E-01
        2   -1    0    0  501    0  0.00000000000E+00  0.00000000000E+00  0.16910367752E+04  0.16910367752E+04  0.25500000920E-02 0.  1.
       -2   -1    0    0    0  501  0.00000000000E+00  0.00000000000E+00 -0.17653907559E+03  0.17653907561E+03  0.25500000920E-02 0. -1.
    10030    2    1    2    0    0  0.00000000000E+00  0.00000000000E+00  0.15144976997E+04  0.18675758508E+04  0.10927654261E+04 0.  0.
        3    1    3    3  502    0 -0.47041220297E+03  0.16170023887E+03  0.37091797235E+03  0.62049557643E+03  0.10100000352E+00 0. -1.
       -3    1    3    3    0  502  0.47041220297E+03 -0.16170023887E+03  0.11435797273E+04  0.12470802744E+04  0.10100000352E+00 0.  1.
</event>
<event>
 5   0  0.4598561E-03  0.1109617E+04  0.7818609E-02  0.9195869E-01
        1   -1    0    0  501    0  0.00000000000E+00  0.00000000000E+00  0.56272726462E+03  0.56272726465E+03  0.50400001928E-02 0.  1.
       -1   -1    0    0    0  501  0.00000000000E+00  0.00000000000E+00 -0.54700092837E+03  0.54700092839E+03  0.50400001928E-02 0. -1.
    10030    2    1    2    0    0  0.00000000000E+00  0.00000000000E+00  0.15726336254E+02  0.11097281930E+04  0.11096167558E+04 0.  0.
        2    1    3    3  502    0  0.53542047382E+01 -0.35180636692E+03  0.43687705094E+03  0.56094379840E+03  0.25500000920E-02 0.  1.
       -2    1    3    3    0  502 -0.53542047382E+01  0.35180636692E+03 -0.42115071469E+03  0.54878439464E+03  0.25500000920E-02 0. -1.
</event>
<event>
 5   0  0.4598561E-03  0.1104025E+04  0.7818609E-02  0.9201278E-01
        1   -1    0    0  501    0  0.00000000000E+00  0.00000000000E+00  0.75217483604E+03  0.75217483606E+03  0.50400001928E-02 0.  1.
       -1   -1    0    0    0  501  0.00000000000E+00  0.00000000000E+00 -0.40511574577E+03  0.40511574580E+03  0.50400001928E-02 0. -1.
    10030    2    1    2    0    0  0.00000000000E+00  0.00000000000E+00  0.34705909027E+03  0.11572905819E+04  0.11040251259E+04 0.  0.
        2    1    3    3  502    0 -0.26469561982E+03 -0.34082446807E+03  0.53436516860E+03  0.68685604213E+03  0.25500000920E-02 0.  1.
       -2    1    3    3    0  502  0.26469561982E+03  0.34082446807E+03 -0.18730607833E+03  0.47043453973E+03  0.25500000920E-02 0. -1.
</event>
<event>
 5   0  0.4504740E-03  0.1109237E+04  0.7818609E-02  0.9196235E-01
        1   -1    0    0  501    0  0.00000000000E+00  0.00000000000E+00  0.11062644471E+04  0.11062644472E+04  0.50400001928E-02 0. -1.
       -1   -1    0    0    0  501  0.00000000000E+00  0.00000000000E+00 -0.27805439512E+03  0.27805439517E+03  0.50400001928E-02 0.  1.
    10030    2    1    2    0    0  0.00000000000E+00  0.00000000000E+00  0.82821005203E+03  0.13843188423E+04  0.11092370202E+04 0.  0.
        5    1    3    3  502    0 -0.34751546038E+03 -0.62702323565E+02  0.94780366896E+03  0.10114605585E+04  0.46999998093E+01 0. -1.
       -5    1    3    3    0  502  0.34751546038E+03  0.62702323565E+02 -0.11959361693E+03  0.37285828379E+03  0.46999998093E+01 0.  1.
</event>
<event>
 5   0  0.7712816E-03  0.1079233E+04  0.7818609E-02  0.9225672E-01
        2   -1    0    0  501    0  0.00000000000E+00  0.00000000000E+00  0.10993654700E+04  0.10993654700E+04  0.25500000920E-02 0. -1.
       -2   -1    0    0    0  501  0.00000000000E+00  0.00000000000E+00 -0.26486732961E+03  0.26486732962E+03  0.25500000920E-02 0.  1.
    10030    2    1    2    0    0  0.00000000000E+00  0.00000000000E+00  0.83449814038E+03  0.13642327996E+04  0.10792330542E+04 0.  0.
        2    1    3    3  502    0  0.26375330417E+03 -0.36412079274E+03  0.79443601478E+03  0.91284080691E+03  0.25500000920E-02 0. -1.
       -2    1    3    3    0  502 -0.26375330417E+03  0.36412079274E+03  0.40062125596E+02  0.45139199271E+03  0.25500000920E-02 0.  1.
</event>
<event>
 5   0  0.7712816E-03  0.9534365E+03  0.7818609E-02  0.9361143E-01
       -2   -1    0    0    0  501  0.00000000000E+00  0.00000000000E+00  0.25139140294E+03  0.25139140296E+03  0.25500000920E-02 0. -1.
        2   -1    0    0  501    0  0.00000000000E+00  0.00000000000E+00 -0.90400982826E+03  0.90400982826E+03  0.25500000920E-02 0.  1.
    10030    2    1    2    0    0  0.00000000000E+00  0.00000000000E+00 -0.65261842531E+03  0.11554012312E+04  0.95343651914E+03 0.  0.
        2    1    3    3  502    0 -0.34699965696E+03 -0.13813298207E+03 -0.68532712093E+03  0.78048878618E+03  0.25500000920E-02 0.  1.
       -2    1    3    3    0  502  0.34699965696E+03  0.13813298207E+03  0.32708695619E+02  0.37491244503E+03  0.25500000920E-02 0. -1.
</event>
<event>
 5   0  0.4298101E-03  0.1110584E+04  0.7818609E-02  0.9194937E-01
       -1   -1    0    0    0  501  0.00000000000E+00  0.00000000000E+00  0.36209735321E+03  0.36209735324E+03  0.50400001928E-02 0.  1.
        1   -1    0    0  501    0  0.00000000000E+00  0.00000000000E+00 -0.85156488381E+03  0.85156488382E+03  0.50400001928E-02 0. -1.
    10030    2    1    2    0    0  0.00000000000E+00  0.00000000000E+00 -0.48946753060E+03  0.12136622371E+04  0.11105843337E+04 0.  0.
        3    1    3    3  502    0 -0.27141688164E+03 -0.48232279258E+03 -0.19529095535E+03  0.58689093307E+03  0.10100000352E+00 0. -1.
       -3    1    3    3    0  502  0.27141688164E+03  0.48232279258E+03 -0.29417657525E+03  0.62677130399E+03  0.10100000352E+00 0.  1.
</event>
<event>
 5   0  0.7738497E-03  0.1141459E+04  0.7818609E-02  0.9165699E-01
       -2   -1    0    0    0  501  0.00000000000E+00  0.00000000000E+00  0.30374798426E+03  0.30374798427E+03  0.25500000920E-02 0. -1.
        2   -1    0    0  501    0  0.00000000000E+00  0.00000000000E+00 -0.10723768513E+04  0.10723768513E+04  0.25500000920E-02 0.  1.
    10030    2    1    2    0    0  0.00000000000E+00  0.00000000000E+00 -0.76862886708E+03  0.13761248356E+04  0.11414592537E+04 0.  0.
        4    1    3    3  502    0  0.17788961627E+03  0.46372683799E+03 -0.72326020572E+03  0.87737918481E+03  0.12699999809E+01 0.  1.
       -4    1    3    3    0  502 -0.17788961627E+03 -0.46372683799E+03 -0.45368661351E+02  0.49874565079E+03  0.12699999809E+01 0. -1.
</event>
<event>
 5   0  0.4641021E-03  0.1116556E+04  0.7818609E-02  0.9189204E-01
        1   -1    0    0  501    0  0.00000000000E+00  0.00000000000E+00  0.51912452637E+03  0.51912452640E+03  0.50400001928E-02 0.  1.
       -1   -1    0    0    0  501  0.00000000000E+00  0.00000000000E+00 -0.60038468686E+03  0.60038468688E+03  0.50400001928E-02 0. -1.
    10030    2    1    2    0    0  0.00000000000E+00  0.00000000000E+00 -0.81260160483E+02  0.11195092133E+04  0.11165561629E+04 0.  0.
        1    1    3    3  502    0 -0.31973880238E+03  0.45744471471E+03 -0.26961437372E+02  0.55876246106E+03  0.50400001928E-02 0.  1.
       -1    1    3    3    0  502  0.31973880238E+03 -0.45744471471E+03 -0.54298723110E+02  0.56074675221E+03  0.50400001928E-02 0. -1.
</event>
<event>
 5   0  0.7712816E-03  0.7207577E+03  0.7818609E-02  0.9682378E-01
       -2   -1    0    0    0  501  0.00000000000E+00  0.00000000000E+00  0.20407641944E+03  0.20407641946E+03  0.25500000920E-02 0. -1.
        2   -1    0    0  501    0  0.00000000000E+00  0.00000000000E+00 -0.63639347735E+03  0.63639347736E+03  0.25500000920E-02 0.  1.
    10030    2    1    2    0    0  0.00000000000E+00  0.00000000000E+00 -0.43231705791E+03  0.84046989681E+03  0.72075766308E+03 0.  0.
        2    1    3    3  502    0  0.65552481264E+02 -0.22521818754E+03  0.10287488584E+03  0.25613200102E+03  0.25500000920E-02 0. -1.
       -2    1    3    3    0  502 -0.65552481264E+02  0.22521818754E+03 -0.53519194375E+03  0.58433789580E+03  0.25500000920E-02 0.  1.
</event>
<event>
 5   0  0.4298101E-03  0.1084546E+04  0.7818609E-02  0.9220386E-01
        1   -1    0    0  501    0  0.00000000000E+00  0.00000000000E+00  0.65305412260E+03  0.65305412262E+03  0.50400001928E-02 0.  1.
       -1   -1    0    0    0  501  0.00000000000E+00  0.00000000000E+00 -0.45028468097E+03  0.45028468100E+03  0.50400001928E-02 0. -1.
    10030    2    1    2    0    0  0.00000000000E+00  0.00000000000E+00  0.20276944163E+03  0.11033388036E+04  0.10845464808E+04 0.  0.
        3    1    3    3  502    0 -0.40258787291E+03 -0.29378479898E+02  0.46976423342E+03  0.61936946623E+03  0.10100000352E+00 0.  1.
       -3    1    3    3    0  502  0.40258787291E+03  0.29378479898E+02 -0.26699479179E+03  0.48396933739E+03  0.10100000352E+00 0. -1.
</event>
<event>
 5   0  0.7537480E-03  0.1105193E+04  0.7818609E-02  0.9200145E-01
       -2   -1    0    0    0  501  0.00000000000E+00  0.00000000000E+00  0.23033224052E+03  0.23033224053E+03  0.25500000920E-02 0. -1.
        2   -1    0    0  501    0  0.00000000000E+00  0.00000000000E+00 -0.13257496440E+04  0.13257496440E+04  0.25500000920E-02 0.  1.
    10030    2    1    2    0    0  0.00000000000E+00  0.00000000000E+00 -0.10954174035E+04  0.15560818846E+04  0.11051929893E+04 0.  0.
        1    1    3    3  502    0  0.44347111039E+03  0.24443198439E+03 -0.23620198638E+03  0.55875307528E+03  0.50400001928E-02 0. -1.
       -1    1    3    3    0  502 -0.44347111039E+03 -0.24443198439E+03 -0.85921541713E+03  0.99732880927E+03  0.50400001928E-02 0.  1.
</event>
<event>
 5   0  0.7766551E-03  0.1098086E+04  0.7818609E-02  0.9207059E-01
       -2   -1    0    0    0  501  0.00000000000E+00  0.00000000000E+00  0.64140207081E+03  0.64140207082E+03  0.25500000920E-02 0. -1.
        2   -1    0    0  501    0  0.00000000000E+00  0.00000000000E+00 -0.46998344920E+03  0.46998344921E+03  0.25500000920E-02 0.  1.
    10030    2    1    2    0    0  0.00000000000E+00  0.00000000000E+00  0.17141862161E+03  0.11113855200E+04  0.10980862581E+04 0.  0.
        5    1    3    3  502    0  0.51984687767E+03 -0.88248434304E+02  0.24052497838E+03  0.57957132228E+03  0.46999998093E+01 0.  1.
       -5    1    3    3    0  502 -0.51984687767E+03  0.88248434304E+02 -0.69106356766E+02  0.53181419775E+03  0.46999998093E+01 0. -1.
</event>
<event>
 5   0  0.4641021E-03  0.1103607E+04  0.7818609E-02  0.9201683E-01
        1   -1    0    0  501    0  0.00000000000E+00  0.00000000000E+00  0.10732871224E+04  0.10732871224E+04  0.50400001928E-02 0.  1.
       -1   -1    0    0    0  501  0.00000000000E+00  0.00000000000E+00 -0.28369598141E+03  0.28369598145E+03  0.50400001928E-02 0. -1.
    10030    2    1    2    0    0  0.00000000000E+00  0.00000000000E+00  0.78959114100E+03  0.13569831039E+04  0.11036072554E+04 0.  0.
        1    1    3    3  502    0  0.16055250594E+03 -0.52352278910E+03  0.47849820176E+03  0.72719581062E+03  0.50400001928E-02 0.  1.
       -1    1    3    3    0  502 -0.16055250594E+03  0.52352278910E+03  0.31109293923E+03  0.62978729325E+03  0.50400001928E-02 0. -1.
</event>
<event>
 5   0  0.4428114E-03  0.1097597E+04  0.7818609E-02  0.9207537E-01
        1   -1    0    0  501    0  0.00000000000E+00  0.00000000000E+00  0.15505042020E+04  0.15505042020E+04  0.50400001928E-02 0. -1.
       -1   -1    0    0    0  501  0.00000000000E+00  0.00000000000E+00 -0.19424637942E+03  0.19424637948E+03  0.50400001928E-02 0.  1.
    10030    2    1    2    0    0  0.00000000000E+00  0.00000000000E+00  0.13562578226E+04  0.17447505815E+04  0.10975970619E+04 0.  0.
        4    1    3    3  502    0 -0.25645082356E+03 -0.34359350766E+03  0.13357529867E+03  0.44907404369E+03  0.12699999809E+01 0.  1.
       -4    1    3    3    0  502  0.25645082356E+03  0.34359350766E+03  0.12226825239E+04  0.12956765378E+04  0.12699999809E+01 0. -1.
</event>
<event>
 5   0  0.4428114E-03  0.1048113E+04  0.7818609E-02  0.9257294E-01
        1   -1    0    0  501    0  0.00000000000E+00  0.00000000000E+00  0.11992162367E+04  0.11992162367E+04  0.50400001928E-02 0.  1.
       -1   -1    0    0    0  501  0.00000000000E+00  0.00000000000E+00 -0.22901232539E+03  0.22901232544E+03  0.50400001928E-02 0. -1.
    10030    2    1    2    0    0  0.00000000000E+00  0.00000000000E+00  0.97020391131E+03  0.14282285622E+04  0.10481131600E+04 0.  0.
        4    1    3    3  502    0  0.17840589730E+02  0.50718742392E+03  0.30703364512E+03  0.59315144926E+03  0.12699999809E+01 0. -1.
       -4    1    3    3    0  502 -0.17840589730E+02 -0.50718742392E+03  0.66317026619E+03  0.83507711289E+03  0.12699999809E+01 0.  1.
</event>
<event>
 5   0  0.7712816E-03  0.1084408E+04  0.7818609E-02  0.9220523E-01
        2   -1    0    0  501    0  0.00000000000E+00  0.00000000000E+00  0.37323062479E+03  0.37323062479E+03  0.25500000920E-02 0.  1.
       -2   -1    0    0    0  501  0.00000000000E+00  0.00000000000E+00 -0.78767763936E+03  0.78767763936E+03  0.25500000920E-02 0. -1.
    10030    2    1    2    0    0  0.00000000000E+00  0.00000000000E+00 -0.41444701457E+03  0.11609082642E+04  0.10844084424E+04 0.  0.
        2    1    3    3  502    0  0.11010088483E+02  0.17801837238E+03 -0.75537365660E+03  0.77614504060E+03  0.25500000920E-02 0. -1.
       -2    1    3    3    0  502 -0.11010088483E+02 -0.17801837238E+03  0.34092664203E+03  0.38476322356E+03  0.25500000920E-02 0.  1.
</event>
<event>
 5   0  0.7712816E-03  0.9869963E+03  0.7818609E-02  0.9322923E-01
        2   -1    0    0  501    0  0.00000000000E+00  0.00000000000E+00  0.11586339763E+04  0.11586339763E+04  0.25500000920E-02 0.  1.
       -2   -1    0    0    0  501  0.00000000000E+00  0.00000000000E+00 -0.21019617504E+03  0.21019617506E+03  0.25500000920E-02 0. -1.
    10030    2    1    2    0    0  0.00000000000E+00  0.00000000000E+00  0.94843780122E+03  0.13688301513E+04  0.98699631225E+03 0.  0.
        2    1    3    3  502    0 -0.36825681216E+03 -0.83362798605E+02  0.91492331706E+03  0.98977124225E+03  0.25500000920E-02 0.  1.
       -2    1    3    3    0  502  0.36825681216E+03  0.83362798605E+02  0.33514484166E+02  0.37905890907E+03  0.25500000920E-02 0. -1.
</event>
<event>
 5   0  0.7738497E-03  0.1083252E+04  0.7818609E-02  0.9221671E-01
        2   -1    0    0  501    0  0.00000000000E+00  0.00000000000E+00  0.10766637171E+04  0.10766637171E+04  0.25500000920E-02 0. -1.
       -2   -1    0    0    0  501  0.00000000000E+00  0.00000000000E+00 -0.27246998271E+03  0.27246998272E+03  0.25500000920E-02 0.  1.
    10030    2    1    2    0    0  0.00000000000E+00  0.00000000000E+00  0.80419373440E+03  0.13491336998E+04  0.10832516686E+04 0.  0.
        4    1    3    3  502    0 -0.27532317532E+02  0.33292103368E+03  0.93307636656E+03  0.99107394371E+03  0.12699999809E+01 0. -1.
       -4    1    3    3    0  502  0.27532317532E+02 -0.33292103368E+03 -0.12888263217E+03  0.35805975611E+03  0.12699999809E+01 0.  1.
</event>
<event>
 5   0  0.7766551E-03  0.1093881E+04  0.7818609E-02  0.9211177E-01
       -2   -1    0    0    0  501  0.00000000000E+00  0.00000000000E+00  0.18757040080E+03  0.18757040081E+03  0.25500000920E-02 0. -1.
        2   -1    0    0  501    0  0.00000000000E+00  0.00000000000E+00 -0.15948346049E+04  0.15948346049E+04  0.25500000920E-02 0.  1.
    10030    2    1    2    0    0  0.00000000000E+00  0.00000000000E+00 -0.14072642041E+04  0.17824050057E+04  0.10938807359E+04 0.  0.
        5    1    3    3  502    0  0.39441091258E+03  0.19066634292E+03 -0.12371513904E+04  0.13124325792E+04  0.46999998093E+01 0.  1.
       -5    1    3    3    0  502 -0.39441091258E+03 -0.19066634292E+03 -0.17011281374E+03  0.46997242651E+03  0.46999998093E+01 0. -1.
</event>
<event>
 5   0  0.7712816E-03  0.1107355E+04  0.7818609E-02  0.9198053E-01
       -2   -1    0    0    0  501  0.00000000000E+00  0.00000000000E+00  0.24395352030E+03  0.24395352031E+03  0.25500000920E-02 0. -1.
        2   -1    0    0  501    0  0.00000000000E+00  0.00000000000E+00 -0.12566273697E+04  0.12566273697E+04  0.25500000920E-02 0.  1.
    10030    2    1    2    0    0  0.00000000000E+00  0.00000000000E+00 -0.10126738494E+04  0.15005808900E+04  0.11073548131E+04 0.  0.
        2    1    3    3  502    0 -0.28910597887E+03 -0.60623273033E+02  0.12825295217E+03  0.32203457578E+03  0.25500000920E-02 0. -1.
       -2    1    3    3    0  502  0.28910597887E+03  0.60623273033E+02 -0.11409268015E+04  0.11785463142E+04  0.25500000920E-02 0.  1.
</event>
<event>
 5   0  0.7537480E-03  0.1099134E+04  0.7818609E-02  0.9206036E-01
       -2   -1    0    0    0  501  0.00000000000E+00  0.00000000000E+00  0.27008591497E+03  0.27008591498E+03  0.25500000920E-02 0. -1.
        2   -1    0    0  501    0  0.00000000000E+00  0.00000000000E+00 -0.11182510114E+04  0.11182510114E+04  0.25500000920E-02 0.  1.
    10030    2    1    2    0    0  0.00000000000E+00  0.00000000000E+00 -0.84816509641E+03  0.13883369264E+04  0.10991339274E+04 0.  0.
        1    1    3    3  502    0  0.42870955054E+03 -0.64791367784E+02  0.24591866867E+01  0.43358487945E+03  0.50400001928E-02 0. -1.
       -1    1    3    3    0  502 -0.42870955054E+03  0.64791367784E+02 -0.85062428310E+03  0.95475204691E+03  0.50400001928E-02 0.  1.
</event>
<event>
 5   0  0.7738497E-03  0.1099349E+04  0.7818609E-02  0.9205826E-01
        2   -1    0    0  501    0  0.00000000000E+00  0.00000000000E+00  0.90608898922E+03  0.90608898922E+03  0.25500000920E-02 0.  1.
       -2   -1    0    0    0  501  0.00000000000E+00  0.00000000000E+00 -0.33345752593E+03  0.33345752594E+03  0.25500000920E-02 0. -1.
    10030    2    1    2    0    0  0.00000000000E+00  0.00000000000E+00  0.57263146329E+03  0.12395465152E+04  0.10993492486E+04 0.  0.
        4    1    3    3  502    0 -0.49442768165E+03 -0.23009758906E+03  0.36391835465E+03  0.65562322611E+03  0.12699999809E+01 0. -1.
       -4    1    3    3    0  502  0.49442768165E+03  0.23009758906E+03  0.20871310865E+03  0.58392328905E+03  0.12699999809E+01 0.  1.
</event>
<event>
 5   0  0.7738497E-03  0.1091566E+04  0.7818609E-02  0.9213451E-01
        2   -1    0    0  501    0  0.00000000000E+00  0.00000000000E+00  0.11913959062E+04  0.11913959062E+04  0.25500000920E-02 0. -1.
       -2   -1    0    0    0  501  0.00000000000E+00  0.00000000000E+00 -0.25002538048E+03  0.25002538050E+03  0.25500000920E-02 0.  1.
    10030    2    1    2    0    0  0.00000000000E+00  0.00000000000E+00  0.94137052575E+03  0.14414212867E+04  0.10915662413E+04 0.  0.
        4    1    3    3  502    0  0.36374611833E+03  0.16274002215E+03 -0.21780876330E+02  0.39908842740E+03  0.12699999809E+01 0. -1.
       -4    1    3    3    0  502 -0.36374611833E+03 -0.16274002215E+03  0.96315140208E+03  0.10423328593E+04  0.12699999809E+01 0.  1.
</event>
<event>
 5   0  0.7766551E-03  0.1094523E+04  0.7818609E-02  0.9210547E-01
       -2   -1    0    0    0  501  0.00000000000E+00  0.00000000000E+00  0.42522791087E+03  0.42522791088E+03  0.25500000920E-02 0.  1.
        2   -1    0    0  501    0  0.00000000000E+00  0.00000000000E+00 -0.70431650926E+03  0.70431650927E+03  0.25500000920E-02 0. -1.
    10030    2    1    2    0    0  0.00000000000E+00  0.00000000000E+00 -0.27908859840E+03  0.11295444201E+04  0.10945227962E+04 0.  0.
        5    1    3    3  502    0 -0.38538789370E+03  0.24798783839E+03 -0.44819798709E+03  0.64103457179E+03  0.46999998093E+01 0. -1.
       -5    1    3    3    0  502  0.38538789370E+03 -0.24798783839E+03  0.16910938870E+03  0.48850984836E+03  0.46999998093E+01 0.  1.
</event>
<event>
 5   0  0.4598561E-03  0.1090051E+04  0.7818609E-02  0.9214943E-01
       -1   -1    0    0    0  501  0.00000000000E+00  0.00000000000E+00  0.47042379115E+03  0.47042379118E+03  0.50400001928E-02 0.  1.
        1   -1    0    0  501    0  0.00000000000E+00  0.00000000000E+00 -0.63145807946E+03  0.63145807948E+03  0.50400001928E-02 0. -1.
    10030    2    1    2    0    0  0.00000000000E+00  0.00000000000E+00 -0.16103428831E+03  0.11018818707E+04  0.10900511983E+04 0.  0.
        2    1    3    3  502    0  0.15520918831E+03  0.50399022803E+03  0.58661102503E+02  0.53060076049E+03  0.25500000920E-02 0.  1.
       -2    1    3    3    0  502 -0.15520918831E+03 -0.50399022803E+03 -0.21969539081E+03  0.57128111016E+03  0.25500000920E-02 0. -1.
</event>
<event>
 5   0  0.7766551E-03  0.1105007E+04  0.7818609E-02  0.9200325E-01
        2   -1    0    0  501    0  0.00000000000E+00  0.00000000000E+00  0.53938657377E+03  0.53938657377E+03  0.25500000920E-02 0.  1.
       -2   -1    0    0    0  501  0.00000000000E+00  0.00000000000E+00 -0.56593941686E+03  0.56593941686E+03  0.25500000920E-02 0. -1.
    10030    2    1    2    0    0  0.00000000000E+00  0.00000000000E+00 -0.26552843090E+02  0.11053259906E+04  0.11050070100E+04 0.  0.
        5    1    3    3  502    0  0.24594694929E+03 -0.22336795356E+03 -0.45482755295E+03  0.56327021709E+03  0.46999998093E+01 0. -1.
       -5    1    3    3    0  502 -0.24594694929E+03  0.22336795356E+03  0.42827470986E+03  0.54205577355E+03  0.46999998093E+01 0.  1.
</event>
<event>
 5   0  0.7952121E-03  0.1107717E+04  0.7818609E-02  0.9197703E-01
       -2   -1    0    0    0  501  0.00000000000E+00  0.00000000000E+00  0.11824541921E+04  0.11824541921E+04  0.25500000920E-02 0. -1.
        2   -1    0    0  501    0  0.00000000000E+00  0.00000000000E+00 -0.25942604548E+03  0.25942604549E+03  0.25500000920E-02 0.  1.
    10030    2    1    2    0    0  0.00000000000E+00  0.00000000000E+00  0.92302814661E+03  0.14418802376E+04  0.11077173196E+04 0.  0.
        3    1    3    3  502    0  0.25641586166E+03 -0.34671242543E+03  0.91009886462E+01  0.43132521171E+03  0.10100000352E+00 0.  1.
       -3    1    3    3    0  502 -0.25641586166E+03  0.34671242543E+03  0.91392715797E+03  0.10105550259E+04  0.10100000352E+00 0. -1.
</event>
<event>
 5   0  0.2992375E-03  0.1113992E+04  0.7818609E-02  0.9191660E-01
        4   -1    0    0  501    0  0.00000000000E+00  0.00000000000E+00  0.82542477905E+03  0.82542575606E+03  0.12699999809E+01 0. -1.
       -4   -1    0    0    0  501  0.00000000000E+00  0.00000000000E+00 -0.37585835570E+03  0.37586050132E+03  0.12699999809E+01 0.  1.
    10030    2    1    2    0    0  0.00000000000E+00  0.00000000000E+00  0.44956642334E+03  0.12012862574E+04  0.11139922366E+04 0.  0.
        2    1    3    3  502    0 -0.17802486285E+02 -0.26709180695E+03  0.75151581735E+03  0.79776624746E+03  0.25500000920E-02 0. -1.
       -2    1    3    3    0  502  0.17802486285E+02  0.26709180695E+03 -0.30194939400E+03  0.40352000992E+03  0.25500000920E-02 0.  1.
</event>
<event>
 5   0  0.4641021E-03  0.1094595E+04  0.7818609E-02  0.9210476E-01
       -1   -1    0    0    0  501  0.00000000000E+00  0.00000000000E+00  0.45282610808E+03  0.45282610811E+03  0.50400001928E-02 0. -1.
        1   -1    0    0  501    0  0.00000000000E+00  0.00000000000E+00 -0.66147851845E+03  0.66147851847E+03  0.50400001928E-02 0.  1.
    10030    2    1    2    0    0  0.00000000000E+00  0.00000000000E+00 -0.20865241037E+03  0.11143046266E+04  0.10945953465E+04 0.  0.
        1    1    3    3  502    0  0.51783177201E+03  0.17149148482E+03 -0.14957505010E+03  0.56562511358E+03  0.50400001928E-02 0.  1.
       -1    1    3    3    0  502 -0.51783177201E+03 -0.17149148482E+03 -0.59077360275E+02  0.54867951301E+03  0.50400001928E-02 0. -1.
</event>
<event>
 5   0  0.4504740E-03  0.1091970E+04  0.7818609E-02  0.9213053E-01
       -1   -1    0    0    0  501  0.00000000000E+00  0.00000000000E+00  0.38658558308E+03  0.38658558311E+03  0.50400001928E-02 0.  1.
        1   -1    0    0  501    0  0.00000000000E+00  0.00000000000E+00 -0.77110968296E+03  0.77110968298E+03  0.50400001928E-02 0. -1.
    10030    2    1    2    0    0  0.00000000000E+00  0.00000000000E+00 -0.38452409988E+03  0.11576952661E+04  0.10919704876E+04 0.  0.
        5    1    3    3  502    0  0.33620829433E+03  0.25658593518E+03 -0.55830444540E+03  0.70042722895E+03  0.46999998093E+01 0. -1.
       -5    1    3    3    0  502 -0.33620829433E+03 -0.25658593518E+03  0.17378034552E+03  0.45726803714E+03  0.46999998093E+01 0.  1.
</event>
<event>
 5   0  0.4504740E-03  0.1148084E+04  0.7818609E-02  0.9159553E-01
       -1   -1    0    0    0  501  0.00000000000E+00  0.00000000000E+00  0.17765192534E+03  0.17765192541E+03  0.50400001928E-02 0.  1.
        1   -1    0    0  501    0  0.00000000000E+00  0.00000000000E+00 -0.18548866392E+04  0.18548866392E+04  0.50400001928E-02 0. -1.
    10030    2    1    2    0    0  0.00000000000E+00  0.00000000000E+00 -0.16772347138E+04  0.20325385646E+04  0.11480839391E+04 0.  0.
        5    1    3    3  502    0  0.11013736673E+03  0.43467991792E+03 -0.14730570055E+04  0.15398038518E+04  0.46999998093E+01 0. -1.
       -5    1    3    3    0  502 -0.11013736673E+03 -0.43467991792E+03 -0.20417770832E+03  0.49273471277E+03  0.46999998093E+01 0.  1.
</event>
<event>
 5   0  0.2992375E-03  0.1092454E+04  0.7818609E-02  0.9212578E-01
       -3   -1    0    0    0  501  0.00000000000E+00  0.00000000000E+00  0.11041195254E+04  0.11041195300E+04  0.10100000352E+00 0. -1.
        3   -1    0    0  501    0  0.00000000000E+00  0.00000000000E+00 -0.27022782220E+03  0.27022784107E+03  0.10100000352E+00 0.  1.
    10030    2    1    2    0    0  0.00000000000E+00  0.00000000000E+00  0.83389170320E+03  0.13743473711E+04  0.10924538085E+04 0.  0.
        5    1    3    3  502    0  0.44117876302E+03 -0.19122862679E+03  0.90983978351E+02  0.48939479253E+03  0.46999998093E+01 0.  1.
       -5    1    3    3    0  502 -0.44117876302E+03  0.19122862679E+03  0.74290772484E+03  0.88495257855E+03  0.46999998093E+01 0. -1.
</event>
<event>
 5   0  0.7537480E-03  0.1126163E+04  0.7818609E-02  0.9180060E-01
        2   -1    0    0  501    0  0.00000000000E+00  0.00000000000E+00  0.13704485413E+04  0.13704485413E+04  0.25500000920E-02 0.  1.
       -2   -1    0    0    0  501  0.00000000000E+00  0.00000000000E+00 -0.23135555267E+03  0.23135555268E+03  0.25500000920E-02 0. -1.
    10030    2    1    2    0    0  0.00000000000E+00  0.00000000000E+00  0.11390929886E+04  0.16018040940E+04  0.11261631848E+04 0.  0.
        1    1    3    3  502    0 -0.40770221144E+03  0.37327204972E+03  0.72212857558E+03  0.90940793707E+03  0.50400001928E-02 0.  1.
       -1    1    3    3    0  502  0.40770221144E+03 -0.37327204972E+03  0.41696441306E+03  0.69239615691E+03  0.50400001928E-02 0. -1.
</event>
<event>
 5   0  0.7537480E-03  0.1097206E+04  0.7818609E-02  0.9207919E-01
        2   -1    0    0  501    0  0.00000000000E+00  0.00000000000E+00  0.15216970865E+04  0.15216970865E+04  0.25500000920E-02 0. -1.
       -2   -1    0    0    0  501  0.00000000000E+00  0.00000000000E+00 -0.19778266472E+03  0.19778266473E+03  0.25500000920E-02 0.  1.
    10030    2    1    2    0    0  0.00000000000E+00  0.00000000000E+00  0.13239144218E+04  0.17194797512E+04  0.10972060967E+04 0.  0.
        1    1    3    3  502    0  0.46726090910E+03 -0.80828839156E+02  0.22964347825E+03  0.52687966894E+03  0.50400001928E-02 0.  1.
       -1    1    3    3    0  502 -0.46726090910E+03  0.80828839156E+02  0.10942709435E+04  0.11926000823E+04  0.50400001928E-02 0. -1.
</event>
<event>
 5   0  0.4428114E-03  0.1108317E+04  0.7818609E-02  0.9197124E-01
        1   -1    0    0  501    0  0.00000000000E+00  0.00000000000E+00  0.15748303819E+04  0.15748303820E+04  0.50400001928E-02 0. -1.
       -1   -1    0    0    0  501  0.00000000000E+00  0.00000000000E+00 -0.19499967241E+03  0.19499967247E+03  0.50400001928E-02 0.  1.
    10030    2    1    2    0    0  0.00000000000E+00  0.00000000000E+00  0.13798307095E+04  0.17698300544E+04  0.11083165769E+04 0.  0.
        4    1    3    3  502    0 -0.43763499510E+03 -0.14987837060E+03  0.20267083383E+03  0.50503959716E+03  0.12699999809E+01 0. -1.
       -4    1    3    3    0  502  0.43763499510E+03  0.14987837060E+03  0.11771598757E+04  0.12647904573E+04  0.12699999809E+01 0.  1.
</event>
<event>
 5   0  0.7712816E-03  0.1083963E+04  0.7818609E-02  0.9220965E-01
       -2   -1    0    0    0  501  0.00000000000E+00  0.00000000000E+00  0.15926508385E+03  0.15926508387E+03  0.25500000920E-02 0. -1.
        2   -1    0    0  501    0  0.00000000000E+00  0.00000000000E+00 -0.18443713970E+04  0.18443713970E+04  0.25500000920E-02 0.  1.
    10030    2    1    2    0    0  0.00000000000E+00  0.00000000000E+00 -0.16851063131E+04  0.20036364809E+04  0.10839630348E+04 0.  0.
        2    1    3    3  502    0  0.48749498755E+03  0.21925913923E+01 -0.12803157424E+04  0.13699870695E+04  0.25500000920E-02 0.  1.
       -2    1    3    3    0  502 -0.48749498755E+03 -0.21925913923E+01 -0.40479057069E+03  0.63364941133E+03  0.25500000920E-02 0. -1.
</event>
<event>
 5   0  0.2992375E-03  0.1095330E+04  0.7818609E-02  0.9209755E-01
       -3   -1    0    0    0  501  0.00000000000E+00  0.00000000000E+00  0.50793678292E+03  0.50793679296E+03  0.10100000352E+00 0. -1.
        3   -1    0    0  501    0  0.00000000000E+00  0.00000000000E+00 -0.59050065293E+03  0.59050066157E+03  0.10100000352E+00 0.  1.
    10030    2    1    2    0    0  0.00000000000E+00  0.00000000000E+00 -0.82563870013E+02  0.10984374545E+04  0.10953301095E+04 0.  0.
        2    1    3    3  502    0 -0.44206859957E+03  0.16015036318E+02  0.28252086108E+03  0.52488014353E+03  0.25500000920E-02 0. -1.
       -2    1    3    3    0  502  0.44206859957E+03 -0.16015036318E+02 -0.36508473109E+03  0.57355731100E+03  0.25500000920E-02 0.  1.
</event>
<event>
 5   0  0.7766551E-03  0.1136503E+04  0.7818609E-02  0.9170326E-01
        2   -1    0    0  501    0  0.00000000000E+00  0.00000000000E+00  0.95187443337E+03  0.95187443337E+03  0.25500000920E-02 0. -1.
       -2   -1    0    0    0  501  0.00000000000E+00  0.00000000000E+00 -0.33923581493E+03  0.33923581494E+03  0.25500000920E-02 0.  1.
    10030    2    1    2    0    0  0.00000000000E+00  0.00000000000E+00  0.61263861844E+03  0.12911102483E+04  0.11365032321E+04 0.  0.
        5    1    3    3  502    0  0.16981417316E+03  0.44555258023E+03 -0.44813412088E+02  0.47894079702E+03  0.46999998093E+01 0.  1.
       -5    1    3    3    0  502 -0.16981417316E+03 -0.44555258023E+03  0.65745203053E+03  0.81216945128E+03  0.46999998093E+01 0. -1.
</event>
<event>
 5   0  0.7766551E-03  0.1074154E+04  0.7818609E-02  0.9230756E-01
       -2   -1    0    0    0  501  0.00000000000E+00  0.00000000000E+00  0.99984741765E+03  0.99984741765E+03  0.25500000920E-02 0.  1.
        2   -1    0    0  501    0  0.00000000000E+00  0.00000000000E+00 -0.28849557852E+03  0.28849557853E+03  0.25500000920E-02 0. -1.
    10030    2    1    2    0    0  0.00000000000E+00  0.00000000000E+00  0.71135183913E+03  0.12883429962E+04  0.10741537305E+04 0.  0.
        5    1    3    3  502    0 -0.69080398303E+02 -0.44674182431E+03  0.78923079392E+01  0.45214459805E+03  0.46999998093E+01 0. -1.
       -5    1    3    3    0  502  0.69080398303E+02  0.44674182431E+03  0.70345953119E+03  0.83619839813E+03  0.46999998093E+01 0.  1.
</event>
<event>
 5   0  0.4641021E-03  0.1117939E+04  0.7818609E-02  0.9187881E-01
       -1   -1    0    0    0  501  0.00000000000E+00  0.00000000000E+00  0.39050457901E+03  0.39050457905E+03  0.50400001928E-02 0.  1.
        1   -1    0    0  501    0  0.00000000000E+00  0.00000000000E+00 -0.80011143828E+03  0.80011143829E+03  0.50400001928E-02 0. -1.
    10030    2    1    2    0    0  0.00000000000E+00  0.00000000000E+00 -0.40960685926E+03  0.11906160173E+04  0.11179394982E+04 0.  0.
        1    1    3    3  502    0 -0.47212928816E+03  0.67439702545E+02  0.10568470282E+03  0.48849097705E+03  0.50400001928E-02 0.  1.
       -1    1    3    3    0  502  0.47212928816E+03 -0.67439702545E+02 -0.51529156208E+03  0.70212504029E+03  0.50400001928E-02 0. -1.
</event>
<event>
 5   0  0.4428114E-03  0.1100515E+04  0.7818609E-02  0.9204690E-01
        1   -1    0    0  501    0  0.00000000000E+00  0.00000000000E+00  0.10891547051E+04  0.10891547051E+04  0.50400001928E-02 0. -1.
       -1   -1    0    0    0  501  0.00000000000E+00  0.00000000000E+00 -0.27799847048E+03  0.27799847053E+03  0.50400001928E-02 0.  1.
    10030    2    1    2    0    0  0.00000000000E+00  0.00000000000E+00  0.81115623462E+03  0.13671531756E+04  0.11005150470E+04 0.  0.
        4    1    3    3  502    0 -0.21867469563E+03 -0.31732882494E+03 -0.82349757379E+02  0.39408032314E+03  0.12699999809E+01 0.  1.
       -4    1    3    3    0  502  0.21867469563E+03  0.31732882494E+03  0.89350599200E+03  0.97307285251E+03  0.12699999809E+01 0. -1.
</event>
<event>
 5   0  0.7952121E-03  0.1099447E+04  0.7818609E-02  0.9205731E-01
        2   -1    0    0  501    0  0.00000000000E+00  0.00000000000E+00  0.12873473076E+04  0.12873473076E+04  0.25500000920E-02 0. -1.
       -2   -1    0    0    0  501  0.00000000000E+00  0.00000000000E+00 -0.23474303895E+03  0.23474303896E+03  0.25500000920E-02 0.  1.
    10030    2    1    2    0    0  0.00000000000E+00  0.00000000000E+00  0.10526042686E+04  0.15220903465E+04  0.10994468048E+04 0.  0.
        3    1    3    3  502    0 -0.14879936818E+03 -0.29352027195E+03 -0.83312761502E+02  0.33946491490E+03  0.10100000352E+00 0.  1.
       -3    1    3    3    0  502  0.14879936818E+03  0.29352027195E+03  0.11359170301E+04  0.11826254316E+04  0.10100000352E+00 0. -1.
</event>
<event>
 5   0  0.7537480E-03  0.1081112E+04  0.7818609E-02  0.9223800E-01
       -2   -1    0    0    0  501  0.00000000000E+00  0.00000000000E+00  0.42427679863E+03  0.42427679864E+03  0.25500000920E-02 0.  1.
        2   -1    0    0  501    0  0.00000000000E+00  0.00000000000E+00 -0.68870267562E+03  0.68870267562E+03  0.25500000920E-02 0. -1.
    10030    2    1    2    0    0  0.00000000000E+00  0.00000000000E+00 -0.26442587699E+03  0.11129794743E+04  0.10811115880E+04 0.  0.
        1    1    3    3  502    0  0.36502728032E+03  0.38992002003E+03 -0.46586511603E+02  0.53614628647E+03  0.50400001928E-02 0. -1.
       -1    1    3    3    0  502 -0.36502728032E+03 -0.38992002003E+03 -0.21783936538E+03  0.57683318779E+03  0.50400001928E-02 0.  1.
</event>
<event>
 5   0  0.7766551E-03  0.1099674E+04  0.7818609E-02  0.9205510E-01
       -2   -1    0    0    0  501  0.00000000000E+00  0.00000000000E+00  0.51078367825E+03  0.51078367825E+03  0.25500000920E-02 0. -1.
        2   -1    0    0  501    0  0.00000000000E+00  0.00000000000E+00 -0.59187610242E+03  0.59187610243E+03  0.25500000920E-02 0.  1.
    10030    2    1    2    0    0  0.00000000000E+00  0.00000000000E+00 -0.81092424176E+02  0.11026597807E+04  0.10996738656E+04 0.  0.
        5    1    3    3  502    0 -0.10009936765E+03 -0.48995225154E+03  0.18860323341E+03  0.53447765327E+03  0.46999998093E+01 0. -1.
       -5    1    3    3    0  502  0.10009936765E+03  0.48995225154E+03 -0.26969565758E+03  0.56818212741E+03  0.46999998093E+01 0.  1.
</event>
<event>
 5   0  0.2992375E-03  0.1123881E+04  0.7818609E-02  0.9182224E-01
        4   -1    0    0  501    0  0.00000000000E+00  0.00000000000E+00  0.39539150752E+03  0.39539354714E+03  0.12699999809E+01 0.  1.
       -4   -1    0    0    0  501  0.00000000000E+00  0.00000000000E+00 -0.79863922675E+03  0.79864023653E+03  0.12699999809E+01 0. -1.
    10030    2    1    2    0    0  0.00000000000E+00  0.00000000000E+00 -0.40324771923E+03  0.11940337837E+04  0.11238807559E+04 0.  0.
        4    1    3    3  502    0  0.49294069914E+03 -0.11890205370E+03  0.55664308352E+02  0.51012582700E+03  0.12699999809E+01 0.  1.
       -4    1    3    3    0  502 -0.49294069914E+03  0.11890205370E+03 -0.45891202758E+03  0.68390795668E+03  0.12699999809E+01 0. -1.
</event>
<event>
 5   0  0.7952121E-03  0.1134101E+04  0.7818609E-02  0.9172577E-01
        2   -1    0    0  501    0  0.00000000000E+00  0.00000000000E+00  0.81084422887E+03  0.81084422888E+03  0.25500000920E-02 0. -1.
       -2   -1    0    0    0  501  0.00000000000E+00  0.00000000000E+00 -0.39655756714E+03  0.39655756715E+03  0.25500000920E-02 0.  1.
    10030    2    1    2    0    0  0.00000000000E+00  0.00000000000E+00  0.41428666173E+03  0.12074017960E+04  0.11341012560E+04 0.  0.
        3    1    3    3  502    0  0.11604623264E+03  0.80540088615E+02 -0.37752637730E+03  0.40308759562E+03  0.10100000352E+00 0.  1.
       -3    1    3    3    0  502 -0.11604623264E+03 -0.80540088615E+02  0.79181303904E+03  0.80431420041E+03  0.10100000352E+00 0. -1.
</event>
<event>
 5   0  0.7738497E-03  0.1092314E+04  0.7818609E-02  0.9212715E-01
        2   -1    0    0  501    0  0.00000000000E+00  0.00000000000E+00  0.13946082598E+04  0.13946082598E+04  0.25500000920E-02 0. -1.
       -2   -1    0    0    0  501  0.00000000000E+00  0.00000000000E+00 -0.21388631644E+03  0.21388631645E+03  0.25500000920E-02 0.  1.
    10030    2    1    2    0    0  0.00000000000E+00  0.00000000000E+00  0.11807219434E+04  0.16084945763E+04  0.10923142837E+04 0.  0.
        4    1    3    3  502    0 -0.37404056685E+03  0.18417919493E+03  0.70864198103E+02  0.42290858229E+03  0.12699999809E+01 0. -1.
       -4    1    3    3    0  502  0.37404056685E+03 -0.18417919493E+03  0.11098577453E+04  0.11855859940E+04  0.12699999809E+01 0.  1.
</event>
<event>
 5   0  0.4504740E-03  0.1089887E+04  0.7818609E-02  0.9215105E-01
       -1   -1    0    0    0  501  0.00000000000E+00  0.00000000000E+00  0.40295057537E+03  0.40295057540E+03  0.50400001928E-02 0.  1.
        1   -1    0    0  501    0  0.00000000000E+00  0.00000000000E+00 -0.73697268357E+03  0.73697268359E+03  0.50400001928E-02 0. -1.
    10030    2    1    2    0    0  0.00000000000E+00  0.00000000000E+00 -0.33402210821E+03  0.11399232590E+04  0.10898872729E+04 0.  0.
        5    1    3    3  502    0 -0.20220425591E+03 -0.59687201442E+02  0.35854391829E+03  0.41596268398E+03  0.46999998093E+01 0.  1.
       -5    1    3    3    0  502  0.20220425591E+03  0.59687201442E+02 -0.69256602649E+03  0.72396057501E+03  0.46999998093E+01 0. -1.
</event>
<event>
 5   0  0.7952121E-03  0.1099600E+04  0.7818609E-02  0.9205581E-01
        2   -1    0    0  501    0  0.00000000000E+00  0.00000000000E+00  0.99839993215E+03  0.99839993215E+03  0.25500000920E-02 0.  1.
       -2   -1    0    0    0  501  0.00000000000E+00  0.00000000000E+00 -0.30276470860E+03  0.30276470861E+03  0.25500000920E-02 0. -1.
    10030    2    1    2    0    0  0.00000000000E+00  0.00000000000E+00  0.69563522355E+03  0.13011646408E+04  0.10996004084E+04 0.  0.
        3    1    3    3  502    0 -0.52052138328E+03 -0.64532741812E+02  0.15275757345E+03  0.54629833577E+03  0.10100000352E+00 0. -1.
       -3    1    3    3    0  502  0.52052138328E+03  0.64532741812E+02  0.54287765009E+03  0.75486630498E+03  0.10100000352E+00 0.  1.
</event>
<event>
 5   0  0.7738497E-03  0.1060053E+04  0.7818609E-02  0.9245026E-01
        2   -1    0    0  501    0  0.00000000000E+00  0.00000000000E+00  0.51845548990E+03  0.51845548990E+03  0.25500000920E-02 0. -1.
       -2   -1    0    0    0  501  0.00000000000E+00  0.00000000000E+00 -0.54185598482E+03  0.54185598483E+03  0.25500000920E-02 0.  1.
    10030    2    1    2    0    0  0.00000000000E+00  0.00000000000E+00 -0.23400494926E+02  0.10603114747E+04  0.10600532252E+04 0.  0.
        4    1    3    3  502    0  0.42803572186E+03 -0.19236020431E+03  0.23475289909E+03  0.52471665108E+03  0.12699999809E+01 0. -1.
       -4    1    3    3    0  502 -0.42803572186E+03  0.19236020431E+03 -0.25815339402E+03  0.53559482366E+03  0.12699999809E+01 0.  1.
</event>
<event>
 5   0  0.7537480E-03  0.1089896E+04  0.7818609E-02  0.9215096E-01
        2   -1    0    0  501    0  0.00000000000E+00  0.00000000000E+00  0.57042407015E+03  0.57042407016E+03  0.25500000920E-02 0. -1.
       -2   -1    0    0    0  501  0.00000000000E+00  0.00000000000E+00 -0.52060952401E+03  0.52060952401E+03  0.25500000920E-02 0.  1.
    10030    2    1    2    0    0  0.00000000000E+00  0.00000000000E+00  0.49814546145E+02  0.10910335942E+04  0.10898957815E+04 0.  0.
        1    1    3    3  502    0  0.54347850902E+03 -0.35303810844E+02  0.61005688390E+01  0.54465811827E+03  0.50400001928E-02 0.  1.
       -1    1    3    3    0  502 -0.54347850902E+03  0.35303810844E+02  0.43713977306E+02  0.54637547590E+03  0.50400001928E-02 0. -1.
</event>
<event>
 5   0  0.4428114E-03  0.1107685E+04  0.7818609E-02  0.9197734E-01
        1   -1    0    0  501    0  0.00000000000E+00  0.00000000000E+00  0.67423960911E+03  0.67423960913E+03  0.50400001928E-02 0.  1.
       -1   -1    0    0    0  501  0.00000000000E+00  0.00000000000E+00 -0.45494406871E+03  0.45494406874E+03  0.50400001928E-02 0. -1.
    10030    2    1    2    0    0  0.00000000000E+00  0.00000000000E+00  0.21929554040E+03  0.11291836779E+04  0.11076846322E+04 0.  0.
        4    1    3    3  502    0  0.42278978240E+03  0.10820268334E+03  0.45726575536E+03  0.63210173604E+03  0.12699999809E+01 0.  1.
       -4    1    3    3    0  502 -0.42278978240E+03 -0.10820268334E+03 -0.23797021495E+03  0.49708194182E+03  0.12699999809E+01 0. -1.
</event>
<event>
 5   0  0.7952121E-03  0.1121238E+04  0.7818609E-02  0.9184736E-01
       -2   -1    0    0    0  501  0.00000000000E+00  0.00000000000E+00  0.73577004984E+03  0.73577004984E+03  0.25500000920E-02 0. -1.
        2   -1    0    0  501    0  0.00000000000E+00  0.00000000000E+00 -0.42716253787E+03  0.42716253787E+03  0.25500000920E-02 0.  1.
    10030    2    1    2    0    0  0.00000000000E+00  0.00000000000E+00  0.30860751197E+03  0.11629325877E+04  0.11212375338E+04 0.  0.
        3    1    3    3  502    0  0.26134145241E+03 -0.41401207680E+02  0.66693001402E+03  0.71750196414E+03  0.10100000352E+00 0. -1.
       -3    1    3    3    0  502 -0.26134145241E+03  0.41401207680E+02 -0.35832250205E+03  0.44543062357E+03  0.10100000352E+00 0.  1.
</event>
<event>
 5   0  0.7766551E-03  0.1103004E+04  0.7818609E-02  0.9202269E-01
        2   -1    0    0  501    0  0.00000000000E+00  0.00000000000E+00  0.11855682057E+04  0.11855682057E+04  0.25500000920E-02 0.  1.
       -2   -1    0    0    0  501  0.00000000000E+00  0.00000000000E+00 -0.25654739323E+03  0.25654739324E+03  0.25500000920E-02 0. -1.
    10030    2    1    2    0    0  0.00000000000E+00  0.00000000000E+00  0.92902081244E+03  0.14421155989E+04  0.11030039577E+04 0.  0.
        5    1    3    3  502    0 -0.20073449981E+03 -0.48495211227E+03  0.24317191500E+03  0.57847001724E+03  0.46999998093E+01 0. -1.
       -5    1    3    3    0  502  0.20073449981E+03  0.48495211227E+03  0.68584889744E+03  0.86364558166E+03  0.46999998093E+01 0.  1.
</event>
<event>
 5   0  0.4298101E-03  0.1103521E+04  0.7818609E-02  0.9201766E-01
       -1   -1    0    0    0  501  0.00000000000E+00  0.00000000000E+00  0.17257626741E+03  0.17257626748E+03  0.50400001928E-02 0.  1.
        1   -1    0    0  501    0  0.00000000000E+00  0.00000000000E+00 -0.17640887676E+04  0.17640887676E+04  0.50400001928E-02 0. -1.
    10030    2    1    2    0    0  0.00000000000E+00  0.00000000000E+00 -0.15915125002E+04  0.19366650351E+04  0.11035213726E+04 0.  0.
        3    1    3    3  502    0 -0.24049635960E+03 -0.31988753123E+03 -0.12915401492E+03  0.42053216451E+03  0.10100000352E+00 0.  1.
       -3    1    3    3    0  502  0.24049635960E+03  0.31988753123E+03 -0.14623584853E+04  0.15161328706E+04  0.10100000352E+00 0. -1.
</event>
<event>
 5   0  0.2992375E-03  0.1076773E+04  0.7818609E-02  0.9228131E-01
       -3   -1    0    0    0  501  0.00000000000E+00  0.00000000000E+00  0.41934241302E+03  0.41934242518E+03  0.10100000352E+00 0. -1.
        3   -1    0    0  501    0  0.00000000000E+00  0.00000000000E+00 -0.69122477635E+03  0.69122478373E+03  0.10100000352E+00 0.  1.
    10030    2    1    2    0    0  0.00000000000E+00  0.00000000000E+00 -0.27188236333E+03  0.11105672089E+04  0.10767727272E+04 0.  0.
        1    1    3    3  502    0  0.31448165741E+03  0.41436142818E+03 -0.27909864354E+03  0.59033055051E+03  0.50400001928E-02 0.  1.
       -1    1    3    3    0  502 -0.31448165741E+03 -0.41436142818E+03  0.72162802122E+01  0.52023665840E+03  0.50400001928E-02 0. -1.
</event>
<event>
 5   0  0.4428114E-03  0.1099191E+04  0.7818609E-02  0.9205981E-01
        1   -1    0    0  501    0  0.00000000000E+00  0.00000000000E+00  0.45219130753E+03  0.45219130756E+03  0.50400001928E-02 0.  1.
       -1   -1    0    0    0  501  0.00000000000E+00  0.00000000000E+00 -0.66798081090E+03  0.66798081092E+03  0.50400001928E-02 0. -1.
    10030    2    1    2    0    0  0.00000000000E+00  0.00000000000E+00 -0.21578950337E+03  0.11201721185E+04  0.10991908229E+04 0.  0.
        4    1    3    3  502    0  0.38569630362E+03 -0.38739214372E+03 -0.50073819509E+02  0.54894745827E+03  0.12699999809E+01 0.  1.
       -4    1    3    3    0  502 -0.38569630362E+03  0.38739214372E+03 -0.16571568386E+03  0.57122466020E+03  0.12699999809E+01 0. -1.
</event>
<event>
 5   0  0.7738497E-03  0.1074551E+04  0.7818609E-02  0.9230358E-01
       -2   -1    0    0    0  501  0.00000000000E+00  0.00000000000E+00  0.70962372252E+03  0.70962372252E+03  0.25500000920E-02 0. -1.
        2   -1    0    0  501    0  0.00000000000E+00  0.00000000000E+00 -0.40678567511E+03  0.40678567511E+03  0.25500000920E-02 0.  1.
    10030    2    1    2    0    0  0.00000000000E+00  0.00000000000E+00  0.30283804741E+03  0.11164093976E+04  0.10745506317E+04 0.  0.
        4    1    3    3  502    0 -0.22088348249E+03 -0.19906415856E+03 -0.31350256964E+03  0.43208972001E+03  0.12699999809E+01 0.  1.
       -4    1    3    3    0  502  0.22088348249E+03  0.19906415856E+03  0.61634061706E+03  0.68431967763E+03  0.12699999809E+01 0. -1.
</event>
<event>
 5   0  0.4298101E-03  0.1076200E+04  0.7818609E-02  0.9228704E-01
        1   -1    0    0  501    0  0.00000000000E+00  0.00000000000E+00  0.28726969020E+03  0.28726969024E+03  0.50400001928E-02 0. -1.
       -1   -1    0    0    0  501  0.00000000000E+00  0.00000000000E+00 -0.10079443890E+04  0.10079443890E+04  0.50400001928E-02 0.  1.
    10030    2    1    2    0    0  0.00000000000E+00  0.00000000000E+00 -0.72067469882E+03  0.12952140793E+04  0.10762004877E+04 0.  0.
        3    1    3    3  502    0 -0.48177424268E+03 -0.22942203364E+03 -0.27686074463E+03  0.60115952337E+03  0.10100000352E+00 0.  1.
       -3    1    3    3    0  502  0.48177424268E+03  0.22942203364E+03 -0.44381395419E+03  0.69405455590E+03  0.10100000352E+00 0. -1.
</event>
<event>
 5   0  0.7766551E-03  0.1104497E+04  0.7818609E-02  0.9200819E-01
        2   -1    0    0  501    0  0.00000000000E+00  0.00000000000E+00  0.83902077940E+03  0.83902077940E+03  0.25500000920E-02 0. -1.
       -2   -1    0    0    0  501  0.00000000000E+00  0.00000000000E+00 -0.36349351424E+03  0.36349351425E+03  0.25500000920E-02 0.  1.
    10030    2    1    2    0    0  0.00000000000E+00  0.00000000000E+00  0.47552726516E+03  0.12025142936E+04  0.11044973728E+04 0.  0.
        5    1    3    3  502    0 -0.26569892817E+03  0.29043351351E+03  0.65944477765E+03  0.76800849668E+03  0.46999998093E+01 0.  1.
       -5    1    3    3    0  502  0.26569892817E+03 -0.29043351351E+03 -0.18391751249E+03  0.43450579697E+03  0.46999998093E+01 0. -1.
</event>
<event>
 5   0  0.7712816E-03  0.1119472E+04  0.7818609E-02  0.9186418E-01
       -2   -1    0    0    0  501  0.00000000000E+00  0.00000000000E+00  0.55116046681E+03  0.55116046681E+03  0.25500000920E-02 0.  1.
        2   -1    0    0  501    0  0.00000000000E+00  0.00000000000E+00 -0.56844542220E+03  0.56844542220E+03  0.25500000920E-02 0. -1.
    10030    2    1    2    0    0  0.00000000000E+00  0.00000000000E+00 -0.17284955389E+02  0.11196058890E+04  0.11194724548E+04 0.  0.
        2    1    3    3  502    0 -0.15729719894E+03 -0.24619841261E+03  0.46885403586E+03  0.55243114876E+03  0.25500000920E-02 0. -1.
       -2    1    3    3    0  502  0.15729719894E+03  0.24619841261E+03 -0.48613899125E+03  0.56717474026E+03  0.25500000920E-02 0.  1.
</event>
<event>
 5   0  0.7766551E-03  0.1100416E+04  0.7818609E-02  0.9204786E-01
       -2   -1    0    0    0  501  0.00000000000E+00  0.00000000000E+00  0.42153769169E+03  0.42153769170E+03  0.25500000920E-02 0.  1.
        2   -1    0    0  501    0  0.00000000000E+00  0.00000000000E+00 -0.71815412192E+03  0.71815412192E+03  0.25500000920E-02 0. -1.
    10030    2    1    2    0    0  0.00000000000E+00  0.00000000000E+00 -0.29661643023E+03  0.11396918136E+04  0.11004163409E+04 0.  0.
        5    1    3    3  502    0  0.15589616117E+03  0.28345516505E+03 -0.60922756936E+03  0.68980487453E+03  0.46999998093E+01 0. -1.
       -5    1    3    3    0  502 -0.15589616117E+03 -0.28345516505E+03  0.31261113913E+03  0.44988693909E+03  0.46999998093E+01 0.  1.
</event>
<event>
 5   0  0.4504740E-03  0.1113959E+04  0.7818609E-02  0.9191693E-01
        1   -1    0    0  501    0  0.00000000000E+00  0.00000000000E+00  0.21320556933E+04  0.21320556933E+04  0.50400001928E-02 0. -1.
       -1   -1    0    0    0  501  0.00000000000E+00  0.00000000000E+00 -0.14550554625E+03  0.14550554634E+03  0.50400001928E-02 0.  1.
    10030    2    1    2    0    0  0.00000000000E+00  0.00000000000E+00  0.19865501470E+04  0.22775612396E+04  0.11139585780E+04 0.  0.
        5    1    3    3  502    0 -0.17588319861E+03 -0.59213334804E+02  0.20669400786E+04  0.20752601035E+04  0.46999998093E+01 0.  1.
       -5    1    3    3    0  502  0.17588319861E+03  0.59213334804E+02 -0.80389931600E+02  0.20230113611E+03  0.46999998093E+01 0. -1.
</event>
<event>
 5   0  0.4428114E-03  0.1131557E+04  0.7818609E-02  0.9174969E-01
       -1   -1    0    0    0  501  0.00000000000E+00  0.00000000000E+00  0.88893234061E+03  0.88893234062E+03  0.50400001928E-02 0.  1.
        1   -1    0    0  501    0  0.00000000000E+00  0.00000000000E+00 -0.36010084099E+03  0.36010084103E+03  0.50400001928E-02 0. -1.
    10030    2    1    2    0    0  0.00000000000E+00  0.00000000000E+00  0.52883149962E+03  0.12490331816E+04  0.11315569512E+04 0.  0.
        4    1    3    3  502    0 -0.17189291433E+03 -0.31328917135E+03  0.74859626322E+03  0.82951507345E+03  0.12699999809E+01 0.  1.
       -4    1    3    3    0  502  0.17189291433E+03  0.31328917135E+03 -0.21976476360E+03  0.41951810820E+03  0.12699999809E+01 0. -1.
</event>
<event>
 5   0  0.7952121E-03  0.1073970E+04  0.7818609E-02  0.9230941E-01
       -2   -1    0    0    0  501  0.00000000000E+00  0.00000000000E+00  0.32283140350E+03  0.32283140351E+03  0.25500000920E-02 0. -1.
        2   -1    0    0  501    0  0.00000000000E+00  0.00000000000E+00 -0.89319881377E+03  0.89319881378E+03  0.25500000920E-02 0.  1.
    10030    2    1    2    0    0  0.00000000000E+00  0.00000000000E+00 -0.57036741027E+03  0.12160302173E+04  0.10739695092E+04 0.  0.
        3    1    3    3  502    0 -0.35415642283E+03 -0.28563469436E+03 -0.60810816221E+03  0.75947975457E+03  0.10100000352E+00 0.  1.
       -3    1    3    3    0  502  0.35415642283E+03  0.28563469436E+03  0.37740751932E+02  0.45655046272E+03  0.10100000352E+00 0. -1.
</event>
<event>
 5   0  0.4598561E-03  0.1103422E+04  0.7818609E-02  0.9201863E-01
        1   -1    0    0  501    0  0.00000000000E+00  0.00000000000E+00  0.30189934497E+03  0.30189934502E+03  0.50400001928E-02 0.  1.
       -1   -1    0    0    0  501  0.00000000000E+00  0.00000000000E+00 -0.10082327453E+04  0.10082327453E+04  0.50400001928E-02 0. -1.
    10030    2    1    2    0    0  0.00000000000E+00  0.00000000000E+00 -0.70633340035E+03  0.13101320904E+04  0.11034215975E+04 0.  0.
        2    1    3    3  502    0 -0.10466878856E+03  0.31711307219E+03 -0.87460666208E+03  0.93619072267E+03  0.25500000920E-02 0. -1.
       -2    1    3    3    0  502  0.10466878856E+03 -0.31711307219E+03  0.16827326173E+03  0.37394136769E+03  0.25500000920E-02 0.  1.
</event>
<event>
 5   0  0.7738497E-03  0.7901312E+03  0.7818609E-02  0.9574413E-01
        2   -1    0    0  501    0  0.00000000000E+00  0.00000000000E+00  0.12363771815E+04  0.12363771815E+04  0.25500000920E-02 0. -1.
       -2   -1    0    0    0  501  0.00000000000E+00  0.00000000000E+00 -0.12623721755E+03  0.12623721757E+03  0.25500000920E-02 0.  1.
    10030    2    1    2    0    0  0.00000000000E+00  0.00000000000E+00  0.11101399640E+04  0.13626143991E+04  0.79013116697E+03 0.  0.
        4    1    3    3  502    0 -0.92583665714E+02  0.13724118490E+03 -0.63529573401E+02  0.17732596422E+03  0.12699999809E+01 0.  1.
       -4    1    3    3    0  502  0.92583665714E+02 -0.13724118490E+03  0.11736695374E+04  0.11852884349E+04  0.12699999809E+01 0. -1.
</event>
<event>
 5   0  0.4428114E-03  0.1095539E+04  0.7818609E-02  0.9209550E-01
       -1   -1    0    0    0  501  0.00000000000E+00  0.00000000000E+00  0.23637523941E+03  0.23637523946E+03  0.50400001928E-02 0. -1.
        1   -1    0    0  501    0  0.00000000000E+00  0.00000000000E+00 -0.12693866970E+04  0.12693866970E+04  0.50400001928E-02 0.  1.
    10030    2    1    2    0    0  0.00000000000E+00  0.00000000000E+00 -0.10330114576E+04  0.15057619365E+04  0.10955392908E+04 0.  0.
        4    1    3    3  502    0 -0.44548100433E+03  0.31689868029E+03 -0.56355669937E+03  0.78515977043E+03  0.12699999809E+01 0. -1.
       -4    1    3    3    0  502  0.44548100433E+03 -0.31689868029E+03 -0.46945475821E+03  0.72060216604E+03  0.12699999809E+01 0.  1.
</event>
<event>
 5   0  0.4641021E-03  0.9057377E+03  0.7818609E-02  0.9418437E-01
        1   -1    0    0  501    0  0.00000000000E+00  0.00000000000E+00  0.96664441497E+03  0.96664441498E+03  0.50400001928E-02 0. -1.
       -1   -1    0    0    0  501  0.00000000000E+00  0.00000000000E+00 -0.21216714689E+03  0.21216714695E+03  0.50400001928E-02 0.  1.
    10030    2    1    2    0    0  0.00000000000E+00  0.00000000000E+00  0.75447726808E+03  0.11788115619E+04  0.90573768305E+03 0.  0.
        1    1    3    3  502    0 -0.13642050593E+03 -0.72559582497E+02 -0.17679829105E+03  0.23480435088E+03  0.50400001928E-02 0.  1.
       -1    1    3    3    0  502  0.13642050593E+03  0.72559582497E+02  0.93127555913E+03  0.94400721105E+03  0.50400001928E-02 0. -1.
</event>
<event>
 5   0  0.4504740E-03  0.1101069E+04  0.7818609E-02  0.9204150E-01
       -1   -1    0    0    0  501  0.00000000000E+00  0.00000000000E+00  0.42220504380E+03  0.42220504383E+03  0.50400001928E-02 0. -1.
        1   -1    0    0  501    0  0.00000000000E+00  0.00000000000E+00 -0.71787040344E+03  0.71787040346E+03  0.50400001928E-02 0.  1.
    10030    2    1    2    0    0  0.00000000000E+00  0.00000000000E+00 -0.29566535964E+03  0.11400754473E+04  0.11010694895E+04 0.  0.
        5    1    3    3  502    0 -0.17564555632E+03  0.39873543784E+03  0.20057701327E+03  0.47968170602E+03  0.46999998093E+01 0. -1.
       -5    1    3    3    0  502  0.17564555632E+03 -0.39873543784E+03 -0.49624237291E+03  0.66039374127E+03  0.46999998093E+01 0.  1.
</event>
<event>
 5   0  0.4298101E-03  0.1101488E+04  0.7818609E-02  0.9203743E-01
       -1   -1    0    0    0  501  0.00000000000E+00  0.00000000000E+00  0.28099311557E+03  0.28099311562E+03  0.50400001928E-02 0. -1.
        1   -1    0    0  501    0  0.00000000000E+00  0.00000000000E+00 -0.10794537174E+04  0.10794537174E+04  0.50400001928E-02 0.  1.
    10030    2    1    2    0    0  0.00000000000E+00  0.00000000000E+00 -0.79846060180E+03  0.13604468330E+04  0.11014881991E+04 0.  0.
        3    1    3    3  502    0  0.16952129019E+03 -0.23518511537E+03 -0.97758049369E+03  0.10196632474E+04  0.10100000352E+00 0.  1.
       -3    1    3    3    0  502 -0.16952129019E+03  0.23518511537E+03  0.17911989189E+03  0.34078358557E+03  0.10100000352E+00 0. -1.
</event>
<event>
 5   0  0.7712816E-03  0.1017987E+04  0.7818609E-02  0.9289034E-01
        2   -1    0    0  501    0  0.00000000000E+00  0.00000000000E+00  0.79035805135E+03  0.79035805136E+03  0.25500000920E-02 0. -1.
       -2   -1    0    0    0  501  0.00000000000E+00  0.00000000000E+00 -0.32779376582E+03  0.32779376583E+03  0.25500000920E-02 0.  1.
    10030    2    1    2    0    0  0.00000000000E+00  0.00000000000E+00  0.46256428554E+03  0.11181518172E+04  0.10179871158E+04 0.  0.
        2    1    3    3  502    0 -0.15711044391E+03  0.20903565963E+03 -0.24837174316E+03  0.36064958254E+03  0.25500000920E-02 0.  1.
       -2    1    3    3    0  502  0.15711044391E+03 -0.20903565963E+03  0.71093602869E+03  0.75750223464E+03  0.25500000920E-02 0. -1.
</event>
<event>
 5   0  0.4428114E-03  0.1103064E+04  0.7818609E-02  0.9202210E-01
        1   -1    0    0  501    0  0.00000000000E+00  0.00000000000E+00  0.14261311619E+04  0.14261311619E+04  0.50400001928E-02 0.  1.
       -1   -1    0    0    0  501  0.00000000000E+00  0.00000000000E+00 -0.21329570792E+03  0.21329570798E+03  0.50400001928E-02 0. -1.
    10030    2    1    2    0    0  0.00000000000E+00  0.00000000000E+00  0.12128354540E+04  0.16394268699E+04  0.11030641973E+04 0.  0.
        4    1    3    3  502    0  0.24203830262E+03 -0.27074035784E+03  0.12233505593E+04  0.12761156237E+04  0.12699999809E+01 0.  1.
       -4    1    3    3    0  502 -0.24203830262E+03  0.27074035784E+03 -0.10515105240E+02  0.36331124623E+03  0.12699999809E+01 0. -1.
</event>
<event>
 5   0  0.7952121E-03  0.8580806E+03  0.7818609E-02  0.9479555E-01
       -2   -1    0    0    0  501  0.00000000000E+00  0.00000000000E+00  0.12405177308E+03  0.12405177311E+03  0.25500000920E-02 0. -1.
        2   -1    0    0  501    0  0.00000000000E+00  0.00000000000E+00 -0.14838609686E+04  0.14838609686E+04  0.25500000920E-02 0.  1.
    10030    2    1    2    0    0  0.00000000000E+00  0.00000000000E+00 -0.13598091955E+04  0.16079127417E+04  0.85808061203E+03 0.  0.
        3    1    3    3  502    0 -0.36235991428E+03 -0.22777396315E+02 -0.25156711295E+03  0.44171205528E+03  0.10100000352E+00 0.  1.
       -3    1    3    3    0  502  0.36235991428E+03  0.22777396315E+02 -0.11082420826E+04  0.11662006865E+04  0.10100000352E+00 0. -1.
</event>
<event>
 5   0  0.2992375E-03  0.1121159E+04  0.7818609E-02  0.9184810E-01
       -3   -1    0    0    0  501  0.00000000000E+00  0.00000000000E+00  0.47534286288E+03  0.47534287361E+03  0.10100000352E+00 0. -1.
        3   -1    0    0  501    0  0.00000000000E+00  0.00000000000E+00 -0.66110079250E+03  0.66110080022E+03  0.10100000352E+00 0.  1.
    10030    2    1    2    0    0  0.00000000000E+00  0.00000000000E+00 -0.18575792962E+03  0.11364436738E+04  0.11211593176E+04 0.  0.
        3    1    3    3  502    0  0.50110902029E+03  0.45951176102E+02  0.15752683346E+03  0.52729164061E+03  0.10100000352E+00 0. -1.
       -3    1    3    3    0  502 -0.50110902029E+03 -0.45951176102E+02 -0.34328476308E+03  0.60915203321E+03  0.10100000352E+00 0.  1.
</event>
<event>
 5   0  0.7738497E-03  0.1152003E+04  0.7818609E-02  0.9155938E-01
        2   -1    0    0  501    0  0.00000000000E+00  0.00000000000E+00  0.50511054085E+03  0.50511054085E+03  0.25500000920E-02 0.  1.
       -2   -1    0    0    0  501  0.00000000000E+00  0.00000000000E+00 -0.65684137978E+03  0.65684137978E+03  0.25500000920E-02 0. -1.
    10030    2    1    2    0    0  0.00000000000E+00  0.00000000000E+00 -0.15173083893E+03  0.11619519206E+04  0.11520026121E+04 0.  0.
        4    1    3    3  502    0 -0.35185260708E+03 -0.19120490883E+03 -0.49346569324E+03  0.63550733873E+03  0.12699999809E+01 0. -1.
       -4    1    3    3    0  502  0.35185260708E+03  0.19120490883E+03  0.34173485431E+03  0.52644458191E+03  0.12699999809E+01 0.  1.
</event>
<event>
 5   0  0.4641021E-03  0.1098675E+04  0.7818609E-02  0.9206484E-01
        1   -1    0    0  501    0  0.00000000000E+00  0.00000000000E+00  0.13997952158E+04  0.13997952158E+04  0.50400001928E-02 0. -1.
       -1   -1    0    0    0  501  0.00000000000E+00  0.00000000000E+00 -0.21558290731E+03  0.21558290737E+03  0.50400001928E-02 0.  1.
    10030    2    1    2    0    0  0.00000000000E+00  0.00000000000E+00  0.11842123085E+04  0.16153781232E+04  0.10986754249E+04 0.  0.
        1    1    3    3  502    0 -0.26642310331E+03 -0.16698094824E+03 -0.70193286079E+02  0.32216611319E+03  0.50400001928E-02 0.  1.
       -1    1    3    3    0  502  0.26642310331E+03  0.16698094824E+03  0.12544055946E+04  0.12932120100E+04  0.50400001928E-02 0. -1.
</event>
<event>
 5   0  0.7766551E-03  0.1092526E+04  0.7818609E-02  0.9212508E-01
        2   -1    0    0  501    0  0.00000000000E+00  0.00000000000E+00  0.72294143389E+03  0.72294143389E+03  0.25500000920E-02 0.  1.
       -2   -1    0    0    0  501  0.00000000000E+00  0.00000000000E+00 -0.41276239605E+03  0.41276239606E+03  0.25500000920E-02 0. -1.
    10030    2    1    2    0    0  0.00000000000E+00  0.00000000000E+00  0.31017903783E+03  0.11357038300E+04  0.10925255850E+04 0.  0.
        5    1    3    3  502    0 -0.43402603860E+03  0.29449850254E+03  0.31367355120E+03  0.61116377257E+03  0.46999998093E+01 0.  1.
       -5    1    3    3    0  502  0.43402603860E+03 -0.29449850254E+03 -0.34945133642E+01  0.52454005739E+03  0.46999998093E+01 0. -1.
</event>
<event>
 5   0  0.2992375E-03  0.1095740E+04  0.7818609E-02  0.9209354E-01
        3   -1    0    0  501    0  0.00000000000E+00  0.00000000000E+00  0.18332257225E+04  0.18332257253E+04  0.10100000352E+00 0.  1.
       -3   -1    0    0    0  501  0.00000000000E+00  0.00000000000E+00 -0.16373394157E+03  0.16373397273E+03  0.10100000352E+00 0. -1.
    10030    2    1    2    0    0  0.00000000000E+00  0.00000000000E+00  0.16694917810E+04  0.19969596980E+04  0.10957395808E+04 0.  0.
        1    1    3    3  502    0  0.28652091253E+03  0.37062346180E+03  0.13524874669E+04  0.14313204853E+04  0.50400001928E-02 0.  1.
       -1    1    3    3    0  502 -0.28652091253E+03 -0.37062346180E+03  0.31700431410E+03  0.56563921269E+03  0.50400001928E-02 0. -1.
</event>
<event>
 5   0  0.7537480E-03  0.1074042E+04  0.7818609E-02  0.9230868E-01
       -2   -1    0    0    0  501  0.00000000000E+00  0.00000000000E+00  0.43304950512E+03  0.43304950512E+03  0.25500000920E-02 0.  1.
        2   -1    0    0  501    0  0.00000000000E+00  0.00000000000E+00 -0.66595533319E+03  0.66595533319E+03  0.25500000920E-02 0. -1.
    10030    2    1    2    0    0  0.00000000000E+00  0.00000000000E+00 -0.23290582807E+03  0.10990048383E+04  0.10740421360E+04 0.  0.
        1    1    3    3  502    0  0.42769354480E+02  0.16774872069E+03 -0.63662097079E+03  0.65973866905E+03  0.50400001928E-02 0. -1.
       -1    1    3    3    0  502 -0.42769354480E+02 -0.16774872069E+03  0.40371514272E+03  0.43926616926E+03  0.50400001928E-02 0.  1.
</event>
<event>
 5   0  0.7952121E-03  0.1408559E+04  0.7818609E-02  0.8947646E-01
       -2   -1    0    0    0  501  0.00000000000E+00  0.00000000000E+00  0.30098257773E+03  0.30098257774E+03  0.25500000920E-02 0. -1.
        2   -1    0    0  501    0  0.00000000000E+00  0.00000000000E+00 -0.16479676357E+04  0.16479676357E+04  0.25500000920E-02 0.  1.
    10030    2    1    2    0    0  0.00000000000E+00  0.00000000000E+00 -0.13469850580E+04  0.19489502135E+04  0.14085589047E+04 0.  0.
        3    1    3    3  502    0 -0.44836536586E+03  0.54289230804E+03 -0.65179184954E+03  0.95947703712E+03  0.10100000352E+00 0. -1.
       -3    1    3    3    0  502  0.44836536586E+03 -0.54289230804E+03 -0.69519320847E+03  0.98947317636E+03  0.10100000352E+00 0.  1.
</event>
<event>
 5   0  0.4641021E-03  0.1123880E+04  0.7818609E-02  0.9182224E-01
        1   -1    0    0  501    0  0.00000000000E+00  0.00000000000E+00  0.59516425700E+03  0.59516425702E+03  0.50400001928E-02 0.  1.
       -1   -1    0    0    0  501  0.00000000000E+00  0.00000000000E+00 -0.53057074732E+03  0.53057074735E+03  0.50400001928E-02 0. -1.
    10030    2    1    2    0    0  0.00000000000E+00  0.00000000000E+00  0.64593509675E+02  0.11257350044E+04  0.11238803222E+04 0.  0.
        1    1    3    3  502    0  0.46344767863E+03  0.16523484008E+03  0.30420456500E+03  0.57846929097E+03  0.50400001928E-02 0.  1.
       -1    1    3    3    0  502 -0.46344767863E+03 -0.16523484008E+03 -0.23961105532E+03  0.54726571340E+03  0.50400001928E-02 0. -1.
</event>
<event>
 5   0  0.2992375E-03  0.9315035E+03  0.7818609E-02  0.9387035E-01
       -4   -1    0    0    0  501  0.00000000000E+00  0.00000000000E+00  0.56370223204E+03  0.56370366267E+03  0.12699999809E+01 0.  1.
        4   -1    0    0  501    0  0.00000000000E+00  0.00000000000E+00 -0.38481847741E+03  0.38482057306E+03  0.12699999809E+01 0. -1.
    10030    2    1    2    0    0  0.00000000000E+00  0.00000000000E+00  0.17888375463E+03  0.94852423573E+03  0.93150353091E+03 0.  0.
        5    1    3    3  502    0  0.31303493213E+03  0.24801484491E+03 -0.15451964193E+03  0.42825301140E+03  0.46999998093E+01 0. -1.
       -5    1    3    3    0  502 -0.31303493213E+03 -0.24801484491E+03  0.33340339656E+03  0.52027122433E+03  0.46999998093E+01 0.  1.
</event>
<event>
 5   0  0.7537480E-03  0.1118885E+04  0.7818609E-02  0.9186978E-01
       -2   -1    0    0    0  501  0.00000000000E+00  0.00000000000E+00  0.18605064834E+03  0.18605064836E+03  0.25500000920E-02 0.  1.
        2   -1    0    0  501    0  0.00000000000E+00  0.00000000000E+00 -0.16822095817E+04  0.16822095817E+04  0.25500000920E-02 0. -1.
    10030    2    1    2    0    0  0.00000000000E+00  0.00000000000E+00 -0.14961589333E+04  0.18682602300E+04  0.11188854871E+04 0.  0.
        1    1    3    3  502    0  0.53564007696E+03 -0.49879183579E+02 -0.49168725658E+03  0.72880352860E+03  0.50400001928E-02 0.  1.
       -1    1    3    3    0  502 -0.53564007696E+03  0.49879183579E+02 -0.10044716768E+04  0.11394567014E+04  0.50400001928E-02 0. -1.
</event>
<event>
 5   0  0.7952121E-03  0.1088936E+04  0.7818609E-02  0.9216043E-01
       -2   -1    0    0    0  501  0.00000000000E+00  0.00000000000E+00  0.18573910828E+03  0.18573910830E+03  0.25500000920E-02 0. -1.
        2   -1    0    0  501    0  0.00000000000E+00  0.00000000000E+00 -0.15960320680E+04  0.15960320680E+04  0.25500000920E-02 0.  1.
    10030    2    1    2    0    0  0.00000000000E+00  0.00000000000E+00 -0.14102929597E+04  0.17817711763E+04  0.10889363124E+04 0.  0.
        3    1    3    3  502    0 -0.98583010567E+02  0.30177429358E+03  0.18621919449E+02  0.31801433981E+03  0.10100000352E+00 0. -1.
       -3    1    3    3    0  502  0.98583010567E+02 -0.30177429358E+03 -0.14289148792E+04  0.14637568365E+04  0.10100000352E+00 0.  1.
</event>
<event>
 5   0  0.4504740E-03  0.1125753E+04  0.7818609E-02  0.9180448E-01
        1   -1    0    0  501    0  0.00000000000E+00  0.00000000000E+00  0.56343178749E+03  0.56343178751E+03  0.50400001928E-02 0.  1.
       -1   -1    0    0    0  501  0.00000000000E+00  0.00000000000E+00 -0.56232186681E+03  0.56232186684E+03  0.50400001928E-02 0. -1.
    10030    2    1    2    0    0  0.00000000000E+00  0.00000000000E+00  0.11099206770E+01  0.11257536544E+04  0.11257531072E+04 0.  0.
        5    1    3    3  502    0  0.17513520980E+03 -0.36700724682E+03  0.38970969932E+03  0.56326050871E+03  0.46999998093E+01 0.  1.
       -5    1    3    3    0  502 -0.17513520980E+03  0.36700724682E+03 -0.38859977864E+03  0.56249314564E+03  0.46999998093E+01 0. -1.
</event>
<event>
 5   0  0.7952121E-03  0.1090185E+04  0.7818609E-02  0.9214812E-01
       -2   -1    0    0    0  501  0.00000000000E+00  0.00000000000E+00  0.32749000254E+03  0.32749000255E+03  0.25500000920E-02 0. -1.
        2   -1    0    0  501    0  0.00000000000E+00  0.00000000000E+00 -0.90728162322E+03  0.90728162322E+03  0.25500000920E-02 0.  1.
    10030    2    1    2    0    0  0.00000000000E+00  0.00000000000E+00 -0.57979162068E+03  0.12347716258E+04  0.10901846836E+04 0.  0.
        3    1    3    3  502    0  0.51627090320E+03 -0.70253876659E+01 -0.48783222449E+03  0.71032759415E+03  0.10100000352E+00 0.  1.
       -3    1    3    3    0  502 -0.51627090320E+03  0.70253876659E+01 -0.91959396191E+02  0.52444403163E+03  0.10100000352E+00 0. -1.
</event>
<event>
 5   0  0.4598561E-03  0.1054497E+04  0.7818609E-02  0.9250714E-01
        1   -1    0    0  501    0  0.00000000000E+00  0.00000000000E+00  0.47366277772E+03  0.47366277774E+03  0.50400001928E-02 0. -1.
       -1   -1    0    0    0  501  0.00000000000E+00  0.00000000000E+00 -0.58689616403E+03  0.58689616405E+03  0.50400001928E-02 0.  1.
    10030    2    1    2    0    0  0.00000000000E+00  0.00000000000E+00 -0.11323338631E+03  0.10605589418E+04  0.10544967848E+04 0.  0.
        2    1    3    3  502    0  0.41490613534E+03  0.32512910522E+03 -0.68295126495E+02  0.53152634978E+03  0.25500000920E-02 0. -1.
       -2    1    3    3    0  502 -0.41490613534E+03 -0.32512910522E+03 -0.44938259817E+02  0.52903259201E+03  0.25500000920E-02 0.  1.
</event>
<event>
 5   0  0.4428114E-03  0.1092482E+04  0.7818609E-02  0.9212551E-01
       -1   -1    0    0    0  501  0.00000000000E+00  0.00000000000E+00  0.12207951307E+04  0.12207951307E+04  0.50400001928E-02 0. -1.
        1   -1    0    0  501    0  0.00000000000E+00  0.00000000000E+00 -0.24441363620E+03  0.24441363625E+03  0.50400001928E-02 0.  1.
    10030    2    1    2    0    0  0.00000000000E+00  0.00000000000E+00  0.97638149450E+03  0.14652087670E+04  0.10924815367E+04 0.  0.
        4    1    3    3  502    0 -0.14622041465E+03  0.21342307216E+03 -0.15703500623E+03  0.30264074985E+03  0.12699999809E+01 0.  1.
       -4    1    3    3    0  502  0.14622041465E+03 -0.21342307216E+03  0.11334165007E+04  0.11625680171E+04  0.12699999809E+01 0. -1.
</event>
<event>
 5   0  0.7952121E-03  0.1110248E+04  0.7818609E-02  0.9195261E-01
       -2   -1    0    0    0  501  0.00000000000E+00  0.00000000000E+00  0.24179381896E+03  0.24179381897E+03  0.25500000920E-02 0.  1.
        2   -1    0    0  501    0  0.00000000000E+00  0.00000000000E+00 -0.12744845646E+04  0.12744845646E+04  0.25500000920E-02 0. -1.
    10030    2    1    2    0    0  0.00000000000E+00  0.00000000000E+00 -0.10326907457E+04  0.15162783836E+04  0.11102477023E+04 0.  0.
        3    1    3    3  502    0  0.41583781471E+03  0.36160552247E+03 -0.60778523801E+03  0.82041608210E+03  0.10100000352E+00 0. -1.
       -3    1    3    3    0  502 -0.41583781471E+03 -0.36160552247E+03 -0.42490550768E+03  0.69586230152E+03  0.10100000352E+00 0.  1.
</event>
<event>
 5   0  0.4298101E-03  0.1014495E+04  0.7818609E-02  0.9292788E-01
        1   -1    0    0  501    0  0.00000000000E+00  0.00000000000E+00  0.12934988067E+04  0.12934988067E+04  0.50400001928E-02 0.  1.
       -1   -1    0    0    0  501  0.00000000000E+00  0.00000000000E+00 -0.19891796567E+03  0.19891796574E+03  0.50400001928E-02 0. -1.
    10030    2    1    2    0    0  0.00000000000E+00  0.00000000000E+00  0.10945808410E+04  0.14924167724E+04  0.10144952465E+04 0.  0.
        3    1    3    3  502    0 -0.29501995141E+03 -0.25719301371E+03  0.72614705660E+02  0.39806773759E+03  0.10100000352E+00 0. -1.
       -3    1    3    3    0  502  0.29501995141E+03  0.25719301371E+03  0.10219661354E+04  0.10943490348E+04  0.10100000352E+00 0.  1.
</event>
<event>
 5   0  0.4641021E-03  0.1121492E+04  0.7818609E-02  0.9184494E-01
       -1   -1    0    0    0  501  0.00000000000E+00  0.00000000000E+00  0.40665482557E+03  0.40665482560E+03  0.50400001928E-02 0. -1.
        1   -1    0    0  501    0  0.00000000000E+00  0.00000000000E+00 -0.77322573144E+03  0.77322573145E+03  0.50400001928E-02 0.  1.
    10030    2    1    2    0    0  0.00000000000E+00  0.00000000000E+00 -0.36657090587E+03  0.11798805571E+04  0.11214918189E+04 0.  0.
        1    1    3    3  502    0 -0.13492138102E+03  0.46183701511E+03 -0.48627017023E+03  0.68407301224E+03  0.50400001928E-02 0.  1.
       -1    1    3    3    0  502  0.13492138102E+03 -0.46183701511E+03  0.11969926436E+03  0.49580754482E+03  0.50400001928E-02 0. -1.
</event>
<event>
 5   0  0.4428114E-03  0.1143868E+04  0.7818609E-02  0.9163459E-01
       -1   -1    0    0    0  501  0.00000000000E+00  0.00000000000E+00  0.96577829918E+03  0.96577829919E+03  0.50400001928E-02 0.  1.
        1   -1    0    0  501    0  0.00000000000E+00  0.00000000000E+00 -0.33869966488E+03  0.33869966492E+03  0.50400001928E-02 0. -1.
    10030    2    1    2    0    0  0.00000000000E+00  0.00000000000E+00  0.62707863430E+03  0.13044779641E+04  0.11438685000E+04 0.  0.
        4    1    3    3  502    0  0.58854300022E+02 -0.42288889296E+03 -0.12042839417E+03  0.44362535482E+03  0.12699999809E+01 0. -1.
       -4    1    3    3    0  502 -0.58854300022E+02  0.42288889296E+03  0.74750702846E+03  0.86085260929E+03  0.12699999809E+01 0.  1.
</event>
<event>
 5   0  0.7712816E-03  0.1078777E+04  0.7818609E-02  0.9226128E-01
       -2   -1    0    0    0  501  0.00000000000E+00  0.00000000000E+00  0.36283985556E+03  0.36283985557E+03  0.25500000920E-02 0. -1.
        2   -1    0    0  501    0  0.00000000000E+00  0.00000000000E+00 -0.80184122683E+03  0.80184122684E+03  0.25500000920E-02 0.  1.
    10030    2    1    2    0    0  0.00000000000E+00  0.00000000000E+00 -0.43900137127E+03  0.11646810824E+04  0.10787770019E+04 0.  0.
        2    1    3    3  502    0 -0.38449993849E+03  0.17466883491E+03 -0.58176563236E+03  0.71888848620E+03  0.25500000920E-02 0.  1.
       -2    1    3    3    0  502  0.38449993849E+03 -0.17466883491E+03  0.14276426108E+03  0.44579259621E+03  0.25500000920E-02 0. -1.
</event>
<event>
 5   0  0.7712816E-03  0.1090125E+04  0.7818609E-02  0.9214871E-01
        2   -1    0    0  501    0  0.00000000000E+00  0.00000000000E+00  0.67473821801E+03  0.67473821802E+03  0.25500000920E-02 0.  1.
       -2   -1    0    0    0  501  0.00000000000E+00  0.00000000000E+00 -0.44030847159E+03  0.44030847159E+03  0.25500000920E-02 0. -1.
    10030    2    1    2    0    0  0.00000000000E+00  0.00000000000E+00  0.23442974643E+03  0.11150466896E+04  0.10901246782E+04 0.  0.
        2    1    3    3  502    0 -0.35888293207E+03  0.38295670840E+03 -0.33254133996E+02  0.52588842626E+03  0.25500000920E-02 0. -1.
       -2    1    3    3    0  502  0.35888293207E+03 -0.38295670840E+03  0.26768388042E+03  0.58915826336E+03  0.25500000920E-02 0.  1.
</event>
<event>
 5   0  0.7712816E-03  0.9176853E+03  0.7818609E-02  0.9403740E-01
       -2   -1    0    0    0  501  0.00000000000E+00  0.00000000000E+00  0.25135401828E+03  0.25135401829E+03  0.25500000920E-02 0.  1.
        2   -1    0    0  501    0  0.00000000000E+00  0.00000000000E+00 -0.83760983998E+03  0.83760983999E+03  0.25500000920E-02 0. -1.
    10030    2    1    2    0    0  0.00000000000E+00  0.00000000000E+00 -0.58625582170E+03  0.10889638583E+04  0.91768534703E+03 0.  0.
        2    1    3    3  502    0  0.15894996728E+03  0.34789897207E+03 -0.59388442286E+03  0.70639754713E+03  0.25500000920E-02 0. -1.
       -2    1    3    3    0  502 -0.15894996728E+03 -0.34789897207E+03  0.76286011539E+01  0.38256631115E+03  0.25500000920E-02 0.  1.
</event>
<event>
 5   0  0.4598561E-03  0.1107001E+04  0.7818609E-02  0.9198395E-01
        1   -1    0    0  501    0  0.00000000000E+00  0.00000000000E+00  0.56550460543E+03  0.56550460545E+03  0.50400001928E-02 0. -1.
       -1   -1    0    0    0  501  0.00000000000E+00  0.00000000000E+00 -0.54175163659E+03  0.54175163661E+03  0.50400001928E-02 0.  1.
    10030    2    1    2    0    0  0.00000000000E+00  0.00000000000E+00  0.23752968841E+02  0.11072562421E+04  0.11070014372E+04 0.  0.
        2    1    3    3  502    0 -0.11142781414E+03  0.16974850315E+03 -0.50315205994E+03  0.54257967849E+03  0.25500000920E-02 0.  1.
       -2    1    3    3    0  502  0.11142781414E+03 -0.16974850315E+03  0.52690502878E+03  0.56467656357E+03  0.25500000920E-02 0. -1.
</event>
<event>
 5   0  0.4428114E-03  0.1083044E+04  0.7818609E-02  0.9221877E-01
        1   -1    0    0  501    0  0.00000000000E+00  0.00000000000E+00  0.70507415012E+03  0.70507415014E+03  0.50400001928E-02 0. -1.
       -1   -1    0    0    0  501  0.00000000000E+00  0.00000000000E+00 -0.41590849385E+03  0.41590849389E+03  0.50400001928E-02 0.  1.
    10030    2    1    2    0    0  0.00000000000E+00  0.00000000000E+00  0.28916565626E+03  0.11209826440E+04  0.10830444642E+04 0.  0.
        4    1    3    3  502    0 -0.49651061917E+03 -0.16413328088E+03 -0.99315893592E+00  0.52293893343E+03  0.12699999809E+01 0. -1.
       -4    1    3    3    0  502  0.49651061917E+03  0.16413328088E+03  0.29015881520E+03  0.59804371059E+03  0.12699999809E+01 0.  1.
</event>
<event>
 5   0  0.4298101E-03  0.1128784E+04  0.7818609E-02  0.9177583E-01
       -1   -1    0    0    0  501  0.00000000000E+00  0.00000000000E+00  0.77536408249E+03  0.77536408251E+03  0.50400001928E-02 0. -1.
        1   -1    0    0  501    0  0.00000000000E+00  0.00000000000E+00 -0.41082403968E+03  0.41082403971E+03  0.50400001928E-02 0.  1.
    10030    2    1    2    0    0  0.00000000000E+00  0.00000000000E+00  0.36454004282E+03  0.11861881222E+04  0.11287837784E+04 0.  0.
        3    1    3    3  502    0  0.19125709235E+03  0.53097176130E+03  0.17671858760E+03  0.59138799115E+03  0.10100000352E+00 0. -1.
       -3    1    3    3    0  502 -0.19125709235E+03 -0.53097176130E+03  0.18782145521E+03  0.59480013106E+03  0.10100000352E+00 0.  1.
</event>
<event>
 5   0  0.7766551E-03  0.1058245E+04  0.7818609E-02  0.9246873E-01
        2   -1    0    0  501    0  0.00000000000E+00  0.00000000000E+00  0.81365369178E+03  0.81365369178E+03  0.25500000920E-02 0. -1.
       -2   -1    0    0    0  501  0.00000000000E+00  0.00000000000E+00 -0.34409045957E+03  0.34409045958E+03  0.25500000920E-02 0.  1.
    10030    2    1    2    0    0  0.00000000000E+00  0.00000000000E+00  0.46956323221E+03  0.11577441514E+04  0.10582447217E+04 0.  0.
        5    1    3    3  502    0  0.49119557912E+03 -0.16124720481E+03  0.11161470792E+03  0.52891747091E+03  0.46999998093E+01 0.  1.
       -5    1    3    3    0  502 -0.49119557912E+03  0.16124720481E+03  0.35794852429E+03  0.62882668045E+03  0.46999998093E+01 0. -1.
</event>
<event>
 5   0  0.4428114E-03  0.1116076E+04  0.7818609E-02  0.9189663E-01
        1   -1    0    0  501    0  0.00000000000E+00  0.00000000000E+00  0.62341014669E+03  0.62341014671E+03  0.50400001928E-02 0. -1.
       -1   -1    0    0    0  501  0.00000000000E+00  0.00000000000E+00 -0.49952132733E+03  0.49952132736E+03  0.50400001928E-02 0.  1.
    10030    2    1    2    0    0  0.00000000000E+00  0.00000000000E+00  0.12388881935E+03  0.11229314741E+04  0.11160764561E+04 0.  0.
        4    1    3    3  502    0 -0.42574019611E+03 -0.26013346533E+03  0.31344152283E+03  0.58921247059E+03  0.12699999809E+01 0. -1.
       -4    1    3    3    0  502  0.42574019611E+03  0.26013346533E+03 -0.18955270348E+03  0.53371900347E+03  0.12699999809E+01 0.  1.
</event>
<event>
 5   0  0.7766551E-03  0.1037133E+04  0.7818609E-02  0.9268730E-01
        2   -1    0    0  501    0  0.00000000000E+00  0.00000000000E+00  0.20253601730E+04  0.20253601730E+04  0.25500000920E-02 0. -1.
       -2   -1    0    0    0  501  0.00000000000E+00  0.00000000000E+00 -0.13277205295E+03  0.13277205298E+03  0.25500000920E-02 0.  1.
    10030    2    1    2    0    0  0.00000000000E+00  0.00000000000E+00  0.18925881201E+04  0.21581322260E+04  0.10371330255E+04 0.  0.
        5    1    3    3  502    0  0.30024601184E+00 -0.69537543425E+02  0.20155695561E+04  0.20167742277E+04  0.46999998093E+01 0. -1.
       -5    1    3    3    0  502 -0.30024601184E+00  0.69537543425E+02 -0.12298143599E+03  0.14135799832E+03  0.46999998093E+01 0.  1.
</event>
<event>
 5   0  0.4428114E-03  0.1231272E+04  0.7818609E-02  0.9085916E-01
       -1   -1    0    0    0  501  0.00000000000E+00  0.00000000000E+00  0.29574168210E+03  0.29574168215E+03  0.50400001928E-02 0.  1.
        1   -1    0    0  501    0  0.00000000000E+00  0.00000000000E+00 -0.12815489498E+04  0.12815489499E+04  0.50400001928E-02 0. -1.
    10030    2    1    2    0    0  0.00000000000E+00  0.00000000000E+00 -0.98580726774E+03  0.15772906320E+04  0.12312716064E+04 0.  0.
        4    1    3    3  502    0 -0.60592818202E+03 -0.52654446829E+02 -0.37080651181E+03  0.71233456651E+03  0.12699999809E+01 0. -1.
       -4    1    3    3    0  502  0.60592818202E+03  0.52654446829E+02 -0.61500075593E+03  0.86495606550E+03  0.12699999809E+01 0.  1.
</event>
<event>
 5   0  0.4504740E-03  0.1022225E+04  0.7818609E-02  0.9284499E-01
       -1   -1    0    0    0  501  0.00000000000E+00  0.00000000000E+00  0.14904336556E+03  0.14904336564E+03  0.50400001928E-02 0. -1.
        1   -1    0    0  501    0  0.00000000000E+00  0.00000000000E+00 -0.17527518204E+04  0.17527518204E+04  0.50400001928E-02 0.  1.
    10030    2    1    2    0    0  0.00000000000E+00  0.00000000000E+00 -0.16037084549E+04  0.19017951861E+04  0.10222250836E+04 0.  0.
        5    1    3    3  502    0  0.93909710830E+02  0.49751329556E+03 -0.93175853560E+03  0.10604407441E+04  0.46999998093E+01 0.  1.
       -5    1    3    3    0  502 -0.93909710830E+02 -0.49751329556E+03 -0.67194991925E+03  0.84135444197E+03  0.46999998093E+01 0. -1.
</event>
<event>
 5   0  0.4298101E-03  0.1100052E+04  0.7818609E-02  0.9205141E-01
        1   -1    0    0  501    0  0.00000000000E+00  0.00000000000E+00  0.40992673946E+03  0.40992673949E+03  0.50400001928E-02 0.  1.
       -1   -1    0    0    0  501  0.00000000000E+00  0.00000000000E+00 -0.73800610846E+03  0.73800610848E+03  0.50400001928E-02 0. -1.
    10030    2    1    2    0    0  0.00000000000E+00  0.00000000000E+00 -0.32807936901E+03  0.11479328480E+04  0.11000517038E+04 0.  0.
        3    1    3    3  502    0 -0.41206544888E+02 -0.47466040109E+03 -0.45082521739E+03  0.65592976952E+03  0.10100000352E+00 0.  1.
       -3    1    3    3    0  502  0.41206544888E+02  0.47466040109E+03  0.12274584839E+03  0.49200307845E+03  0.10100000352E+00 0. -1.
</event>
<event>
 5   0  0.4641021E-03  0.1095555E+04  0.7818609E-02  0.9209535E-01
        1   -1    0    0  501    0  0.00000000000E+00  0.00000000000E+00  0.12363824990E+04  0.12363824991E+04  0.50400001928E-02 0. -1.
       -1   -1    0    0    0  501  0.00000000000E+00  0.00000000000E+00 -0.24269216696E+03  0.24269216701E+03  0.50400001928E-02 0.  1.
    10030    2    1    2    0    0  0.00000000000E+00  0.00000000000E+00  0.99369033209E+03  0.14790746661E+04  0.10955552892E+04 0.  0.
        1    1    3    3  502    0  0.41040840652E+03 -0.14751730168E+02  0.98624764284E+03  0.10683337899E+04  0.50400001928E-02 0. -1.
       -1    1    3    3    0  502 -0.41040840652E+03  0.14751730168E+02  0.74426892459E+01  0.41074087614E+03  0.50400001928E-02 0.  1.
</event>
<event>
 5   0  0.7738497E-03  0.1086954E+04  0.7818609E-02  0.9218001E-01
        2   -1    0    0  501    0  0.00000000000E+00  0.00000000000E+00  0.95079813802E+03  0.95079813802E+03  0.25500000920E-02 0. -1.
       -2   -1    0    0    0  501  0.00000000000E+00  0.00000000000E+00 -0.31065218342E+03  0.31065218343E+03  0.25500000920E-02 0.  1.
    10030    2    1    2    0    0  0.00000000000E+00  0.00000000000E+00  0.64014595460E+03  0.12614503215E+04  0.10869544932E+04 0.  0.
        4    1    3    3  502    0  0.51321660493E+03 -0.17874068731E+03  0.31411141158E+03  0.62769985556E+03  0.12699999809E+01 0.  1.
       -4    1    3    3    0  502 -0.51321660493E+03  0.17874068731E+03  0.32603454302E+03  0.63375046590E+03  0.12699999809E+01 0. -1.
</event>
<event>
 5   0  0.7712816E-03  0.1138171E+04  0.7818609E-02  0.9168766E-01
        2   -1    0    0  501    0  0.00000000000E+00  0.00000000000E+00  0.60929673727E+03  0.60929673727E+03  0.25500000920E-02 0. -1.
       -2   -1    0    0    0  501  0.00000000000E+00  0.00000000000E+00 -0.53152826183E+03  0.53152826184E+03  0.25500000920E-02 0.  1.
    10030    2    1    2    0    0  0.00000000000E+00  0.00000000000E+00  0.77768475432E+02  0.11408249991E+04  0.11381712274E+04 0.  0.
        2    1    3    3  502    0  0.33011609900E+03  0.27539700267E+03  0.41263202684E+03  0.59589037371E+03  0.25500000920E-02 0. -1.
       -2    1    3    3    0  502 -0.33011609900E+03 -0.27539700267E+03 -0.33486355141E+03  0.54493462540E+03  0.25500000920E-02 0.  1.
</event>
<event>
 5   0  0.4298101E-03  0.1078818E+04  0.7818609E-02  0.9226087E-01
        1   -1    0    0  501    0  0.00000000000E+00  0.00000000000E+00  0.15593965806E+04  0.15593965806E+04  0.50400001928E-02 0.  1.
       -1   -1    0    0    0  501  0.00000000000E+00  0.00000000000E+00 -0.18658629217E+03  0.18658629224E+03  0.50400001928E-02 0. -1.
    10030    2    1    2    0    0  0.00000000000E+00  0.00000000000E+00  0.13728102885E+04  0.17459828729E+04  0.10788179199E+04 0.  0.
        3    1    3    3  502    0 -0.18114308540E+03 -0.35760129987E+03  0.10226792061E+03  0.41370308779E+03  0.10100000352E+00 0. -1.
       -3    1    3    3    0  502  0.18114308540E+03  0.35760129987E+03  0.12705423679E+04  0.13322797851E+04  0.10100000352E+00 0.  1.
</event>
<event>
 5   0  0.7952121E-03  0.1084822E+04  0.7818609E-02  0.9220113E-01
       -2   -1    0    0    0  501  0.00000000000E+00  0.00000000000E+00  0.39071719753E+03  0.39071719753E+03  0.25500000920E-02 0.  1.
        2   -1    0    0  501    0  0.00000000000E+00  0.00000000000E+00 -0.75299877274E+03  0.75299877275E+03  0.25500000920E-02 0. -1.
    10030    2    1    2    0    0  0.00000000000E+00  0.00000000000E+00 -0.36228157522E+03  0.11437159703E+04  0.10848217738E+04 0.  0.
        3    1    3    3  502    0  0.37561578188E+03 -0.38741043293E+03 -0.23922725620E+03  0.59025735866E+03  0.10100000352E+00 0. -1.
       -3    1    3    3    0  502 -0.37561578188E+03  0.38741043293E+03 -0.12305431902E+03  0.55345861162E+03  0.10100000352E+00 0.  1.
</event>
<event>
 5   0  0.4641021E-03  0.1058316E+04  0.7818609E-02  0.9246801E-01
        1   -1    0    0  501    0  0.00000000000E+00  0.00000000000E+00  0.15607852504E+04  0.15607852504E+04  0.50400001928E-02 0.  1.
       -1   -1    0    0    0  501  0.00000000000E+00  0.00000000000E+00 -0.17940200736E+03  0.17940200743E+03  0.50400001928E-02 0. -1.
    10030    2    1    2    0    0  0.00000000000E+00  0.00000000000E+00  0.13813832431E+04  0.17401872579E+04  0.10583156562E+04 0.  0.
        1    1    3    3  502    0  0.29859051027E+03  0.43584400724E+03  0.73979302838E+03  0.90907096331E+03  0.50400001928E-02 0.  1.
       -1    1    3    3    0  502 -0.29859051027E+03 -0.43584400724E+03  0.64159021468E+03  0.83111629455E+03  0.50400001928E-02 0. -1.
</event>
<event>
 5   0  0.4428114E-03  0.1092941E+04  0.7818609E-02  0.9212099E-01
        1   -1    0    0  501    0  0.00000000000E+00  0.00000000000E+00  0.47498596804E+03  0.47498596807E+03  0.50400001928E-02 0. -1.
       -1   -1    0    0    0  501  0.00000000000E+00  0.00000000000E+00 -0.62871334580E+03  0.62871334582E+03  0.50400001928E-02 0.  1.
    10030    2    1    2    0    0  0.00000000000E+00  0.00000000000E+00 -0.15372737776E+03  0.11036993139E+04  0.10929410180E+04 0.  0.
        4    1    3    3  502    0  0.49837366920E+03  0.82399136848E+02 -0.28739236583E+03  0.58117288026E+03  0.12699999809E+01 0.  1.
       -4    1    3    3    0  502 -0.49837366920E+03 -0.82399136848E+02  0.13366498808E+03  0.52252643363E+03  0.12699999809E+01 0. -1.
</event>
<event>
 5   0  0.4504740E-03  0.1118494E+04  0.7818609E-02  0.9187352E-01
        1   -1    0    0  501    0  0.00000000000E+00  0.00000000000E+00  0.41527629495E+03  0.41527629498E+03  0.50400001928E-02 0.  1.
       -1   -1    0    0    0  501  0.00000000000E+00  0.00000000000E+00 -0.75313027215E+03  0.75313027216E+03  0.50400001928E-02 0. -1.
    10030    2    1    2    0    0  0.00000000000E+00  0.00000000000E+00 -0.33785397720E+03  0.11684065671E+04  0.11184938964E+04 0.  0.
        5    1    3    3  502    0  0.13967563775E+03  0.14996084874E+03  0.37461687026E+03  0.42703328842E+03  0.46999998093E+01 0.  1.
       -5    1    3    3    0  502 -0.13967563775E+03 -0.14996084874E+03 -0.71247084746E+03  0.74137327873E+03  0.46999998093E+01 0. -1.
</event>
<event>
 5   0  0.7952121E-03  0.1102726E+04  0.7818609E-02  0.9202539E-01
       -2   -1    0    0    0  501  0.00000000000E+00  0.00000000000E+00  0.14472143399E+03  0.14472143401E+03  0.25500000920E-02 0. -1.
        2   -1    0    0  501    0  0.00000000000E+00  0.00000000000E+00 -0.21005955605E+04  0.21005955605E+04  0.25500000920E-02 0.  1.
    10030    2    1    2    0    0  0.00000000000E+00  0.00000000000E+00 -0.19558741265E+04  0.22453169945E+04  0.11027260798E+04 0.  0.
        3    1    3    3  502    0  0.24046825741E+03  0.49252537193E+03 -0.11000206998E+04  0.12290043836E+04  0.10100000352E+00 0.  1.
       -3    1    3    3    0  502 -0.24046825741E+03 -0.49252537193E+03 -0.85585342670E+03  0.10163126109E+04  0.10100000352E+00 0. -1.
</event>
<event>
 5   0  0.4641021E-03  0.1110661E+04  0.7818609E-02  0.9194863E-01
       -1   -1    0    0    0  501  0.00000000000E+00  0.00000000000E+00  0.27172504363E+03  0.27172504368E+03  0.50400001928E-02 0.  1.
        1   -1    0    0  501    0  0.00000000000E+00  0.00000000000E+00 -0.11349417441E+04  0.11349417442E+04  0.50400001928E-02 0. -1.
    10030    2    1    2    0    0  0.00000000000E+00  0.00000000000E+00 -0.86321670051E+03  0.14066667878E+04  0.11106612355E+04 0.  0.
        1    1    3    3  502    0  0.32170978473E+03 -0.42189723946E+03 -0.63932275555E+03  0.83079964615E+03  0.50400001928E-02 0. -1.
       -1    1    3    3    0  502 -0.32170978473E+03  0.42189723946E+03 -0.22389394495E+03  0.57586714168E+03  0.50400001928E-02 0.  1.
</event>
<event>
 5   0  0.7537480E-03  0.1082945E+04  0.7818609E-02  0.9221976E-01
       -2   -1    0    0    0  501  0.00000000000E+00  0.00000000000E+00  0.25582490516E+03  0.25582490517E+03  0.25500000920E-02 0. -1.
        2   -1    0    0  501    0  0.00000000000E+00  0.00000000000E+00 -0.11460668341E+04  0.11460668341E+04  0.25500000920E-02 0.  1.
    10030    2    1    2    0    0  0.00000000000E+00  0.00000000000E+00 -0.89024192891E+03  0.14018917392E+04  0.10829449462E+04 0.  0.
        1    1    3    3  502    0  0.27850686156E+03 -0.37373008737E+03 -0.88359247640E+02  0.47439182835E+03  0.50400001928E-02 0. -1.
       -1    1    3    3    0  502 -0.27850686156E+03  0.37373008737E+03 -0.80188268127E+03  0.92749991088E+03  0.50400001928E-02 0.  1.
</event>
<event>
 5   0  0.4428114E-03  0.7335092E+03  0.7818609E-02  0.9661583E-01
       -1   -1    0    0    0  501  0.00000000000E+00  0.00000000000E+00  0.35743921094E+03  0.35743921098E+03  0.50400001928E-02 0. -1.
        1   -1    0    0  501    0  0.00000000000E+00  0.00000000000E+00 -0.37631278042E+03  0.37631278045E+03  0.50400001928E-02 0.  1.
    10030    2    1    2    0    0  0.00000000000E+00  0.00000000000E+00 -0.18873569479E+02  0.73375199143E+03  0.73350921828E+03 0.  0.
        4    1    3    3  502    0 -0.34486181119E+03  0.72529675124E+02 -0.11104356785E+03  0.36948952549E+03  0.12699999809E+01 0.  1.
       -4    1    3    3    0  502  0.34486181119E+03 -0.72529675124E+02  0.92169998367E+02  0.36426246594E+03  0.12699999809E+01 0. -1.
</event>
<event>
 5   0  0.4504740E-03  0.1093709E+04  0.7818609E-02  0.9211346E-01
        1   -1    0    0  501    0  0.00000000000E+00  0.00000000000E+00  0.66343478713E+03  0.66343478715E+03  0.50400001928E-02 0. -1.
       -1   -1    0    0    0  501  0.00000000000E+00  0.00000000000E+00 -0.45075956926E+03  0.45075956928E+03  0.50400001928E-02 0.  1.
    10030    2    1    2    0    0  0.00000000000E+00  0.00000000000E+00  0.21267521788E+03  0.11141943564E+04  0.10937085149E+04 0.  0.
        5    1    3    3  502    0  0.97375765972E+02 -0.43357504829E+03  0.43098857656E+03  0.61906591363E+03  0.46999998093E+01 0. -1.
       -5    1    3    3    0  502 -0.97375765972E+02  0.43357504829E+03 -0.21831335868E+03  0.49512844280E+03  0.46999998093E+01 0.  1.
</event>
<event>
 5   0  0.4598561E-03  0.1097253E+04  0.7818609E-02  0.9207874E-01
       -1   -1    0    0    0  501  0.00000000000E+00  0.00000000000E+00  0.11265896924E+04  0.11265896924E+04  0.50400001928E-02 0. -1.
        1   -1    0    0  501    0  0.00000000000E+00  0.00000000000E+00 -0.26716989545E+03  0.26716989550E+03  0.50400001928E-02 0.  1.
    10030    2    1    2    0    0  0.00000000000E+00  0.00000000000E+00  0.85941979693E+03  0.13937595879E+04  0.10972526607E+04 0.  0.
        2    1    3    3  502    0  0.12908643411E+02  0.26990312782E+03  0.10362035849E+04  0.10708558264E+04  0.25500000920E-02 0. -1.
       -2    1    3    3    0  502 -0.12908643411E+02 -0.26990312782E+03 -0.17678378800E+03  0.32290376150E+03  0.25500000920E-02 0.  1.
</event>
<event>
 5   0  0.4598561E-03  0.1131849E+04  0.7818609E-02  0.9174694E-01
       -1   -1    0    0    0  501  0.00000000000E+00  0.00000000000E+00  0.41198154223E+03  0.41198154226E+03  0.50400001928E-02 0.  1.
        1   -1    0    0  501    0  0.00000000000E+00  0.00000000000E+00 -0.77739046268E+03  0.77739046269E+03  0.50400001928E-02 0. -1.
    10030    2    1    2    0    0  0.00000000000E+00  0.00000000000E+00 -0.36540892045E+03  0.11893720050E+04  0.11318489683E+04 0.  0.
        2    1    3    3  502    0 -0.11820684791E+03 -0.13486377621E+02  0.39869160987E+03  0.41606458761E+03  0.25500000920E-02 0.  1.
       -2    1    3    3    0  502  0.11820684791E+03  0.13486377621E+02 -0.76410053032E+03  0.77330741734E+03  0.25500000920E-02 0. -1.
</event>
<event>
 5   0  0.4504740E-03  0.1101276E+04  0.7818609E-02  0.9203949E-01
        1   -1    0    0  501    0  0.00000000000E+00  0.00000000000E+00  0.83217472344E+03  0.83217472345E+03  0.50400001928E-02 0. -1.
       -1   -1    0    0    0  501  0.00000000000E+00  0.00000000000E+00 -0.36434939174E+03  0.36434939178E+03  0.50400001928E-02 0.  1.
    10030    2    1    2    0    0  0.00000000000E+00  0.00000000000E+00  0.46782533169E+03  0.11965241152E+04  0.11012762675E+04 0.  0.
        5    1    3    3  502    0  0.12780354522E+03  0.20079171976E+03  0.77337280732E+03  0.80918394077E+03  0.46999998093E+01 0. -1.
       -5    1    3    3    0  502 -0.12780354522E+03 -0.20079171976E+03 -0.30554747563E+03  0.38734017446E+03  0.46999998093E+01 0.  1.
</event>
<event>
 5   0  0.7712816E-03  0.1072653E+04  0.7818609E-02  0.9232264E-01
        2   -1    0    0  501    0  0.00000000000E+00  0.00000000000E+00  0.51655133394E+03  0.51655133394E+03  0.25500000920E-02 0.  1.
       -2   -1    0    0    0  501  0.00000000000E+00  0.00000000000E+00 -0.55685856787E+03  0.55685856788E+03  0.25500000920E-02 0. -1.
    10030    2    1    2    0    0  0.00000000000E+00  0.00000000000E+00 -0.40307233932E+02  0.10734099018E+04  0.10726528535E+04 0.  0.
        2    1    3    3  502    0 -0.44321834760E+03  0.12207538397E+03  0.25626793327E+03  0.52632514347E+03  0.25500000920E-02 0.  1.
       -2    1    3    3    0  502  0.44321834760E+03 -0.12207538397E+03 -0.29657516720E+03  0.54708475835E+03  0.25500000920E-02 0. -1.
</event>
<event>
 5   0  0.4428114E-03  0.1063453E+04  0.7818609E-02  0.9241564E-01
       -1   -1    0    0    0  501  0.00000000000E+00  0.00000000000E+00  0.66791846478E+03  0.66791846480E+03  0.50400001928E-02 0.  1.
        1   -1    0    0  501    0  0.00000000000E+00  0.00000000000E+00 -0.42330487046E+03  0.42330487049E+03  0.50400001928E-02 0. -1.
    10030    2    1    2    0    0  0.00000000000E+00  0.00000000000E+00  0.24461359432E+03  0.10912233353E+04  0.10634531287E+04 0.  0.
        4    1    3    3  502    0 -0.50761436113E+03  0.34898311018E+02 -0.36131515440E+02  0.51009541367E+03  0.12699999809E+01 0. -1.
       -4    1    3    3    0  502  0.50761436113E+03 -0.34898311018E+02  0.28074510976E+03  0.58112792163E+03  0.12699999809E+01 0.  1.
</event>
<event>
 5   0  0.4641021E-03  0.1106200E+04  0.7818609E-02  0.9199170E-01
       -1   -1    0    0    0  501  0.00000000000E+00  0.00000000000E+00  0.81524608858E+03  0.81524608859E+03  0.50400001928E-02 0.  1.
        1   -1    0    0  501    0  0.00000000000E+00  0.00000000000E+00 -0.37524842825E+03  0.37524842828E+03  0.50400001928E-02 0. -1.
    10030    2    1    2    0    0  0.00000000000E+00  0.00000000000E+00  0.43999766033E+03  0.11904945169E+04  0.11062003678E+04 0.  0.
        1    1    3    3  502    0 -0.29584715272E+03 -0.43207810667E+03  0.28378179257E+02  0.52442573270E+03  0.50400001928E-02 0. -1.
       -1    1    3    3    0  502  0.29584715272E+03  0.43207810667E+03  0.41161948107E+03  0.66606878418E+03  0.50400001928E-02 0.  1.
</event>
<event>
 5   0  0.4641021E-03  0.1105542E+04  0.7818609E-02  0.9199807E-01
        1   -1    0    0  501    0  0.00000000000E+00  0.00000000000E+00  0.10662625185E+04  0.10662625185E+04  0.50400001928E-02 0.  1.
       -1   -1    0    0    0  501  0.00000000000E+00  0.00000000000E+00 -0.28656711292E+03  0.28656711296E+03  0.50400001928E-02 0. -1.
    10030    2    1    2    0    0  0.00000000000E+00  0.00000000000E+00  0.77969540561E+03  0.13528296315E+04  0.11055419876E+04 0.  0.
        1    1    3    3  502    0 -0.32205705214E+03 -0.34262821278E+03  0.34261925807E+02  0.47147504346E+03  0.50400001928E-02 0. -1.
       -1    1    3    3    0  502  0.32205705214E+03  0.34262821278E+03  0.74543347980E+03  0.88135458804E+03  0.50400001928E-02 0.  1.
</event>
<event>
 5   0  0.2992375E-03  0.1087959E+04  0.7818609E-02  0.9217008E-01
       -3   -1    0    0    0  501  0.00000000000E+00  0.00000000000E+00  0.44751761696E+03  0.44751762836E+03  0.10100000352E+00 0. -1.
        3   -1    0    0  501    0  0.00000000000E+00  0.00000000000E+00 -0.66123406152E+03  0.66123406924E+03  0.10100000352E+00 0.  1.
    10030    2    1    2    0    0  0.00000000000E+00  0.00000000000E+00 -0.21371644456E+03  0.11087516976E+04  0.10879593780E+04 0.  0.
        3    1    3    3  502    0 -0.20478859478E+03 -0.38286431909E+03 -0.44082588831E+03  0.61874948839E+03  0.10100000352E+00 0.  1.
       -3    1    3    3    0  502  0.20478859478E+03  0.38286431909E+03  0.22710944374E+03  0.49000220920E+03  0.10100000352E+00 0. -1.
</event>
<event>
 5   0  0.7738497E-03  0.1082816E+04  0.7818609E-02  0.9222104E-01
       -2   -1    0    0    0  501  0.00000000000E+00  0.00000000000E+00  0.20728292643E+03  0.20728292644E+03  0.25500000920E-02 0. -1.
        2   -1    0    0  501    0  0.00000000000E+00  0.00000000000E+00 -0.14141181495E+04  0.14141181495E+04  0.25500000920E-02 0.  1.
    10030    2    1    2    0    0  0.00000000000E+00  0.00000000000E+00 -0.12068352230E+04  0.16214010759E+04  0.10828158631E+04 0.  0.
        4    1    3    3  502    0  0.16811864801E+03  0.21898700775E+03  0.93958989457E+02  0.29163177805E+03  0.12699999809E+01 0. -1.
       -4    1    3    3    0  502 -0.16811864801E+03 -0.21898700775E+03 -0.13007942125E+04  0.13297692979E+04  0.12699999809E+01 0.  1.
</event>
<event>
 5   0  0.4298101E-03  0.1116831E+04  0.7818609E-02  0.9188941E-01
        1   -1    0    0  501    0  0.00000000000E+00  0.00000000000E+00  0.10433125939E+04  0.10433125940E+04  0.50400001928E-02 0.  1.
       -1   -1    0    0    0  501  0.00000000000E+00  0.00000000000E+00 -0.29888260592E+03  0.29888260597E+03  0.50400001928E-02 0. -1.
    10030    2    1    2    0    0  0.00000000000E+00  0.00000000000E+00  0.74442998802E+03  0.13421951999E+04  0.11168312082E+04 0.  0.
        3    1    3    3  502    0  0.28654026942E+03 -0.27968353451E+03  0.83998689332E+03  0.93054080869E+03  0.10100000352E+00 0.  1.
       -3    1    3    3    0  502 -0.28654026942E+03  0.27968353451E+03 -0.95556905304E+02  0.41165439124E+03  0.10100000352E+00 0. -1.
</event>
<event>
 5   0  0.7738497E-03  0.1154435E+04  0.7818609E-02  0.9153701E-01
        2   -1    0    0  501    0  0.00000000000E+00  0.00000000000E+00  0.18377688269E+04  0.18377688269E+04  0.25500000920E-02 0.  1.
       -2   -1    0    0    0  501  0.00000000000E+00  0.00000000000E+00 -0.18129610320E+03  0.18129610322E+03  0.25500000920E-02 0. -1.
    10030    2    1    2    0    0  0.00000000000E+00  0.00000000000E+00  0.16564727237E+04  0.20190649301E+04  0.11544354931E+04 0.  0.
        4    1    3    3  502    0  0.50534482133E+03 -0.17899751858E+03  0.12023886134E+04  0.13164928753E+04  0.12699999809E+01 0. -1.
       -4    1    3    3    0  502 -0.50534482133E+03  0.17899751858E+03  0.45408411025E+03  0.70257205480E+03  0.12699999809E+01 0.  1.
</event>
<event>
 5   0  0.7952121E-03  0.1062227E+04  0.7818609E-02  0.9242811E-01
        2   -1    0    0  501    0  0.00000000000E+00  0.00000000000E+00  0.15420366349E+03  0.15420366352E+03  0.25500000920E-02 0.  1.
       -2   -1    0    0    0  501  0.00000000000E+00  0.00000000000E+00 -0.18292779593E+04  0.18292779593E+04  0.25500000920E-02 0. -1.
    10030    2    1    2    0    0  0.00000000000E+00  0.00000000000E+00 -0.16750742958E+04  0.19834816228E+04  0.10622266479E+04 0.  0.
        3    1    3    3  502    0 -0.35202466964E+03 -0.36708088248E+03 -0.55182636411E+03  0.75045458800E+03  0.10100000352E+00 0.  1.
       -3    1    3    3    0  502  0.35202466964E+03  0.36708088248E+03 -0.11232479317E+04  0.12330270348E+04  0.10100000352E+00 0. -1.
</event>
<event>
 5   0  0.7537480E-03  0.1105768E+04  0.7818609E-02  0.9199589E-01
       -2   -1    0    0    0  501  0.00000000000E+00  0.00000000000E+00  0.20059628302E+03  0.20059628304E+03  0.25500000920E-02 0.  1.
        2   -1    0    0  501    0  0.00000000000E+00  0.00000000000E+00 -0.15238593081E+04  0.15238593081E+04  0.25500000920E-02 0. -1.
    10030    2    1    2    0    0  0.00000000000E+00  0.00000000000E+00 -0.13232630251E+04  0.17244555912E+04  0.11057676303E+04 0.  0.
        1    1    3    3  502    0 -0.25091716617E+03 -0.42287986962E+03 -0.26743100678E+03  0.55973757407E+03  0.50400001928E-02 0. -1.
       -1    1    3    3    0  502  0.25091716617E+03  0.42287986962E+03 -0.10558320183E+04  0.11647180171E+04  0.50400001928E-02 0.  1.
</event>
<event>
 5   0  0.7738497E-03  0.1119173E+04  0.7818609E-02  0.9186703E-01
        2   -1    0    0  501    0  0.00000000000E+00  0.00000000000E+00  0.47548384929E+03  0.47548384929E+03  0.25500000920E-02 0. -1.
       -2   -1    0    0    0  501  0.00000000000E+00  0.00000000000E+00 -0.65856526860E+03  0.65856526860E+03  0.25500000920E-02 0.  1.
    10030    2    1    2    0    0  0.00000000000E+00  0.00000000000E+00 -0.18308141931E+03  0.11340491179E+04  0.11191731750E+04 0.  0.
        4    1    3    3  502    0 -0.10381662570E+03  0.52486137277E+03  0.74584113359E+02  0.54020528992E+03  0.12699999809E+01 0. -1.
       -4    1    3    3    0  502  0.10381662570E+03 -0.52486137277E+03 -0.25766553267E+03  0.59384382797E+03  0.12699999809E+01 0.  1.
</event>
<event>
 5   0  0.4298101E-03  0.1172703E+04  0.7818609E-02  0.9137091E-01
       -1   -1    0    0    0  501  0.00000000000E+00  0.00000000000E+00  0.28970035678E+03  0.28970035683E+03  0.50400001928E-02 0. -1.
        1   -1    0    0  501    0  0.00000000000E+00  0.00000000000E+00 -0.11867709107E+04  0.11867709107E+04  0.50400001928E-02 0.  1.
    10030    2    1    2    0    0  0.00000000000E+00  0.00000000000E+00 -0.89707055394E+03  0.14764712676E+04  0.11727027864E+04 0.  0.
        3    1    3    3  502    0  0.54157429028E+02  0.81686391717E+02 -0.11763850135E+04  0.11804606745E+04  0.10100000352E+00 0.  1.
       -3    1    3    3    0  502 -0.54157429028E+02 -0.81686391717E+02  0.27931445957E+03  0.29601059311E+03  0.10100000352E+00 0. -1.
</event>
<event>
 5   0  0.7952121E-03  0.1093139E+04  0.7818609E-02  0.9211905E-01
       -2   -1    0    0    0  501  0.00000000000E+00  0.00000000000E+00  0.54464975043E+03  0.54464975044E+03  0.25500000920E-02 0. -1.
        2   -1    0    0  501    0  0.00000000000E+00  0.00000000000E+00 -0.54849567521E+03  0.54849567522E+03  0.25500000920E-02 0.  1.
    10030    2    1    2    0    0  0.00000000000E+00  0.00000000000E+00 -0.38459247789E+01  0.10931454257E+04  0.10931386602E+04 0.  0.
        3    1    3    3  502    0 -0.41505418825E+03 -0.18726445346E+03  0.30040334983E+03  0.54550906271E+03  0.10100000352E+00 0. -1.
       -3    1    3    3    0  502  0.41505418825E+03  0.18726445346E+03 -0.30424927461E+03  0.54763636294E+03  0.10100000352E+00 0.  1.
</event>
<event>
 5   0  0.4641021E-03  0.1083613E+04  0.7818609E-02  0.9221312E-01
       -1   -1    0    0    0  501  0.00000000000E+00  0.00000000000E+00  0.42539839914E+03  0.42539839917E+03  0.50400001928E-02 0. -1.
        1   -1    0    0  501    0  0.00000000000E+00  0.00000000000E+00 -0.69006967752E+03  0.69006967754E+03  0.50400001928E-02 0.  1.
    10030    2    1    2    0    0  0.00000000000E+00  0.00000000000E+00 -0.26467127838E+03  0.11154680767E+04  0.10836134664E+04 0.  0.
        1    1    3    3  502    0 -0.32518645382E+03 -0.41458154350E+03 -0.24094273203E+01  0.52690596061E+03  0.50400001928E-02 0. -1.
       -1    1    3    3    0  502  0.32518645382E+03  0.41458154350E+03 -0.26226185106E+03  0.58856211610E+03  0.50400001928E-02 0.  1.
</event>
<event>
 5   0  0.7738497E-03  0.1044226E+04  0.7818609E-02  0.9261325E-01
       -2   -1    0    0    0  501  0.00000000000E+00  0.00000000000E+00  0.55110765747E+03  0.55110765748E+03  0.25500000920E-02 0.  1.
        2   -1    0    0  501    0  0.00000000000E+00  0.00000000000E+00 -0.49464408662E+03  0.49464408662E+03  0.25500000920E-02 0. -1.
    10030    2    1    2    0    0  0.00000000000E+00  0.00000000000E+00  0.56463570851E+02  0.10457517441E+04  0.10442263047E+04 0.  0.
        4    1    3    3  502    0 -0.25461615100E+03 -0.73357661612E+02  0.47876652001E+03  0.54720172190E+03  0.12699999809E+01 0.  1.
       -4    1    3    3    0  502  0.25461615100E+03  0.73357661612E+02 -0.42230294916E+03  0.49855002220E+03  0.12699999809E+01 0. -1.
</event>
<event>
 5   0  0.7712816E-03  0.1091407E+04  0.7818609E-02  0.9213607E-01
        2   -1    0    0  501    0  0.00000000000E+00  0.00000000000E+00  0.48645063637E+03  0.48645063638E+03  0.25500000920E-02 0. -1.
       -2   -1    0    0    0  501  0.00000000000E+00  0.00000000000E+00 -0.61217419150E+03  0.61217419151E+03  0.25500000920E-02 0.  1.
    10030    2    1    2    0    0  0.00000000000E+00  0.00000000000E+00 -0.12572355513E+03  0.10986248279E+04  0.10914073942E+04 0.  0.
        2    1    3    3  502    0  0.50311447515E+03 -0.15896876861E+03 -0.20305691189E+03  0.56535595333E+03  0.25500000920E-02 0.  1.
       -2    1    3    3    0  502 -0.50311447515E+03  0.15896876861E+03  0.77333356761E+02  0.53326887456E+03  0.25500000920E-02 0. -1.
</event>
<event>
 5   0  0.7537480E-03  0.1107134E+04  0.7818609E-02  0.9198266E-01
        2   -1    0    0  501    0  0.00000000000E+00  0.00000000000E+00  0.61239875321E+03  0.61239875322E+03  0.25500000920E-02 0.  1.
       -2   -1    0    0    0  501  0.00000000000E+00  0.00000000000E+00 -0.50038726125E+03  0.50038726126E+03  0.25500000920E-02 0. -1.
    10030    2    1    2    0    0  0.00000000000E+00  0.00000000000E+00  0.11201149196E+03  0.11127860145E+04  0.11071342013E+04 0.  0.
        1    1    3    3  502    0 -0.44013923145E+03  0.31327110824E+03  0.17734986175E+03  0.56860733710E+03  0.50400001928E-02 0.  1.
       -1    1    3    3    0  502  0.44013923145E+03 -0.31327110824E+03 -0.65338369795E+02  0.54417867738E+03  0.50400001928E-02 0. -1.
</event>
<event>
 5   0  0.7952121E-03  0.1090505E+04  0.7818609E-02  0.9214496E-01
        2   -1    0    0  501    0  0.00000000000E+00  0.00000000000E+00  0.78970558513E+03  0.78970558513E+03  0.25500000920E-02 0. -1.
       -2   -1    0    0    0  501  0.00000000000E+00  0.00000000000E+00 -0.37646984440E+03  0.37646984441E+03  0.25500000920E-02 0.  1.
    10030    2    1    2    0    0  0.00000000000E+00  0.00000000000E+00  0.41323574073E+03  0.11661754295E+04  0.10905050917E+04 0.  0.
        3    1    3    3  502    0 -0.42236264080E+03 -0.24414761771E+03  0.46703593803E+03  0.67536718693E+03  0.10100000352E+00 0. -1.
       -3    1    3    3    0  502  0.42236264080E+03  0.24414761771E+03 -0.53800197293E+02  0.49080824261E+03  0.10100000352E+00 0.  1.
</event>
<event>
 5   0  0.2992375E-03  0.1121922E+04  0.7818609E-02  0.9184085E-01
        3   -1    0    0  501    0  0.00000000000E+00  0.00000000000E+00  0.52915584770E+03  0.52915585734E+03  0.10100000352E+00 0. -1.
       -3   -1    0    0    0  501  0.00000000000E+00  0.00000000000E+00 -0.59467762911E+03  0.59467763768E+03  0.10100000352E+00 0.  1.
    10030    2    1    2    0    0  0.00000000000E+00  0.00000000000E+00 -0.65521781404E+02  0.11238334950E+04  0.11219218425E+04 0.  0.
        3    1    3    3  502    0  0.39039175959E+03  0.40066292233E+03 -0.74552977724E+02  0.56435331129E+03  0.10100000352E+00 0.  1.
       -3    1    3    3    0  502 -0.39039175959E+03 -0.40066292233E+03  0.90311963203E+01  0.55948018373E+03  0.10100000352E+00 0. -1.
</event>
<event>
 5   0  0.7712816E-03  0.1102906E+04  0.7818609E-02  0.9202364E-01
        2   -1    0    0  501    0  0.00000000000E+00  0.00000000000E+00  0.20651949494E+04  0.20651949494E+04  0.25500000920E-02 0. -1.
       -2   -1    0    0    0  501  0.00000000000E+00  0.00000000000E+00 -0.14725013033E+03  0.14725013035E+03  0.25500000920E-02 0.  1.
    10030    2    1    2    0    0  0.00000000000E+00  0.00000000000E+00  0.19179448191E+04  0.22124450797E+04  0.11029056632E+04 0.  0.
        2    1    3    3  502    0 -0.35895069649E+03 -0.12557240620E+03  0.15785590550E+03  0.41174326784E+03  0.25500000920E-02 0.  1.
       -2    1    3    3    0  502  0.35895069649E+03  0.12557240620E+03  0.17600889136E+04  0.18007018119E+04  0.25500000920E-02 0. -1.
</event>
<event>
 5   0  0.4598561E-03  0.1080105E+04  0.7818609E-02  0.9224802E-01
       -1   -1    0    0    0  501  0.00000000000E+00  0.00000000000E+00  0.46086873547E+03  0.46086873549E+03  0.50400001928E-02 0. -1.
        1   -1    0    0  501    0  0.00000000000E+00  0.00000000000E+00 -0.63284161624E+03  0.63284161626E+03  0.50400001928E-02 0.  1.
    10030    2    1    2    0    0  0.00000000000E+00  0.00000000000E+00 -0.17197288077E+03  0.10937103518E+04  0.10801053938E+04 0.  0.
        2    1    3    3  502    0 -0.12692089951E+03  0.41512666353E+03  0.23933568455E+03  0.49570215998E+03  0.25500000920E-02 0. -1.
       -2    1    3    3    0  502  0.12692089951E+03 -0.41512666353E+03 -0.41130856532E+03  0.59800819177E+03  0.25500000920E-02 0.  1.
</event>
<event>
 5   0  0.4598561E-03  0.1095729E+04  0.7818609E-02  0.9209365E-01
        1   -1    0    0  501    0  0.00000000000E+00  0.00000000000E+00  0.81220154249E+03  0.81220154251E+03  0.50400001928E-02 0.  1.
       -1   -1    0    0    0  501  0.00000000000E+00  0.00000000000E+00 -0.36955799211E+03  0.36955799214E+03  0.50400001928E-02 0. -1.
    10030    2    1    2    0    0  0.00000000000E+00  0.00000000000E+00  0.44264355038E+03  0.11817595347E+04  0.10957291112E+04 0.  0.
        2    1    3    3  502    0  0.35516958060E+03 -0.39223345393E+03  0.68176319884E+02  0.53351712622E+03  0.25500000920E-02 0. -1.
       -2    1    3    3    0  502 -0.35516958060E+03  0.39223345393E+03  0.37446723050E+03  0.64824240843E+03  0.25500000920E-02 0.  1.
</event>
<event>
 5   0  0.4428114E-03  0.1097385E+04  0.7818609E-02  0.9207744E-01
       -1   -1    0    0    0  501  0.00000000000E+00  0.00000000000E+00  0.23215801029E+03  0.23215801035E+03  0.50400001928E-02 0. -1.
        1   -1    0    0  501    0  0.00000000000E+00  0.00000000000E+00 -0.12968041827E+04  0.12968041827E+04  0.50400001928E-02 0.  1.
    10030    2    1    2    0    0  0.00000000000E+00  0.00000000000E+00 -0.10646461724E+04  0.15289621931E+04  0.10973850351E+04 0.  0.
        4    1    3    3  502    0 -0.16791566830E+03 -0.70705500737E+01 -0.12600572979E+04  0.12712166107E+04  0.12699999809E+01 0.  1.
       -4    1    3    3    0  502  0.16791566830E+03  0.70705500737E+01  0.19541112554E+03  0.25774558235E+03  0.12699999809E+01 0. -1.
</event>
<event>
 5   0  0.4504740E-03  0.1104225E+04  0.7818609E-02  0.9201084E-01
       -1   -1    0    0    0  501  0.00000000000E+00  0.00000000000E+00  0.50078705069E+03  0.50078705071E+03  0.50400001928E-02 0.  1.
        1   -1    0    0  501    0  0.00000000000E+00  0.00000000000E+00 -0.60869787475E+03  0.60869787477E+03  0.50400001928E-02 0. -1.
    10030    2    1    2    0    0  0.00000000000E+00  0.00000000000E+00 -0.10791082407E+03  0.11094849255E+04  0.11042246393E+04 0.  0.
        5    1    3    3  502    0 -0.14219481895E+03 -0.11582738105E+03 -0.57717651633E+03  0.60563204153E+03  0.46999998093E+01 0. -1.
       -5    1    3    3    0  502  0.14219481895E+03  0.11582738105E+03  0.46926569226E+03  0.50385288395E+03  0.46999998093E+01 0.  1.
</event>
<event>
 5   0  0.4504740E-03  0.1101193E+04  0.7818609E-02  0.9204030E-01
       -1   -1    0    0    0  501  0.00000000000E+00  0.00000000000E+00  0.47875217838E+03  0.47875217840E+03  0.50400001928E-02 0. -1.
        1   -1    0    0  501    0  0.00000000000E+00  0.00000000000E+00 -0.63322187243E+03  0.63322187245E+03  0.50400001928E-02 0.  1.
    10030    2    1    2    0    0  0.00000000000E+00  0.00000000000E+00 -0.15446969406E+03  0.11119740509E+04  0.11011927186E+04 0.  0.
        5    1    3    3  502    0  0.19603615375E+03  0.47247578737E+03  0.12840254953E+03  0.52742094000E+03  0.46999998093E+01 0. -1.
       -5    1    3    3    0  502 -0.19603615375E+03 -0.47247578737E+03 -0.28287224359E+03  0.58455311086E+03  0.46999998093E+01 0.  1.
</event>
<event>
 5   0  0.7952121E-03  0.1095942E+04  0.7818609E-02  0.9209156E-01
        2   -1    0    0  501    0  0.00000000000E+00  0.00000000000E+00  0.17981462179E+04  0.17981462179E+04  0.25500000920E-02 0. -1.
       -2   -1    0    0    0  501  0.00000000000E+00  0.00000000000E+00 -0.16698986477E+03  0.16698986479E+03  0.25500000920E-02 0.  1.
    10030    2    1    2    0    0  0.00000000000E+00  0.00000000000E+00  0.16311563531E+04  0.19651360827E+04  0.10959419579E+04 0.  0.
        3    1    3    3  502    0 -0.19889120054E+03  0.44157328569E+03  0.12752825727E+04  0.13641445402E+04  0.10100000352E+00 0. -1.
       -3    1    3    3    0  502  0.19889120054E+03 -0.44157328569E+03  0.35587378045E+03  0.60099154245E+03  0.10100000352E+00 0.  1.
</event>
<event>
 5   0  0.7952121E-03  0.1099411E+04  0.7818609E-02  0.9205766E-01
        2   -1    0    0  501    0  0.00000000000E+00  0.00000000000E+00  0.87981517509E+03  0.87981517510E+03  0.25500000920E-02 0.  1.
       -2   -1    0    0    0  501  0.00000000000E+00  0.00000000000E+00 -0.34345426968E+03  0.34345426969E+03  0.25500000920E-02 0. -1.
    10030    2    1    2    0    0  0.00000000000E+00  0.00000000000E+00  0.53636090542E+03  0.12232694448E+04  0.10994112578E+04 0.  0.
        3    1    3    3  502    0  0.54774720436E+03 -0.44055306784E+02  0.25211810527E+03  0.60459194432E+03  0.10100000352E+00 0. -1.
       -3    1    3    3    0  502 -0.54774720436E+03  0.44055306784E+02  0.28424280015E+03  0.61867750046E+03  0.10100000352E+00 0.  1.
</event>
<event>
 5   0  0.4504740E-03  0.9782192E+03  0.7818609E-02  0.9332762E-01
        1   -1    0    0  501    0  0.00000000000E+00  0.00000000000E+00  0.97840532906E+03  0.97840532907E+03  0.50400001928E-02 0.  1.
       -1   -1    0    0    0  501  0.00000000000E+00  0.00000000000E+00 -0.24450826619E+03  0.24450826624E+03  0.50400001928E-02 0. -1.
    10030    2    1    2    0    0  0.00000000000E+00  0.00000000000E+00  0.73389706286E+03  0.12229135953E+04  0.97821917928E+03 0.  0.
        5    1    3    3  502    0  0.38432966397E+03  0.12829057235E+03  0.70940171357E+03  0.81697040508E+03  0.46999998093E+01 0.  1.
       -5    1    3    3    0  502 -0.38432966397E+03 -0.12829057235E+03  0.24495349298E+02  0.40594319024E+03  0.46999998093E+01 0. -1.
</event>
<event>
 5   0  0.7537480E-03  0.1171492E+04  0.7818609E-02  0.9138182E-01
        2   -1    0    0  501    0  0.00000000000E+00  0.00000000000E+00  0.12336209962E+04  0.12336209962E+04  0.25500000920E-02 0.  1.
       -2   -1    0    0    0  501  0.00000000000E+00  0.00000000000E+00 -0.27812301618E+03  0.27812301619E+03  0.25500000920E-02 0. -1.
    10030    2    1    2    0    0  0.00000000000E+00  0.00000000000E+00  0.95549798000E+03  0.15117440124E+04  0.11714920269E+04 0.  0.
        1    1    3    3  502    0 -0.27531734728E+02  0.86649294356E+02  0.12244600607E+04  0.12278308258E+04  0.50400001928E-02 0.  1.
       -1    1    3    3    0  502  0.27531734728E+02 -0.86649294356E+02 -0.26896208068E+03  0.28391318655E+03  0.50400001928E-02 0. -1.
</event>
<event>
 5   0  0.4598561E-03  0.1079805E+04  0.7818609E-02  0.9225102E-01
       -1   -1    0    0    0  501  0.00000000000E+00  0.00000000000E+00  0.28320386118E+03  0.28320386123E+03  0.50400001928E-02 0.  1.
        1   -1    0    0  501    0  0.00000000000E+00  0.00000000000E+00 -0.10292751977E+04  0.10292751977E+04  0.50400001928E-02 0. -1.
    10030    2    1    2    0    0  0.00000000000E+00  0.00000000000E+00 -0.74607133653E+03  0.13124790590E+04  0.10798050014E+04 0.  0.
        2    1    3    3  502    0 -0.11807162541E+03 -0.48008456139E+03 -0.63674846992E+03  0.80614558782E+03  0.25500000920E-02 0.  1.
       -2    1    3    3    0  502  0.11807162541E+03  0.48008456139E+03 -0.10932286661E+03  0.50633347113E+03  0.25500000920E-02 0. -1.
</event>
<event>
 5   0  0.7952121E-03  0.1074827E+04  0.7818609E-02  0.9230081E-01
       -2   -1    0    0    0  501  0.00000000000E+00  0.00000000000E+00  0.59649060178E+03  0.59649060179E+03  0.25500000920E-02 0.  1.
        2   -1    0    0  501    0  0.00000000000E+00  0.00000000000E+00 -0.48418709320E+03  0.48418709321E+03  0.25500000920E-02 0. -1.
    10030    2    1    2    0    0  0.00000000000E+00  0.00000000000E+00  0.11230350858E+03  0.10806776950E+04  0.10748265918E+04 0.  0.
        3    1    3    3  502    0  0.26266706198E+03  0.37775723664E+03  0.33536572373E+03  0.56935462950E+03  0.10100000352E+00 0. -1.
       -3    1    3    3    0  502 -0.26266706198E+03 -0.37775723664E+03 -0.22306221515E+03  0.51132306550E+03  0.10100000352E+00 0.  1.
</event>
<event>
 5   0  0.7738497E-03  0.1103226E+04  0.7818609E-02  0.9202053E-01
       -2   -1    0    0    0  501  0.00000000000E+00  0.00000000000E+00  0.18656763046E+03  0.18656763048E+03  0.25500000920E-02 0. -1.
        2   -1    0    0  501    0  0.00000000000E+00  0.00000000000E+00 -0.16309212842E+04  0.16309212842E+04  0.25500000920E-02 0.  1.
    10030    2    1    2    0    0  0.00000000000E+00  0.00000000000E+00 -0.14443536537E+04  0.18174889147E+04  0.11032263947E+04 0.  0.
        4    1    3    3  502    0  0.91629023306E+02 -0.43992138153E+03 -0.12492228234E+04  0.13275865226E+04  0.12699999809E+01 0.  1.
       -4    1    3    3    0  502 -0.91629023306E+02  0.43992138153E+03 -0.19513083036E+03  0.48990239201E+03  0.12699999809E+01 0. -1.
</event>
<event>
 5   0  0.7766551E-03  0.9288727E+03  0.7818609E-02  0.9390192E-01
        2   -1    0    0  501    0  0.00000000000E+00  0.00000000000E+00  0.14428889035E+04  0.14428889035E+04  0.25500000920E-02 0.  1.
       -2   -1    0    0    0  501  0.00000000000E+00  0.00000000000E+00 -0.14949253098E+03  0.14949253101E+03  0.25500000920E-02 0. -1.
    10030    2    1    2    0    0  0.00000000000E+00  0.00000000000E+00  0.12933963725E+04  0.15923814345E+04  0.92887268047E+03 0.  0.
        5    1    3    3  502    0 -0.35229512568E+03  0.14185070525E+03  0.18847348641E+03  0.42400215003E+03  0.46999998093E+01 0. -1.
       -5    1    3    3    0  502  0.35229512568E+03 -0.14185070525E+03  0.11049228861E+04  0.11683792845E+04  0.46999998093E+01 0.  1.
</event>
<event>
 5   0  0.4641021E-03  0.1086944E+04  0.7818609E-02  0.9218012E-01
        1   -1    0    0  501    0  0.00000000000E+00  0.00000000000E+00  0.77194642675E+03  0.77194642677E+03  0.50400001928E-02 0.  1.
       -1   -1    0    0    0  501  0.00000000000E+00  0.00000000000E+00 -0.38261922821E+03  0.38261922824E+03  0.50400001928E-02 0. -1.
    10030    2    1    2    0    0  0.00000000000E+00  0.00000000000E+00  0.38932719854E+03  0.11545656550E+04  0.10869435055E+04 0.  0.
        1    1    3    3  502    0 -0.13041478533E+03 -0.84398389784E+02  0.74786195157E+03  0.76382498195E+03  0.50400001928E-02 0.  1.
       -1    1    3    3    0  502  0.13041478533E+03  0.84398389784E+02 -0.35853475303E+03  0.39074067306E+03  0.50400001928E-02 0. -1.
</event>
<event>
 5   0  0.4298101E-03  0.1108000E+04  0.7818609E-02  0.9197429E-01
       -1   -1    0    0    0  501  0.00000000000E+00  0.00000000000E+00  0.21084986982E+03  0.21084986988E+03  0.50400001928E-02 0. -1.
        1   -1    0    0  501    0  0.00000000000E+00  0.00000000000E+00 -0.14556142035E+04  0.14556142035E+04  0.50400001928E-02 0.  1.
    10030    2    1    2    0    0  0.00000000000E+00  0.00000000000E+00 -0.12447643337E+04  0.16664640734E+04  0.11080001180E+04 0.  0.
        3    1    3    3  502    0  0.96855020846E+02 -0.47833261156E+02  0.19485667152E+03  0.22279597970E+03  0.10100000352E+00 0. -1.
       -3    1    3    3    0  502 -0.96855020846E+02  0.47833261156E+02 -0.14396210052E+04  0.14436680937E+04  0.10100000352E+00 0.  1.
</event>
<event>
 5   0  0.4428114E-03  0.1105720E+04  0.7818609E-02  0.9199634E-01
        1   -1    0    0  501    0  0.00000000000E+00  0.00000000000E+00  0.10773175548E+04  0.10773175548E+04  0.50400001928E-02 0. -1.
       -1   -1    0    0    0  501  0.00000000000E+00  0.00000000000E+00 -0.28371802845E+03  0.28371802849E+03  0.50400001928E-02 0.  1.
    10030    2    1    2    0    0  0.00000000000E+00  0.00000000000E+00  0.79359952637E+03  0.13610355833E+04  0.11057204216E+04 0.  0.
        4    1    3    3  502    0  0.24426233367E+03 -0.38499593457E+03  0.11924548916E+02  0.45610280097E+03  0.12699999809E+01 0.  1.
       -4    1    3    3    0  502 -0.24426233367E+03  0.38499593457E+03  0.78167497745E+03  0.90493278235E+03  0.12699999809E+01 0. -1.
</event>
<event>
 5   0  0.4504740E-03  0.1103520E+04  0.7818609E-02  0.9201768E-01
       -1   -1    0    0    0  501  0.00000000000E+00  0.00000000000E+00  0.56964513454E+03  0.56964513456E+03  0.50400001928E-02 0. -1.
        1   -1    0    0  501    0  0.00000000000E+00  0.00000000000E+00 -0.53443623251E+03  0.53443623253E+03  0.50400001928E-02 0.  1.
    10030    2    1    2    0    0  0.00000000000E+00  0.00000000000E+00  0.35208902037E+02  0.11040813671E+04  0.11035198224E+04 0.  0.
        5    1    3    3  502    0  0.29457921399E+03 -0.27041627110E+01  0.48435302603E+03  0.56692518875E+03  0.46999998093E+01 0. -1.
       -5    1    3    3    0  502 -0.29457921399E+03  0.27041627110E+01 -0.44914412400E+03  0.53715617834E+03  0.46999998093E+01 0.  1.
</event>
<event>
 5   0  0.7952121E-03  0.1054835E+04  0.7818609E-02  0.9250367E-01
       -2   -1    0    0    0  501  0.00000000000E+00  0.00000000000E+00  0.32974241902E+03  0.32974241903E+03  0.25500000920E-02 0. -1.
        2   -1    0    0  501    0  0.00000000000E+00  0.00000000000E+00 -0.84359508166E+03  0.84359508166E+03  0.25500000920E-02 0.  1.
    10030    2    1    2    0    0  0.00000000000E+00  0.00000000000E+00 -0.51385266263E+03  0.11733375007E+04  0.10548347414E+04 0.  0.
        3    1    3    3  502    0  0.26849319961E+03 -0.34126183855E+03  0.76072732076E+02  0.44083478929E+03  0.10100000352E+00 0. -1.
       -3    1    3    3    0  502 -0.26849319961E+03  0.34126183855E+03 -0.58992539471E+03  0.73250271140E+03  0.10100000352E+00 0.  1.
</event>
<event>
 5   0  0.4598561E-03  0.1099552E+04  0.7818609E-02  0.9205628E-01
        1   -1    0    0  501    0  0.00000000000E+00  0.00000000000E+00  0.13234683881E+04  0.13234683881E+04  0.50400001928E-02 0. -1.
       -1   -1    0    0    0  501  0.00000000000E+00  0.00000000000E+00 -0.22838015022E+03  0.22838015028E+03  0.50400001928E-02 0.  1.
    10030    2    1    2    0    0  0.00000000000E+00  0.00000000000E+00  0.10950882379E+04  0.15518485384E+04  0.10995524714E+04 0.  0.
        2    1    3    3  502    0 -0.16236165962E+03 -0.16568001798E+03 -0.15592740318E+03  0.27950765990E+03  0.25500000920E-02 0.  1.
       -2    1    3    3    0  502  0.16236165962E+03  0.16568001798E+03  0.12510156411E+04  0.12723408785E+04  0.25500000920E-02 0. -1.
</event>
<event>
 5   0  0.4428114E-03  0.1350529E+04  0.7818609E-02  0.8990428E-01
        1   -1    0    0  501    0  0.00000000000E+00  0.00000000000E+00  0.11779231216E+04  0.11779231216E+04  0.50400001928E-02 0.  1.
       -1   -1    0    0    0  501  0.00000000000E+00  0.00000000000E+00 -0.38710693350E+03  0.38710693353E+03  0.50400001928E-02 0. -1.
    10030    2    1    2    0    0  0.00000000000E+00  0.00000000000E+00  0.79081618808E+03  0.15650300551E+04  0.13505290926E+04 0.  0.
        4    1    3    3  502    0  0.15759148872E+03  0.50298245219E+03 -0.93713384734E+02  0.53535991249E+03  0.12699999809E+01 0. -1.
       -4    1    3    3    0  502 -0.15759148872E+03 -0.50298245219E+03  0.88452957281E+03  0.10296701426E+04  0.12699999809E+01 0.  1.
</event>
<event>
 5   0  0.4298101E-03  0.1098353E+04  0.7818609E-02  0.9206799E-01
       -1   -1    0    0    0  501  0.00000000000E+00  0.00000000000E+00  0.30270697842E+03  0.30270697846E+03  0.50400001928E-02 0. -1.
        1   -1    0    0  501    0  0.00000000000E+00  0.00000000000E+00 -0.99632581708E+03  0.99632581710E+03  0.50400001928E-02 0.  1.
    10030    2    1    2    0    0  0.00000000000E+00  0.00000000000E+00 -0.69361883867E+03  0.12990327956E+04  0.10983529080E+04 0.  0.
        3    1    3    3  502    0  0.24811237576E+03 -0.29873816808E+03 -0.80607641366E+03  0.89474210750E+03  0.10100000352E+00 0.  1.
       -3    1    3    3    0  502 -0.24811237576E+03  0.29873816808E+03  0.11245757500E+03  0.40429068805E+03  0.10100000352E+00 0. -1.
</event>
<event>
 5   0  0.4428114E-03  0.1105761E+04  0.7818609E-02  0.9199595E-01
        1   -1    0    0  501    0  0.00000000000E+00  0.00000000000E+00  0.55507441699E+03  0.55507441701E+03  0.50400001928E-02 0.  1.
       -1   -1    0    0    0  501  0.00000000000E+00  0.00000000000E+00 -0.55069569076E+03  0.55069569078E+03  0.50400001928E-02 0. -1.
    10030    2    1    2    0    0  0.00000000000E+00  0.00000000000E+00  0.43787262297E+01  0.11057701078E+04  0.11057614381E+04 0.  0.
        4    1    3    3  502    0  0.26424852580E+03  0.25377618124E+03  0.41625280208E+03  0.55452469891E+03  0.12699999809E+01 0.  1.
       -4    1    3    3    0  502 -0.26424852580E+03 -0.25377618124E+03 -0.41187407585E+03  0.55124540888E+03  0.12699999809E+01 0. -1.
</event>
<event>
 5   0  0.7712816E-03  0.1120368E+04  0.7818609E-02  0.9185564E-01
        2   -1    0    0  501    0  0.00000000000E+00  0.00000000000E+00  0.80243888559E+03  0.80243888560E+03  0.25500000920E-02 0. -1.
       -2   -1    0    0    0  501  0.00000000000E+00  0.00000000000E+00 -0.39106545065E+03  0.39106545066E+03  0.25500000920E-02 0.  1.
    10030    2    1    2    0    0  0.00000000000E+00  0.00000000000E+00  0.41137343495E+03  0.11935043363E+04  0.11203680189E+04 0.  0.
        2    1    3    3  502    0  0.36120755354E+03 -0.37362641955E+02 -0.24870092387E+03  0.44013522160E+03  0.25500000920E-02 0.  1.
       -2    1    3    3    0  502 -0.36120755354E+03  0.37362641955E+02  0.66007435881E+03  0.75336911466E+03  0.25500000920E-02 0. -1.
</event>
<event>
 5   0  0.7766551E-03  0.1106393E+04  0.7818609E-02  0.9198983E-01
        2   -1    0    0  501    0  0.00000000000E+00  0.00000000000E+00  0.63646317832E+03  0.63646317833E+03  0.25500000920E-02 0. -1.
       -2   -1    0    0    0  501  0.00000000000E+00  0.00000000000E+00 -0.48082367881E+03  0.48082367882E+03  0.25500000920E-02 0.  1.
    10030    2    1    2    0    0  0.00000000000E+00  0.00000000000E+00  0.15563949951E+03  0.11172868571E+04  0.11063933601E+04 0.  0.
        5    1    3    3  502    0 -0.10838695138E+03 -0.29617600760E+03 -0.38111776021E+03  0.49471284181E+03  0.46999998093E+01 0.  1.
       -5    1    3    3    0  502  0.10838695138E+03  0.29617600760E+03  0.53675725972E+03  0.62257401533E+03  0.46999998093E+01 0. -1.
</event>
<event>
 5   0  0.7952121E-03  0.1160738E+04  0.7818609E-02  0.9147934E-01
       -2   -1    0    0    0  501  0.00000000000E+00  0.00000000000E+00  0.23887049464E+03  0.23887049465E+03  0.25500000920E-02 0. -1.
        2   -1    0    0  501    0  0.00000000000E+00  0.00000000000E+00 -0.14100877560E+04  0.14100877560E+04  0.25500000920E-02 0.  1.
    10030    2    1    2    0    0  0.00000000000E+00  0.00000000000E+00 -0.11712172614E+04  0.16489582507E+04  0.11607383164E+04 0.  0.
        3    1    3    3  502    0  0.59321270315E+02 -0.10924715846E+03 -0.13909517918E+04  0.13964959191E+04  0.10100000352E+00 0.  1.
       -3    1    3    3    0  502 -0.59321270315E+02  0.10924715846E+03  0.21973453049E+03  0.25246233151E+03  0.10100000352E+00 0. -1.
</event>
<event>
 5   0  0.7766551E-03  0.1101586E+04  0.7818609E-02  0.9203647E-01
       -2   -1    0    0    0  501  0.00000000000E+00  0.00000000000E+00  0.26752793652E+03  0.26752793654E+03  0.25500000920E-02 0. -1.
        2   -1    0    0  501    0  0.00000000000E+00  0.00000000000E+00 -0.11339868977E+04  0.11339868977E+04  0.25500000920E-02 0.  1.
    10030    2    1    2    0    0  0.00000000000E+00  0.00000000000E+00 -0.86645896122E+03  0.14015148343E+04  0.11015864466E+04 0.  0.
        5    1    3    3  502    0  0.48936333860E+03 -0.18099274840E+03 -0.65765519698E+03  0.83950419906E+03  0.46999998093E+01 0.  1.
       -5    1    3    3    0  502 -0.48936333860E+03  0.18099274840E+03 -0.20880376424E+03  0.56201063522E+03  0.46999998093E+01 0. -1.
</event>
<event>
 5   0  0.4428114E-03  0.1104547E+04  0.7818609E-02  0.9200771E-01
       -1   -1    0    0    0  501  0.00000000000E+00  0.00000000000E+00  0.35561504219E+03  0.35561504223E+03  0.50400001928E-02 0.  1.
        1   -1    0    0  501    0  0.00000000000E+00  0.00000000000E+00 -0.85768602606E+03  0.85768602608E+03  0.50400001928E-02 0. -1.
    10030    2    1    2    0    0  0.00000000000E+00  0.00000000000E+00 -0.50207098387E+03  0.12133010683E+04  0.11045470608E+04 0.  0.
        4    1    3    3  502    0  0.37502230612E+03 -0.32387578764E+03 -0.51890485240E+03  0.71749642135E+03  0.12699999809E+01 0.  1.
       -4    1    3    3    0  502 -0.37502230612E+03  0.32387578764E+03  0.16833868526E+02  0.49580464695E+03  0.12699999809E+01 0. -1.
</event>
<event>
 5   0  0.4298101E-03  0.1105589E+04  0.7818609E-02  0.9199762E-01
        1   -1    0    0  501    0  0.00000000000E+00  0.00000000000E+00  0.82410007094E+03  0.82410007096E+03  0.50400001928E-02 0.  1.
       -1   -1    0    0    0  501  0.00000000000E+00  0.00000000000E+00 -0.37080642140E+03  0.37080642144E+03  0.50400001928E-02 0. -1.
    10030    2    1    2    0    0  0.00000000000E+00  0.00000000000E+00  0.45329364954E+03  0.11949064924E+04  0.11055887087E+04 0.  0.
        3    1    3    3  502    0 -0.66572640150E+02 -0.47181859110E+02 -0.36426187946E+03  0.37328912558E+03  0.10100000352E+00 0. -1.
       -3    1    3    3    0  502  0.66572640150E+02  0.47181859110E+02  0.81755552900E+03  0.82161736681E+03  0.10100000352E+00 0.  1.
</event>
<event>
 5   0  0.4298101E-03  0.1080704E+04  0.7818609E-02  0.9224206E-01
        1   -1    0    0  501    0  0.00000000000E+00  0.00000000000E+00  0.96017429345E+03  0.96017429347E+03  0.50400001928E-02 0.  1.
       -1   -1    0    0    0  501  0.00000000000E+00  0.00000000000E+00 -0.30409076270E+03  0.30409076274E+03  0.50400001928E-02 0. -1.
    10030    2    1    2    0    0  0.00000000000E+00  0.00000000000E+00  0.65608353075E+03  0.12642650562E+04  0.10807037212E+04 0.  0.
        3    1    3    3  502    0  0.52618205447E+02  0.19485738600E+03 -0.25833620881E+03  0.32783484166E+03  0.10100000352E+00 0. -1.
       -3    1    3    3    0  502 -0.52618205447E+02 -0.19485738600E+03  0.91441973956E+03  0.93643021455E+03  0.10100000352E+00 0.  1.
</event>
<event>
 5   0  0.4504740E-03  0.1125276E+04  0.7818609E-02  0.9180901E-01
        1   -1    0    0  501    0  0.00000000000E+00  0.00000000000E+00  0.13072654133E+04  0.13072654133E+04  0.50400001928E-02 0. -1.
       -1   -1    0    0    0  501  0.00000000000E+00  0.00000000000E+00 -0.24215536444E+03  0.24215536450E+03  0.50400001928E-02 0.  1.
    10030    2    1    2    0    0  0.00000000000E+00  0.00000000000E+00  0.10651100489E+04  0.15494207778E+04  0.11252756687E+04 0.  0.
        5    1    3    3  502    0  0.67054634794E+02 -0.41951586901E+03  0.24677856088E+02  0.42558309996E+03  0.46999998093E+01 0.  1.
       -5    1    3    3    0  502 -0.67054634794E+02  0.41951586901E+03  0.10404321928E+04  0.11238376779E+04  0.46999998093E+01 0. -1.
</event>
<event>
 5   0  0.7712816E-03  0.1107216E+04  0.7818609E-02  0.9198187E-01
       -2   -1    0    0    0  501  0.00000000000E+00  0.00000000000E+00  0.21303380810E+03  0.21303380812E+03  0.25500000920E-02 0.  1.
        2   -1    0    0  501    0  0.00000000000E+00  0.00000000000E+00 -0.14386541643E+04  0.14386541643E+04  0.25500000920E-02 0. -1.
    10030    2    1    2    0    0  0.00000000000E+00  0.00000000000E+00 -0.12256203562E+04  0.16516879724E+04  0.11072162845E+04 0.  0.
        2    1    3    3  502    0  0.31194299631E+03 -0.37156054664E+03 -0.10106242356E+04  0.11210383661E+04  0.25500000920E-02 0. -1.
       -2    1    3    3    0  502 -0.31194299631E+03  0.37156054664E+03 -0.21499612059E+03  0.53064960628E+03  0.25500000920E-02 0.  1.
</event>
<event>
 5   0  0.7952121E-03  0.1109550E+04  0.7818609E-02  0.9195933E-01
       -2   -1    0    0    0  501  0.00000000000E+00  0.00000000000E+00  0.78859013725E+03  0.78859013726E+03  0.25500000920E-02 0.  1.
        2   -1    0    0  501    0  0.00000000000E+00  0.00000000000E+00 -0.39028557563E+03  0.39028557564E+03  0.25500000920E-02 0. -1.
    10030    2    1    2    0    0  0.00000000000E+00  0.00000000000E+00  0.39830456162E+03  0.11788757129E+04  0.11095500992E+04 0.  0.
        3    1    3    3  502    0 -0.26297129773E+03 -0.47770276111E+03  0.30761650476E+03  0.62608446363E+03  0.10100000352E+00 0.  1.
       -3    1    3    3    0  502  0.26297129773E+03  0.47770276111E+03  0.90688056861E+02  0.55279124926E+03  0.10100000352E+00 0. -1.
</event>
<event>
 5   0  0.7952121E-03  0.1095628E+04  0.7818609E-02  0.9209464E-01
       -2   -1    0    0    0  501  0.00000000000E+00  0.00000000000E+00  0.36142603401E+03  0.36142603402E+03  0.25500000920E-02 0.  1.
        2   -1    0    0  501    0  0.00000000000E+00  0.00000000000E+00 -0.83032225571E+03  0.83032225571E+03  0.25500000920E-02 0. -1.
    10030    2    1    2    0    0  0.00000000000E+00  0.00000000000E+00 -0.46889622170E+03  0.11917482897E+04  0.10956278197E+04 0.  0.
        3    1    3    3  502    0  0.37957467036E+03 -0.81004873735E+02  0.18607119232E+03  0.43041981688E+03  0.10100000352E+00 0.  1.
       -3    1    3    3    0  502 -0.37957467036E+03  0.81004873735E+02 -0.65496741402E+03  0.76132847285E+03  0.10100000352E+00 0. -1.
</event>
<event>
 5   0  0.4598561E-03  0.1155929E+04  0.7818609E-02  0.9152331E-01
        1   -1    0    0  501    0  0.00000000000E+00  0.00000000000E+00  0.71385888767E+03  0.71385888769E+03  0.50400001928E-02 0. -1.
       -1   -1    0    0    0  501  0.00000000000E+00  0.00000000000E+00 -0.46793956777E+03  0.46793956779E+03  0.50400001928E-02 0.  1.
    10030    2    1    2    0    0  0.00000000000E+00  0.00000000000E+00  0.24591931991E+03  0.11817984555E+04  0.11559287510E+04 0.  0.
        2    1    3    3  502    0 -0.40266246997E+03  0.20352649799E+03  0.49226777563E+03  0.66774820332E+03  0.25500000920E-02 0. -1.
       -2    1    3    3    0  502  0.40266246997E+03 -0.20352649799E+03 -0.24634845572E+03  0.51405025216E+03  0.25500000920E-02 0.  1.
</event>
<event>
 5   0  0.7738497E-03  0.1135411E+04  0.7818609E-02  0.9171349E-01
        2   -1    0    0  501    0  0.00000000000E+00  0.00000000000E+00  0.15197852726E+04  0.15197852726E+04  0.25500000920E-02 0.  1.
       -2   -1    0    0    0  501  0.00000000000E+00  0.00000000000E+00 -0.21206266755E+03  0.21206266756E+03  0.25500000920E-02 0. -1.
    10030    2    1    2    0    0  0.00000000000E+00  0.00000000000E+00  0.13077226051E+04  0.17318479402E+04  0.11354113246E+04 0.  0.
        4    1    3    3  502    0  0.42080755312E+03 -0.84044570038E+02  0.12207856321E+04  0.12940099146E+04  0.12699999809E+01 0.  1.
       -4    1    3    3    0  502 -0.42080755312E+03  0.84044570038E+02  0.86936972968E+02  0.43783802563E+03  0.12699999809E+01 0. -1.
</event>
<event>
 5   0  0.7952121E-03  0.1051861E+04  0.7818609E-02  0.9253425E-01
        2   -1    0    0  501    0  0.00000000000E+00  0.00000000000E+00  0.39443033820E+03  0.39443033820E+03  0.25500000920E-02 0.  1.
       -2   -1    0    0    0  501  0.00000000000E+00  0.00000000000E+00 -0.70127132442E+03  0.70127132442E+03  0.25500000920E-02 0. -1.
    10030    2    1    2    0    0  0.00000000000E+00  0.00000000000E+00 -0.30684098622E+03  0.10957016626E+04  0.10518606099E+04 0.  0.
        3    1    3    3  502    0 -0.22840814961E+03 -0.23422495580E+03 -0.58237377971E+03  0.66797518084E+03  0.10100000352E+00 0. -1.
       -3    1    3    3    0  502  0.22840814961E+03  0.23422495580E+03  0.27553279349E+03  0.42772648178E+03  0.10100000352E+00 0.  1.
</event>
<event>
 5   0  0.7952121E-03  0.1102722E+04  0.7818609E-02  0.9202543E-01
        2   -1    0    0  501    0  0.00000000000E+00  0.00000000000E+00  0.15978659949E+04  0.15978659949E+04  0.25500000920E-02 0. -1.
       -2   -1    0    0    0  501  0.00000000000E+00  0.00000000000E+00 -0.19025298017E+03  0.19025298019E+03  0.25500000920E-02 0.  1.
    10030    2    1    2    0    0  0.00000000000E+00  0.00000000000E+00  0.14076130147E+04  0.17881189751E+04  0.11027216647E+04 0.  0.
        3    1    3    3  502    0  0.46177588269E+03 -0.25050467112E+03  0.97518839950E+03  0.11076921869E+04  0.10100000352E+00 0. -1.
       -3    1    3    3    0  502 -0.46177588269E+03  0.25050467112E+03  0.43242461521E+03  0.68042678822E+03  0.10100000352E+00 0.  1.
</event>
<event>
 5   0  0.2992375E-03  0.1074043E+04  0.7818609E-02  0.9230867E-01
        3   -1    0    0  501    0  0.00000000000E+00  0.00000000000E+00  0.12667896945E+04  0.12667896986E+04  0.10100000352E+00 0.  1.
       -3   -1    0    0    0  501  0.00000000000E+00  0.00000000000E+00 -0.22765581656E+03  0.22765583896E+03  0.10100000352E+00 0. -1.
    10030    2    1    2    0    0  0.00000000000E+00  0.00000000000E+00  0.10391338780E+04  0.14944455375E+04  0.10740429453E+04 0.  0.
        5    1    3    3  502    0 -0.27691215007E+03 -0.27888384546E+03  0.10387897576E+02  0.39317494393E+03  0.46999998093E+01 0. -1.
       -5    1    3    3    0  502  0.27691215007E+03  0.27888384546E+03  0.10287459804E+04  0.11012705936E+04  0.46999998093E+01 0.  1.
</event>
<event>
 5   0  0.7952121E-03  0.1077863E+04  0.7818609E-02  0.9227040E-01
       -2   -1    0    0    0  501  0.00000000000E+00  0.00000000000E+00  0.31459906714E+03  0.31459906715E+03  0.25500000920E-02 0. -1.
        2   -1    0    0  501    0  0.00000000000E+00  0.00000000000E+00 -0.92323005811E+03  0.92323005812E+03  0.25500000920E-02 0.  1.
    10030    2    1    2    0    0  0.00000000000E+00  0.00000000000E+00 -0.60863099097E+03  0.12378291253E+04  0.10778632846E+04 0.  0.
        3    1    3    3  502    0 -0.43582300810E+03 -0.23897514045E+03 -0.54355028449E+03  0.73654445495E+03  0.10100000352E+00 0.  1.
       -3    1    3    3    0  502  0.43582300810E+03  0.23897514045E+03 -0.65080706479E+02  0.50128467032E+03  0.10100000352E+00 0. -1.
</event>
<event>
 5   0  0.7766551E-03  0.1106211E+04  0.7818609E-02  0.9199159E-01
       -2   -1    0    0    0  501  0.00000000000E+00  0.00000000000E+00  0.19741486801E+03  0.19741486802E+03  0.25500000920E-02 0. -1.
        2   -1    0    0  501    0  0.00000000000E+00  0.00000000000E+00 -0.15496585002E+04  0.15496585002E+04  0.25500000920E-02 0.  1.
    10030    2    1    2    0    0  0.00000000000E+00  0.00000000000E+00 -0.13522436322E+04  0.17470733682E+04  0.11062108810E+04 0.  0.
        5    1    3    3  502    0 -0.48191298245E+03  0.17175860172E+03 -0.10080159245E+04  0.11304244043E+04  0.46999998093E+01 0.  1.
       -5    1    3    3    0  502  0.48191298245E+03 -0.17175860172E+03 -0.34422770773E+03  0.61664896391E+03  0.46999998093E+01 0. -1.
</event>
<event>
 5   0  0.4298101E-03  0.1096416E+04  0.7818609E-02  0.9208692E-01
       -1   -1    0    0    0  501  0.00000000000E+00  0.00000000000E+00  0.39172397576E+03  0.39172397580E+03  0.50400001928E-02 0. -1.
        1   -1    0    0  501    0  0.00000000000E+00  0.00000000000E+00 -0.76720318843E+03  0.76720318845E+03  0.50400001928E-02 0.  1.
    10030    2    1    2    0    0  0.00000000000E+00  0.00000000000E+00 -0.37547921267E+03  0.11589271642E+04  0.10964157664E+04 0.  0.
        3    1    3    3  502    0 -0.15484289302E+03  0.52065699980E+03 -0.10955026267E+03  0.55413112457E+03  0.10100000352E+00 0. -1.
       -3    1    3    3    0  502  0.15484289302E+03 -0.52065699980E+03 -0.26592895000E+03  0.60479603968E+03  0.10100000352E+00 0.  1.
</event>
<event>
 5   0  0.2992375E-03  0.1009183E+04  0.7818609E-02  0.9298530E-01
       -3   -1    0    0    0  501  0.00000000000E+00  0.00000000000E+00  0.32167390625E+03  0.32167392210E+03  0.10100000352E+00 0.  1.
        3   -1    0    0  501    0  0.00000000000E+00  0.00000000000E+00 -0.79152343711E+03  0.79152344356E+03  0.10100000352E+00 0. -1.
    10030    2    1    2    0    0  0.00000000000E+00  0.00000000000E+00 -0.46984953087E+03  0.11131973657E+04  0.10091827353E+04 0.  0.
        3    1    3    3  502    0  0.38174153574E+03 -0.96073642852E+02 -0.58314452784E+03  0.70357252328E+03  0.10100000352E+00 0.  1.
       -3    1    3    3    0  502 -0.38174153574E+03  0.96073642852E+02  0.11329499697E+03  0.40962484239E+03  0.10100000352E+00 0. -1.
</event>
<event>
 5   0  0.4598561E-03  0.8226609E+03  0.7818609E-02  0.9527783E-01
        1   -1    0    0  501    0  0.00000000000E+00  0.00000000000E+00  0.80592957861E+03  0.80592957863E+03  0.50400001928E-02 0. -1.
       -1   -1    0    0    0  501  0.00000000000E+00  0.00000000000E+00 -0.20993490381E+03  0.20993490387E+03  0.50400001928E-02 0.  1.
    10030    2    1    2    0    0  0.00000000000E+00  0.00000000000E+00  0.59599467480E+03  0.10158644825E+04  0.82266092311E+03 0.  0.
        2    1    3    3  502    0  0.28311805040E+03  0.86213799879E+02  0.65075048244E+03  0.71488799134E+03  0.25500000920E-02 0. -1.
       -2    1    3    3    0  502 -0.28311805040E+03 -0.86213799879E+02 -0.54755807640E+02  0.30097649116E+03  0.25500000920E-02 0.  1.
</event>
<event>
 5   0  0.4428114E-03  0.1148255E+04  0.7818609E-02  0.9159394E-01
        1   -1    0    0  501    0  0.00000000000E+00  0.00000000000E+00  0.59891775572E+03  0.59891775574E+03  0.50400001928E-02 0.  1.
       -1   -1    0    0    0  501  0.00000000000E+00  0.00000000000E+00 -0.55036378303E+03  0.55036378305E+03  0.50400001928E-02 0. -1.
    10030    2    1    2    0    0  0.00000000000E+00  0.00000000000E+00  0.48553972693E+02  0.11492815388E+04  0.11482554451E+04 0.  0.
        4    1    3    3  502    0  0.39225377591E+03 -0.32562329257E+03  0.28857255889E+03  0.58580652781E+03  0.12699999809E+01 0. -1.
       -4    1    3    3    0  502 -0.39225377591E+03  0.32562329257E+03 -0.24001858619E+03  0.56347501098E+03  0.12699999809E+01 0.  1.
</event>
<event>
 5   0  0.7952121E-03  0.1109443E+04  0.7818609E-02  0.9196037E-01
        2   -1    0    0  501    0  0.00000000000E+00  0.00000000000E+00  0.11312404923E+04  0.11312404923E+04  0.25500000920E-02 0.  1.
       -2   -1    0    0    0  501  0.00000000000E+00  0.00000000000E+00 -0.27201635692E+03  0.27201635693E+03  0.25500000920E-02 0. -1.
    10030    2    1    2    0    0  0.00000000000E+00  0.00000000000E+00  0.85922413542E+03  0.14032568493E+04  0.11094429549E+04 0.  0.
        3    1    3    3  502    0  0.24347491679E+03  0.14378522157E+03  0.10332444433E+04  0.10712368155E+04  0.10100000352E+00 0.  1.
       -3    1    3    3    0  502 -0.24347491679E+03 -0.14378522157E+03 -0.17402030792E+03  0.33202003375E+03  0.10100000352E+00 0. -1.
</event>
<event>
 5   0  0.7952121E-03  0.1094591E+04  0.7818609E-02  0.9210480E-01
       -2   -1    0    0    0  501  0.00000000000E+00  0.00000000000E+00  0.54419540281E+03  0.54419540282E+03  0.25500000920E-02 0. -1.
        2   -1    0    0  501    0  0.00000000000E+00  0.00000000000E+00 -0.55041279017E+03  0.55041279018E+03  0.25500000920E-02 0.  1.
    10030    2    1    2    0    0  0.00000000000E+00  0.00000000000E+00 -0.62173873603E+01  0.10946081930E+04  0.10945905354E+04 0.  0.
        3    1    3    3  502    0 -0.52868594209E+02 -0.54087997953E+03  0.61590567564E+02  0.54693660394E+03  0.10100000352E+00 0. -1.
       -3    1    3    3    0  502  0.52868594209E+02  0.54087997953E+03 -0.67807954925E+02  0.54767158906E+03  0.10100000352E+00 0.  1.
</event>
<event>
 5   0  0.7537480E-03  0.1070098E+04  0.7818609E-02  0.9234836E-01
       -2   -1    0    0    0  501  0.00000000000E+00  0.00000000000E+00  0.20103392922E+03  0.20103392923E+03  0.25500000920E-02 0. -1.
        2   -1    0    0  501    0  0.00000000000E+00  0.00000000000E+00 -0.14240263546E+04  0.14240263546E+04  0.25500000920E-02 0.  1.
    10030    2    1    2    0    0  0.00000000000E+00  0.00000000000E+00 -0.12229924254E+04  0.16250602838E+04  0.10700983383E+04 0.  0.
        1    1    3    3  502    0 -0.15120888215E+03  0.51199306282E+03 -0.55723722758E+03  0.77169576275E+03  0.50400001928E-02 0.  1.
       -1    1    3    3    0  502  0.15120888215E+03 -0.51199306282E+03 -0.66575519780E+03  0.85336452109E+03  0.50400001928E-02 0. -1.
</event>
<event>
 5   0  0.4641021E-03  0.1235564E+04  0.7818609E-02  0.9082285E-01
        1   -1    0    0  501    0  0.00000000000E+00  0.00000000000E+00  0.12648994730E+04  0.12648994731E+04  0.50400001928E-02 0. -1.
       -1   -1    0    0    0  501  0.00000000000E+00  0.00000000000E+00 -0.30172711319E+03  0.30172711323E+03  0.50400001928E-02 0.  1.
    10030    2    1    2    0    0  0.00000000000E+00  0.00000000000E+00  0.96317235985E+03  0.15666265863E+04  0.12355637847E+04 0.  0.
        1    1    3    3  502    0  0.33122298298E+03  0.16808220015E+03 -0.14433968369E+03  0.39848994313E+03  0.50400001928E-02 0.  1.
       -1    1    3    3    0  502 -0.33122298298E+03 -0.16808220015E+03  0.11075120435E+04  0.11681366432E+04  0.50400001928E-02 0. -1.
</event>
<event>
 5   0  0.7712816E-03  0.1098925E+04  0.7818609E-02  0.9206241E-01
        2   -1    0    0  501    0  0.00000000000E+00  0.00000000000E+00  0.24035918747E+03  0.24035918748E+03  0.25500000920E-02 0.  1.
       -2   -1    0    0    0  501  0.00000000000E+00  0.00000000000E+00 -0.12560737297E+04  0.12560737297E+04  0.25500000920E-02 0. -1.
    10030    2    1    2    0    0  0.00000000000E+00  0.00000000000E+00 -0.10157145422E+04  0.14964329171E+04  0.10989246764E+04 0.  0.
        2    1    3    3  502    0 -0.14485211836E+03  0.45114566674E+03 -0.88668682269E+03  0.10053497254E+04  0.25500000920E-02 0. -1.
       -2    1    3    3    0  502  0.14485211836E+03 -0.45114566674E+03 -0.12902771950E+03  0.49108319175E+03  0.25500000920E-02 0.  1.
</event>
<event>
 5   0  0.7952121E-03  0.1043163E+04  0.7818609E-02  0.9262431E-01
        2   -1    0    0  501    0  0.00000000000E+00  0.00000000000E+00  0.90340878979E+03  0.90340878979E+03  0.25500000920E-02 0.  1.
       -2   -1    0    0    0  501  0.00000000000E+00  0.00000000000E+00 -0.30113413243E+03  0.30113413244E+03  0.25500000920E-02 0. -1.
    10030    2    1    2    0    0  0.00000000000E+00  0.00000000000E+00  0.60227465735E+03  0.12045429222E+04  0.10431629252E+04 0.  0.
        3    1    3    3  502    0  0.87029119297E+02 -0.34403073517E+02  0.89363543489E+03  0.89852208641E+03  0.10100000352E+00 0.  1.
       -3    1    3    3    0  502 -0.87029119297E+02  0.34403073517E+02 -0.29136077754E+03  0.30602083583E+03  0.10100000352E+00 0. -1.
</event>
<event>
 5   0  0.4641021E-03  0.1114964E+04  0.7818609E-02  0.9190729E-01
        1   -1    0    0  501    0  0.00000000000E+00  0.00000000000E+00  0.24345589421E+03  0.24345589427E+03  0.50400001928E-02 0. -1.
       -1   -1    0    0    0  501  0.00000000000E+00  0.00000000000E+00 -0.12765595357E+04  0.12765595358E+04  0.50400001928E-02 0.  1.
    10030    2    1    2    0    0  0.00000000000E+00  0.00000000000E+00 -0.10331036415E+04  0.15200154300E+04  0.11149635749E+04 0.  0.
        1    1    3    3  502    0 -0.24702088177E+03 -0.24965270709E+03  0.73674580978E+02  0.35885057350E+03  0.50400001928E-02 0. -1.
       -1    1    3    3    0  502  0.24702088177E+03  0.24965270709E+03 -0.11067782225E+04  0.11611648565E+04  0.50400001928E-02 0.  1.
</event>
<event>
 5   0  0.7738497E-03  0.1050842E+04  0.7818609E-02  0.9254475E-01
        2   -1    0    0  501    0  0.00000000000E+00  0.00000000000E+00  0.12194272729E+04  0.12194272729E+04  0.25500000920E-02 0. -1.
       -2   -1    0    0    0  501  0.00000000000E+00  0.00000000000E+00 -0.22639081241E+03  0.22639081242E+03  0.25500000920E-02 0.  1.
    10030    2    1    2    0    0  0.00000000000E+00  0.00000000000E+00  0.99303646053E+03  0.14458180854E+04  0.10508418168E+04 0.  0.
        4    1    3    3  502    0 -0.45607327013E+03  0.23522152622E+03  0.34126143709E+03  0.61627345835E+03  0.12699999809E+01 0.  1.
       -4    1    3    3    0  502  0.45607327013E+03 -0.23522152622E+03  0.65177502345E+03  0.82954462702E+03  0.12699999809E+01 0. -1.
</event>
<event>
 5   0  0.4504740E-03  0.1016639E+04  0.7818609E-02  0.9290481E-01
        1   -1    0    0  501    0  0.00000000000E+00  0.00000000000E+00  0.42047688406E+03  0.42047688409E+03  0.50400001928E-02 0. -1.
       -1   -1    0    0    0  501  0.00000000000E+00  0.00000000000E+00 -0.61451376331E+03  0.61451376333E+03  0.50400001928E-02 0.  1.
    10030    2    1    2    0    0  0.00000000000E+00  0.00000000000E+00 -0.19403687925E+03  0.10349906474E+04  0.10166392328E+04 0.  0.
        5    1    3    3  502    0 -0.61802682971E+02 -0.47187657665E+03  0.84753336003E+02  0.48341730748E+03  0.46999998093E+01 0. -1.
       -5    1    3    3    0  502  0.61802682971E+02  0.47187657665E+03 -0.27879021525E+03  0.55157333994E+03  0.46999998093E+01 0.  1.
</event>
<event>
 5   0  0.7766551E-03  0.1128486E+04  0.7818609E-02  0.9177864E-01
        2   -1    0    0  501    0  0.00000000000E+00  0.00000000000E+00  0.11211812867E+04  0.11211812867E+04  0.25500000920E-02 0. -1.
       -2   -1    0    0    0  501  0.00000000000E+00  0.00000000000E+00 -0.28395936225E+03  0.28395936226E+03  0.25500000920E-02 0.  1.
    10030    2    1    2    0    0  0.00000000000E+00  0.00000000000E+00  0.83722192444E+03  0.14051406489E+04  0.11284855748E+04 0.  0.
        5    1    3    3  502    0  0.35820539562E+02  0.55525766868E+03  0.30211303126E+03  0.63315761335E+03  0.46999998093E+01 0. -1.
       -5    1    3    3    0  502 -0.35820539562E+02 -0.55525766868E+03  0.53510889318E+03  0.77198303559E+03  0.46999998093E+01 0.  1.
</event>
<event>
 5   0  0.7738497E-03  0.1100228E+04  0.7818609E-02  0.9204970E-01
        2   -1    0    0  501    0  0.00000000000E+00  0.00000000000E+00  0.99174785343E+03  0.99174785343E+03  0.25500000920E-02 0. -1.
       -2   -1    0    0    0  501  0.00000000000E+00  0.00000000000E+00 -0.30514353526E+03  0.30514353527E+03  0.25500000920E-02 0.  1.
    10030    2    1    2    0    0  0.00000000000E+00  0.00000000000E+00  0.68660431817E+03  0.12968913887E+04  0.11002280602E+04 0.  0.
        4    1    3    3  502    0  0.16895644748E+03  0.26389550751E+03  0.87626917768E+03  0.93061076969E+03  0.12699999809E+01 0. -1.
       -4    1    3    3    0  502 -0.16895644748E+03 -0.26389550751E+03 -0.18966485950E+03  0.36628061900E+03  0.12699999809E+01 0.  1.
</event>
<event>
 5   0  0.7952121E-03  0.1106416E+04  0.7818609E-02  0.9198961E-01
       -2   -1    0    0    0  501  0.00000000000E+00  0.00000000000E+00  0.47083398527E+03  0.47083398528E+03  0.25500000920E-02 0. -1.
        2   -1    0    0  501    0  0.00000000000E+00  0.00000000000E+00 -0.64999316391E+03  0.64999316392E+03  0.25500000920E-02 0.  1.
    10030    2    1    2    0    0  0.00000000000E+00  0.00000000000E+00 -0.17915917864E+03  0.11208271492E+04  0.11064156032E+04 0.  0.
        3    1    3    3  502    0 -0.32255235537E+03 -0.39514544961E+03  0.12735671121E+03  0.52573728268E+03  0.10100000352E+00 0. -1.
       -3    1    3    3    0  502  0.32255235537E+03  0.39514544961E+03 -0.30651588985E+03  0.59508986652E+03  0.10100000352E+00 0.  1.
</event>
<event>
 5   0  0.7952121E-03  0.1100314E+04  0.7818609E-02  0.9204886E-01
        2   -1    0    0  501    0  0.00000000000E+00  0.00000000000E+00  0.35924473607E+03  0.35924473608E+03  0.25500000920E-02 0. -1.
       -2   -1    0    0    0  501  0.00000000000E+00  0.00000000000E+00 -0.84252477440E+03  0.84252477440E+03  0.25500000920E-02 0.  1.
    10030    2    1    2    0    0  0.00000000000E+00  0.00000000000E+00 -0.48328003833E+03  0.12017695105E+04  0.11003137557E+04 0.  0.
        3    1    3    3  502    0 -0.35687580799E+03  0.99262844412E+02 -0.68591310193E+03  0.77954489813E+03  0.10100000352E+00 0.  1.
       -3    1    3    3    0  502  0.35687580799E+03 -0.99262844412E+02  0.20263306360E+03  0.42222461235E+03  0.10100000352E+00 0. -1.
</event>
<event>
 5   0  0.7738497E-03  0.1040076E+04  0.7818609E-02  0.9265650E-01
        2   -1    0    0  501    0  0.00000000000E+00  0.00000000000E+00  0.40483532360E+03  0.40483532360E+03  0.25500000920E-02 0.  1.
       -2   -1    0    0    0  501  0.00000000000E+00  0.00000000000E+00 -0.66802379194E+03  0.66802379194E+03  0.25500000920E-02 0. -1.
    10030    2    1    2    0    0  0.00000000000E+00  0.00000000000E+00 -0.26318846834E+03  0.10728591155E+04  0.10400762049E+04 0.  0.
        4    1    3    3  502    0 -0.47697035552E+03 -0.20704068623E+03 -0.14031343110E+03  0.53856850785E+03  0.12699999809E+01 0.  1.
       -4    1    3    3    0  502  0.47697035552E+03  0.20704068623E+03 -0.12287503724E+03  0.53429060770E+03  0.12699999809E+01 0. -1.
</event>
<event>
 5   0  0.7952121E-03  0.1147174E+04  0.7818609E-02  0.9160395E-01
       -2   -1    0    0    0  501  0.00000000000E+00  0.00000000000E+00  0.16448869604E+03  0.16448869606E+03  0.25500000920E-02 0. -1.
        2   -1    0    0  501    0  0.00000000000E+00  0.00000000000E+00 -0.20001502508E+04  0.20001502508E+04  0.25500000920E-02 0.  1.
    10030    2    1    2    0    0  0.00000000000E+00  0.00000000000E+00 -0.18356615548E+04  0.21646389469E+04  0.11471741048E+04 0.  0.
        3    1    3    3  502    0  0.23958526079E+03 -0.20634812144E+03 -0.14817335683E+02  0.31654416445E+03  0.10100000352E+00 0. -1.
       -3    1    3    3    0  502 -0.23958526079E+03  0.20634812144E+03 -0.18208442191E+04  0.18480947824E+04  0.10100000352E+00 0.  1.
</event>
<event>
 5   0  0.2992375E-03  0.1100648E+04  0.7818609E-02  0.9204561E-01
        3   -1    0    0  501    0  0.00000000000E+00  0.00000000000E+00  0.19479152399E+04  0.19479152426E+04  0.10100000352E+00 0.  1.
       -3   -1    0    0    0  501  0.00000000000E+00  0.00000000000E+00 -0.15547715789E+03  0.15547719069E+03  0.10100000352E+00 0. -1.
    10030    2    1    2    0    0  0.00000000000E+00  0.00000000000E+00  0.17924380821E+04  0.21033924333E+04  0.11006477412E+04 0.  0.
        3    1    3    3  502    0  0.25698587562E+03 -0.15062089344E+03  0.11900666653E+02  0.29811076779E+03  0.10100000352E+00 0. -1.
       -3    1    3    3    0  502 -0.25698587562E+03  0.15062089344E+03  0.17805374154E+04  0.18052816655E+04  0.10100000352E+00 0.  1.
</event>
<event>
 5   0  0.4504740E-03  0.1087464E+04  0.7818609E-02  0.9217497E-01
       -1   -1    0    0    0  501  0.00000000000E+00  0.00000000000E+00  0.18183242146E+03  0.18183242153E+03  0.50400001928E-02 0.  1.
        1   -1    0    0  501    0  0.00000000000E+00  0.00000000000E+00 -0.16259185865E+04  0.16259185866E+04  0.50400001928E-02 0. -1.
    10030    2    1    2    0    0  0.00000000000E+00  0.00000000000E+00 -0.14440861651E+04  0.18077510081E+04  0.10874644155E+04 0.  0.
        5    1    3    3  502    0 -0.39688200532E+03 -0.22290678787E+03 -0.22773413365E+03  0.50900656956E+03  0.46999998093E+01 0.  1.
       -5    1    3    3    0  502  0.39688200532E+03  0.22290678787E+03 -0.12163520314E+04  0.12987444385E+04  0.46999998093E+01 0. -1.
</event>
<event>
 5   0  0.7537480E-03  0.1097937E+04  0.7818609E-02  0.9207205E-01
       -2   -1    0    0    0  501  0.00000000000E+00  0.00000000000E+00  0.24181152889E+03  0.24181152890E+03  0.25500000920E-02 0. -1.
        2   -1    0    0  501    0  0.00000000000E+00  0.00000000000E+00 -0.12462857650E+04  0.12462857650E+04  0.25500000920E-02 0.  1.
    10030    2    1    2    0    0  0.00000000000E+00  0.00000000000E+00 -0.10044742361E+04  0.14880972939E+04  0.10979367309E+04 0.  0.
        1    1    3    3  502    0 -0.28902166757E+03  0.11928213343E+02  0.13013645245E+03  0.31719284809E+03  0.50400001928E-02 0. -1.
       -1    1    3    3    0  502  0.28902166757E+03 -0.11928213343E+02 -0.11346106886E+04  0.11709044458E+04  0.50400001928E-02 0.  1.
</event>
<event>
 5   0  0.4641021E-03  0.1096014E+04  0.7818609E-02  0.9209086E-01
        1   -1    0    0  501    0  0.00000000000E+00  0.00000000000E+00  0.67969251504E+03  0.67969251506E+03  0.50400001928E-02 0. -1.
       -1   -1    0    0    0  501  0.00000000000E+00  0.00000000000E+00 -0.44183462913E+03  0.44183462916E+03  0.50400001928E-02 0.  1.
    10030    2    1    2    0    0  0.00000000000E+00  0.00000000000E+00  0.23785788590E+03  0.11215271442E+04  0.10960140334E+04 0.  0.
        1    1    3    3  502    0 -0.81373657446E+01 -0.49423411230E+03 -0.12317552963E+03  0.50941710376E+03  0.50400001928E-02 0.  1.
       -1    1    3    3    0  502  0.81373657446E+01  0.49423411230E+03  0.36103341553E+03  0.61211004046E+03  0.50400001928E-02 0. -1.
</event>
<event>
 5   0  0.7738497E-03  0.1090262E+04  0.7818609E-02  0.9214735E-01
       -2   -1    0    0    0  501  0.00000000000E+00  0.00000000000E+00  0.23424906309E+03  0.23424906310E+03  0.25500000920E-02 0.  1.
        2   -1    0    0  501    0  0.00000000000E+00  0.00000000000E+00 -0.12685986217E+04  0.12685986217E+04  0.25500000920E-02 0. -1.
    10030    2    1    2    0    0  0.00000000000E+00  0.00000000000E+00 -0.10343495586E+04  0.15028476848E+04  0.10902624245E+04 0.  0.
        4    1    3    3  502    0 -0.39748223236E+03 -0.16960500538E+03 -0.97519543519E+03  0.10666610205E+04  0.12699999809E+01 0. -1.
       -4    1    3    3    0  502  0.39748223236E+03  0.16960500538E+03 -0.59154123399E+02  0.43618666430E+03  0.12699999809E+01 0.  1.
</event>
<event>
 5   0  0.7738497E-03  0.1100118E+04  0.7818609E-02  0.9205077E-01
       -2   -1    0    0    0  501  0.00000000000E+00  0.00000000000E+00  0.44871498045E+03  0.44871498046E+03  0.25500000920E-02 0. -1.
        2   -1    0    0  501    0  0.00000000000E+00  0.00000000000E+00 -0.67429196008E+03  0.67429196008E+03  0.25500000920E-02 0.  1.
    10030    2    1    2    0    0  0.00000000000E+00  0.00000000000E+00 -0.22557697962E+03  0.11230069405E+04  0.11001180004E+04 0.  0.
        4    1    3    3  502    0 -0.87997724653E+02 -0.51865287524E+03 -0.27681419805E+03  0.59445110622E+03  0.12699999809E+01 0.  1.
       -4    1    3    3    0  502  0.87997724653E+02  0.51865287524E+03  0.51237218428E+02  0.52855583432E+03  0.12699999809E+01 0. -1.
</event>
<event>
 5   0  0.2992375E-03  0.1107555E+04  0.7818609E-02  0.9197859E-01
        3   -1    0    0  501    0  0.00000000000E+00  0.00000000000E+00  0.70490015911E+03  0.70490016634E+03  0.10100000352E+00 0. -1.
       -3   -1    0    0    0  501  0.00000000000E+00  0.00000000000E+00 -0.43505379056E+03  0.43505380229E+03  0.10100000352E+00 0.  1.
    10030    2    1    2    0    0  0.00000000000E+00  0.00000000000E+00  0.26984636854E+03  0.11399539686E+04  0.11075549593E+04 0.  0.
        4    1    3    3  502    0 -0.13773644067E+03  0.37952768076E+03 -0.25518301359E+03  0.47763225485E+03  0.12699999809E+01 0. -1.
       -4    1    3    3    0  502  0.13773644067E+03 -0.37952768076E+03  0.52502938213E+03  0.66232171378E+03  0.12699999809E+01 0.  1.
</event>
<event>
 5   0  0.7738497E-03  0.1117883E+04  0.7818609E-02  0.9187935E-01
       -2   -1    0    0    0  501  0.00000000000E+00  0.00000000000E+00  0.27983503343E+03  0.27983503344E+03  0.25500000920E-02 0. -1.
        2   -1    0    0  501    0  0.00000000000E+00  0.00000000000E+00 -0.11164270240E+04  0.11164270240E+04  0.25500000920E-02 0.  1.
    10030    2    1    2    0    0  0.00000000000E+00  0.00000000000E+00 -0.83659199060E+03  0.13962620575E+04  0.11178826300E+04 0.  0.
        4    1    3    3  502    0 -0.37125469678E+03 -0.14337134476E+03  0.71901529625E+02  0.40442160581E+03  0.12699999809E+01 0. -1.
       -4    1    3    3    0  502  0.37125469678E+03  0.14337134476E+03 -0.90849352022E+03  0.99184045167E+03  0.12699999809E+01 0.  1.
</event>
<event>
 5   0  0.7537480E-03  0.1071657E+04  0.7818609E-02  0.9233266E-01
        2   -1    0    0  501    0  0.00000000000E+00  0.00000000000E+00  0.18756831933E+04  0.18756831933E+04  0.25500000920E-02 0. -1.
       -2   -1    0    0    0  501  0.00000000000E+00  0.00000000000E+00 -0.15307073677E+03  0.15307073679E+03  0.25500000920E-02 0.  1.
    10030    2    1    2    0    0  0.00000000000E+00  0.00000000000E+00  0.17226124566E+04  0.20287539301E+04  0.10716570503E+04 0.  0.
        1    1    3    3  502    0  0.23672568405E+03  0.46402304156E+03  0.62368050914E+03  0.81260926041E+03  0.50400001928E-02 0.  1.
       -1    1    3    3    0  502 -0.23672568405E+03 -0.46402304156E+03  0.10989319474E+04  0.12161446697E+04  0.50400001928E-02 0. -1.
</event>
<event>
 5   0  0.4428114E-03  0.1097615E+04  0.7818609E-02  0.9207520E-01
       -1   -1    0    0    0  501  0.00000000000E+00  0.00000000000E+00  0.49849672622E+03  0.49849672625E+03  0.50400001928E-02 0. -1.
        1   -1    0    0  501    0  0.00000000000E+00  0.00000000000E+00 -0.60419566272E+03  0.60419566274E+03  0.50400001928E-02 0.  1.
    10030    2    1    2    0    0  0.00000000000E+00  0.00000000000E+00 -0.10569893650E+03  0.11026923890E+04  0.10976147956E+04 0.  0.
        4    1    3    3  502    0  0.34450592343E+03  0.15633805784E+03 -0.45225879172E+03  0.58963170471E+03  0.12699999809E+01 0.  1.
       -4    1    3    3    0  502 -0.34450592343E+03 -0.15633805784E+03  0.34655985522E+03  0.51306068429E+03  0.12699999809E+01 0. -1.
</event>
<event>
 5   0  0.2992375E-03  0.1088184E+04  0.7818609E-02  0.9216786E-01
       -3   -1    0    0    0  501  0.00000000000E+00  0.00000000000E+00  0.84229733630E+03  0.84229734236E+03  0.10100000352E+00 0. -1.
        3   -1    0    0  501    0  0.00000000000E+00  0.00000000000E+00 -0.35146245252E+03  0.35146246704E+03  0.10100000352E+00 0.  1.
    10030    2    1    2    0    0  0.00000000000E+00  0.00000000000E+00  0.49083488378E+03  0.11937598094E+04  0.10881836239E+04 0.  0.
        4    1    3    3  502    0  0.46840818279E+03  0.73411737110E+02 -0.47383856532E+02  0.47648961332E+03  0.12699999809E+01 0. -1.
       -4    1    3    3    0  502 -0.46840818279E+03 -0.73411737110E+02  0.53821874031E+03  0.71727019607E+03  0.12699999809E+01 0.  1.
</event>
<event>
 5   0  0.4504740E-03  0.1018367E+04  0.7818609E-02  0.9288627E-01
        1   -1    0    0  501    0  0.00000000000E+00  0.00000000000E+00  0.55458017335E+03  0.55458017337E+03  0.50400001928E-02 0.  1.
       -1   -1    0    0    0  501  0.00000000000E+00  0.00000000000E+00 -0.46750244513E+03  0.46750244515E+03  0.50400001928E-02 0. -1.
    10030    2    1    2    0    0  0.00000000000E+00  0.00000000000E+00  0.87077728222E+02  0.10220826185E+04  0.10183665098E+04 0.  0.
        5    1    3    3  502    0 -0.47731643311E+03  0.24560407921E+02 -0.13263316183E+03  0.49603209228E+03  0.46999998093E+01 0. -1.
       -5    1    3    3    0  502  0.47731643311E+03 -0.24560407921E+02  0.21971089005E+03  0.52605052624E+03  0.46999998093E+01 0.  1.
</event>
<event>
 5   0  0.7738497E-03  0.1111484E+04  0.7818609E-02  0.9194071E-01
        2   -1    0    0  501    0  0.00000000000E+00  0.00000000000E+00  0.96147843079E+03  0.96147843079E+03  0.25500000920E-02 0. -1.
       -2   -1    0    0    0  501  0.00000000000E+00  0.00000000000E+00 -0.32122295016E+03  0.32122295017E+03  0.25500000920E-02 0.  1.
    10030    2    1    2    0    0  0.00000000000E+00  0.00000000000E+00  0.64025548063E+03  0.12827013810E+04  0.11114835816E+04 0.  0.
        4    1    3    3  502    0  0.24229598704E+03 -0.82257020302E+02  0.88945160465E+03  0.92552651644E+03  0.12699999809E+01 0. -1.
       -4    1    3    3    0  502 -0.24229598704E+03  0.82257020302E+02 -0.24919612401E+03  0.35717486452E+03  0.12699999809E+01 0.  1.
</event>
<event>
 5   0  0.7537480E-03  0.1103833E+04  0.7818609E-02  0.9201464E-01
       -2   -1    0    0    0  501  0.00000000000E+00  0.00000000000E+00  0.17263152121E+03  0.17263152123E+03  0.25500000920E-02 0.  1.
        2   -1    0    0  501    0  0.00000000000E+00  0.00000000000E+00 -0.17645212040E+04  0.17645212040E+04  0.25500000920E-02 0. -1.
    10030    2    1    2    0    0  0.00000000000E+00  0.00000000000E+00 -0.15918896828E+04  0.19371527253E+04  0.11038332839E+04 0.  0.
        1    1    3    3  502    0  0.25250131208E+03  0.15763754573E+03 -0.16115740171E+04  0.16388341347E+04  0.50400001928E-02 0. -1.
       -1    1    3    3    0  502 -0.25250131208E+03 -0.15763754573E+03  0.19684334291E+02  0.29831859055E+03  0.50400001928E-02 0.  1.
</event>
<event>
 5   0  0.7712816E-03  0.1119339E+04  0.7818609E-02  0.9186545E-01
        2   -1    0    0  501    0  0.00000000000E+00  0.00000000000E+00  0.72103548382E+03  0.72103548383E+03  0.25500000920E-02 0.  1.
       -2   -1    0    0    0  501  0.00000000000E+00  0.00000000000E+00 -0.43441721532E+03  0.43441721532E+03  0.25500000920E-02 0. -1.
    10030    2    1    2    0    0  0.00000000000E+00  0.00000000000E+00  0.28661826851E+03  0.11554526992E+04  0.11193394964E+04 0.  0.
        2    1    3    3  502    0 -0.22135344809E+03 -0.45375888305E+02  0.67185791585E+03  0.70883663796E+03  0.25500000920E-02 0.  1.
       -2    1    3    3    0  502  0.22135344809E+03  0.45375888305E+02 -0.38523964734E+03  0.44661606119E+03  0.25500000920E-02 0. -1.
</event>
<event>
 5   0  0.7766551E-03  0.1085352E+04  0.7818609E-02  0.9219588E-01
        2   -1    0    0  501    0  0.00000000000E+00  0.00000000000E+00  0.56638544122E+03  0.56638544122E+03  0.25500000920E-02 0.  1.
       -2   -1    0    0    0  501  0.00000000000E+00  0.00000000000E+00 -0.51995862669E+03  0.51995862669E+03  0.25500000920E-02 0. -1.
    10030    2    1    2    0    0  0.00000000000E+00  0.00000000000E+00  0.46426814533E+02  0.10863440679E+04  0.10853515489E+04 0.  0.
        5    1    3    3  502    0  0.31691385493E+03  0.99354314246E+01 -0.41757755360E+03  0.52433406099E+03  0.46999998093E+01 0. -1.
       -5    1    3    3    0  502 -0.31691385493E+03 -0.99354314246E+01  0.46400436813E+03  0.56201000693E+03  0.46999998093E+01 0.  1.
</event>
<event>
 5   0  0.7712816E-03  0.1082373E+04  0.7818609E-02  0.9222544E-01
       -2   -1    0    0    0  501  0.00000000000E+00  0.00000000000E+00  0.18905291820E+04  0.18905291820E+04  0.25500000920E-02 0.  1.
        2   -1    0    0  501    0  0.00000000000E+00  0.00000000000E+00 -0.15492117701E+03  0.15492117703E+03  0.25500000920E-02 0. -1.
    10030    2    1    2    0    0  0.00000000000E+00  0.00000000000E+00  0.17356080050E+04  0.20454503590E+04  0.10823733294E+04 0.  0.
        2    1    3    3  502    0  0.31959731937E+03  0.20502067577E+03  0.13905547934E+03  0.40436660394E+03  0.25500000920E-02 0. -1.
       -2    1    3    3    0  502 -0.31959731937E+03 -0.20502067577E+03  0.15965525256E+04  0.16410837551E+04  0.25500000920E-02 0.  1.
</event>
<event>
 5   0  0.4298101E-03  0.1013938E+04  0.7818609E-02  0.9293388E-01
       -1   -1    0    0    0  501  0.00000000000E+00  0.00000000000E+00  0.33923574123E+03  0.33923574127E+03  0.50400001928E-02 0. -1.
        1   -1    0    0  501    0  0.00000000000E+00  0.00000000000E+00 -0.75763741196E+03  0.75763741198E+03  0.50400001928E-02 0.  1.
    10030    2    1    2    0    0  0.00000000000E+00  0.00000000000E+00 -0.41840167073E+03  0.10968731533E+04  0.10139382408E+04 0.  0.
        3    1    3    3  502    0  0.20271089729E+02 -0.90171188536E+01 -0.75711198230E+03  0.75743698712E+03  0.10100000352E+00 0.  1.
       -3    1    3    3    0  502 -0.20271089729E+02  0.90171188536E+01  0.33871031157E+03  0.33943616613E+03  0.10100000352E+00 0. -1.
</event>
<event>
 5   0  0.7537480E-03  0.1096401E+04  0.7818609E-02  0.9208707E-01
       -2   -1    0    0    0  501  0.00000000000E+00  0.00000000000E+00  0.10226994035E+04  0.10226994035E+04  0.25500000920E-02 0.  1.
        2   -1    0    0  501    0  0.00000000000E+00  0.00000000000E+00 -0.29385349073E+03  0.29385349074E+03  0.25500000920E-02 0. -1.
    10030    2    1    2    0    0  0.00000000000E+00  0.00000000000E+00  0.72884591279E+03  0.13165528943E+04  0.10964010027E+04 0.  0.
        1    1    3    3  502    0 -0.76787222537E+02 -0.21392663176E+02 -0.28685740015E+03  0.29772653834E+03  0.50400001928E-02 0. -1.
       -1    1    3    3    0  502  0.76787222537E+02  0.21392663176E+02  0.10157033129E+04  0.10188263559E+04  0.50400001928E-02 0.  1.
</event>
<event>
 5   0  0.4598561E-03  0.1097008E+04  0.7818609E-02  0.9208113E-01
        1   -1    0    0  501    0  0.00000000000E+00  0.00000000000E+00  0.78181724133E+03  0.78181724135E+03  0.50400001928E-02 0. -1.
       -1   -1    0    0    0  501  0.00000000000E+00  0.00000000000E+00 -0.38481709826E+03  0.38481709829E+03  0.50400001928E-02 0.  1.
    10030    2    1    2    0    0  0.00000000000E+00  0.00000000000E+00  0.39700014307E+03  0.11666343396E+04  0.10970080076E+04 0.  0.
        2    1    3    3  502    0  0.37248603869E+03  0.33834019530E+02  0.62517006822E+03  0.72851094989E+03  0.25500000920E-02 0. -1.
       -2    1    3    3    0  502 -0.37248603869E+03 -0.33834019530E+02 -0.22816992515E+03  0.43812338975E+03  0.25500000920E-02 0.  1.
</event>
<event>
 5   0  0.4428114E-03  0.1109524E+04  0.7818609E-02  0.9195958E-01
       -1   -1    0    0    0  501  0.00000000000E+00  0.00000000000E+00  0.38486886211E+03  0.38486886214E+03  0.50400001928E-02 0. -1.
        1   -1    0    0  501    0  0.00000000000E+00  0.00000000000E+00 -0.79965147638E+03  0.79965147639E+03  0.50400001928E-02 0.  1.
    10030    2    1    2    0    0  0.00000000000E+00  0.00000000000E+00 -0.41478261427E+03  0.11845203385E+04  0.11095241391E+04 0.  0.
        4    1    3    3  502    0  0.34725431294E+03  0.39620010474E+03 -0.39291693837E+03  0.65722554287E+03  0.12699999809E+01 0.  1.
       -4    1    3    3    0  502 -0.34725431294E+03 -0.39620010474E+03 -0.21865675899E+02  0.52729479566E+03  0.12699999809E+01 0. -1.
</event>
<event>
 5   0  0.7952121E-03  0.9534175E+03  0.7818609E-02  0.9361165E-01
       -2   -1    0    0    0  501  0.00000000000E+00  0.00000000000E+00  0.12189636875E+03  0.12189636877E+03  0.25500000920E-02 0. -1.
        2   -1    0    0  501    0  0.00000000000E+00  0.00000000000E+00 -0.18642987646E+04  0.18642987646E+04  0.25500000920E-02 0.  1.
    10030    2    1    2    0    0  0.00000000000E+00  0.00000000000E+00 -0.17424023959E+04  0.19861951334E+04  0.95341753643E+03 0.  0.
        3    1    3    3  502    0  0.97783157739E+02  0.28558993710E+03 -0.16398228944E+04  0.16673758704E+04  0.10100000352E+00 0.  1.
       -3    1    3    3    0  502 -0.97783157739E+02 -0.28558993710E+03 -0.10257950146E+03  0.31881926295E+03  0.10100000352E+00 0. -1.
</event>
<event>
 5   0  0.7766551E-03  0.9926145E+03  0.7818609E-02  0.9316682E-01
       -2   -1    0    0    0  501  0.00000000000E+00  0.00000000000E+00  0.17589276268E+03  0.17589276270E+03  0.25500000920E-02 0. -1.
        2   -1    0    0  501    0  0.00000000000E+00  0.00000000000E+00 -0.14004036451E+04  0.14004036451E+04  0.25500000920E-02 0.  1.
    10030    2    1    2    0    0  0.00000000000E+00  0.00000000000E+00 -0.12245108824E+04  0.15762964078E+04  0.99261445893E+03 0.  0.
        5    1    3    3  502    0  0.28772741372E+03  0.34888465747E+03 -0.28761714752E+03  0.53596014998E+03  0.46999998093E+01 0. -1.
       -5    1    3    3    0  502 -0.28772741372E+03 -0.34888465747E+03 -0.93689373491E+03  0.10403362578E+04  0.46999998093E+01 0.  1.
</event>
<event>
 5   0  0.2992375E-03  0.1091456E+04  0.7818609E-02  0.9213560E-01
       -3   -1    0    0    0  501  0.00000000000E+00  0.00000000000E+00  0.12370088094E+04  0.12370088136E+04  0.10100000352E+00 0. -1.
        3   -1    0    0  501    0  0.00000000000E+00  0.00000000000E+00 -0.24075730040E+03  0.24075732159E+03  0.10100000352E+00 0.  1.
    10030    2    1    2    0    0  0.00000000000E+00  0.00000000000E+00  0.99625150903E+03  0.14777661351E+04  0.10914557622E+04 0.  0.
        5    1    3    3  502    0  0.32168504226E+03 -0.40972327349E+03  0.27795986627E+03  0.59045592935E+03  0.46999998093E+01 0.  1.
       -5    1    3    3    0  502 -0.32168504226E+03  0.40972327349E+03  0.71829164276E+03  0.88731020580E+03  0.46999998093E+01 0. -1.
</event>
<event>
 5   0  0.2992375E-03  0.1061941E+04  0.7818609E-02  0.9243102E-01
        3   -1    0    0  501    0  0.00000000000E+00  0.00000000000E+00  0.30667932138E+03  0.30667933801E+03  0.10100000352E+00 0. -1.
       -3   -1    0    0    0  501  0.00000000000E+00  0.00000000000E+00 -0.91929772447E+03  0.91929773002E+03  0.10100000352E+00 0.  1.
    10030    2    1    2    0    0  0.00000000000E+00  0.00000000000E+00 -0.61261840309E+03  0.12259770680E+04  0.10619408946E+04 0.  0.
        4    1    3    3  502    0  0.42503094280E+03  0.18064241336E+02  0.60496424759E+02  0.42969646201E+03  0.12699999809E+01 0. -1.
       -4    1    3    3    0  502 -0.42503094280E+03 -0.18064241336E+02 -0.67311482785E+03  0.79628060602E+03  0.12699999809E+01 0.  1.
</event>
<event>
 5   0  0.7766551E-03  0.1101013E+04  0.7818609E-02  0.9204205E-01
        2   -1    0    0  501    0  0.00000000000E+00  0.00000000000E+00  0.14456976796E+04  0.14456976796E+04  0.25500000920E-02 0.  1.
       -2   -1    0    0    0  501  0.00000000000E+00  0.00000000000E+00 -0.20962706910E+03  0.20962706911E+03  0.25500000920E-02 0. -1.
    10030    2    1    2    0    0  0.00000000000E+00  0.00000000000E+00  0.12360706105E+04  0.16553247487E+04  0.11010129289E+04 0.  0.
        5    1    3    3  502    0  0.18817477789E+03 -0.18396897818E+03  0.13449699123E+04  0.13704818448E+04  0.46999998093E+01 0.  1.
       -5    1    3    3    0  502 -0.18817477789E+03  0.18396897818E+03 -0.10889930181E+03  0.28484290389E+03  0.46999998093E+01 0. -1.
</event>
<event>
 5   0  0.7537480E-03  0.1097185E+04  0.7818609E-02  0.9207940E-01
       -2   -1    0    0    0  501  0.00000000000E+00  0.00000000000E+00  0.41741187441E+03  0.41741187442E+03  0.25500000920E-02 0.  1.
        2   -1    0    0  501    0  0.00000000000E+00  0.00000000000E+00 -0.72099944375E+03  0.72099944375E+03  0.25500000920E-02 0. -1.
    10030    2    1    2    0    0  0.00000000000E+00  0.00000000000E+00 -0.30358756934E+03  0.11384113182E+04  0.10971849967E+04 0.  0.
        1    1    3    3  502    0 -0.39606039734E+03  0.12429707474E+03  0.22034726354E+03  0.46996437918E+03  0.50400001928E-02 0.  1.
       -1    1    3    3    0  502  0.39606039734E+03 -0.12429707474E+03 -0.52393483287E+03  0.66844693899E+03  0.50400001928E-02 0. -1.
</event>
<event>
 5   0  0.4428114E-03  0.1055086E+04  0.7818609E-02  0.9250109E-01
        1   -1    0    0  501    0  0.00000000000E+00  0.00000000000E+00  0.51235104225E+03  0.51235104227E+03  0.50400001928E-02 0. -1.
       -1   -1    0    0    0  501  0.00000000000E+00  0.00000000000E+00 -0.54318528347E+03  0.54318528349E+03  0.50400001928E-02 0.  1.
    10030    2    1    2    0    0  0.00000000000E+00  0.00000000000E+00 -0.30834241216E+02  0.10555363258E+04  0.10550858660E+04 0.  0.
        4    1    3    3  502    0  0.20898017988E+03  0.48277238451E+03 -0.54906018930E+02  0.52892170936E+03  0.12699999809E+01 0. -1.
       -4    1    3    3    0  502 -0.20898017988E+03 -0.48277238451E+03  0.24071777713E+02  0.52661461640E+03  0.12699999809E+01 0.  1.
</event>
<event>
 5   0  0.4504740E-03  0.1111802E+04  0.7818609E-02  0.9193765E-01
       -1   -1    0    0    0  501  0.00000000000E+00  0.00000000000E+00  0.28978280104E+03  0.28978280109E+03  0.50400001928E-02 0. -1.
        1   -1    0    0  501    0  0.00000000000E+00  0.00000000000E+00 -0.10664044718E+04  0.10664044718E+04  0.50400001928E-02 0.  1.
    10030    2    1    2    0    0  0.00000000000E+00  0.00000000000E+00 -0.77662167077E+03  0.13561872729E+04  0.11118015559E+04 0.  0.
        5    1    3    3  502    0 -0.83317261514E+02 -0.32542868523E+03 -0.92856159723E+03  0.98746864511E+03  0.46999998093E+01 0.  1.
       -5    1    3    3    0  502  0.83317261514E+02  0.32542868523E+03  0.15193992646E+03  0.36871862780E+03  0.46999998093E+01 0. -1.
</event>
<event>
 5   0  0.7766551E-03  0.1104533E+04  0.7818609E-02  0.9200785E-01
        2   -1    0    0  501    0  0.00000000000E+00  0.00000000000E+00  0.20279882247E+04  0.20279882247E+04  0.25500000920E-02 0. -1.
       -2   -1    0    0    0  501  0.00000000000E+00  0.00000000000E+00 -0.15039439344E+03  0.15039439346E+03  0.25500000920E-02 0.  1.
    10030    2    1    2    0    0  0.00000000000E+00  0.00000000000E+00  0.18775938313E+04  0.21783826182E+04  0.11045325871E+04 0.  0.
        5    1    3    3  502    0  0.18853110591E+03  0.51822422274E+03  0.88043629132E+03  0.10388890586E+04  0.46999998093E+01 0.  1.
       -5    1    3    3    0  502 -0.18853110591E+03 -0.51822422274E+03  0.99715753999E+03  0.11394935597E+04  0.46999998093E+01 0. -1.
</event>
<event>
 5   0  0.7712816E-03  0.1106636E+04  0.7818609E-02  0.9198748E-01
        2   -1    0    0  501    0  0.00000000000E+00  0.00000000000E+00  0.18597627511E+03  0.18597627513E+03  0.25500000920E-02 0. -1.
       -2   -1    0    0    0  501  0.00000000000E+00  0.00000000000E+00 -0.16462350439E+04  0.16462350439E+04  0.25500000920E-02 0.  1.
    10030    2    1    2    0    0  0.00000000000E+00  0.00000000000E+00 -0.14602587688E+04  0.18322113191E+04  0.11066357331E+04 0.  0.
        2    1    3    3  502    0  0.37589221970E+03  0.40382396126E+03 -0.80021499132E+03  0.97196336601E+03  0.25500000920E-02 0. -1.
       -2    1    3    3    0  502 -0.37589221970E+03 -0.40382396126E+03 -0.66004377750E+03  0.86024795306E+03  0.25500000920E-02 0.  1.
</event>
<event>
 5   0  0.7952121E-03  0.1107886E+04  0.7818609E-02  0.9197540E-01
        2   -1    0    0  501    0  0.00000000000E+00  0.00000000000E+00  0.91588564294E+03  0.91588564295E+03  0.25500000920E-02 0.  1.
       -2   -1    0    0    0  501  0.00000000000E+00  0.00000000000E+00 -0.33503396888E+03  0.33503396889E+03  0.25500000920E-02 0. -1.
    10030    2    1    2    0    0  0.00000000000E+00  0.00000000000E+00  0.58085167406E+03  0.12509196118E+04  0.11078859183E+04 0.  0.
        3    1    3    3  502    0 -0.92929607987E+02 -0.37173864207E+02 -0.32473956335E+03  0.33981407038E+03  0.10100000352E+00 0. -1.
       -3    1    3    3    0  502  0.92929607987E+02  0.37173864207E+02  0.90559123741E+03  0.91110554146E+03  0.10100000352E+00 0.  1.
</event>
<event>
 5   0  0.4641021E-03  0.1094851E+04  0.7818609E-02  0.9210225E-01
       -1   -1    0    0    0  501  0.00000000000E+00  0.00000000000E+00  0.31128634810E+03  0.31128634814E+03  0.50400001928E-02 0. -1.
        1   -1    0    0  501    0  0.00000000000E+00  0.00000000000E+00 -0.96269719179E+03  0.96269719181E+03  0.50400001928E-02 0.  1.
    10030    2    1    2    0    0  0.00000000000E+00  0.00000000000E+00 -0.65141084370E+03  0.12739835399E+04  0.10948506623E+04 0.  0.
        1    1    3    3  502    0  0.35225317935E+03 -0.29749134872E+03 -0.66910186311E+03  0.81257658603E+03  0.50400001928E-02 0.  1.
       -1    1    3    3    0  502 -0.35225317935E+03  0.29749134872E+03  0.17691019414E+02  0.46140695391E+03  0.50400001928E-02 0. -1.
</event>
<event>
 5   0  0.7952121E-03  0.1113900E+04  0.7818609E-02  0.9191749E-01
        2   -1    0    0  501    0  0.00000000000E+00  0.00000000000E+00  0.76298963447E+03  0.76298963447E+03  0.25500000920E-02 0.  1.
       -2   -1    0    0    0  501  0.00000000000E+00  0.00000000000E+00 -0.40655010326E+03  0.40655010327E+03  0.25500000920E-02 0. -1.
    10030    2    1    2    0    0  0.00000000000E+00  0.00000000000E+00  0.35643953121E+03  0.11695397377E+04  0.11139003810E+04 0.  0.
        3    1    3    3  502    0 -0.29313793705E+03  0.46013477628E+03  0.60645791206E+02  0.54893695874E+03  0.10100000352E+00 0.  1.
       -3    1    3    3    0  502  0.29313793705E+03 -0.46013477628E+03  0.29579374000E+03  0.62060277900E+03  0.10100000352E+00 0. -1.
</event>
<event>
 5   0  0.7766551E-03  0.1034964E+04  0.7818609E-02  0.9271007E-01
       -2   -1    0    0    0  501  0.00000000000E+00  0.00000000000E+00  0.58178866880E+03  0.58178866881E+03  0.25500000920E-02 0.  1.
        2   -1    0    0  501    0  0.00000000000E+00  0.00000000000E+00 -0.46028312617E+03  0.46028312617E+03  0.25500000920E-02 0. -1.
    10030    2    1    2    0    0  0.00000000000E+00  0.00000000000E+00  0.12150554264E+03  0.10420717950E+04  0.10349637815E+04 0.  0.
        5    1    3    3  502    0 -0.36737376881E+03 -0.19301561213E+03  0.37198230398E+03  0.55732525244E+03  0.46999998093E+01 0.  1.
       -5    1    3    3    0  502  0.36737376881E+03  0.19301561213E+03 -0.25047676134E+03  0.48474654254E+03  0.46999998093E+01 0. -1.
</event>
<event>
 5   0  0.4641021E-03  0.1112285E+04  0.7818609E-02  0.9193300E-01
        1   -1    0    0  501    0  0.00000000000E+00  0.00000000000E+00  0.43566406569E+03  0.43566406572E+03  0.50400001928E-02 0.  1.
       -1   -1    0    0    0  501  0.00000000000E+00  0.00000000000E+00 -0.70993840383E+03  0.70993840385E+03  0.50400001928E-02 0. -1.
    10030    2    1    2    0    0  0.00000000000E+00  0.00000000000E+00 -0.27427433814E+03  0.11456024696E+04  0.11122853077E+04 0.  0.
        1    1    3    3  502    0  0.31587883747E+03  0.79421513513E+02  0.32715091445E+03  0.46164373452E+03  0.50400001928E-02 0.  1.
       -1    1    3    3    0  502 -0.31587883747E+03 -0.79421513513E+02 -0.60142525259E+03  0.68395873505E+03  0.50400001928E-02 0. -1.
</event>
<event>
 5   0  0.4598561E-03  0.1099717E+04  0.7818609E-02  0.9205468E-01
       -1   -1    0    0    0  501  0.00000000000E+00  0.00000000000E+00  0.70978345854E+03  0.70978345856E+03  0.50400001928E-02 0.  1.
        1   -1    0    0  501    0  0.00000000000E+00  0.00000000000E+00 -0.42596708846E+03  0.42596708849E+03  0.50400001928E-02 0. -1.
    10030    2    1    2    0    0  0.00000000000E+00  0.00000000000E+00  0.28381637008E+03  0.11357505470E+04  0.10997170423E+04 0.  0.
        2    1    3    3  502    0 -0.11443813010E+03  0.29729831511E+03 -0.32095315859E+03  0.45220935838E+03  0.25500000920E-02 0. -1.
       -2    1    3    3    0  502  0.11443813010E+03 -0.29729831511E+03  0.60476952867E+03  0.68354118867E+03  0.25500000920E-02 0.  1.
</event>
<event>
 5   0  0.7738497E-03  0.1123853E+04  0.7818609E-02  0.9182250E-01
        2   -1    0    0  501    0  0.00000000000E+00  0.00000000000E+00  0.83950306539E+03  0.83950306539E+03  0.25500000920E-02 0.  1.
       -2   -1    0    0    0  501  0.00000000000E+00  0.00000000000E+00 -0.37612921005E+03  0.37612921006E+03  0.25500000920E-02 0. -1.
    10030    2    1    2    0    0  0.00000000000E+00  0.00000000000E+00  0.46337385534E+03  0.12156322755E+04  0.11238534154E+04 0.  0.
        4    1    3    3  502    0  0.12012562355E+03  0.57656545328E+02 -0.35879246104E+03  0.38273761985E+03  0.12699999809E+01 0. -1.
       -4    1    3    3    0  502 -0.12012562355E+03 -0.57656545328E+02  0.82216631637E+03  0.83289465560E+03  0.12699999809E+01 0.  1.
</event>
<event>
 5   0  0.7738497E-03  0.1104168E+04  0.7818609E-02  0.9201139E-01
       -2   -1    0    0    0  501  0.00000000000E+00  0.00000000000E+00  0.57490582060E+03  0.57490582060E+03  0.25500000920E-02 0. -1.
        2   -1    0    0  501    0  0.00000000000E+00  0.00000000000E+00 -0.53016828355E+03  0.53016828356E+03  0.25500000920E-02 0.  1.
    10030    2    1    2    0    0  0.00000000000E+00  0.00000000000E+00  0.44737537042E+02  0.11050741042E+04  0.11041681613E+04 0.  0.
        4    1    3    3  502    0 -0.12772387133E+03 -0.12075636637E+03  0.54615247605E+03  0.57374177756E+03  0.12699999809E+01 0. -1.
       -4    1    3    3    0  502  0.12772387133E+03  0.12075636637E+03 -0.50141493901E+03  0.53133232660E+03  0.12699999809E+01 0.  1.
</event>
<event>
 5   0  0.7712816E-03  0.1087828E+04  0.7818609E-02  0.9217137E-01
        2   -1    0    0  501    0  0.00000000000E+00  0.00000000000E+00  0.50939436632E+03  0.50939436632E+03  0.25500000920E-02 0.  1.
       -2   -1    0    0    0  501  0.00000000000E+00  0.00000000000E+00 -0.58077323458E+03  0.58077323459E+03  0.25500000920E-02 0. -1.
    10030    2    1    2    0    0  0.00000000000E+00  0.00000000000E+00 -0.71378868263E+02  0.10901676009E+04  0.10878283207E+04 0.  0.
        2    1    3    3  502    0  0.46654908366E+03  0.13481510829E+03  0.20978516248E+03  0.52901131868E+03  0.25500000920E-02 0.  1.
       -2    1    3    3    0  502 -0.46654908366E+03 -0.13481510829E+03 -0.28116403074E+03  0.56115628223E+03  0.25500000920E-02 0. -1.
</event>
<event>
 5   0  0.7537480E-03  0.1130788E+04  0.7818609E-02  0.9175693E-01
        2   -1    0    0  501    0  0.00000000000E+00  0.00000000000E+00  0.40832671838E+03  0.40832671839E+03  0.25500000920E-02 0.  1.
       -2   -1    0    0    0  501  0.00000000000E+00  0.00000000000E+00 -0.78287848842E+03  0.78287848843E+03  0.25500000920E-02 0. -1.
    10030    2    1    2    0    0  0.00000000000E+00  0.00000000000E+00 -0.37455177004E+03  0.11912052068E+04  0.11307876973E+04 0.  0.
        1    1    3    3  502    0 -0.51866480681E+02 -0.34557487236E+03  0.28094729092E+03  0.44837875119E+03  0.50400001928E-02 0.  1.
       -1    1    3    3    0  502  0.51866480681E+02  0.34557487236E+03 -0.65549906096E+03  0.74282645562E+03  0.50400001928E-02 0. -1.
</event>
<event>
 5   0  0.7738497E-03  0.1082394E+04  0.7818609E-02  0.9222524E-01
       -2   -1    0    0    0  501  0.00000000000E+00  0.00000000000E+00  0.19672175601E+03  0.19672175602E+03  0.25500000920E-02 0. -1.
        2   -1    0    0  501    0  0.00000000000E+00  0.00000000000E+00 -0.14888751363E+04  0.14888751363E+04  0.25500000920E-02 0.  1.
    10030    2    1    2    0    0  0.00000000000E+00  0.00000000000E+00 -0.12921533802E+04  0.16855968923E+04  0.10823938863E+04 0.  0.
        4    1    3    3  502    0 -0.37723024666E+03 -0.56606415499E+02 -0.48221672357E+02  0.38449172664E+03  0.12699999809E+01 0. -1.
       -4    1    3    3    0  502  0.37723024666E+03  0.56606415499E+02 -0.12439317079E+04  0.13011051656E+04  0.12699999809E+01 0.  1.
</event>
<event>
 5   0  0.7952121E-03  0.8758513E+03  0.7818609E-02  0.9456282E-01
        2   -1    0    0  501    0  0.00000000000E+00  0.00000000000E+00  0.13502837281E+03  0.13502837283E+03  0.25500000920E-02 0. -1.
       -2   -1    0    0    0  501  0.00000000000E+00  0.00000000000E+00 -0.14202858832E+04  0.14202858832E+04  0.25500000920E-02 0.  1.
    10030    2    1    2    0    0  0.00000000000E+00  0.00000000000E+00 -0.12852575104E+04  0.15553142560E+04  0.87585133841E+03 0.  0.
        3    1    3    3  502    0 -0.43130076254E+03 -0.32296546089E+01 -0.77726129222E+03  0.88891276570E+03  0.10100000352E+00 0.  1.
       -3    1    3    3    0  502  0.43130076254E+03  0.32296546089E+01 -0.50799621817E+03  0.66640149033E+03  0.10100000352E+00 0. -1.
</event>
<event>
 5   0  0.4641021E-03  0.1104594E+04  0.7818609E-02  0.9200726E-01
       -1   -1    0    0    0  501  0.00000000000E+00  0.00000000000E+00  0.55716532260E+03  0.55716532262E+03  0.50400001928E-02 0. -1.
        1   -1    0    0  501    0  0.00000000000E+00  0.00000000000E+00 -0.54747130529E+03  0.54747130531E+03  0.50400001928E-02 0.  1.
    10030    2    1    2    0    0  0.00000000000E+00  0.00000000000E+00  0.96940173089E+01  0.11046366279E+04  0.11045940910E+04 0.  0.
        1    1    3    3  502    0  0.36831543834E+02 -0.54237723173E+03 -0.92637011458E+02  0.55146281836E+03  0.50400001928E-02 0.  1.
       -1    1    3    3    0  502 -0.36831543834E+02  0.54237723173E+03  0.10233102877E+03  0.55317380957E+03  0.50400001928E-02 0. -1.
</event>
<event>
 5   0  0.4298101E-03  0.1291196E+04  0.7818609E-02  0.9036576E-01
        1   -1    0    0  501    0  0.00000000000E+00  0.00000000000E+00  0.12672066923E+04  0.12672066923E+04  0.50400001928E-02 0. -1.
       -1   -1    0    0    0  501  0.00000000000E+00  0.00000000000E+00 -0.32890989824E+03  0.32890989828E+03  0.50400001928E-02 0.  1.
    10030    2    1    2    0    0  0.00000000000E+00  0.00000000000E+00  0.93829679405E+03  0.15961165906E+04  0.12911960722E+04 0.  0.
        3    1    3    3  502    0  0.13045099506E+03  0.46747837343E+03 -0.57115312659E+02  0.48868769258E+03  0.10100000352E+00 0.  1.
       -3    1    3    3    0  502 -0.13045099506E+03 -0.46747837343E+03  0.99541210671E+03  0.11074288980E+04  0.10100000352E+00 0. -1.
</event>
<event>
 5   0  0.4428114E-03  0.1104333E+04  0.7818609E-02  0.9200979E-01
        1   -1    0    0  501    0  0.00000000000E+00  0.00000000000E+00  0.20046195483E+04  0.20046195483E+04  0.50400001928E-02 0.  1.
       -1   -1    0    0    0  501  0.00000000000E+00  0.00000000000E+00 -0.15209249864E+03  0.15209249872E+03  0.50400001928E-02 0. -1.
    10030    2    1    2    0    0  0.00000000000E+00  0.00000000000E+00  0.18525270497E+04  0.21567120470E+04  0.11043325514E+04 0.  0.
        4    1    3    3  502    0  0.41691648754E+03 -0.43129847621E+02  0.16282590987E+04  0.16813413832E+04  0.12699999809E+01 0.  1.
       -4    1    3    3    0  502 -0.41691648754E+03  0.43129847621E+02  0.22426795097E+03  0.47537066387E+03  0.12699999809E+01 0. -1.
</event>
<event>
 5   0  0.4641021E-03  0.1194458E+04  0.7818609E-02  0.9117721E-01
        1   -1    0    0  501    0  0.00000000000E+00  0.00000000000E+00  0.94405359980E+03  0.94405359982E+03  0.50400001928E-02 0. -1.
       -1   -1    0    0    0  501  0.00000000000E+00  0.00000000000E+00 -0.37782025162E+03  0.37782025165E+03  0.50400001928E-02 0.  1.
    10030    2    1    2    0    0  0.00000000000E+00  0.00000000000E+00  0.56623334819E+03  0.13218738515E+04  0.11944581510E+04 0.  0.
        1    1    3    3  502    0  0.47547730631E+02 -0.19722218930E+03 -0.33851923211E+03  0.39465510154E+03  0.50400001928E-02 0.  1.
       -1    1    3    3    0  502 -0.47547730631E+02  0.19722218930E+03  0.90475258029E+03  0.92721874993E+03  0.50400001928E-02 0. -1.
</event>
<event>
 5   0  0.7537480E-03  0.1123571E+04  0.7818609E-02  0.9182517E-01
       -2   -1    0    0    0  501  0.00000000000E+00  0.00000000000E+00  0.27412559741E+03  0.27412559742E+03  0.25500000920E-02 0. -1.
        2   -1    0    0  501    0  0.00000000000E+00  0.00000000000E+00 -0.11513087051E+04  0.11513087051E+04  0.25500000920E-02 0.  1.
    10030    2    1    2    0    0  0.00000000000E+00  0.00000000000E+00 -0.87718310768E+03  0.14254343025E+04  0.11235714247E+04 0.  0.
        1    1    3    3  502    0  0.48431283859E+03 -0.15461139214E+03 -0.13533161996E+03  0.52609719215E+03  0.50400001928E-02 0. -1.
       -1    1    3    3    0  502 -0.48431283859E+03  0.15461139214E+03 -0.74185148772E+03  0.89933711036E+03  0.50400001928E-02 0.  1.
</event>
<event>
 5   0  0.7738497E-03  0.1115888E+04  0.7818609E-02  0.9189843E-01
        2   -1    0    0  501    0  0.00000000000E+00  0.00000000000E+00  0.26856152741E+03  0.26856152742E+03  0.25500000920E-02 0. -1.
       -2   -1    0    0    0  501  0.00000000000E+00  0.00000000000E+00 -0.11591435995E+04  0.11591435995E+04  0.25500000920E-02 0.  1.
    10030    2    1    2    0    0  0.00000000000E+00  0.00000000000E+00 -0.89058207212E+03  0.14277051270E+04  0.11158877642E+04 0.  0.
        4    1    3    3  502    0 -0.41353406096E+03 -0.19633833168E+03 -0.37192387672E+02  0.45928645382E+03  0.12699999809E+01 0. -1.
       -4    1    3    3    0  502  0.41353406096E+03  0.19633833168E+03 -0.85338968445E+03  0.96841867314E+03  0.12699999809E+01 0.  1.
</event>
<event>
 5   0  0.7712816E-03  0.1107382E+04  0.7818609E-02  0.9198027E-01
        2   -1    0    0  501    0  0.00000000000E+00  0.00000000000E+00  0.59623132049E+03  0.59623132049E+03  0.25500000920E-02 0.  1.
       -2   -1    0    0    0  501  0.00000000000E+00  0.00000000000E+00 -0.51418568659E+03  0.51418568660E+03  0.25500000920E-02 0. -1.
    10030    2    1    2    0    0  0.00000000000E+00  0.00000000000E+00  0.82045633895E+02  0.11104170071E+04  0.11073817967E+04 0.  0.
        2    1    3    3  502    0  0.45703489533E+03  0.27206727272E+03  0.19530197160E+03  0.56660776252E+03  0.25500000920E-02 0. -1.
       -2    1    3    3    0  502 -0.45703489533E+03 -0.27206727272E+03 -0.11325633771E+03  0.54380924456E+03  0.25500000920E-02 0.  1.
</event>
<event>
 5   0  0.4504740E-03  0.1110993E+04  0.7818609E-02  0.9194543E-01
       -1   -1    0    0    0  501  0.00000000000E+00  0.00000000000E+00  0.54236688313E+03  0.54236688315E+03  0.50400001928E-02 0.  1.
        1   -1    0    0  501    0  0.00000000000E+00  0.00000000000E+00 -0.56894436303E+03  0.56894436305E+03  0.50400001928E-02 0. -1.
    10030    2    1    2    0    0  0.00000000000E+00  0.00000000000E+00 -0.26577479899E+02  0.11113112462E+04  0.11109933949E+04 0.  0.
        5    1    3    3  502    0 -0.38452381574E+03  0.60609935877E+02 -0.40966258069E+03  0.56513507165E+03  0.46999998093E+01 0. -1.
       -5    1    3    3    0  502  0.38452381574E+03 -0.60609935877E+02  0.38308510079E+03  0.54617617455E+03  0.46999998093E+01 0.  1.
</event>
<event>
 5   0  0.4298101E-03  0.1078242E+04  0.7818609E-02  0.9226662E-01
       -1   -1    0    0    0  501  0.00000000000E+00  0.00000000000E+00  0.36241268591E+03  0.36241268595E+03  0.50400001928E-02 0.  1.
        1   -1    0    0  501    0  0.00000000000E+00  0.00000000000E+00 -0.80198985221E+03  0.80198985222E+03  0.50400001928E-02 0. -1.
    10030    2    1    2    0    0  0.00000000000E+00  0.00000000000E+00 -0.43957716629E+03  0.11644025382E+04  0.10782417103E+04 0.  0.
        3    1    3    3  502    0  0.49913509438E+03  0.22002666640E+02 -0.43853693728E+03  0.66478162982E+03  0.10100000352E+00 0. -1.
       -3    1    3    3    0  502 -0.49913509438E+03 -0.22002666640E+02 -0.10402290180E+01  0.49962090835E+03  0.10100000352E+00 0.  1.
</event>
<event>
 5   0  0.7537480E-03  0.1089571E+04  0.7818609E-02  0.9215417E-01
       -2   -1    0    0    0  501  0.00000000000E+00  0.00000000000E+00  0.30879911829E+03  0.30879911830E+03  0.25500000920E-02 0.  1.
        2   -1    0    0  501    0  0.00000000000E+00  0.00000000000E+00 -0.96111460168E+03  0.96111460168E+03  0.25500000920E-02 0. -1.
    10030    2    1    2    0    0  0.00000000000E+00  0.00000000000E+00 -0.65231548339E+03  0.12699137200E+04  0.10895711846E+04 0.  0.
        1    1    3    3  502    0 -0.37874037246E+03  0.38428999914E+03 -0.41390707167E+03  0.68003098251E+03  0.50400001928E-02 0. -1.
       -1    1    3    3    0  502  0.37874037246E+03 -0.38428999914E+03 -0.23840841171E+03  0.58988273747E+03  0.50400001928E-02 0.  1.
</event>
<event>
 5   0  0.4428114E-03  0.1088237E+04  0.7818609E-02  0.9216733E-01
       -1   -1    0    0    0  501  0.00000000000E+00  0.00000000000E+00  0.19489540464E+03  0.19489540470E+03  0.50400001928E-02 0. -1.
        1   -1    0    0  501    0  0.00000000000E+00  0.00000000000E+00 -0.15190971906E+04  0.15190971906E+04  0.50400001928E-02 0.  1.
    10030    2    1    2    0    0  0.00000000000E+00  0.00000000000E+00 -0.13242017859E+04  0.17139925953E+04  0.10882372199E+04 0.  0.
        4    1    3    3  502    0  0.34501101259E+03  0.34161031203E+03 -0.10489696934E+04  0.11558846113E+04  0.12699999809E+01 0.  1.
       -4    1    3    3    0  502 -0.34501101259E+03 -0.34161031203E+03 -0.27523209249E+03  0.55810798393E+03  0.12699999809E+01 0. -1.
</event>
<event>
 5   0  0.4298101E-03  0.1102785E+04  0.7818609E-02  0.9202482E-01
       -1   -1    0    0    0  501  0.00000000000E+00  0.00000000000E+00  0.89688512442E+03  0.89688512443E+03  0.50400001928E-02 0. -1.
        1   -1    0    0  501    0  0.00000000000E+00  0.00000000000E+00 -0.33898835008E+03  0.33898835012E+03  0.50400001928E-02 0.  1.
    10030    2    1    2    0    0  0.00000000000E+00  0.00000000000E+00  0.55789677434E+03  0.12358734746E+04  0.11027848540E+04 0.  0.
        3    1    3    3  502    0 -0.52727377009E+03  0.28608926090E+02  0.10105412625E+03  0.53763188700E+03  0.10100000352E+00 0.  1.
       -3    1    3    3    0  502  0.52727377009E+03 -0.28608926090E+02  0.45684264808E+03  0.69824158756E+03  0.10100000352E+00 0. -1.
</event>
<event>
 5   0  0.4641021E-03  0.1150357E+04  0.7818609E-02  0.9157454E-01
       -1   -1    0    0    0  501  0.00000000000E+00  0.00000000000E+00  0.24308745108E+03  0.24308745113E+03  0.50400001928E-02 0.  1.
        1   -1    0    0  501    0  0.00000000000E+00  0.00000000000E+00 -0.13609524157E+04  0.13609524157E+04  0.50400001928E-02 0. -1.
    10030    2    1    2    0    0  0.00000000000E+00  0.00000000000E+00 -0.11178649646E+04  0.16040398668E+04  0.11503572555E+04 0.  0.
        1    1    3    3  502    0 -0.44737463538E+03  0.20080183173E+03 -0.97809513643E+03  0.10941368909E+04  0.50400001928E-02 0. -1.
       -1    1    3    3    0  502  0.44737463538E+03 -0.20080183173E+03 -0.13976982817E+03  0.50990297597E+03  0.50400001928E-02 0.  1.
</event>
<event>
 5   0  0.2992375E-03  0.1068165E+04  0.7818609E-02  0.9236788E-01
        3   -1    0    0  501    0  0.00000000000E+00  0.00000000000E+00  0.18897717888E+03  0.18897720587E+03  0.10100000352E+00 0. -1.
       -3   -1    0    0    0  501  0.00000000000E+00  0.00000000000E+00 -0.15094096630E+04  0.15094096664E+04  0.10100000352E+00 0.  1.
    10030    2    1    2    0    0  0.00000000000E+00  0.00000000000E+00 -0.13204324841E+04  0.16983868723E+04  0.10681647919E+04 0.  0.
        5    1    3    3  502    0  0.93141592849E+02  0.22289536988E+03 -0.14175396180E+04  0.14379841310E+04  0.46999998093E+01 0.  1.
       -5    1    3    3    0  502 -0.93141592849E+02 -0.22289536988E+03  0.97107133884E+02  0.26040274131E+03  0.46999998093E+01 0. -1.
</event>
<event>
 5   0  0.4504740E-03  0.1090267E+04  0.7818609E-02  0.9214731E-01
       -1   -1    0    0    0  501  0.00000000000E+00  0.00000000000E+00  0.17909111993E+03  0.17909112000E+03  0.50400001928E-02 0. -1.
        1   -1    0    0  501    0  0.00000000000E+00  0.00000000000E+00 -0.16593245050E+04  0.16593245050E+04  0.50400001928E-02 0.  1.
    10030    2    1    2    0    0  0.00000000000E+00  0.00000000000E+00 -0.14802333851E+04  0.18384156250E+04  0.10902665436E+04 0.  0.
        5    1    3    3  502    0  0.34409565992E+03 -0.26917643801E+03 -0.12898576198E+04  0.13618416014E+04  0.46999998093E+01 0.  1.
       -5    1    3    3    0  502 -0.34409565992E+03  0.26917643801E+03 -0.19037576523E+03  0.47657402357E+03  0.46999998093E+01 0. -1.
</event>
<event>
 5   0  0.4298101E-03  0.1216614E+04  0.7818609E-02  0.9098437E-01
       -1   -1    0    0    0  501  0.00000000000E+00  0.00000000000E+00  0.45563652921E+03  0.45563652923E+03  0.50400001928E-02 0. -1.
        1   -1    0    0  501    0  0.00000000000E+00  0.00000000000E+00 -0.81213323215E+03  0.81213323216E+03  0.50400001928E-02 0.  1.
    10030    2    1    2    0    0  0.00000000000E+00  0.00000000000E+00 -0.35649670294E+03  0.12677697614E+04  0.12166142645E+04 0.  0.
        3    1    3    3  502    0  0.78715264561E+02 -0.19884541538E+03  0.41517177895E+03  0.46701521209E+03  0.10100000352E+00 0. -1.
       -3    1    3    3    0  502 -0.78715264561E+02  0.19884541538E+03 -0.77166848189E+03  0.80075454930E+03  0.10100000352E+00 0.  1.
</event>
<event>
 5   0  0.7738497E-03  0.1100158E+04  0.7818609E-02  0.9205038E-01
       -2   -1    0    0    0  501  0.00000000000E+00  0.00000000000E+00  0.42777909707E+03  0.42777909708E+03  0.25500000920E-02 0. -1.
        2   -1    0    0  501    0  0.00000000000E+00  0.00000000000E+00 -0.70734400526E+03  0.70734400527E+03  0.25500000920E-02 0.  1.
    10030    2    1    2    0    0  0.00000000000E+00  0.00000000000E+00 -0.27956490819E+03  0.11351231023E+04  0.11001581339E+04 0.  0.
        4    1    3    3  502    0  0.23449473505E+03 -0.41512518544E+03  0.14328827272E+03  0.49784519918E+03  0.12699999809E+01 0. -1.
       -4    1    3    3    0  502 -0.23449473505E+03  0.41512518544E+03 -0.42285318091E+03  0.63727790316E+03  0.12699999809E+01 0.  1.
</event>
<event>
 5   0  0.7537480E-03  0.1117913E+04  0.7818609E-02  0.9187907E-01
       -2   -1    0    0    0  501  0.00000000000E+00  0.00000000000E+00  0.15855851688E+03  0.15855851690E+03  0.25500000920E-02 0. -1.
        2   -1    0    0  501    0  0.00000000000E+00  0.00000000000E+00 -0.19704535092E+04  0.19704535092E+04  0.25500000920E-02 0.  1.
    10030    2    1    2    0    0  0.00000000000E+00  0.00000000000E+00 -0.18118949923E+04  0.21290120261E+04  0.11179126728E+04 0.  0.
        1    1    3    3  502    0 -0.31978556821E+03 -0.30423913458E+03 -0.15590607989E+04  0.16203378769E+04  0.50400001928E-02 0.  1.
       -1    1    3    3    0  502  0.31978556821E+03  0.30423913458E+03 -0.25283419336E+03  0.50867414914E+03  0.50400001928E-02 0. -1.
</event>
<event>
 5   0  0.4428114E-03  0.1039011E+04  0.7818609E-02  0.9266764E-01
        1   -1    0    0  501    0  0.00000000000E+00  0.00000000000E+00  0.75061198325E+03  0.75061198326E+03  0.50400001928E-02 0.  1.
       -1   -1    0    0    0  501  0.00000000000E+00  0.00000000000E+00 -0.35955435253E+03  0.35955435256E+03  0.50400001928E-02 0. -1.
    10030    2    1    2    0    0  0.00000000000E+00  0.00000000000E+00  0.39105763072E+03  0.11101663358E+04  0.10390106942E+04 0.  0.
        4    1    3    3  502    0  0.47865073415E+03  0.18379861251E+02 -0.19339705587E+02  0.47939543356E+03  0.12699999809E+01 0.  1.
       -4    1    3    3    0  502 -0.47865073415E+03 -0.18379861251E+02  0.41039733631E+03  0.63077090227E+03  0.12699999809E+01 0. -1.
</event>
<event>
 5   0  0.7766551E-03  0.1108662E+04  0.7818609E-02  0.9196790E-01
        2   -1    0    0  501    0  0.00000000000E+00  0.00000000000E+00  0.19290980336E+04  0.19290980336E+04  0.25500000920E-02 0.  1.
       -2   -1    0    0    0  501  0.00000000000E+00  0.00000000000E+00 -0.15928840999E+03  0.15928841001E+03  0.25500000920E-02 0. -1.
    10030    2    1    2    0    0  0.00000000000E+00  0.00000000000E+00  0.17698096236E+04  0.20883864436E+04  0.11086621821E+04 0.  0.
        5    1    3    3  502    0  0.13427712355E+03 -0.49374842283E+03  0.48334964991E+03  0.70389404389E+03  0.46999998093E+01 0. -1.
       -5    1    3    3    0  502 -0.13427712355E+03  0.49374842283E+03  0.12864599737E+04  0.13844923997E+04  0.46999998093E+01 0.  1.
</event>
<event>
 5   0  0.4428114E-03  0.1118113E+04  0.7818609E-02  0.9187716E-01
        1   -1    0    0  501    0  0.00000000000E+00  0.00000000000E+00  0.11946814119E+04  0.11946814119E+04  0.50400001928E-02 0. -1.
       -1   -1    0    0    0  501  0.00000000000E+00  0.00000000000E+00 -0.26161284867E+03  0.26161284872E+03  0.50400001928E-02 0.  1.
    10030    2    1    2    0    0  0.00000000000E+00  0.00000000000E+00  0.93306856323E+03  0.14562942606E+04  0.11181127089E+04 0.  0.
        4    1    3    3  502    0 -0.44823237625E+03 -0.27364590755E+03  0.21685604074E+03  0.56817471006E+03  0.12699999809E+01 0.  1.
       -4    1    3    3    0  502  0.44823237625E+03  0.27364590755E+03  0.71621252249E+03  0.88811955057E+03  0.12699999809E+01 0. -1.
</event>
<event>
 5   0  0.4641021E-03  0.1114677E+04  0.7818609E-02  0.9191004E-01
        1   -1    0    0  501    0  0.00000000000E+00  0.00000000000E+00  0.10194947472E+04  0.10194947472E+04  0.50400001928E-02 0. -1.
       -1   -1    0    0    0  501  0.00000000000E+00  0.00000000000E+00 -0.30468617173E+03  0.30468617178E+03  0.50400001928E-02 0.  1.
    10030    2    1    2    0    0  0.00000000000E+00  0.00000000000E+00  0.71480857547E+03  0.13241809190E+04  0.11146765480E+04 0.  0.
        1    1    3    3  502    0  0.54795262136E+03 -0.10132486757E+03  0.34510755684E+03  0.65545253822E+03  0.50400001928E-02 0.  1.
       -1    1    3    3    0  502 -0.54795262136E+03  0.10132486757E+03  0.36970101863E+03  0.66872838077E+03  0.50400001928E-02 0. -1.
</event>
<event>
 5   0  0.4641021E-03  0.1098710E+04  0.7818609E-02  0.9206450E-01
        1   -1    0    0  501    0  0.00000000000E+00  0.00000000000E+00  0.50907904641E+03  0.50907904643E+03  0.50400001928E-02 0.  1.
       -1   -1    0    0    0  501  0.00000000000E+00  0.00000000000E+00 -0.59281717315E+03  0.59281717317E+03  0.50400001928E-02 0. -1.
    10030    2    1    2    0    0  0.00000000000E+00  0.00000000000E+00 -0.83738126743E+02  0.11018962196E+04  0.10987097910E+04 0.  0.
        1    1    3    3  502    0 -0.36766938767E+03 -0.40762847122E+03 -0.63121367752E+02  0.55256316949E+03  0.50400001928E-02 0. -1.
       -1    1    3    3    0  502  0.36766938767E+03  0.40762847122E+03 -0.20616758991E+02  0.54933305012E+03  0.50400001928E-02 0.  1.
</event>
<event>
 5   0  0.4298101E-03  0.1105554E+04  0.7818609E-02  0.9199796E-01
        1   -1    0    0  501    0  0.00000000000E+00  0.00000000000E+00  0.45433254021E+03  0.45433254024E+03  0.50400001928E-02 0.  1.
       -1   -1    0    0    0  501  0.00000000000E+00  0.00000000000E+00 -0.67255216356E+03  0.67255216358E+03  0.50400001928E-02 0. -1.
    10030    2    1    2    0    0  0.00000000000E+00  0.00000000000E+00 -0.21821962335E+03  0.11268847038E+04  0.11055538574E+04 0.  0.
        3    1    3    3  502    0 -0.48087788977E+03  0.30582361282E+02 -0.38523039460E+03  0.61691271086E+03  0.10100000352E+00 0. -1.
       -3    1    3    3    0  502  0.48087788977E+03 -0.30582361282E+02  0.16701077125E+03  0.50997199296E+03  0.10100000352E+00 0.  1.
</event>
<event>
 5   0  0.7766551E-03  0.1104458E+04  0.7818609E-02  0.9200858E-01
        2   -1    0    0  501    0  0.00000000000E+00  0.00000000000E+00  0.17903482166E+03  0.17903482168E+03  0.25500000920E-02 0.  1.
       -2   -1    0    0    0  501  0.00000000000E+00  0.00000000000E+00 -0.17033386901E+04  0.17033386901E+04  0.25500000920E-02 0. -1.
    10030    2    1    2    0    0  0.00000000000E+00  0.00000000000E+00 -0.15243038684E+04  0.18823735118E+04  0.11044581271E+04 0.  0.
        5    1    3    3  502    0  0.90635767431E+02 -0.44444527473E+03 -0.12989204062E+04  0.13758498306E+04  0.46999998093E+01 0. -1.
       -5    1    3    3    0  502 -0.90635767431E+02  0.44444527473E+03 -0.22538346218E+03  0.50652368117E+03  0.46999998093E+01 0.  1.
</event>
<event>
 5   0  0.7537480E-03  0.1052835E+04  0.7818609E-02  0.9252422E-01
        2   -1    0    0  501    0  0.00000000000E+00  0.00000000000E+00  0.11009880511E+04  0.11009880511E+04  0.25500000920E-02 0. -1.
       -2   -1    0    0    0  501  0.00000000000E+00  0.00000000000E+00 -0.25169684371E+03  0.25169684372E+03  0.25500000920E-02 0.  1.
    10030    2    1    2    0    0  0.00000000000E+00  0.00000000000E+00  0.84929120737E+03  0.13526848948E+04  0.10528346830E+04 0.  0.
        1    1    3    3  502    0  0.10002737109E+01  0.51226769325E+03  0.26889259948E+03  0.57855200300E+03  0.50400001928E-02 0.  1.
       -1    1    3    3    0  502 -0.10002737109E+01 -0.51226769325E+03  0.58039860788E+03  0.77413289179E+03  0.50400001928E-02 0. -1.
</event>
<event>
 5   0  0.4428114E-03  0.1108193E+04  0.7818609E-02  0.9197243E-01
        1   -1    0    0  501    0  0.00000000000E+00  0.00000000000E+00  0.88903130685E+03  0.88903130687E+03  0.50400001928E-02 0.  1.
       -1   -1    0    0    0  501  0.00000000000E+00  0.00000000000E+00 -0.34534571483E+03  0.34534571487E+03  0.50400001928E-02 0. -1.
    10030    2    1    2    0    0  0.00000000000E+00  0.00000000000E+00  0.54368559202E+03  0.12343770217E+04  0.11081933987E+04 0.  0.
        4    1    3    3  502    0  0.28125829012E+03 -0.44629012939E+03  0.46067624716E+03  0.70036085196E+03  0.12699999809E+01 0.  1.
       -4    1    3    3    0  502 -0.28125829012E+03  0.44629012939E+03  0.83009344853E+02  0.53401616978E+03  0.12699999809E+01 0. -1.
</event>
<event>
 5   0  0.4298101E-03  0.1072058E+04  0.7818609E-02  0.9232862E-01
       -1   -1    0    0    0  501  0.00000000000E+00  0.00000000000E+00  0.21177322495E+03  0.21177322501E+03  0.50400001928E-02 0. -1.
        1   -1    0    0  501    0  0.00000000000E+00  0.00000000000E+00 -0.13567684521E+04  0.13567684521E+04  0.50400001928E-02 0.  1.
    10030    2    1    2    0    0  0.00000000000E+00  0.00000000000E+00 -0.11449952271E+04  0.15685416771E+04  0.10720582646E+04 0.  0.
        3    1    3    3  502    0  0.10402071112E+03  0.19286518274E+03  0.14324691442E+03  0.26179567557E+03  0.10100000352E+00 0. -1.
       -3    1    3    3    0  502 -0.10402071112E+03 -0.19286518274E+03 -0.12882421415E+04  0.13067460015E+04  0.10100000352E+00 0.  1.
</event>
<event>
 5   0  0.7766551E-03  0.1118454E+04  0.7818609E-02  0.9187390E-01
        2   -1    0    0  501    0  0.00000000000E+00  0.00000000000E+00  0.67838596801E+03  0.67838596802E+03  0.25500000920E-02 0.  1.
       -2   -1    0    0    0  501  0.00000000000E+00  0.00000000000E+00 -0.46099829546E+03  0.46099829546E+03  0.25500000920E-02 0. -1.
    10030    2    1    2    0    0  0.00000000000E+00  0.00000000000E+00  0.21738767256E+03  0.11393842635E+04  0.11184538880E+04 0.  0.
        5    1    3    3  502    0 -0.45801729251E+03 -0.85072682340E+02 -0.20644204429E+03  0.50956609892E+03  0.46999998093E+01 0. -1.
       -5    1    3    3    0  502  0.45801729251E+03  0.85072682340E+02  0.42382971685E+03  0.62981816456E+03  0.46999998093E+01 0.  1.
</event>
<event>
 5   0  0.4298101E-03  0.1108266E+04  0.7818609E-02  0.9197173E-01
       -1   -1    0    0    0  501  0.00000000000E+00  0.00000000000E+00  0.38334425542E+03  0.38334425545E+03  0.50400001928E-02 0.  1.
        1   -1    0    0  501    0  0.00000000000E+00  0.00000000000E+00 -0.80101208604E+03  0.80101208605E+03  0.50400001928E-02 0. -1.
    10030    2    1    2    0    0  0.00000000000E+00  0.00000000000E+00 -0.41766783062E+03  0.11843563415E+04  0.11082660001E+04 0.  0.
        3    1    3    3  502    0  0.37493465957E+03  0.27101698750E+03 -0.53479564532E+03  0.70712983172E+03  0.10100000352E+00 0. -1.
       -3    1    3    3    0  502 -0.37493465957E+03 -0.27101698750E+03  0.11712781470E+03  0.47722650978E+03  0.10100000352E+00 0.  1.
</event>
<event>
 5   0  0.4298101E-03  0.1088864E+04  0.7818609E-02  0.9216115E-01
        1   -1    0    0  501    0  0.00000000000E+00  0.00000000000E+00  0.89493880602E+03  0.89493880604E+03  0.50400001928E-02 0. -1.
       -1   -1    0    0    0  501  0.00000000000E+00  0.00000000000E+00 -0.33120255382E+03  0.33120255385E+03  0.50400001928E-02 0.  1.
    10030    2    1    2    0    0  0.00000000000E+00  0.00000000000E+00  0.56373625221E+03  0.12261413599E+04  0.10888636611E+04 0.  0.
        3    1    3    3  502    0  0.23693747915E+03 -0.48344614944E+03  0.19075723810E+03  0.57118112934E+03  0.10100000352E+00 0. -1.
       -3    1    3    3    0  502 -0.23693747915E+03  0.48344614944E+03  0.37297901411E+03  0.65496023055E+03  0.10100000352E+00 0.  1.
</event>
<event>
 5   0  0.7738497E-03  0.1117732E+04  0.7818609E-02  0.9188079E-01
        2   -1    0    0  501    0  0.00000000000E+00  0.00000000000E+00  0.59794451309E+03  0.59794451310E+03  0.25500000920E-02 0. -1.
       -2   -1    0    0    0  501  0.00000000000E+00  0.00000000000E+00 -0.52234172020E+03  0.52234172021E+03  0.25500000920E-02 0.  1.
    10030    2    1    2    0    0  0.00000000000E+00  0.00000000000E+00  0.75602792887E+02  0.11202862333E+04  0.11177322856E+04 0.  0.
        4    1    3    3  502    0  0.48795344768E+03 -0.97745810422E+02  0.29269911168E+03  0.57734495186E+03  0.12699999809E+01 0. -1.
       -4    1    3    3    0  502 -0.48795344768E+03  0.97745810422E+02 -0.21709631880E+03  0.54294128145E+03  0.12699999809E+01 0.  1.
</event>
<event>
 5   0  0.7712816E-03  0.1087259E+04  0.7818609E-02  0.9217700E-01
       -2   -1    0    0    0  501  0.00000000000E+00  0.00000000000E+00  0.55981794322E+03  0.55981794323E+03  0.25500000920E-02 0.  1.
        2   -1    0    0  501    0  0.00000000000E+00  0.00000000000E+00 -0.52790885337E+03  0.52790885338E+03  0.25500000920E-02 0. -1.
    10030    2    1    2    0    0  0.00000000000E+00  0.00000000000E+00  0.31909089849E+02  0.10877267966E+04  0.10872586601E+04 0.  0.
        2    1    3    3  502    0 -0.22371543239E+03  0.24212137400E+03  0.44841545769E+03  0.55654988738E+03  0.25500000920E-02 0.  1.
       -2    1    3    3    0  502  0.22371543239E+03 -0.24212137400E+03 -0.41650636784E+03  0.53117690923E+03  0.25500000920E-02 0. -1.
</event>
<event>
 5   0  0.4598561E-03  0.1150593E+04  0.7818609E-02  0.9157237E-01
        1   -1    0    0  501    0  0.00000000000E+00  0.00000000000E+00  0.12361829529E+04  0.12361829529E+04  0.50400001928E-02 0.  1.
       -1   -1    0    0    0  501  0.00000000000E+00  0.00000000000E+00 -0.26773231125E+03  0.26773231130E+03  0.50400001928E-02 0. -1.
    10030    2    1    2    0    0  0.00000000000E+00  0.00000000000E+00  0.96845064167E+03  0.15039152642E+04  0.11505930978E+04 0.  0.
        2    1    3    3  502    0  0.47600114832E+03  0.27614118584E+03  0.26498238248E+03  0.61077549946E+03  0.25500000920E-02 0. -1.
       -2    1    3    3    0  502 -0.47600114832E+03 -0.27614118584E+03  0.70346825920E+03  0.89313976477E+03  0.25500000920E-02 0.  1.
</event>
<event>
 5   0  0.7712816E-03  0.1089550E+04  0.7818609E-02  0.9215437E-01
        2   -1    0    0  501    0  0.00000000000E+00  0.00000000000E+00  0.33538665950E+03  0.33538665951E+03  0.25500000920E-02 0.  1.
       -2   -1    0    0    0  501  0.00000000000E+00  0.00000000000E+00 -0.88488918383E+03  0.88488918384E+03  0.25500000920E-02 0. -1.
    10030    2    1    2    0    0  0.00000000000E+00  0.00000000000E+00 -0.54950252433E+03  0.12202758433E+04  0.10895504163E+04 0.  0.
        2    1    3    3  502    0  0.40089052072E+03  0.19903783042E+03 -0.62257843741E+03  0.76676800812E+03  0.25500000920E-02 0. -1.
       -2    1    3    3    0  502 -0.40089052072E+03 -0.19903783042E+03  0.73075913078E+02  0.45350783523E+03  0.25500000920E-02 0.  1.
</event>
<event>
 5   0  0.4598561E-03  0.1084960E+04  0.7818609E-02  0.9219976E-01
       -1   -1    0    0    0  501  0.00000000000E+00  0.00000000000E+00  0.44037039458E+03  0.44037039461E+03  0.50400001928E-02 0.  1.
        1   -1    0    0  501    0  0.00000000000E+00  0.00000000000E+00 -0.66826634895E+03  0.66826634897E+03  0.50400001928E-02 0. -1.
    10030    2    1    2    0    0  0.00000000000E+00  0.00000000000E+00 -0.22789595437E+03  0.11086367436E+04  0.10849603049E+04 0.  0.
        2    1    3    3  502    0  0.43483777860E+02  0.37804625116E+03 -0.50900480110E+03  0.63552788648E+03  0.25500000920E-02 0. -1.
       -2    1    3    3    0  502 -0.43483777860E+02 -0.37804625116E+03  0.28110884672E+03  0.47310885710E+03  0.25500000920E-02 0.  1.
</event>
<event>
 5   0  0.2992375E-03  0.1092666E+04  0.7818609E-02  0.9212370E-01
        3   -1    0    0  501    0  0.00000000000E+00  0.00000000000E+00  0.33838561435E+03  0.33838562942E+03  0.10100000352E+00 0. -1.
       -3   -1    0    0    0  501  0.00000000000E+00  0.00000000000E+00 -0.88206915766E+03  0.88206916344E+03  0.10100000352E+00 0.  1.
    10030    2    1    2    0    0  0.00000000000E+00  0.00000000000E+00 -0.54368354331E+03  0.12204547929E+04  0.10926655967E+04 0.  0.
        2    1    3    3  502    0  0.31815140320E+03 -0.86476128722E+02 -0.75842921410E+03  0.82699051325E+03  0.25500000920E-02 0.  1.
       -2    1    3    3    0  502 -0.31815140320E+03  0.86476128722E+02  0.21474567080E+03  0.39346427961E+03  0.25500000920E-02 0. -1.
</event>
<event>
 5   0  0.4641021E-03  0.1105376E+04  0.7818609E-02  0.9199967E-01
        1   -1    0    0  501    0  0.00000000000E+00  0.00000000000E+00  0.10440262595E+04  0.10440262595E+04  0.50400001928E-02 0. -1.
       -1   -1    0    0    0  501  0.00000000000E+00  0.00000000000E+00 -0.29258296571E+03  0.29258296575E+03  0.50400001928E-02 0.  1.
    10030    2    1    2    0    0  0.00000000000E+00  0.00000000000E+00  0.75144329379E+03  0.13366092253E+04  0.11053764957E+04 0.  0.
        1    1    3    3  502    0  0.22483469437E+02 -0.27390747442E+03 -0.20410122498E+03  0.34232750547E+03  0.50400001928E-02 0.  1.
       -1    1    3    3    0  502 -0.22483469437E+02  0.27390747442E+03  0.95554451877E+03  0.99428171979E+03  0.50400001928E-02 0. -1.
</event>
<event>
 5   0  0.7712816E-03  0.1135984E+04  0.7818609E-02  0.9170812E-01
        2   -1    0    0  501    0  0.00000000000E+00  0.00000000000E+00  0.19536102499E+03  0.19536102500E+03  0.25500000920E-02 0.  1.
       -2   -1    0    0    0  501  0.00000000000E+00  0.00000000000E+00 -0.16513791173E+04  0.16513791173E+04  0.25500000920E-02 0. -1.
    10030    2    1    2    0    0  0.00000000000E+00  0.00000000000E+00 -0.14560180923E+04  0.18467401423E+04  0.11359843608E+04 0.  0.
        2    1    3    3  502    0  0.20789901622E+03  0.41382814424E+03 -0.12626046472E+04  0.13448591856E+04  0.25500000920E-02 0.  1.
       -2    1    3    3    0  502 -0.20789901622E+03 -0.41382814424E+03 -0.19341344503E+03  0.50188095664E+03  0.25500000920E-02 0. -1.
</event>
<event>
 5   0  0.7738497E-03  0.1108100E+04  0.7818609E-02  0.9197332E-01
       -2   -1    0    0    0  501  0.00000000000E+00  0.00000000000E+00  0.24990297511E+03  0.24990297512E+03  0.25500000920E-02 0.  1.
        2   -1    0    0  501    0  0.00000000000E+00  0.00000000000E+00 -0.12283634372E+04  0.12283634372E+04  0.25500000920E-02 0. -1.
    10030    2    1    2    0    0  0.00000000000E+00  0.00000000000E+00 -0.97846046211E+03  0.14782664123E+04  0.11081004963E+04 0.  0.
        4    1    3    3  502    0 -0.35585496255E+03  0.41721215109E+03 -0.38358414099E+03  0.66920635047E+03  0.12699999809E+01 0. -1.
       -4    1    3    3    0  502  0.35585496255E+03 -0.41721215109E+03 -0.59487632112E+03  0.80906006187E+03  0.12699999809E+01 0.  1.
</event>
<event>
 5   0  0.7537480E-03  0.1099327E+04  0.7818609E-02  0.9205848E-01
       -2   -1    0    0    0  501  0.00000000000E+00  0.00000000000E+00  0.17530431974E+03  0.17530431976E+03  0.25500000920E-02 0. -1.
        2   -1    0    0  501    0  0.00000000000E+00  0.00000000000E+00 -0.17234585621E+04  0.17234585622E+04  0.25500000920E-02 0.  1.
    10030    2    1    2    0    0  0.00000000000E+00  0.00000000000E+00 -0.15481542424E+04  0.18987628819E+04  0.10993265773E+04 0.  0.
        1    1    3    3  502    0  0.14204618935E+03 -0.48323438818E+03 -0.11542080776E+04  0.12593208012E+04  0.50400001928E-02 0.  1.
       -1    1    3    3    0  502 -0.14204618935E+03  0.48323438818E+03 -0.39394616478E+03  0.63944208072E+03  0.50400001928E-02 0. -1.
</event>
<event>
 5   0  0.7537480E-03  0.1105736E+04  0.7818609E-02  0.9199619E-01
       -2   -1    0    0    0  501  0.00000000000E+00  0.00000000000E+00  0.24423645568E+03  0.24423645569E+03  0.25500000920E-02 0. -1.
        2   -1    0    0  501    0  0.00000000000E+00  0.00000000000E+00 -0.12515040185E+04  0.12515040185E+04  0.25500000920E-02 0.  1.
    10030    2    1    2    0    0  0.00000000000E+00  0.00000000000E+00 -0.10072675628E+04  0.14957404742E+04  0.11057357835E+04 0.  0.
        1    1    3    3  502    0 -0.41490595079E+03 -0.12581076631E+03 -0.96768963019E+03  0.10603765922E+04  0.50400001928E-02 0.  1.
       -1    1    3    3    0  502  0.41490595079E+03  0.12581076631E+03 -0.39577932593E+02  0.43536388194E+03  0.50400001928E-02 0. -1.
</event>
<event>
 5   0  0.4598561E-03  0.1326372E+04  0.7818609E-02  0.9008910E-01
       -1   -1    0    0    0  501  0.00000000000E+00  0.00000000000E+00  0.66476648359E+03  0.66476648360E+03  0.50400001928E-02 0.  1.
        1   -1    0    0  501    0  0.00000000000E+00  0.00000000000E+00 -0.66160888097E+03  0.66160888099E+03  0.50400001928E-02 0. -1.
    10030    2    1    2    0    0  0.00000000000E+00  0.00000000000E+00  0.31576026129E+01  0.13263753646E+04  0.13263716061E+04 0.  0.
        2    1    3    3  502    0  0.13807406480E+03 -0.13867633259E+03  0.63523652620E+03  0.66469618384E+03  0.25500000920E-02 0.  1.
       -2    1    3    3    0  502 -0.13807406480E+03  0.13867633259E+03 -0.63207892359E+03  0.66167918075E+03  0.25500000920E-02 0. -1.
</event>
<event>
 5   0  0.2992375E-03  0.1066357E+04  0.7818609E-02  0.9238617E-01
        4   -1    0    0  501    0  0.00000000000E+00  0.00000000000E+00  0.48466441716E+03  0.48466608109E+03  0.12699999809E+01 0. -1.
       -4   -1    0    0    0  501  0.00000000000E+00  0.00000000000E+00 -0.58654578286E+03  0.58654715778E+03  0.12699999809E+01 0.  1.
    10030    2    1    2    0    0  0.00000000000E+00  0.00000000000E+00 -0.10188136570E+03  0.10712132389E+04  0.10663573465E+04 0.  0.
        4    1    3    3  502    0 -0.43199987629E+02 -0.52708614126E+03  0.17131048780E+02  0.52913242668E+03  0.12699999809E+01 0. -1.
       -4    1    3    3    0  502  0.43199987629E+02  0.52708614126E+03 -0.11901241448E+03  0.54208081218E+03  0.12699999809E+01 0.  1.
</event>
<event>
 5   0  0.7537480E-03  0.7506242E+03  0.7818609E-02  0.9634372E-01
       -2   -1    0    0    0  501  0.00000000000E+00  0.00000000000E+00  0.62094043503E+03  0.62094043504E+03  0.25500000920E-02 0. -1.
        2   -1    0    0  501    0  0.00000000000E+00  0.00000000000E+00 -0.22684812495E+03  0.22684812496E+03  0.25500000920E-02 0.  1.
    10030    2    1    2    0    0  0.00000000000E+00  0.00000000000E+00  0.39409231009E+03  0.84778856000E+03  0.75062420264E+03 0.  0.
        1    1    3    3  502    0 -0.85625826087E+02  0.20060397893E+03 -0.14791636263E+03  0.26353934965E+03  0.50400001928E-02 0.  1.
       -1    1    3    3    0  502  0.85625826087E+02 -0.20060397893E+03  0.54200867272E+03  0.58424921034E+03  0.50400001928E-02 0. -1.
</event>
<event>
 5   0  0.7766551E-03  0.1088490E+04  0.7818609E-02  0.9216483E-01
        2   -1    0    0  501    0  0.00000000000E+00  0.00000000000E+00  0.10882483076E+04  0.10882483076E+04  0.25500000920E-02 0. -1.
       -2   -1    0    0    0  501  0.00000000000E+00  0.00000000000E+00 -0.27218291773E+03  0.27218291774E+03  0.25500000920E-02 0.  1.
    10030    2    1    2    0    0  0.00000000000E+00  0.00000000000E+00  0.81606538986E+03  0.13604312253E+04  0.10884899624E+04 0.  0.
        5    1    3    3  502    0 -0.12886615981E+03 -0.17385098226E+03  0.10321363499E+04  0.10545891077E+04  0.46999998093E+01 0. -1.
       -5    1    3    3    0  502  0.12886615981E+03  0.17385098226E+03 -0.21607096005E+03  0.30584211769E+03  0.46999998093E+01 0.  1.
</event>
<event>
 5   0  0.7738497E-03  0.1072356E+04  0.7818609E-02  0.9232562E-01
       -2   -1    0    0    0  501  0.00000000000E+00  0.00000000000E+00  0.13870247179E+03  0.13870247182E+03  0.25500000920E-02 0.  1.
        2   -1    0    0  501    0  0.00000000000E+00  0.00000000000E+00 -0.20726891558E+04  0.20726891558E+04  0.25500000920E-02 0. -1.
    10030    2    1    2    0    0  0.00000000000E+00  0.00000000000E+00 -0.19339866840E+04  0.22113916276E+04  0.10723564877E+04 0.  0.
        4    1    3    3  502    0  0.18373128903E+03 -0.24524858014E+03 -0.18743088617E+04  0.18991944015E+04  0.12699999809E+01 0. -1.
       -4    1    3    3    0  502 -0.18373128903E+03  0.24524858014E+03 -0.59677822285E+02  0.31219722613E+03  0.12699999809E+01 0.  1.
</event>
<event>
 5   0  0.4641021E-03  0.1088741E+04  0.7818609E-02  0.9216236E-01
        1   -1    0    0  501    0  0.00000000000E+00  0.00000000000E+00  0.91680944607E+03  0.91680944608E+03  0.50400001928E-02 0. -1.
       -1   -1    0    0    0  501  0.00000000000E+00  0.00000000000E+00 -0.32322876398E+03  0.32322876402E+03  0.50400001928E-02 0.  1.
    10030    2    1    2    0    0  0.00000000000E+00  0.00000000000E+00  0.59358068208E+03  0.12400382101E+04  0.10887408950E+04 0.  0.
        1    1    3    3  502    0  0.44507025922E+02 -0.28435545048E+03  0.82306173312E+03  0.87193435196E+03  0.50400001928E-02 0. -1.
       -1    1    3    3    0  502 -0.44507025922E+02  0.28435545048E+03 -0.22948105104E+03  0.36810385815E+03  0.50400001928E-02 0.  1.
</event>
<event>
 5   0  0.7952121E-03  0.1098701E+04  0.7818609E-02  0.9206459E-01
       -2   -1    0    0    0  501  0.00000000000E+00  0.00000000000E+00  0.22990105202E+03  0.22990105204E+03  0.25500000920E-02 0. -1.
        2   -1    0    0  501    0  0.00000000000E+00  0.00000000000E+00 -0.13126784273E+04  0.13126784273E+04  0.25500000920E-02 0.  1.
    10030    2    1    2    0    0  0.00000000000E+00  0.00000000000E+00 -0.10827773753E+04  0.15425794794E+04  0.10987013269E+04 0.  0.
        3    1    3    3  502    0  0.53209946012E+03 -0.10787013425E+03 -0.65902650835E+03  0.85386284041E+03  0.10100000352E+00 0. -1.
       -3    1    3    3    0  502 -0.53209946012E+03  0.10787013425E+03 -0.42375086694E+03  0.68871663895E+03  0.10100000352E+00 0.  1.
</event>
<event>
 5   0  0.7537480E-03  0.8375895E+03  0.7818609E-02  0.9507147E-01
        2   -1    0    0  501    0  0.00000000000E+00  0.00000000000E+00  0.51198946446E+03  0.51198946447E+03  0.25500000920E-02 0.  1.
       -2   -1    0    0    0  501  0.00000000000E+00  0.00000000000E+00 -0.34256376449E+03  0.34256376450E+03  0.25500000920E-02 0. -1.
    10030    2    1    2    0    0  0.00000000000E+00  0.00000000000E+00  0.16942569996E+03  0.85455322897E+03  0.83758948975E+03 0.  0.
        1    1    3    3  502    0  0.39244353234E+03 -0.22171376248E+02 -0.62732397486E+02  0.39804377865E+03  0.50400001928E-02 0. -1.
       -1    1    3    3    0  502 -0.39244353234E+03  0.22171376248E+02  0.23215809745E+03  0.45650945032E+03  0.50400001928E-02 0.  1.
</event>
<event>
 5   0  0.4428114E-03  0.1043107E+04  0.7818609E-02  0.9262490E-01
        1   -1    0    0  501    0  0.00000000000E+00  0.00000000000E+00  0.67037918419E+03  0.67037918421E+03  0.50400001928E-02 0. -1.
       -1   -1    0    0    0  501  0.00000000000E+00  0.00000000000E+00 -0.40576733813E+03  0.40576733816E+03  0.50400001928E-02 0.  1.
    10030    2    1    2    0    0  0.00000000000E+00  0.00000000000E+00  0.26461184606E+03  0.10761465224E+04  0.10431068538E+04 0.  0.
        4    1    3    3  502    0  0.31922492125E+03  0.16674700325E+03  0.52149094868E+03  0.63376930810E+03  0.12699999809E+01 0. -1.
       -4    1    3    3    0  502 -0.31922492125E+03 -0.16674700325E+03 -0.25687910262E+03  0.44237721427E+03  0.12699999809E+01 0.  1.
</event>
<event>
 5   0  0.7952121E-03  0.1282659E+04  0.7818609E-02  0.9043431E-01
       -2   -1    0    0    0  501  0.00000000000E+00  0.00000000000E+00  0.25108017125E+03  0.25108017127E+03  0.25500000920E-02 0.  1.
        2   -1    0    0  501    0  0.00000000000E+00  0.00000000000E+00 -0.16381364163E+04  0.16381364163E+04  0.25500000920E-02 0. -1.
    10030    2    1    2    0    0  0.00000000000E+00  0.00000000000E+00 -0.13870562451E+04  0.18892165876E+04  0.12826590692E+04 0.  0.
        3    1    3    3  502    0  0.14732089416E+03  0.76166402589E+02  0.21894969877E+03  0.27467025236E+03  0.10100000352E+00 0.  1.
       -3    1    3    3    0  502 -0.14732089416E+03 -0.76166402589E+02 -0.16060059438E+04  0.16145463352E+04  0.10100000352E+00 0. -1.
</event>
<event>
 5   0  0.7537480E-03  0.1151114E+04  0.7818609E-02  0.9156756E-01
        2   -1    0    0  501    0  0.00000000000E+00  0.00000000000E+00  0.58703100974E+03  0.58703100975E+03  0.25500000920E-02 0. -1.
       -2   -1    0    0    0  501  0.00000000000E+00  0.00000000000E+00 -0.56430765647E+03  0.56430765647E+03  0.25500000920E-02 0.  1.
    10030    2    1    2    0    0  0.00000000000E+00  0.00000000000E+00  0.22723353278E+02  0.11513386662E+04  0.11511144051E+04 0.  0.
        1    1    3    3  502    0 -0.19710344050E+03 -0.43960000294E+03  0.32633279969E+03  0.58188574911E+03  0.50400001928E-02 0.  1.
       -1    1    3    3    0  502  0.19710344050E+03  0.43960000294E+03 -0.30360944641E+03  0.56945291711E+03  0.50400001928E-02 0. -1.
</event>
<event>
 5   0  0.4598561E-03  0.1095549E+04  0.7818609E-02  0.9209541E-01
        1   -1    0    0  501    0  0.00000000000E+00  0.00000000000E+00  0.10171696908E+04  0.10171696908E+04  0.50400001928E-02 0. -1.
       -1   -1    0    0    0  501  0.00000000000E+00  0.00000000000E+00 -0.29499194423E+03  0.29499194427E+03  0.50400001928E-02 0.  1.
    10030    2    1    2    0    0  0.00000000000E+00  0.00000000000E+00  0.72217774661E+03  0.13121616351E+04  0.10955489304E+04 0.  0.
        2    1    3    3  502    0  0.18204308842E+03 -0.22104586173E+03 -0.19820425471E+03  0.34826123187E+03  0.25500000920E-02 0.  1.
       -2    1    3    3    0  502 -0.18204308842E+03  0.22104586173E+03  0.92038200132E+03  0.96390040325E+03  0.25500000920E-02 0. -1.
</event>
<event>
 5   0  0.7766551E-03  0.7481790E+03  0.7818609E-02  0.9638212E-01
        2   -1    0    0  501    0  0.00000000000E+00  0.00000000000E+00  0.15345665999E+04  0.15345665999E+04  0.25500000920E-02 0.  1.
       -2   -1    0    0    0  501  0.00000000000E+00  0.00000000000E+00 -0.91193794279E+02  0.91193794315E+02  0.25500000920E-02 0. -1.
    10030    2    1    2    0    0  0.00000000000E+00  0.00000000000E+00  0.14433728057E+04  0.16257603943E+04  0.74817899156E+03 0.  0.
        5    1    3    3  502    0 -0.15034203558E+03 -0.33813039680E+03  0.60294734433E+03  0.70746200106E+03  0.46999998093E+01 0. -1.
       -5    1    3    3    0  502  0.15034203558E+03  0.33813039680E+03  0.84042546133E+03  0.91829839320E+03  0.46999998093E+01 0.  1.
</event>
<event>
 5   0  0.4641021E-03  0.1014077E+04  0.7818609E-02  0.9293239E-01
       -1   -1    0    0    0  501  0.00000000000E+00  0.00000000000E+00  0.49125499732E+03  0.49125499734E+03  0.50400001928E-02 0.  1.
        1   -1    0    0  501    0  0.00000000000E+00  0.00000000000E+00 -0.52332872862E+03  0.52332872864E+03  0.50400001928E-02 0. -1.
    10030    2    1    2    0    0  0.00000000000E+00  0.00000000000E+00 -0.32073731300E+02  0.10145837260E+04  0.10140766306E+04 0.  0.
        1    1    3    3  502    0  0.96971071120E+02  0.21395050949E+03  0.43353140155E+03  0.49307979608E+03  0.50400001928E-02 0.  1.
       -1    1    3    3    0  502 -0.96971071120E+02 -0.21395050949E+03 -0.46560513285E+03  0.52150392990E+03  0.50400001928E-02 0. -1.
</event>
<event>
 5   0  0.7537480E-03  0.1098827E+04  0.7818609E-02  0.9206336E-01
       -2   -1    0    0    0  501  0.00000000000E+00  0.00000000000E+00  0.28677260030E+03  0.28677260031E+03  0.25500000920E-02 0. -1.
        2   -1    0    0  501    0  0.00000000000E+00  0.00000000000E+00 -0.10525939286E+04  0.10525939286E+04  0.25500000920E-02 0.  1.
    10030    2    1    2    0    0  0.00000000000E+00  0.00000000000E+00 -0.76582132833E+03  0.13393665289E+04  0.10988268253E+04 0.  0.
        1    1    3    3  502    0  0.49979097013E+03  0.22210753886E+03 -0.44662488720E+03  0.70611370369E+03  0.50400001928E-02 0. -1.
       -1    1    3    3    0  502 -0.49979097013E+03 -0.22210753886E+03 -0.31919644113E+03  0.63325282526E+03  0.50400001928E-02 0.  1.
</event>
<event>
 5   0  0.7712816E-03  0.1090665E+04  0.7818609E-02  0.9214338E-01
        2   -1    0    0  501    0  0.00000000000E+00  0.00000000000E+00  0.16479894715E+04  0.16479894715E+04  0.25500000920E-02 0. -1.
       -2   -1    0    0    0  501  0.00000000000E+00  0.00000000000E+00 -0.18045488955E+03  0.18045488957E+03  0.25500000920E-02 0.  1.
    10030    2    1    2    0    0  0.00000000000E+00  0.00000000000E+00  0.14675345820E+04  0.18284443611E+04  0.10906654081E+04 0.  0.
        2    1    3    3  502    0  0.11264256120E+03 -0.46367508127E+03  0.29115685660E+03  0.55897696083E+03  0.25500000920E-02 0.  1.
       -2    1    3    3    0  502 -0.11264256120E+03  0.46367508127E+03  0.11763777254E+04  0.12694674003E+04  0.25500000920E-02 0. -1.
</event>
<event>
 5   0  0.4504740E-03  0.1112809E+04  0.7818609E-02  0.9192797E-01
        1   -1    0    0  501    0  0.00000000000E+00  0.00000000000E+00  0.52232532652E+03  0.52232532654E+03  0.50400001928E-02 0. -1.
       -1   -1    0    0    0  501  0.00000000000E+00  0.00000000000E+00 -0.59270708416E+03  0.59270708418E+03  0.50400001928E-02 0.  1.
    10030    2    1    2    0    0  0.00000000000E+00  0.00000000000E+00 -0.70381757640E+02  0.11150324107E+04  0.11128089167E+04 0.  0.
        5    1    3    3  502    0  0.20724570997E+03  0.20187225301E+03 -0.51138844560E+03  0.58757418521E+03  0.46999998093E+01 0.  1.
       -5    1    3    3    0  502 -0.20724570997E+03 -0.20187225301E+03  0.44100668796E+03  0.52745822551E+03  0.46999998093E+01 0. -1.
</event>
<event>
 5   0  0.4298101E-03  0.1097492E+04  0.7818609E-02  0.9207640E-01
        1   -1    0    0  501    0  0.00000000000E+00  0.00000000000E+00  0.88102628698E+03  0.88102628700E+03  0.50400001928E-02 0.  1.
       -1   -1    0    0    0  501  0.00000000000E+00  0.00000000000E+00 -0.34178567922E+03  0.34178567925E+03  0.50400001928E-02 0. -1.
    10030    2    1    2    0    0  0.00000000000E+00  0.00000000000E+00  0.53924060777E+03  0.12228119662E+04  0.10974919917E+04 0.  0.
        3    1    3    3  502    0 -0.13059070255E+02  0.12278092867E+03  0.86534762684E+03  0.87411224751E+03  0.10100000352E+00 0.  1.
       -3    1    3    3    0  502  0.13059070255E+02 -0.12278092867E+03 -0.32610701907E+03  0.34869971874E+03  0.10100000352E+00 0. -1.
</event>
<event>
 5   0  0.7952121E-03  0.1104774E+04  0.7818609E-02  0.9200551E-01
        2   -1    0    0  501    0  0.00000000000E+00  0.00000000000E+00  0.78859621521E+03  0.78859621522E+03  0.25500000920E-02 0.  1.
       -2   -1    0    0    0  501  0.00000000000E+00  0.00000000000E+00 -0.38692973941E+03  0.38692973942E+03  0.25500000920E-02 0. -1.
    10030    2    1    2    0    0  0.00000000000E+00  0.00000000000E+00  0.40166647580E+03  0.11755259546E+04  0.11047738738E+04 0.  0.
        3    1    3    3  502    0  0.14082829056E+02  0.24347422010E+03 -0.32654247425E+03  0.40756351605E+03  0.10100000352E+00 0. -1.
       -3    1    3    3    0  502 -0.14082829056E+02 -0.24347422010E+03  0.72820895005E+03  0.76796243858E+03  0.10100000352E+00 0.  1.
</event>
<event>
 5   0  0.7766551E-03  0.1087902E+04  0.7818609E-02  0.9217064E-01
        2   -1    0    0  501    0  0.00000000000E+00  0.00000000000E+00  0.21155134562E+04  0.21155134562E+04  0.25500000920E-02 0.  1.
       -2   -1    0    0    0  501  0.00000000000E+00  0.00000000000E+00 -0.13986341401E+03  0.13986341404E+03  0.25500000920E-02 0. -1.
    10030    2    1    2    0    0  0.00000000000E+00  0.00000000000E+00  0.19756500422E+04  0.22553768703E+04  0.10879024486E+04 0.  0.
        5    1    3    3  502    0  0.50177459707E+03  0.65933822529E+02  0.14010821062E+04  0.14896906301E+04  0.46999998093E+01 0. -1.
       -5    1    3    3    0  502 -0.50177459707E+03 -0.65933822529E+02  0.57456793601E+03  0.76568624012E+03  0.46999998093E+01 0.  1.
</event>
<event>
 5   0  0.4504740E-03  0.1105546E+04  0.7818609E-02  0.9199803E-01
       -1   -1    0    0    0  501  0.00000000000E+00  0.00000000000E+00  0.33937888522E+03  0.33937888526E+03  0.50400001928E-02 0.  1.
        1   -1    0    0  501    0  0.00000000000E+00  0.00000000000E+00 -0.90034519071E+03  0.90034519072E+03  0.50400001928E-02 0. -1.
    10030    2    1    2    0    0  0.00000000000E+00  0.00000000000E+00 -0.56096630548E+03  0.12397240760E+04  0.11055462852E+04 0.  0.
        5    1    3    3  502    0 -0.12615928170E+03 -0.40716747059E+03 -0.67509399163E+03  0.79842062912E+03  0.46999998093E+01 0. -1.
       -5    1    3    3    0  502  0.12615928170E+03  0.40716747059E+03  0.11412768615E+03  0.44130344686E+03  0.46999998093E+01 0.  1.
</event>
<event>
 5   0  0.7537480E-03  0.1086290E+04  0.7818609E-02  0.9218659E-01
       -2   -1    0    0    0  501  0.00000000000E+00  0.00000000000E+00  0.20133373578E+03  0.20133373580E+03  0.25500000920E-02 0.  1.
        2   -1    0    0  501    0  0.00000000000E+00  0.00000000000E+00 -0.14652600996E+04  0.14652600996E+04  0.25500000920E-02 0. -1.
    10030    2    1    2    0    0  0.00000000000E+00  0.00000000000E+00 -0.12639263639E+04  0.16665938354E+04  0.10862896295E+04 0.  0.
        1    1    3    3  502    0  0.53144151751E+03 -0.86218878481E+02 -0.74198318036E+03  0.91673486980E+03  0.50400001928E-02 0. -1.
       -1    1    3    3    0  502 -0.53144151751E+03  0.86218878481E+02 -0.52194318350E+03  0.74985896565E+03  0.50400001928E-02 0.  1.
</event>
<event>
 5   0  0.4641021E-03  0.1128572E+04  0.7818609E-02  0.9177783E-01
       -1   -1    0    0    0  501  0.00000000000E+00  0.00000000000E+00  0.33149509661E+03  0.33149509665E+03  0.50400001928E-02 0.  1.
        1   -1    0    0  501    0  0.00000000000E+00  0.00000000000E+00 -0.96055282220E+03  0.96055282221E+03  0.50400001928E-02 0. -1.
    10030    2    1    2    0    0  0.00000000000E+00  0.00000000000E+00 -0.62905772559E+03  0.12920479189E+04  0.11285717534E+04 0.  0.
        1    1    3    3  502    0  0.22961271522E+03 -0.32517962873E+03 -0.77240502052E+03  0.86894954150E+03  0.50400001928E-02 0. -1.
       -1    1    3    3    0  502 -0.22961271522E+03  0.32517962873E+03  0.14334729493E+03  0.42309837735E+03  0.50400001928E-02 0.  1.
</event>
<event>
 5   0  0.7952121E-03  0.1113210E+04  0.7818609E-02  0.9192411E-01
       -2   -1    0    0    0  501  0.00000000000E+00  0.00000000000E+00  0.21470814159E+03  0.21470814161E+03  0.25500000920E-02 0.  1.
        2   -1    0    0  501    0  0.00000000000E+00  0.00000000000E+00 -0.14429310121E+04  0.14429310121E+04  0.25500000920E-02 0. -1.
    10030    2    1    2    0    0  0.00000000000E+00  0.00000000000E+00 -0.12282228705E+04  0.16576391537E+04  0.11132098384E+04 0.  0.
        3    1    3    3  502    0 -0.40420065107E+03  0.38140517732E+03 -0.66027118145E+03  0.86302150545E+03  0.10100000352E+00 0.  1.
       -3    1    3    3    0  502  0.40420065107E+03 -0.38140517732E+03 -0.56795168903E+03  0.79461764823E+03  0.10100000352E+00 0. -1.
</event>
<event>
 5   0  0.7738497E-03  0.1142986E+04  0.7818609E-02  0.9164279E-01
        2   -1    0    0  501    0  0.00000000000E+00  0.00000000000E+00  0.33201580901E+03  0.33201580902E+03  0.25500000920E-02 0. -1.
       -2   -1    0    0    0  501  0.00000000000E+00  0.00000000000E+00 -0.98370024060E+03  0.98370024060E+03  0.25500000920E-02 0.  1.
    10030    2    1    2    0    0  0.00000000000E+00  0.00000000000E+00 -0.65168443159E+03  0.13157160496E+04  0.11429856188E+04 0.  0.
        4    1    3    3  502    0  0.22285333708E+02 -0.63591917563E+02 -0.97910970906E+03  0.98142651449E+03  0.12699999809E+01 0.  1.
       -4    1    3    3    0  502 -0.22285333708E+02  0.63591917563E+02  0.32742527747E+03  0.33428953514E+03  0.12699999809E+01 0. -1.
</event>
<event>
 5   0  0.7712816E-03  0.1105084E+04  0.7818609E-02  0.9200251E-01
       -2   -1    0    0    0  501  0.00000000000E+00  0.00000000000E+00  0.90375676761E+03  0.90375676761E+03  0.25500000920E-02 0.  1.
        2   -1    0    0  501    0  0.00000000000E+00  0.00000000000E+00 -0.33781514606E+03  0.33781514607E+03  0.25500000920E-02 0. -1.
    10030    2    1    2    0    0  0.00000000000E+00  0.00000000000E+00  0.56594162154E+03  0.12415719137E+04  0.11050841135E+04 0.  0.
        2    1    3    3  502    0 -0.15531845858E+03  0.38179951096E+03  0.69639773915E+03  0.80923698707E+03  0.25500000920E-02 0.  1.
       -2    1    3    3    0  502  0.15531845858E+03 -0.38179951096E+03 -0.13045611760E+03  0.43233492662E+03  0.25500000920E-02 0. -1.
</event>
<event>
 5   0  0.7712816E-03  0.1148910E+04  0.7818609E-02  0.9158789E-01
       -2   -1    0    0    0  501  0.00000000000E+00  0.00000000000E+00  0.21644897867E+03  0.21644897868E+03  0.25500000920E-02 0. -1.
        2   -1    0    0  501    0  0.00000000000E+00  0.00000000000E+00 -0.15246032900E+04  0.15246032900E+04  0.25500000920E-02 0.  1.
    10030    2    1    2    0    0  0.00000000000E+00  0.00000000000E+00 -0.13081543113E+04  0.17410522687E+04  0.11489104839E+04 0.  0.
        2    1    3    3  502    0 -0.30026629366E+03  0.16015023809E+03 -0.13554131098E+04  0.13974808206E+04  0.25500000920E-02 0.  1.
       -2    1    3    3    0  502  0.30026629366E+03 -0.16015023809E+03  0.47258798460E+02  0.34357144804E+03  0.25500000920E-02 0. -1.
</event>
<event>
 5   0  0.7537480E-03  0.1066464E+04  0.7818609E-02  0.9238510E-01
        2   -1    0    0  501    0  0.00000000000E+00  0.00000000000E+00  0.15526049051E+03  0.15526049053E+03  0.25500000920E-02 0.  1.
       -2   -1    0    0    0  501  0.00000000000E+00  0.00000000000E+00 -0.18313491836E+04  0.18313491836E+04  0.25500000920E-02 0. -1.
    10030    2    1    2    0    0  0.00000000000E+00  0.00000000000E+00 -0.16760886931E+04  0.19866096741E+04  0.10664636376E+04 0.  0.
        1    1    3    3  502    0  0.56124682824E+01 -0.45210195824E+03 -0.13646226507E+04  0.14375752708E+04  0.50400001928E-02 0. -1.
       -1    1    3    3    0  502 -0.56124682824E+01  0.45210195824E+03 -0.31146604241E+03  0.54903440333E+03  0.50400001928E-02 0.  1.
</event>
<event>
 5   0  0.4504740E-03  0.1214082E+04  0.7818609E-02  0.9100619E-01
       -1   -1    0    0    0  501  0.00000000000E+00  0.00000000000E+00  0.45498787899E+03  0.45498787902E+03  0.50400001928E-02 0.  1.
        1   -1    0    0  501    0  0.00000000000E+00  0.00000000000E+00 -0.80990929859E+03  0.80990929861E+03  0.50400001928E-02 0. -1.
    10030    2    1    2    0    0  0.00000000000E+00  0.00000000000E+00 -0.35492141960E+03  0.12648971776E+04  0.12140822278E+04 0.  0.
        5    1    3    3  502    0 -0.44039564280E+03 -0.17985768483E+03 -0.57030997159E+03  0.74267938081E+03  0.46999998093E+01 0. -1.
       -5    1    3    3    0  502  0.44039564280E+03  0.17985768483E+03  0.21538855199E+03  0.52221779682E+03  0.46999998093E+01 0.  1.
</event>
<event>
 5   0  0.4641021E-03  0.1141046E+04  0.7818609E-02  0.9166084E-01
        1   -1    0    0  501    0  0.00000000000E+00  0.00000000000E+00  0.64487263272E+03  0.64487263274E+03  0.50400001928E-02 0.  1.
       -1   -1    0    0    0  501  0.00000000000E+00  0.00000000000E+00 -0.50474517276E+03  0.50474517278E+03  0.50400001928E-02 0. -1.
    10030    2    1    2    0    0  0.00000000000E+00  0.00000000000E+00  0.14012745996E+03  0.11496178055E+04  0.11410457457E+04 0.  0.
        1    1    3    3  502    0 -0.24027688835E+03  0.62142961027E+02 -0.44750907836E+03  0.51172170750E+03  0.50400001928E-02 0. -1.
       -1    1    3    3    0  502  0.24027688835E+03 -0.62142961027E+02  0.58763653832E+03  0.63789609803E+03  0.50400001928E-02 0.  1.
</event>
<event>
 5   0  0.7537480E-03  0.1099152E+04  0.7818609E-02  0.9206019E-01
        2   -1    0    0  501    0  0.00000000000E+00  0.00000000000E+00  0.82849438460E+03  0.82849438461E+03  0.25500000920E-02 0.  1.
       -2   -1    0    0    0  501  0.00000000000E+00  0.00000000000E+00 -0.36455756322E+03  0.36455756322E+03  0.25500000920E-02 0. -1.
    10030    2    1    2    0    0  0.00000000000E+00  0.00000000000E+00  0.46393682139E+03  0.11930519478E+04  0.10991522078E+04 0.  0.
        1    1    3    3  502    0  0.42781643506E+03 -0.31915856634E+03  0.37409251702E+03  0.65179314502E+03  0.50400001928E-02 0.  1.
       -1    1    3    3    0  502 -0.42781643506E+03  0.31915856634E+03  0.89844304365E+02  0.54125880281E+03  0.50400001928E-02 0. -1.
</event>
<event>
 5   0  0.4598561E-03  0.1048659E+04  0.7818609E-02  0.9256729E-01
        1   -1    0    0  501    0  0.00000000000E+00  0.00000000000E+00  0.14030964353E+04  0.14030964353E+04  0.50400001928E-02 0.  1.
       -1   -1    0    0    0  501  0.00000000000E+00  0.00000000000E+00 -0.19593912580E+03  0.19593912587E+03  0.50400001928E-02 0. -1.
    10030    2    1    2    0    0  0.00000000000E+00  0.00000000000E+00  0.12071573095E+04  0.15990355612E+04  0.10486591229E+04 0.  0.
        2    1    3    3  502    0  0.15240394707E+02 -0.13824150622E+03 -0.16729986751E+03  0.21755971444E+03  0.25500000920E-02 0. -1.
       -2    1    3    3    0  502 -0.15240394707E+02  0.13824150622E+03  0.13744571770E+04  0.13814758467E+04  0.25500000920E-02 0.  1.
</event>
<event>
 5   0  0.4298101E-03  0.9807826E+03  0.7818609E-02  0.9329877E-01
       -1   -1    0    0    0  501  0.00000000000E+00  0.00000000000E+00  0.19935887040E+03  0.19935887046E+03  0.50400001928E-02 0. -1.
        1   -1    0    0  501    0  0.00000000000E+00  0.00000000000E+00 -0.12062851759E+04  0.12062851759E+04  0.50400001928E-02 0.  1.
    10030    2    1    2    0    0  0.00000000000E+00  0.00000000000E+00 -0.10069263055E+04  0.14056440463E+04  0.98078264685E+03 0.  0.
        3    1    3    3  502    0 -0.21670315039E+02 -0.75777944335E+02 -0.11971485245E+04  0.11997401799E+04  0.10100000352E+00 0.  1.
       -3    1    3    3    0  502  0.21670315039E+02  0.75777944335E+02  0.19022221902E+03  0.20590386643E+03  0.10100000352E+00 0. -1.
</event>
<event>
 5   0  0.4428114E-03  0.1124105E+04  0.7818609E-02  0.9182011E-01
        1   -1    0    0  501    0  0.00000000000E+00  0.00000000000E+00  0.12251085491E+04  0.12251085491E+04  0.50400001928E-02 0.  1.
       -1   -1    0    0    0  501  0.00000000000E+00  0.00000000000E+00 -0.25785710711E+03  0.25785710716E+03  0.50400001928E-02 0. -1.
    10030    2    1    2    0    0  0.00000000000E+00  0.00000000000E+00  0.96725144202E+03  0.14829656563E+04  0.11241048820E+04 0.  0.
        4    1    3    3  502    0 -0.11907671284E+03  0.32191146712E+03  0.10707919934E+04  0.11244569188E+04  0.12699999809E+01 0.  1.
       -4    1    3    3    0  502  0.11907671284E+03 -0.32191146712E+03 -0.10354055135E+03  0.35850873753E+03  0.12699999809E+01 0. -1.
</event>
<event>
 5   0  0.7537480E-03  0.1103025E+04  0.7818609E-02  0.9202249E-01
        2   -1    0    0  501    0  0.00000000000E+00  0.00000000000E+00  0.14551363074E+04  0.14551363074E+04  0.25500000920E-02 0. -1.
       -2   -1    0    0    0  501  0.00000000000E+00  0.00000000000E+00 -0.20902906938E+03  0.20902906940E+03  0.25500000920E-02 0.  1.
    10030    2    1    2    0    0  0.00000000000E+00  0.00000000000E+00  0.12461072380E+04  0.16641653768E+04  0.11030245476E+04 0.  0.
        1    1    3    3  502    0  0.31235335720E+03 -0.22887692139E+03  0.30569439327E+02  0.38843758256E+03  0.50400001928E-02 0.  1.
       -1    1    3    3    0  502 -0.31235335720E+03  0.22887692139E+03  0.12155377987E+04  0.12757277942E+04  0.50400001928E-02 0. -1.
</event>
<event>
 5   0  0.4598561E-03  0.1112897E+04  0.7818609E-02  0.9192712E-01
       -1   -1    0    0    0  501  0.00000000000E+00  0.00000000000E+00  0.10495063428E+04  0.10495063428E+04  0.50400001928E-02 0.  1.
        1   -1    0    0  501    0  0.00000000000E+00  0.00000000000E+00 -0.29502899235E+03  0.29502899239E+03  0.50400001928E-02 0. -1.
    10030    2    1    2    0    0  0.00000000000E+00  0.00000000000E+00  0.75447735045E+03  0.13445353352E+04  0.11128967586E+04 0.  0.
        2    1    3    3  502    0 -0.13805556493E+03 -0.53397714425E+03  0.28809897183E+03  0.62224749671E+03  0.25500000920E-02 0. -1.
       -2    1    3    3    0  502  0.13805556493E+03  0.53397714425E+03  0.46637837863E+03  0.72228783850E+03  0.25500000920E-02 0.  1.
</event>
<event>
 5   0  0.4298101E-03  0.1101365E+04  0.7818609E-02  0.9203863E-01
       -1   -1    0    0    0  501  0.00000000000E+00  0.00000000000E+00  0.11816275738E+03  0.11816275749E+03  0.50400001928E-02 0. -1.
        1   -1    0    0  501    0  0.00000000000E+00  0.00000000000E+00 -0.25663848715E+04  0.25663848715E+04  0.50400001928E-02 0.  1.
    10030    2    1    2    0    0  0.00000000000E+00  0.00000000000E+00 -0.24482221141E+04  0.26845476290E+04  0.11013648134E+04 0.  0.
        3    1    3    3  502    0  0.49679919415E+03 -0.23002841985E+03 -0.13689016986E+04  0.14743182777E+04  0.10100000352E+00 0. -1.
       -3    1    3    3    0  502 -0.49679919415E+03  0.23002841985E+03 -0.10793204155E+04  0.12102293513E+04  0.10100000352E+00 0.  1.
</event>
<event>
 5   0  0.4504740E-03  0.1071315E+04  0.7818609E-02  0.9233610E-01
       -1   -1    0    0    0  501  0.00000000000E+00  0.00000000000E+00  0.29281108244E+03  0.29281108248E+03  0.50400001928E-02 0.  1.
        1   -1    0    0  501    0  0.00000000000E+00  0.00000000000E+00 -0.97991179887E+03  0.97991179889E+03  0.50400001928E-02 0. -1.
    10030    2    1    2    0    0  0.00000000000E+00  0.00000000000E+00 -0.68710071644E+03  0.12727228814E+04  0.10713151442E+04 0.  0.
        5    1    3    3  502    0  0.23629023665E+03 -0.30335657387E+03 -0.78654656576E+03  0.87552034639E+03  0.46999998093E+01 0. -1.
       -5    1    3    3    0  502 -0.23629023665E+03  0.30335657387E+03  0.99445849316E+02  0.39720253497E+03  0.46999998093E+01 0.  1.
</event>
<event>
 5   0  0.7537480E-03  0.1101721E+04  0.7818609E-02  0.9203516E-01
        2   -1    0    0  501    0  0.00000000000E+00  0.00000000000E+00  0.39964948698E+03  0.39964948699E+03  0.25500000920E-02 0.  1.
       -2   -1    0    0    0  501  0.00000000000E+00  0.00000000000E+00 -0.75928319542E+03  0.75928319542E+03  0.25500000920E-02 0. -1.
    10030    2    1    2    0    0  0.00000000000E+00  0.00000000000E+00 -0.35963370843E+03  0.11589326824E+04  0.11017207260E+04 0.  0.
        1    1    3    3  502    0  0.50219711124E+03  0.13392352975E+03 -0.37180392417E+03  0.63904272816E+03  0.50400001928E-02 0. -1.
       -1    1    3    3    0  502 -0.50219711124E+03 -0.13392352975E+03  0.12170215734E+02  0.51988995425E+03  0.50400001928E-02 0.  1.
</event>
<event>
 5   0  0.2992375E-03  0.1116920E+04  0.7818609E-02  0.9188855E-01
        3   -1    0    0  501    0  0.00000000000E+00  0.00000000000E+00  0.68959028336E+03  0.68959029076E+03  0.10100000352E+00 0.  1.
       -3   -1    0    0    0  501  0.00000000000E+00  0.00000000000E+00 -0.45226525618E+03  0.45226526746E+03  0.10100000352E+00 0. -1.
    10030    2    1    2    0    0  0.00000000000E+00  0.00000000000E+00  0.23732502718E+03  0.11418555582E+04  0.11169202959E+04 0.  0.
        1    1    3    3  502    0  0.53142916395E+03 -0.15169960515E+03  0.36570322243E+02  0.55386561095E+03  0.50400001928E-02 0. -1.
       -1    1    3    3    0  502 -0.53142916395E+03  0.15169960515E+03  0.20075470494E+03  0.58798994726E+03  0.50400001928E-02 0.  1.
</event>
<event>
 5   0  0.4504740E-03  0.1144555E+04  0.7818609E-02  0.9162822E-01
        1   -1    0    0  501    0  0.00000000000E+00  0.00000000000E+00  0.93567138197E+03  0.93567138199E+03  0.50400001928E-02 0.  1.
       -1   -1    0    0    0  501  0.00000000000E+00  0.00000000000E+00 -0.35001755771E+03  0.35001755775E+03  0.50400001928E-02 0. -1.
    10030    2    1    2    0    0  0.00000000000E+00  0.00000000000E+00  0.58565382426E+03  0.12856889397E+04  0.11445547815E+04 0.  0.
        5    1    3    3  502    0  0.44409909330E+03  0.34800452584E+03  0.18538681977E+03  0.59390362654E+03  0.46999998093E+01 0. -1.
       -5    1    3    3    0  502 -0.44409909330E+03 -0.34800452584E+03  0.40026700448E+03  0.69178531319E+03  0.46999998093E+01 0.  1.
</event>
<event>
 5   0  0.7712816E-03  0.1132450E+04  0.7818609E-02  0.9174128E-01
        2   -1    0    0  501    0  0.00000000000E+00  0.00000000000E+00  0.20903608154E+04  0.20903608154E+04  0.25500000920E-02 0.  1.
       -2   -1    0    0    0  501  0.00000000000E+00  0.00000000000E+00 -0.15337582961E+03  0.15337582963E+03  0.25500000920E-02 0. -1.
    10030    2    1    2    0    0  0.00000000000E+00  0.00000000000E+00  0.19369849857E+04  0.22437366450E+04  0.11324501300E+04 0.  0.
        2    1    3    3  502    0 -0.36201575109E+01 -0.78901938419E+02 -0.14240724445E+03  0.16284484856E+03  0.25500000920E-02 0. -1.
       -2    1    3    3    0  502  0.36201575109E+01  0.78901938419E+02  0.20793922302E+04  0.20808917964E+04  0.25500000920E-02 0.  1.
</event>
<event>
 5   0  0.4598561E-03  0.1059640E+04  0.7818609E-02  0.9245448E-01
        1   -1    0    0  501    0  0.00000000000E+00  0.00000000000E+00  0.95681368371E+03  0.95681368373E+03  0.50400001928E-02 0. -1.
       -1   -1    0    0    0  501  0.00000000000E+00  0.00000000000E+00 -0.29337919801E+03  0.29337919805E+03  0.50400001928E-02 0.  1.
    10030    2    1    2    0    0  0.00000000000E+00  0.00000000000E+00  0.66343448570E+03  0.12501928818E+04  0.10596399977E+04 0.  0.
        2    1    3    3  502    0 -0.29958006193E+03  0.36396176870E+02  0.84549991909E+03  0.89774328646E+03  0.25500000920E-02 0. -1.
       -2    1    3    3    0  502  0.29958006193E+03 -0.36396176870E+02 -0.18206543339E+03  0.35244959532E+03  0.25500000920E-02 0.  1.
</event>
<event>
 5   0  0.7766551E-03  0.1071610E+04  0.7818609E-02  0.9233313E-01
       -2   -1    0    0    0  501  0.00000000000E+00  0.00000000000E+00  0.25307277306E+03  0.25307277307E+03  0.25500000920E-02 0.  1.
        2   -1    0    0  501    0  0.00000000000E+00  0.00000000000E+00 -0.11344053556E+04  0.11344053556E+04  0.25500000920E-02 0. -1.
    10030    2    1    2    0    0  0.00000000000E+00  0.00000000000E+00 -0.88133258254E+03  0.13874781287E+04  0.10716102074E+04 0.  0.
        5    1    3    3  502    0  0.46360304817E+02 -0.45760222914E+03 -0.84864095548E+02  0.46773184913E+03  0.46999998093E+01 0.  1.
       -5    1    3    3    0  502 -0.46360304817E+02  0.45760222914E+03 -0.79646848699E+03  0.91974627955E+03  0.46999998093E+01 0. -1.
</event>
<event>
 5   0  0.7738497E-03  0.1004471E+04  0.7818609E-02  0.9303655E-01
       -2   -1    0    0    0  501  0.00000000000E+00  0.00000000000E+00  0.32645910984E+03  0.32645910985E+03  0.25500000920E-02 0. -1.
        2   -1    0    0  501    0  0.00000000000E+00  0.00000000000E+00 -0.77265582633E+03  0.77265582633E+03  0.25500000920E-02 0.  1.
    10030    2    1    2    0    0  0.00000000000E+00  0.00000000000E+00 -0.44619671649E+03  0.10991149362E+04  0.10044710713E+04 0.  0.
        4    1    3    3  502    0  0.26948864917E+03 -0.40688552386E+03 -0.35284085630E+03  0.60222773461E+03  0.12699999809E+01 0.  1.
       -4    1    3    3    0  502 -0.26948864917E+03  0.40688552386E+03 -0.93355860189E+02  0.49688720158E+03  0.12699999809E+01 0. -1.
</event>
<event>
 5   0  0.7738497E-03  0.1121712E+04  0.7818609E-02  0.9184284E-01
       -2   -1    0    0    0  501  0.00000000000E+00  0.00000000000E+00  0.13707569444E+03  0.13707569447E+03  0.25500000920E-02 0.  1.
        2   -1    0    0  501    0  0.00000000000E+00  0.00000000000E+00 -0.22947878173E+04  0.22947878173E+04  0.25500000920E-02 0. -1.
    10030    2    1    2    0    0  0.00000000000E+00  0.00000000000E+00 -0.21577121229E+04  0.24318635118E+04  0.11217123226E+04 0.  0.
        4    1    3    3  502    0 -0.20716557693E+03 -0.42351351470E+03 -0.42028317823E+03  0.63160180193E+03  0.12699999809E+01 0.  1.
       -4    1    3    3    0  502  0.20716557693E+03  0.42351351470E+03 -0.17374289446E+04  0.18002617099E+04  0.12699999809E+01 0. -1.
</event>
<event>
 5   0  0.4504740E-03  0.1080764E+04  0.7818609E-02  0.9224146E-01
       -1   -1    0    0    0  501  0.00000000000E+00  0.00000000000E+00  0.54949376859E+03  0.54949376861E+03  0.50400001928E-02 0.  1.
        1   -1    0    0  501    0  0.00000000000E+00  0.00000000000E+00 -0.53142176400E+03  0.53142176403E+03  0.50400001928E-02 0. -1.
    10030    2    1    2    0    0  0.00000000000E+00  0.00000000000E+00  0.18072004586E+02  0.10809155326E+04  0.10807644477E+04 0.  0.
        5    1    3    3  502    0 -0.52391057882E+03 -0.89524912411E+02 -0.88414025205E+02  0.53882848328E+03  0.46999998093E+01 0. -1.
       -5    1    3    3    0  502  0.52391057882E+03  0.89524912411E+02  0.10648602979E+03  0.54208704936E+03  0.46999998093E+01 0.  1.
</event>
<event>
 5   0  0.4504740E-03  0.1084878E+04  0.7818609E-02  0.9220057E-01
        1   -1    0    0  501    0  0.00000000000E+00  0.00000000000E+00  0.19285225901E+04  0.19285225901E+04  0.50400001928E-02 0. -1.
       -1   -1    0    0    0  501  0.00000000000E+00  0.00000000000E+00 -0.15257278992E+03  0.15257279000E+03  0.50400001928E-02 0.  1.
    10030    2    1    2    0    0  0.00000000000E+00  0.00000000000E+00  0.17759498001E+04  0.20810953801E+04  0.10848780062E+04 0.  0.
        5    1    3    3  502    0  0.52673013717E+03 -0.12088628709E+03  0.97712521941E+03  0.11166261309E+04  0.46999998093E+01 0. -1.
       -5    1    3    3    0  502 -0.52673013717E+03  0.12088628709E+03  0.79882458073E+03  0.96446924917E+03  0.46999998093E+01 0.  1.
</event>
<event>
 5   0  0.4504740E-03  0.1104750E+04  0.7818609E-02  0.9200575E-01
        1   -1    0    0  501    0  0.00000000000E+00  0.00000000000E+00  0.31126547400E+03  0.31126547404E+03  0.50400001928E-02 0. -1.
       -1   -1    0    0    0  501  0.00000000000E+00  0.00000000000E+00 -0.98025008710E+03  0.98025008711E+03  0.50400001928E-02 0.  1.
    10030    2    1    2    0    0  0.00000000000E+00  0.00000000000E+00 -0.66898461309E+03  0.12915155612E+04  0.11047497600E+04 0.  0.
        5    1    3    3  502    0  0.29260975135E+03  0.27310603403E+01  0.21318068366E+03  0.36207184254E+03  0.46999998093E+01 0. -1.
       -5    1    3    3    0  502 -0.29260975135E+03 -0.27310603403E+01 -0.88216529676E+03  0.92944371862E+03  0.46999998093E+01 0.  1.
</event>
<event>
 5   0  0.7738497E-03  0.1130056E+04  0.7818609E-02  0.9176383E-01
        2   -1    0    0  501    0  0.00000000000E+00  0.00000000000E+00  0.60792444846E+03  0.60792444846E+03  0.25500000920E-02 0.  1.
       -2   -1    0    0    0  501  0.00000000000E+00  0.00000000000E+00 -0.52515809985E+03  0.52515809985E+03  0.25500000920E-02 0. -1.
    10030    2    1    2    0    0  0.00000000000E+00  0.00000000000E+00  0.82766348609E+02  0.11330825483E+04  0.11300556592E+04 0.  0.
        4    1    3    3  502    0 -0.17126993685E+03  0.33172511070E+03 -0.38387535092E+03  0.53547813988E+03  0.12699999809E+01 0. -1.
       -4    1    3    3    0  502  0.17126993685E+03 -0.33172511070E+03  0.46664169953E+03  0.59760440844E+03  0.12699999809E+01 0.  1.
</event>
<event>
 5   0  0.7766551E-03  0.1002858E+04  0.7818609E-02  0.9305415E-01
       -2   -1    0    0    0  501  0.00000000000E+00  0.00000000000E+00  0.11298290275E+03  0.11298290278E+03  0.25500000920E-02 0.  1.
        2   -1    0    0  501    0  0.00000000000E+00  0.00000000000E+00 -0.22253915756E+04  0.22253915756E+04  0.25500000920E-02 0. -1.
    10030    2    1    2    0    0  0.00000000000E+00  0.00000000000E+00 -0.21124086729E+04  0.23383744784E+04  0.10028583150E+04 0.  0.
        5    1    3    3  502    0 -0.46239798217E+03  0.18549683413E+03 -0.11878611128E+04  0.12881215326E+04  0.46999998093E+01 0. -1.
       -5    1    3    3    0  502  0.46239798217E+03 -0.18549683413E+03 -0.92454756003E+03  0.10502529458E+04  0.46999998093E+01 0.  1.
</event>
<event>
 5   0  0.4298101E-03  0.1084370E+04  0.7818609E-02  0.9220561E-01
       -1   -1    0    0    0  501  0.00000000000E+00  0.00000000000E+00  0.27085109450E+03  0.27085109455E+03  0.50400001928E-02 0.  1.
        1   -1    0    0  501    0  0.00000000000E+00  0.00000000000E+00 -0.10853364089E+04  0.10853364089E+04  0.50400001928E-02 0. -1.
    10030    2    1    2    0    0  0.00000000000E+00  0.00000000000E+00 -0.81448531440E+03  0.13561875035E+04  0.10843699632E+04 0.  0.
        3    1    3    3  502    0 -0.31973401935E+03 -0.37839485789E+03 -0.68282155991E+03  0.84359812974E+03  0.10100000352E+00 0. -1.
       -3    1    3    3    0  502  0.31973401935E+03  0.37839485789E+03 -0.13166375448E+03  0.51258937372E+03  0.10100000352E+00 0.  1.
</event>
<event>
 5   0  0.7738497E-03  0.1069926E+04  0.7818609E-02  0.9235010E-01
       -2   -1    0    0    0  501  0.00000000000E+00  0.00000000000E+00  0.55621940894E+03  0.55621940895E+03  0.25500000920E-02 0. -1.
        2   -1    0    0  501    0  0.00000000000E+00  0.00000000000E+00 -0.51451939770E+03  0.51451939771E+03  0.25500000920E-02 0.  1.
    10030    2    1    2    0    0  0.00000000000E+00  0.00000000000E+00  0.41700011237E+02  0.10707388067E+04  0.10699264933E+04 0.  0.
        4    1    3    3  502    0  0.39452683528E+03 -0.35905824056E+03 -0.19303000065E+02  0.53380564121E+03  0.12699999809E+01 0. -1.
       -4    1    3    3    0  502 -0.39452683528E+03  0.35905824056E+03  0.61003011302E+02  0.53693316545E+03  0.12699999809E+01 0.  1.
</event>
<event>
 5   0  0.7537480E-03  0.1118750E+04  0.7818609E-02  0.9187107E-01
       -2   -1    0    0    0  501  0.00000000000E+00  0.00000000000E+00  0.13101125067E+04  0.13101125067E+04  0.25500000920E-02 0. -1.
        2   -1    0    0  501    0  0.00000000000E+00  0.00000000000E+00 -0.23883468260E+03  0.23883468261E+03  0.25500000920E-02 0.  1.
    10030    2    1    2    0    0  0.00000000000E+00  0.00000000000E+00  0.10712778241E+04  0.15489471893E+04  0.11187498464E+04 0.  0.
        1    1    3    3  502    0 -0.98333562191E+02  0.41678585751E+03  0.37359835707E+02  0.42985543828E+03  0.50400001928E-02 0.  1.
       -1    1    3    3    0  502  0.98333562191E+02 -0.41678585751E+03  0.10339179884E+04  0.11190917510E+04  0.50400001928E-02 0. -1.
</event>
<event>
 5   0  0.4641021E-03  0.1110026E+04  0.7818609E-02  0.9195475E-01
       -1   -1    0    0    0  501  0.00000000000E+00  0.00000000000E+00  0.64237448981E+03  0.64237448983E+03  0.50400001928E-02 0. -1.
        1   -1    0    0  501    0  0.00000000000E+00  0.00000000000E+00 -0.47953215645E+03  0.47953215647E+03  0.50400001928E-02 0.  1.
    10030    2    1    2    0    0  0.00000000000E+00  0.00000000000E+00  0.16284233337E+03  0.11219066463E+04  0.11100256292E+04 0.  0.
        1    1    3    3  502    0  0.16457577920E+03  0.37398986512E+03 -0.29821282123E+03  0.50585026746E+03  0.50400001928E-02 0.  1.
       -1    1    3    3    0  502 -0.16457577920E+03 -0.37398986512E+03  0.46105515460E+03  0.61605637885E+03  0.50400001928E-02 0. -1.
</event>
<event>
 5   0  0.7952121E-03  0.8476079E+03  0.7818609E-02  0.9493553E-01
       -2   -1    0    0    0  501  0.00000000000E+00  0.00000000000E+00  0.34227786240E+03  0.34227786241E+03  0.25500000920E-02 0. -1.
        2   -1    0    0  501    0  0.00000000000E+00  0.00000000000E+00 -0.52474847460E+03  0.52474847461E+03  0.25500000920E-02 0.  1.
    10030    2    1    2    0    0  0.00000000000E+00  0.00000000000E+00 -0.18247061220E+03  0.86702633702E+03  0.84760789565E+03 0.  0.
        3    1    3    3  502    0 -0.22765419906E+03 -0.34389855575E+03  0.85554200744E+01  0.41251164397E+03  0.10100000352E+00 0. -1.
       -3    1    3    3    0  502  0.22765419906E+03  0.34389855575E+03 -0.19102603227E+03  0.45451469306E+03  0.10100000352E+00 0.  1.
</event>
<event>
 5   0  0.4298101E-03  0.1165267E+04  0.7818609E-02  0.9143813E-01
       -1   -1    0    0    0  501  0.00000000000E+00  0.00000000000E+00  0.42743966197E+03  0.42743966200E+03  0.50400001928E-02 0. -1.
        1   -1    0    0  501    0  0.00000000000E+00  0.00000000000E+00 -0.79417534084E+03  0.79417534086E+03  0.50400001928E-02 0.  1.
    10030    2    1    2    0    0  0.00000000000E+00  0.00000000000E+00 -0.36673567887E+03  0.12216150029E+04  0.11652674187E+04 0.  0.
        3    1    3    3  502    0 -0.54790364244E+03  0.19720112703E+03 -0.16305722780E+03  0.60471014184E+03  0.10100000352E+00 0. -1.
       -3    1    3    3    0  502  0.54790364244E+03 -0.19720112703E+03 -0.20367845108E+03  0.61690486101E+03  0.10100000352E+00 0.  1.
</event>
<event>
 5   0  0.4504740E-03  0.1138299E+04  0.7818609E-02  0.9168647E-01
       -1   -1    0    0    0  501  0.00000000000E+00  0.00000000000E+00  0.35970925882E+03  0.35970925886E+03  0.50400001928E-02 0.  1.
        1   -1    0    0  501    0  0.00000000000E+00  0.00000000000E+00 -0.90053606136E+03  0.90053606138E+03  0.50400001928E-02 0. -1.
    10030    2    1    2    0    0  0.00000000000E+00  0.00000000000E+00 -0.54082680254E+03  0.12602453202E+04  0.11382990103E+04 0.  0.
        5    1    3    3  502    0  0.99617027009E+02 -0.19495528036E+03 -0.85202884767E+03  0.87971947840E+03  0.46999998093E+01 0. -1.
       -5    1    3    3    0  502 -0.99617027009E+02  0.19495528036E+03  0.31120204513E+03  0.38052584183E+03  0.46999998093E+01 0.  1.
</event>
<event>
 5   0  0.4641021E-03  0.9956619E+03  0.7818609E-02  0.9313316E-01
        1   -1    0    0  501    0  0.00000000000E+00  0.00000000000E+00  0.77828487596E+03  0.77828487598E+03  0.50400001928E-02 0.  1.
       -1   -1    0    0    0  501  0.00000000000E+00  0.00000000000E+00 -0.31843825245E+03  0.31843825249E+03  0.50400001928E-02 0. -1.
    10030    2    1    2    0    0  0.00000000000E+00  0.00000000000E+00  0.45984662351E+03  0.10967231285E+04  0.99566194231E+03 0.  0.
        1    1    3    3  502    0  0.55373015237E+02 -0.83438185130E+02 -0.30722960284E+03  0.32313794336E+03  0.50400001928E-02 0. -1.
       -1    1    3    3    0  502 -0.55373015237E+02  0.83438185130E+02  0.76707622635E+03  0.77358518510E+03  0.50400001928E-02 0.  1.
</event>
<event>
 5   0  0.4641021E-03  0.1101063E+04  0.7818609E-02  0.9204156E-01
        1   -1    0    0  501    0  0.00000000000E+00  0.00000000000E+00  0.73922806536E+03  0.73922806538E+03  0.50400001928E-02 0. -1.
       -1   -1    0    0    0  501  0.00000000000E+00  0.00000000000E+00 -0.41000219220E+03  0.41000219223E+03  0.50400001928E-02 0.  1.
    10030    2    1    2    0    0  0.00000000000E+00  0.00000000000E+00  0.32922587316E+03  0.11492302576E+04  0.11010633540E+04 0.  0.
        1    1    3    3  502    0  0.12882507113E+02 -0.27587805396E+03 -0.33246706423E+03  0.43221407713E+03  0.50400001928E-02 0.  1.
       -1    1    3    3    0  502 -0.12882507113E+02  0.27587805396E+03  0.66169293739E+03  0.71701618047E+03  0.50400001928E-02 0. -1.
</event>
<event>
 5   0  0.7952121E-03  0.1086201E+04  0.7818609E-02  0.9218747E-01
        2   -1    0    0  501    0  0.00000000000E+00  0.00000000000E+00  0.39856569201E+03  0.39856569201E+03  0.25500000920E-02 0. -1.
       -2   -1    0    0    0  501  0.00000000000E+00  0.00000000000E+00 -0.74004914575E+03  0.74004914576E+03  0.25500000920E-02 0.  1.
    10030    2    1    2    0    0  0.00000000000E+00  0.00000000000E+00 -0.34148345375E+03  0.11386148378E+04  0.10862010862E+04 0.  0.
        3    1    3    3  502    0 -0.28642135151E+03 -0.45072344916E+03 -0.67132145699E+02  0.53823373493E+03  0.10100000352E+00 0.  1.
       -3    1    3    3    0  502  0.28642135151E+03  0.45072344916E+03 -0.27435130805E+03  0.60038110285E+03  0.10100000352E+00 0. -1.
</event>
<event>
 5   0  0.4641021E-03  0.1094369E+04  0.7818609E-02  0.9210697E-01
       -1   -1    0    0    0  501  0.00000000000E+00  0.00000000000E+00  0.46268610217E+03  0.46268610220E+03  0.50400001928E-02 0. -1.
        1   -1    0    0  501    0  0.00000000000E+00  0.00000000000E+00 -0.64711496635E+03  0.64711496637E+03  0.50400001928E-02 0.  1.
    10030    2    1    2    0    0  0.00000000000E+00  0.00000000000E+00 -0.18442886417E+03  0.11098010686E+04  0.10943694101E+04 0.  0.
        1    1    3    3  502    0 -0.51213407140E+03  0.16733483774E+03  0.46778408931E+01  0.53879879105E+03  0.50400001928E-02 0. -1.
       -1    1    3    3    0  502  0.51213407140E+03 -0.16733483774E+03 -0.18910670507E+03  0.57100227752E+03  0.50400001928E-02 0.  1.
</event>
<event>
 5   0  0.4598561E-03  0.1098508E+04  0.7818609E-02  0.9206648E-01
       -1   -1    0    0    0  501  0.00000000000E+00  0.00000000000E+00  0.56246304839E+03  0.56246304841E+03  0.50400001928E-02 0.  1.
        1   -1    0    0  501    0  0.00000000000E+00  0.00000000000E+00 -0.53635476810E+03  0.53635476813E+03  0.50400001928E-02 0. -1.
    10030    2    1    2    0    0  0.00000000000E+00  0.00000000000E+00  0.26108280288E+02  0.10988178165E+04  0.10985076020E+04 0.  0.
        2    1    3    3  502    0  0.59103358358E+02 -0.20514723767E+03  0.51926141616E+03  0.56143656312E+03  0.25500000920E-02 0.  1.
       -2    1    3    3    0  502 -0.59103358358E+02  0.20514723767E+03 -0.49315313587E+03  0.53738125341E+03  0.25500000920E-02 0. -1.
</event>
<event>
 5   0  0.4504740E-03  0.1094818E+04  0.7818609E-02  0.9210258E-01
        1   -1    0    0  501    0  0.00000000000E+00  0.00000000000E+00  0.50608561954E+03  0.50608561957E+03  0.50400001928E-02 0. -1.
       -1   -1    0    0    0  501  0.00000000000E+00  0.00000000000E+00 -0.59210614829E+03  0.59210614831E+03  0.50400001928E-02 0.  1.
    10030    2    1    2    0    0  0.00000000000E+00  0.00000000000E+00 -0.86020528751E+02  0.10981917679E+04  0.10948176230E+04 0.  0.
        5    1    3    3  502    0  0.34242622445E+03 -0.36591233894E+03 -0.26388598395E+03  0.56639691163E+03  0.46999998093E+01 0. -1.
       -5    1    3    3    0  502 -0.34242622445E+03  0.36591233894E+03  0.17786545520E+03  0.53179485625E+03  0.46999998093E+01 0.  1.
</event>
<event>
 5   0  0.7738497E-03  0.7389373E+03  0.7818609E-02  0.9652868E-01
        2   -1    0    0  501    0  0.00000000000E+00  0.00000000000E+00  0.18206495285E+04  0.18206495285E+04  0.25500000920E-02 0. -1.
       -2   -1    0    0    0  501  0.00000000000E+00  0.00000000000E+00 -0.74977139207E+02  0.74977139250E+02  0.25500000920E-02 0.  1.
    10030    2    1    2    0    0  0.00000000000E+00  0.00000000000E+00  0.17456723893E+04  0.18956266678E+04  0.73893732668E+03 0.  0.
        4    1    3    3  502    0  0.30596745686E+03  0.16368887173E+03  0.54737785657E+03  0.64810050313E+03  0.12699999809E+01 0.  1.
       -4    1    3    3    0  502 -0.30596745686E+03 -0.16368887173E+03  0.11982945328E+04  0.12475261647E+04  0.12699999809E+01 0. -1.
</event>
<event>
 5   0  0.7952121E-03  0.1399764E+04  0.7818609E-02  0.8953989E-01
        2   -1    0    0  501    0  0.00000000000E+00  0.00000000000E+00  0.73979216180E+03  0.73979216180E+03  0.25500000920E-02 0. -1.
       -2   -1    0    0    0  501  0.00000000000E+00  0.00000000000E+00 -0.66212482735E+03  0.66212482736E+03  0.25500000920E-02 0.  1.
    10030    2    1    2    0    0  0.00000000000E+00  0.00000000000E+00  0.77667334446E+02  0.14019169892E+04  0.13997639193E+04 0.  0.
        3    1    3    3  502    0 -0.89698853494E+02 -0.50426812073E+03 -0.43887224343E+03  0.67449320097E+03  0.10100000352E+00 0.  1.
       -3    1    3    3    0  502  0.89698853494E+02  0.50426812073E+03  0.51653957788E+03  0.72742378819E+03  0.10100000352E+00 0. -1.
</event>
<event>
 5   0  0.4428114E-03  0.1103330E+04  0.7818609E-02  0.9201952E-01
        1   -1    0    0  501    0  0.00000000000E+00  0.00000000000E+00  0.16622851183E+03  0.16622851191E+03  0.50400001928E-02 0. -1.
       -1   -1    0    0    0  501  0.00000000000E+00  0.00000000000E+00 -0.18308181561E+04  0.18308181561E+04  0.50400001928E-02 0.  1.
    10030    2    1    2    0    0  0.00000000000E+00  0.00000000000E+00 -0.16645896442E+04  0.19970466680E+04  0.11033298285E+04 0.  0.
        4    1    3    3  502    0  0.45446798973E+03 -0.17841145025E+03 -0.12971585897E+04  0.13859992132E+04  0.12699999809E+01 0.  1.
       -4    1    3    3    0  502 -0.45446798973E+03  0.17841145025E+03 -0.36743105455E+03  0.61104745479E+03  0.12699999809E+01 0. -1.
</event>
<event>
 5   0  0.4598561E-03  0.1104317E+04  0.7818609E-02  0.9200995E-01
        1   -1    0    0  501    0  0.00000000000E+00  0.00000000000E+00  0.12741995116E+04  0.12741995116E+04  0.50400001928E-02 0. -1.
       -1   -1    0    0    0  501  0.00000000000E+00  0.00000000000E+00 -0.23927088387E+03  0.23927088393E+03  0.50400001928E-02 0.  1.
    10030    2    1    2    0    0  0.00000000000E+00  0.00000000000E+00  0.10349286277E+04  0.15134703955E+04  0.11043166999E+04 0.  0.
        2    1    3    3  502    0  0.15185919858E+03  0.30981977811E+02 -0.20884814217E+03  0.26007430791E+03  0.25500000920E-02 0.  1.
       -2    1    3    3    0  502 -0.15185919858E+03 -0.30981977811E+02  0.12437767699E+04  0.12533960876E+04  0.25500000920E-02 0. -1.
</event>
<event>
 5   0  0.4428114E-03  0.1096848E+04  0.7818609E-02  0.9208270E-01
       -1   -1    0    0    0  501  0.00000000000E+00  0.00000000000E+00  0.47731756137E+03  0.47731756140E+03  0.50400001928E-02 0. -1.
        1   -1    0    0  501    0  0.00000000000E+00  0.00000000000E+00 -0.63012295783E+03  0.63012295785E+03  0.50400001928E-02 0.  1.
    10030    2    1    2    0    0  0.00000000000E+00  0.00000000000E+00 -0.15280539645E+03  0.11074405192E+04  0.10968477627E+04 0.  0.
        4    1    3    3  502    0 -0.48013310133E+03  0.24667154301E+03 -0.17425353769E+03  0.56722178504E+03  0.12699999809E+01 0.  1.
       -4    1    3    3    0  502  0.48013310133E+03 -0.24667154301E+03  0.21448141237E+02  0.54021873421E+03  0.12699999809E+01 0. -1.
</event>
<event>
 5   0  0.4641021E-03  0.1088572E+04  0.7818609E-02  0.9216403E-01
       -1   -1    0    0    0  501  0.00000000000E+00  0.00000000000E+00  0.89531345874E+03  0.89531345875E+03  0.50400001928E-02 0. -1.
        1   -1    0    0  501    0  0.00000000000E+00  0.00000000000E+00 -0.33088633099E+03  0.33088633103E+03  0.50400001928E-02 0.  1.
    10030    2    1    2    0    0  0.00000000000E+00  0.00000000000E+00  0.56442712775E+03  0.12261997898E+04  0.10885715144E+04 0.  0.
        1    1    3    3  502    0 -0.51314334266E+03 -0.11964078095E+02  0.48618066341E+03  0.70698717583E+03  0.50400001928E-02 0.  1.
       -1    1    3    3    0  502  0.51314334266E+03  0.11964078095E+02  0.78246464334E+02  0.51921261395E+03  0.50400001928E-02 0. -1.
</event>
<event>
 5   0  0.2992375E-03  0.1097718E+04  0.7818609E-02  0.9207419E-01
        3   -1    0    0  501    0  0.00000000000E+00  0.00000000000E+00  0.25961492293E+03  0.25961494257E+03  0.10100000352E+00 0. -1.
       -3   -1    0    0    0  501  0.00000000000E+00  0.00000000000E+00 -0.11603571373E+04  0.11603571417E+04  0.10100000352E+00 0.  1.
    10030    2    1    2    0    0  0.00000000000E+00  0.00000000000E+00 -0.90074221440E+03  0.14199720843E+04  0.10977177157E+04 0.  0.
        4    1    3    3  502    0  0.21121508941E+03 -0.20665127259E+03 -0.10486763622E+04  0.10895137852E+04  0.12699999809E+01 0.  1.
       -4    1    3    3    0  502 -0.21121508941E+03  0.20665127259E+03  0.14793414785E+03  0.33045829912E+03  0.12699999809E+01 0. -1.
</event>
<event>
 5   0  0.4428114E-03  0.1090684E+04  0.7818609E-02  0.9214320E-01
       -1   -1    0    0    0  501  0.00000000000E+00  0.00000000000E+00  0.42374552590E+03  0.42374552593E+03  0.50400001928E-02 0.  1.
        1   -1    0    0  501    0  0.00000000000E+00  0.00000000000E+00 -0.70183120514E+03  0.70183120516E+03  0.50400001928E-02 0. -1.
    10030    2    1    2    0    0  0.00000000000E+00  0.00000000000E+00 -0.27808567924E+03  0.11255767311E+04  0.10906838830E+04 0.  0.
        4    1    3    3  502    0  0.10974254817E+02 -0.14425720529E+03 -0.68166408806E+03  0.69684870481E+03  0.12699999809E+01 0. -1.
       -4    1    3    3    0  502 -0.10974254817E+02  0.14425720529E+03  0.40357840883E+03  0.42872802628E+03  0.12699999809E+01 0.  1.
</event>
<event>
 5   0  0.7738497E-03  0.1106871E+04  0.7818609E-02  0.9198521E-01
       -2   -1    0    0    0  501  0.00000000000E+00  0.00000000000E+00  0.14773991358E+04  0.14773991358E+04  0.25500000920E-02 0.  1.
        2   -1    0    0  501    0  0.00000000000E+00  0.00000000000E+00 -0.20731747885E+03  0.20731747887E+03  0.25500000920E-02 0. -1.
    10030    2    1    2    0    0  0.00000000000E+00  0.00000000000E+00  0.12700816570E+04  0.16847166147E+04  0.11068706593E+04 0.  0.
        4    1    3    3  502    0  0.46702548426E+02 -0.50527630798E+03  0.29879516267E+03  0.58886792881E+03  0.12699999809E+01 0. -1.
       -4    1    3    3    0  502 -0.46702548426E+02  0.50527630798E+03  0.97128649429E+03  0.10958486859E+04  0.12699999809E+01 0.  1.
</event>
<event>
 5   0  0.2992375E-03  0.1205734E+04  0.7818609E-02  0.9107852E-01
        3   -1    0    0  501    0  0.00000000000E+00  0.00000000000E+00  0.47769740397E+03  0.47769741465E+03  0.10100000352E+00 0.  1.
       -3   -1    0    0    0  501  0.00000000000E+00  0.00000000000E+00 -0.76083425717E+03  0.76083426387E+03  0.10100000352E+00 0. -1.
    10030    2    1    2    0    0  0.00000000000E+00  0.00000000000E+00 -0.28313685320E+03  0.12385316785E+04  0.12057339014E+04 0.  0.
        3    1    3    3  502    0 -0.24049093263E+03 -0.30380234937E+03 -0.61599408723E+03  0.72772280565E+03  0.10100000352E+00 0. -1.
       -3    1    3    3    0  502  0.24049093263E+03  0.30380234937E+03  0.33285723403E+03  0.51080887287E+03  0.10100000352E+00 0.  1.
</event>
<event>
 5   0  0.7738497E-03  0.1087437E+04  0.7818609E-02  0.9217524E-01
       -2   -1    0    0    0  501  0.00000000000E+00  0.00000000000E+00  0.30209161210E+03  0.30209161211E+03  0.25500000920E-02 0. -1.
        2   -1    0    0  501    0  0.00000000000E+00  0.00000000000E+00 -0.97860916385E+03  0.97860916385E+03  0.25500000920E-02 0.  1.
    10030    2    1    2    0    0  0.00000000000E+00  0.00000000000E+00 -0.67651755175E+03  0.12807007760E+04  0.10874366555E+04 0.  0.
        4    1    3    3  502    0  0.12196268708E+03 -0.51258293129E+03 -0.18019845926E+03  0.55685658487E+03  0.12699999809E+01 0. -1.
       -4    1    3    3    0  502 -0.12196268708E+03  0.51258293129E+03 -0.49631909250E+03  0.72384419109E+03  0.12699999809E+01 0.  1.
</event>
<event>
 5   0  0.4641021E-03  0.1111180E+04  0.7818609E-02  0.9194363E-01
       -1   -1    0    0    0  501  0.00000000000E+00  0.00000000000E+00  0.34161885373E+03  0.34161885376E+03  0.50400001928E-02 0. -1.
        1   -1    0    0  501    0  0.00000000000E+00  0.00000000000E+00 -0.90358113789E+03  0.90358113790E+03  0.50400001928E-02 0.  1.
    10030    2    1    2    0    0  0.00000000000E+00  0.00000000000E+00 -0.56196228416E+03  0.12451999917E+04  0.11111801881E+04 0.  0.
        1    1    3    3  502    0  0.13263939118E+02  0.49476718030E+03  0.18700005238E+01  0.49494847379E+03  0.50400001928E-02 0. -1.
       -1    1    3    3    0  502 -0.13263939118E+02 -0.49476718030E+03 -0.56383228468E+03  0.75025151787E+03  0.50400001928E-02 0.  1.
</event>
<event>
 5   0  0.4428114E-03  0.1095061E+04  0.7818609E-02  0.9210019E-01
        1   -1    0    0  501    0  0.00000000000E+00  0.00000000000E+00  0.59588958171E+03  0.59588958173E+03  0.50400001928E-02 0.  1.
       -1   -1    0    0    0  501  0.00000000000E+00  0.00000000000E+00 -0.50309570475E+03  0.50309570477E+03  0.50400001928E-02 0. -1.
    10030    2    1    2    0    0  0.00000000000E+00  0.00000000000E+00  0.92793876963E+02  0.10989852865E+04  0.10950607090E+04 0.  0.
        4    1    3    3  502    0  0.37264438577E+03  0.12604494093E+03  0.42859867192E+03  0.58176421328E+03  0.12699999809E+01 0.  1.
       -4    1    3    3    0  502 -0.37264438577E+03 -0.12604494093E+03 -0.33580479496E+03  0.51722107323E+03  0.12699999809E+01 0. -1.
</event>
<event>
 5   0  0.7738497E-03  0.1131380E+04  0.7818609E-02  0.9175135E-01
       -2   -1    0    0    0  501  0.00000000000E+00  0.00000000000E+00  0.25973675372E+03  0.25973675373E+03  0.25500000920E-02 0.  1.
        2   -1    0    0  501    0  0.00000000000E+00  0.00000000000E+00 -0.12320374605E+04  0.12320374605E+04  0.25500000920E-02 0. -1.
    10030    2    1    2    0    0  0.00000000000E+00  0.00000000000E+00 -0.97230070682E+03  0.14917742143E+04  0.11313804143E+04 0.  0.
        4    1    3    3  502    0 -0.57870042480E+02  0.32705390697E+03  0.11763686961E+03  0.35235386457E+03  0.12699999809E+01 0.  1.
       -4    1    3    3    0  502  0.57870042480E+02 -0.32705390697E+03 -0.10899375764E+04  0.11394203497E+04  0.12699999809E+01 0. -1.
</event>
<event>
 5   0  0.7738497E-03  0.1062231E+04  0.7818609E-02  0.9242807E-01
       -2   -1    0    0    0  501  0.00000000000E+00  0.00000000000E+00  0.14723904233E+03  0.14723904235E+03  0.25500000920E-02 0.  1.
        2   -1    0    0  501    0  0.00000000000E+00  0.00000000000E+00 -0.19158198674E+04  0.19158198674E+04  0.25500000920E-02 0. -1.
    10030    2    1    2    0    0  0.00000000000E+00  0.00000000000E+00 -0.17685808251E+04  0.20630589097E+04  0.10622306389E+04 0.  0.
        4    1    3    3  502    0 -0.31750465282E+02 -0.37983178027E+03 -0.16593662193E+03  0.41571245922E+03  0.12699999809E+01 0.  1.
       -4    1    3    3    0  502  0.31750465282E+02  0.37983178027E+03 -0.16026442031E+04  0.16473464505E+04  0.12699999809E+01 0. -1.
</event>
<event>
 5   0  0.7766551E-03  0.1094063E+04  0.7818609E-02  0.9210998E-01
       -2   -1    0    0    0  501  0.00000000000E+00  0.00000000000E+00  0.37011586084E+03  0.37011586084E+03  0.25500000920E-02 0.  1.
        2   -1    0    0  501    0  0.00000000000E+00  0.00000000000E+00 -0.80851243824E+03  0.80851243825E+03  0.25500000920E-02 0. -1.
    10030    2    1    2    0    0  0.00000000000E+00  0.00000000000E+00 -0.43839657741E+03  0.11786282991E+04  0.10940626620E+04 0.  0.
        5    1    3    3  502    0 -0.40769895776E+03  0.11404422181E+03 -0.59237905400E+03  0.72812056577E+03  0.46999998093E+01 0. -1.
       -5    1    3    3    0  502  0.40769895776E+03 -0.11404422181E+03  0.15398247659E+03  0.45050773332E+03  0.46999998093E+01 0.  1.
</event>
<event>
 5   0  0.7537480E-03  0.1097586E+04  0.7818609E-02  0.9207548E-01
        2   -1    0    0  501    0  0.00000000000E+00  0.00000000000E+00  0.10169864339E+04  0.10169864339E+04  0.25500000920E-02 0. -1.
       -2   -1    0    0    0  501  0.00000000000E+00  0.00000000000E+00 -0.29614350974E+03  0.29614350975E+03  0.25500000920E-02 0.  1.
    10030    2    1    2    0    0  0.00000000000E+00  0.00000000000E+00  0.72084292417E+03  0.13131299437E+04  0.10975863190E+04 0.  0.
        1    1    3    3  502    0 -0.20297522056E+03  0.28643660130E+03  0.86507400758E+03  0.93359407953E+03  0.50400001928E-02 0. -1.
       -1    1    3    3    0  502  0.20297522056E+03 -0.28643660130E+03 -0.14423108341E+03  0.37953586414E+03  0.50400001928E-02 0.  1.
</event>
<event>
 5   0  0.4504740E-03  0.1081966E+04  0.7818609E-02  0.9222949E-01
       -1   -1    0    0    0  501  0.00000000000E+00  0.00000000000E+00  0.36470529699E+03  0.36470529703E+03  0.50400001928E-02 0.  1.
        1   -1    0    0  501    0  0.00000000000E+00  0.00000000000E+00 -0.80246349465E+03  0.80246349467E+03  0.50400001928E-02 0. -1.
    10030    2    1    2    0    0  0.00000000000E+00  0.00000000000E+00 -0.43775819766E+03  0.11671687917E+04  0.10819661495E+04 0.  0.
        5    1    3    3  502    0 -0.26136655173E+03  0.15425225368E+03 -0.70195391433E+03  0.76476638261E+03  0.46999998093E+01 0. -1.
       -5    1    3    3    0  502  0.26136655173E+03 -0.15425225368E+03  0.26419571668E+03  0.40240240908E+03  0.46999998093E+01 0.  1.
</event>
<event>
 5   0  0.7766551E-03  0.1099640E+04  0.7818609E-02  0.9205543E-01
        2   -1    0    0  501    0  0.00000000000E+00  0.00000000000E+00  0.16427011250E+04  0.16427011250E+04  0.25500000920E-02 0.  1.
       -2   -1    0    0    0  501  0.00000000000E+00  0.00000000000E+00 -0.18402727204E+03  0.18402727206E+03  0.25500000920E-02 0. -1.
    10030    2    1    2    0    0  0.00000000000E+00  0.00000000000E+00  0.14586738530E+04  0.18267283971E+04  0.10996395897E+04 0.  0.
        5    1    3    3  502    0 -0.26981503024E+03 -0.36483076874E+03  0.21361839171E+03  0.50155413231E+03  0.46999998093E+01 0. -1.
       -5    1    3    3    0  502  0.26981503024E+03  0.36483076874E+03  0.12450554613E+04  0.13251742648E+04  0.46999998093E+01 0.  1.
</event>
<event>
 5   0  0.2992375E-03  0.1097352E+04  0.7818609E-02  0.9207777E-01
       -4   -1    0    0    0  501  0.00000000000E+00  0.00000000000E+00  0.37170224673E+03  0.37170441634E+03  0.12699999809E+01 0.  1.
        4   -1    0    0  501    0  0.00000000000E+00  0.00000000000E+00 -0.80990426145E+03  0.80990525719E+03  0.12699999809E+01 0. -1.
    10030    2    1    2    0    0  0.00000000000E+00  0.00000000000E+00 -0.43820201473E+03  0.11816096735E+04  0.10973515457E+04 0.  0.
        5    1    3    3  502    0 -0.17048589177E+03 -0.20955284600E+01 -0.78063406878E+03  0.79905035502E+03  0.46999998093E+01 0. -1.
       -5    1    3    3    0  502  0.17048589177E+03  0.20955284600E+01  0.34243205405E+03  0.38255931850E+03  0.46999998093E+01 0.  1.
</event>
<event>
 5   0  0.7766551E-03  0.1109565E+04  0.7818609E-02  0.9195919E-01
       -2   -1    0    0    0  501  0.00000000000E+00  0.00000000000E+00  0.52551203250E+03  0.52551203251E+03  0.25500000920E-02 0.  1.
        2   -1    0    0  501    0  0.00000000000E+00  0.00000000000E+00 -0.58568294434E+03  0.58568294434E+03  0.25500000920E-02 0. -1.
    10030    2    1    2    0    0  0.00000000000E+00  0.00000000000E+00 -0.60170911837E+02  0.11111949768E+04  0.11095646615E+04 0.  0.
        5    1    3    3  502    0  0.47644425472E+03  0.16354073469E+03 -0.26284176149E+03  0.56820118034E+03  0.46999998093E+01 0.  1.
       -5    1    3    3    0  502 -0.47644425472E+03 -0.16354073469E+03  0.20267084965E+03  0.54299379651E+03  0.46999998093E+01 0. -1.
</event>
<event>
 5   0  0.4298101E-03  0.1070551E+04  0.7818609E-02  0.9234380E-01
       -1   -1    0    0    0  501  0.00000000000E+00  0.00000000000E+00  0.50995093168E+03  0.50995093171E+03  0.50400001928E-02 0. -1.
        1   -1    0    0  501    0  0.00000000000E+00  0.00000000000E+00 -0.56185770723E+03  0.56185770725E+03  0.50400001928E-02 0.  1.
    10030    2    1    2    0    0  0.00000000000E+00  0.00000000000E+00 -0.51906775544E+02  0.10718086390E+04  0.10705510007E+04 0.  0.
        3    1    3    3  502    0  0.86488344035E+02 -0.43806895251E+03 -0.32148689871E+03  0.55021675461E+03  0.10100000352E+00 0. -1.
       -3    1    3    3    0  502 -0.86488344035E+02  0.43806895251E+03  0.26958012316E+03  0.52159188435E+03  0.10100000352E+00 0.  1.
</event>
<event>
 5   0  0.4428114E-03  0.1098887E+04  0.7818609E-02  0.9206277E-01
        1   -1    0    0  501    0  0.00000000000E+00  0.00000000000E+00  0.11443982915E+04  0.11443982915E+04  0.50400001928E-02 0.  1.
       -1   -1    0    0    0  501  0.00000000000E+00  0.00000000000E+00 -0.26379635216E+03  0.26379635220E+03  0.50400001928E-02 0. -1.
    10030    2    1    2    0    0  0.00000000000E+00  0.00000000000E+00  0.88060193937E+03  0.14081946437E+04  0.10988868818E+04 0.  0.
        4    1    3    3  502    0 -0.71649397793E+02 -0.46758005194E+03  0.79847628750E+03  0.92807905686E+03  0.12699999809E+01 0.  1.
       -4    1    3    3    0  502  0.71649397793E+02  0.46758005194E+03  0.82125651873E+02  0.48011558689E+03  0.12699999809E+01 0. -1.
</event>
<event>
 5   0  0.4298101E-03  0.1109227E+04  0.7818609E-02  0.9196245E-01
        1   -1    0    0  501    0  0.00000000000E+00  0.00000000000E+00  0.45423827286E+03  0.45423827289E+03  0.50400001928E-02 0. -1.
       -1   -1    0    0    0  501  0.00000000000E+00  0.00000000000E+00 -0.67716894080E+03  0.67716894082E+03  0.50400001928E-02 0.  1.
    10030    2    1    2    0    0  0.00000000000E+00  0.00000000000E+00 -0.22293066794E+03  0.11314072137E+04  0.11092268481E+04 0.  0.
        3    1    3    3  502    0  0.10266800725E+03 -0.45903629672E+03 -0.41117938515E+03  0.62475878417E+03  0.10100000352E+00 0.  1.
       -3    1    3    3    0  502 -0.10266800725E+03  0.45903629672E+03  0.18824871721E+03  0.50664842954E+03  0.10100000352E+00 0. -1.
</event>
<event>
 5   0  0.4298101E-03  0.1003869E+04  0.7818609E-02  0.9304311E-01
        1   -1    0    0  501    0  0.00000000000E+00  0.00000000000E+00  0.81227982718E+03  0.81227982720E+03  0.50400001928E-02 0.  1.
       -1   -1    0    0    0  501  0.00000000000E+00  0.00000000000E+00 -0.31016214239E+03  0.31016214243E+03  0.50400001928E-02 0. -1.
    10030    2    1    2    0    0  0.00000000000E+00  0.00000000000E+00  0.50211768479E+03  0.11224419696E+04  0.10038694167E+04 0.  0.
        3    1    3    3  502    0 -0.11989380663E+03  0.48112208241E+03  0.16383538134E+03  0.52220209252E+03  0.10100000352E+00 0. -1.
       -3    1    3    3    0  502  0.11989380663E+03 -0.48112208241E+03  0.33828230345E+03  0.60023987712E+03  0.10100000352E+00 0.  1.
</event>
<event>
 5   0  0.7712816E-03  0.1039969E+04  0.7818609E-02  0.9265762E-01
       -2   -1    0    0    0  501  0.00000000000E+00  0.00000000000E+00  0.49469923285E+03  0.49469923286E+03  0.25500000920E-02 0. -1.
        2   -1    0    0  501    0  0.00000000000E+00  0.00000000000E+00 -0.54656234806E+03  0.54656234806E+03  0.25500000920E-02 0.  1.
    10030    2    1    2    0    0  0.00000000000E+00  0.00000000000E+00 -0.51863115208E+02  0.10412615809E+04  0.10399691809E+04 0.  0.
        2    1    3    3  502    0  0.30069137861E+03 -0.28229257433E+03  0.29113147582E+03  0.50483852756E+03  0.25500000920E-02 0. -1.
       -2    1    3    3    0  502 -0.30069137861E+03  0.28229257433E+03 -0.34299459103E+03  0.53642305336E+03  0.25500000920E-02 0.  1.
</event>
<event>
 5   0  0.4504740E-03  0.1091555E+04  0.7818609E-02  0.9213462E-01
        1   -1    0    0  501    0  0.00000000000E+00  0.00000000000E+00  0.21668340849E+04  0.21668340849E+04  0.50400001928E-02 0. -1.
       -1   -1    0    0    0  501  0.00000000000E+00  0.00000000000E+00 -0.13746929161E+03  0.13746929170E+03  0.50400001928E-02 0.  1.
    10030    2    1    2    0    0  0.00000000000E+00  0.00000000000E+00  0.20293647932E+04  0.23043033766E+04  0.10915551233E+04 0.  0.
        5    1    3    3  502    0 -0.44330636849E+02  0.51212733789E+03  0.14017060884E+04  0.14929975431E+04  0.46999998093E+01 0.  1.
       -5    1    3    3    0  502  0.44330636849E+02 -0.51212733789E+03  0.62765870484E+03  0.81130583342E+03  0.46999998093E+01 0. -1.
</event>
<event>
 5   0  0.4598561E-03  0.1098026E+04  0.7818609E-02  0.9207118E-01
       -1   -1    0    0    0  501  0.00000000000E+00  0.00000000000E+00  0.34705508808E+03  0.34705508812E+03  0.50400001928E-02 0.  1.
        1   -1    0    0  501    0  0.00000000000E+00  0.00000000000E+00 -0.86849334596E+03  0.86849334597E+03  0.50400001928E-02 0. -1.
    10030    2    1    2    0    0  0.00000000000E+00  0.00000000000E+00 -0.52143825787E+03  0.12155484341E+04  0.10980255638E+04 0.  0.
        2    1    3    3  502    0  0.16817051595E+03  0.10162336898E+03  0.30679645021E+03  0.36432498326E+03  0.25500000920E-02 0.  1.
       -2    1    3    3    0  502 -0.16817051595E+03 -0.10162336898E+03 -0.82823470809E+03  0.85122345083E+03  0.25500000920E-02 0. -1.
</event>
<event>
 5   0  0.4298101E-03  0.1066529E+04  0.7818609E-02  0.9238444E-01
        1   -1    0    0  501    0  0.00000000000E+00  0.00000000000E+00  0.19538006166E+03  0.19538006172E+03  0.50400001928E-02 0. -1.
       -1   -1    0    0    0  501  0.00000000000E+00  0.00000000000E+00 -0.14554750180E+04  0.14554750180E+04  0.50400001928E-02 0.  1.
    10030    2    1    2    0    0  0.00000000000E+00  0.00000000000E+00 -0.12600949563E+04  0.16508550797E+04  0.10665285722E+04 0.  0.
        3    1    3    3  502    0  0.12318524399E+03 -0.26251117719E+03  0.62675598716E+02  0.29667315915E+03  0.10100000352E+00 0. -1.
       -3    1    3    3    0  502 -0.12318524399E+03  0.26251117719E+03 -0.13227705550E+04  0.13541819205E+04  0.10100000352E+00 0.  1.
</event>
<event>
 5   0  0.7537480E-03  0.1084100E+04  0.7818609E-02  0.9220829E-01
        2   -1    0    0  501    0  0.00000000000E+00  0.00000000000E+00  0.53297125491E+03  0.53297125491E+03  0.25500000920E-02 0.  1.
       -2   -1    0    0    0  501  0.00000000000E+00  0.00000000000E+00 -0.55128375270E+03  0.55128375270E+03  0.25500000920E-02 0. -1.
    10030    2    1    2    0    0  0.00000000000E+00  0.00000000000E+00 -0.18312497789E+02  0.10842550076E+04  0.10841003523E+04 0.  0.
        1    1    3    3  502    0 -0.40688385909E+03  0.10189053306E+03  0.33423255985E+03  0.53632784712E+03  0.50400001928E-02 0.  1.
       -1    1    3    3    0  502  0.40688385909E+03 -0.10189053306E+03 -0.35254505763E+03  0.54792716049E+03  0.50400001928E-02 0. -1.
</event>
<event>
 5   0  0.7712816E-03  0.1084426E+04  0.7818609E-02  0.9220506E-01
       -2   -1    0    0    0  501  0.00000000000E+00  0.00000000000E+00  0.66416884777E+03  0.66416884777E+03  0.25500000920E-02 0.  1.
        2   -1    0    0  501    0  0.00000000000E+00  0.00000000000E+00 -0.44265065759E+03  0.44265065759E+03  0.25500000920E-02 0. -1.
    10030    2    1    2    0    0  0.00000000000E+00  0.00000000000E+00  0.22151819018E+03  0.11068195054E+04  0.10844257046E+04 0.  0.
        2    1    3    3  502    0  0.53841743227E+03  0.20889252366E+02  0.17254921317E+03  0.56577638976E+03  0.25500000920E-02 0. -1.
       -2    1    3    3    0  502 -0.53841743227E+03 -0.20889252366E+02  0.48968977012E+02  0.54104311561E+03  0.25500000920E-02 0.  1.
</event>
<event>
 5   0  0.4298101E-03  0.1082575E+04  0.7818609E-02  0.9222344E-01
        1   -1    0    0  501    0  0.00000000000E+00  0.00000000000E+00  0.95542649271E+03  0.95542649273E+03  0.50400001928E-02 0. -1.
       -1   -1    0    0    0  501  0.00000000000E+00  0.00000000000E+00 -0.30666125264E+03  0.30666125268E+03  0.50400001928E-02 0.  1.
    10030    2    1    2    0    0  0.00000000000E+00  0.00000000000E+00  0.64876524007E+03  0.12620877454E+04  0.10825752354E+04 0.  0.
        3    1    3    3  502    0  0.41245164883E+03  0.34861728182E+03  0.28167631107E+03  0.60909106563E+03  0.10100000352E+00 0.  1.
       -3    1    3    3    0  502 -0.41245164883E+03 -0.34861728182E+03  0.36708892900E+03  0.65299667978E+03  0.10100000352E+00 0. -1.
</event>
<event>
 5   0  0.7537480E-03  0.1097130E+04  0.7818609E-02  0.9207993E-01
       -2   -1    0    0    0  501  0.00000000000E+00  0.00000000000E+00  0.45910205217E+03  0.45910205218E+03  0.25500000920E-02 0. -1.
        2   -1    0    0  501    0  0.00000000000E+00  0.00000000000E+00 -0.65546150959E+03  0.65546150959E+03  0.25500000920E-02 0.  1.
    10030    2    1    2    0    0  0.00000000000E+00  0.00000000000E+00 -0.19635945741E+03  0.11145635618E+04  0.10971303007E+04 0.  0.
        1    1    3    3  502    0  0.27168432841E+03 -0.17728781246E+03  0.35120703251E+03  0.47811057556E+03  0.50400001928E-02 0. -1.
       -1    1    3    3    0  502 -0.27168432841E+03  0.17728781246E+03 -0.54756648992E+03  0.63645298622E+03  0.50400001928E-02 0.  1.
</event>
<event>
 5   0  0.4641021E-03  0.7423471E+03  0.7818609E-02  0.9647434E-01
        1   -1    0    0  501    0  0.00000000000E+00  0.00000000000E+00  0.34691759617E+03  0.34691759621E+03  0.50400001928E-02 0. -1.
       -1   -1    0    0    0  501  0.00000000000E+00  0.00000000000E+00 -0.39712540840E+03  0.39712540843E+03  0.50400001928E-02 0.  1.
    10030    2    1    2    0    0  0.00000000000E+00  0.00000000000E+00 -0.50207812230E+02  0.74404300464E+03  0.74234706731E+03 0.  0.
        1    1    3    3  502    0 -0.27128347541E+03  0.16573707153E+03  0.16692265004E+03  0.35906360444E+03  0.50400001928E-02 0. -1.
       -1    1    3    3    0  502  0.27128347541E+03 -0.16573707153E+03 -0.21713046227E+03  0.38497940020E+03  0.50400001928E-02 0.  1.
</event>
<event>
 5   0  0.4298101E-03  0.1370734E+04  0.7818609E-02  0.8975279E-01
       -1   -1    0    0    0  501  0.00000000000E+00  0.00000000000E+00  0.29033251101E+03  0.29033251105E+03  0.50400001928E-02 0. -1.
        1   -1    0    0  501    0  0.00000000000E+00  0.00000000000E+00 -0.16178973002E+04  0.16178973002E+04  0.50400001928E-02 0.  1.
    10030    2    1    2    0    0  0.00000000000E+00  0.00000000000E+00 -0.13275647892E+04  0.19082298113E+04  0.13707343809E+04 0.  0.
        3    1    3    3  502    0  0.27650641447E+03  0.62306365966E+03 -0.76284883284E+03  0.10230359100E+04  0.10100000352E+00 0.  1.
       -3    1    3    3    0  502 -0.27650641447E+03 -0.62306365966E+03 -0.56471595637E+03  0.88519390125E+03  0.10100000352E+00 0. -1.
</event>
<event>
 5   0  0.7738497E-03  0.1104922E+04  0.7818609E-02  0.9200407E-01
        2   -1    0    0  501    0  0.00000000000E+00  0.00000000000E+00  0.61311251927E+03  0.61311251928E+03  0.25500000920E-02 0. -1.
       -2   -1    0    0    0  501  0.00000000000E+00  0.00000000000E+00 -0.49780971111E+03  0.49780971111E+03  0.25500000920E-02 0.  1.
    10030    2    1    2    0    0  0.00000000000E+00  0.00000000000E+00  0.11530280817E+03  0.11109222304E+04  0.11049223794E+04 0.  0.
        4    1    3    3  502    0 -0.39608041171E+03 -0.20579017928E+01  0.44487623850E+03  0.59565124694E+03  0.12699999809E+01 0. -1.
       -4    1    3    3    0  502  0.39608041171E+03  0.20579017928E+01 -0.32957343034E+03  0.51527098345E+03  0.12699999809E+01 0.  1.
</event>
<event>
 5   0  0.2992375E-03  0.1080989E+04  0.7818609E-02  0.9223922E-01
        4   -1    0    0  501    0  0.00000000000E+00  0.00000000000E+00  0.17903840675E+03  0.17904291103E+03  0.12699999809E+01 0.  1.
       -4   -1    0    0    0  501  0.00000000000E+00  0.00000000000E+00 -0.16316610475E+04  0.16316615418E+04  0.12699999809E+01 0. -1.
    10030    2    1    2    0    0  0.00000000000E+00  0.00000000000E+00 -0.14526226408E+04  0.18107044528E+04  0.10809893982E+04 0.  0.
        2    1    3    3  502    0  0.14326192054E+03  0.32494296789E+03 -0.14088224737E+04  0.14528911427E+04  0.25500000920E-02 0. -1.
       -2    1    3    3    0  502 -0.14326192054E+03 -0.32494296789E+03 -0.43800167149E+02  0.35781331013E+03  0.25500000920E-02 0.  1.
</event>
<event>
 5   0  0.2992375E-03  0.1098584E+04  0.7818609E-02  0.9206573E-01
        3   -1    0    0  501    0  0.00000000000E+00  0.00000000000E+00  0.77164260844E+03  0.77164261505E+03  0.10100000352E+00 0.  1.
       -3   -1    0    0    0  501  0.00000000000E+00  0.00000000000E+00 -0.39101217063E+03  0.39101218368E+03  0.10100000352E+00 0. -1.
    10030    2    1    2    0    0  0.00000000000E+00  0.00000000000E+00  0.38063043781E+03  0.11626547987E+04  0.10985839298E+04 0.  0.
        1    1    3    3  502    0  0.17932673314E+03  0.32685366247E+03  0.61724034711E+03  0.72109433504E+03  0.50400001928E-02 0.  1.
       -1    1    3    3    0  502 -0.17932673314E+03 -0.32685366247E+03 -0.23660990930E+03  0.44156046369E+03  0.50400001928E-02 0. -1.
</event>
<event>
 5   0  0.7537480E-03  0.1096030E+04  0.7818609E-02  0.9209070E-01
       -2   -1    0    0    0  501  0.00000000000E+00  0.00000000000E+00  0.40665677347E+03  0.40665677347E+03  0.25500000920E-02 0.  1.
        2   -1    0    0  501    0  0.00000000000E+00  0.00000000000E+00 -0.73851089201E+03  0.73851089201E+03  0.25500000920E-02 0. -1.
    10030    2    1    2    0    0  0.00000000000E+00  0.00000000000E+00 -0.33185411854E+03  0.11451676655E+04  0.10960300297E+04 0.  0.
        1    1    3    3  502    0  0.15070021452E+03 -0.45952415288E+03 -0.43525772131E+03  0.65063222002E+03  0.50400001928E-02 0. -1.
       -1    1    3    3    0  502 -0.15070021452E+03  0.45952415288E+03  0.10340360276E+03  0.49453544547E+03  0.50400001928E-02 0.  1.
</event>
<event>
 5   0  0.7766551E-03  0.1097676E+04  0.7818609E-02  0.9207460E-01
        2   -1    0    0  501    0  0.00000000000E+00  0.00000000000E+00  0.60986606371E+03  0.60986606371E+03  0.25500000920E-02 0. -1.
       -2   -1    0    0    0  501  0.00000000000E+00  0.00000000000E+00 -0.49391724503E+03  0.49391724503E+03  0.25500000920E-02 0.  1.
    10030    2    1    2    0    0  0.00000000000E+00  0.00000000000E+00  0.11594881868E+03  0.11037833087E+04  0.10976763932E+04 0.  0.
        5    1    3    3  502    0 -0.22248252431E+03  0.27655226279E+03  0.47889810899E+03  0.59610830935E+03  0.46999998093E+01 0. -1.
       -5    1    3    3    0  502  0.22248252431E+03 -0.27655226279E+03 -0.36294929031E+03  0.50767499940E+03  0.46999998093E+01 0.  1.
</event>
<event>
 5   0  0.7738497E-03  0.1125217E+04  0.7818609E-02  0.9180956E-01
       -2   -1    0    0    0  501  0.00000000000E+00  0.00000000000E+00  0.96676435733E+03  0.96676435733E+03  0.25500000920E-02 0. -1.
        2   -1    0    0  501    0  0.00000000000E+00  0.00000000000E+00 -0.32741029597E+03  0.32741029598E+03  0.25500000920E-02 0.  1.
    10030    2    1    2    0    0  0.00000000000E+00  0.00000000000E+00  0.63935406136E+03  0.12941746533E+04  0.11252174979E+04 0.  0.
        4    1    3    3  502    0  0.25212236510E+03 -0.24218883699E+03  0.82666700944E+03  0.89755282693E+03  0.12699999809E+01 0. -1.
       -4    1    3    3    0  502 -0.25212236510E+03  0.24218883699E+03 -0.18731294808E+03  0.39662182638E+03  0.12699999809E+01 0.  1.
</event>
<event>
 5   0  0.4298101E-03  0.1077038E+04  0.7818609E-02  0.9227865E-01
       -1   -1    0    0    0  501  0.00000000000E+00  0.00000000000E+00  0.82531637104E+03  0.82531637106E+03  0.50400001928E-02 0.  1.
        1   -1    0    0  501    0  0.00000000000E+00  0.00000000000E+00 -0.35138398924E+03  0.35138398928E+03  0.50400001928E-02 0. -1.
    10030    2    1    2    0    0  0.00000000000E+00  0.00000000000E+00  0.47393238180E+03  0.11767003603E+04  0.10770384559E+04 0.  0.
        3    1    3    3  502    0  0.48477144250E+03  0.15573800395E+03  0.45397804396E+02  0.51119335694E+03  0.10100000352E+00 0. -1.
       -3    1    3    3    0  502 -0.48477144250E+03 -0.15573800395E+03  0.42853457740E+03  0.66550700339E+03  0.10100000352E+00 0.  1.
</event>
<event>
 5   0  0.4298101E-03  0.9327953E+03  0.7818609E-02  0.9385489E-01
        1   -1    0    0  501    0  0.00000000000E+00  0.00000000000E+00  0.15670996161E+04  0.15670996161E+04  0.50400001928E-02 0.  1.
       -1   -1    0    0    0  501  0.00000000000E+00  0.00000000000E+00 -0.13880850971E+03  0.13880850980E+03  0.50400001928E-02 0. -1.
    10030    2    1    2    0    0  0.00000000000E+00  0.00000000000E+00  0.14282911064E+04  0.17059081259E+04  0.93279528808E+03 0.  0.
        3    1    3    3  502    0 -0.45681400501E+02  0.28357420004E+03  0.13861581413E+04  0.14156042950E+04  0.10100000352E+00 0.  1.
       -3    1    3    3    0  502  0.45681400501E+02 -0.28357420004E+03  0.42132965130E+02  0.29030383089E+03  0.10100000352E+00 0. -1.
</event>
<event>
 5   0  0.7952121E-03  0.9493327E+03  0.7818609E-02  0.9365931E-01
       -2   -1    0    0    0  501  0.00000000000E+00  0.00000000000E+00  0.21599091491E+03  0.21599091493E+03  0.25500000920E-02 0. -1.
        2   -1    0    0  501    0  0.00000000000E+00  0.00000000000E+00 -0.10431370262E+04  0.10431370262E+04  0.25500000920E-02 0.  1.
    10030    2    1    2    0    0  0.00000000000E+00  0.00000000000E+00 -0.82714611128E+03  0.12591279411E+04  0.94933265125E+03 0.  0.
        3    1    3    3  502    0 -0.46800966816E+03  0.25457509772E+02 -0.31408086763E+03  0.56420557947E+03  0.10100000352E+00 0. -1.
       -3    1    3    3    0  502  0.46800966816E+03 -0.25457509772E+02 -0.51306524365E+03  0.69492236166E+03  0.10100000352E+00 0.  1.
</event>
<event>
 5   0  0.7738497E-03  0.1101979E+04  0.7818609E-02  0.9203265E-01
       -2   -1    0    0    0  501  0.00000000000E+00  0.00000000000E+00  0.57424495866E+03  0.57424495866E+03  0.25500000920E-02 0. -1.
        2   -1    0    0  501    0  0.00000000000E+00  0.00000000000E+00 -0.52867610409E+03  0.52867610410E+03  0.25500000920E-02 0.  1.
    10030    2    1    2    0    0  0.00000000000E+00  0.00000000000E+00  0.45568854567E+02  0.11029210628E+04  0.11019792875E+04 0.  0.
        4    1    3    3  502    0 -0.53068852263E+02  0.10395447822E+03 -0.51615988403E+03  0.52919323069E+03  0.12699999809E+01 0.  1.
       -4    1    3    3    0  502  0.53068852263E+02 -0.10395447822E+03  0.56172873860E+03  0.57372783207E+03  0.12699999809E+01 0. -1.
</event>
<event>
 5   0  0.4598561E-03  0.1080089E+04  0.7818609E-02  0.9224818E-01
       -1   -1    0    0    0  501  0.00000000000E+00  0.00000000000E+00  0.36020019508E+03  0.36020019511E+03  0.50400001928E-02 0.  1.
        1   -1    0    0  501    0  0.00000000000E+00  0.00000000000E+00 -0.80968395113E+03  0.80968395115E+03  0.50400001928E-02 0. -1.
    10030    2    1    2    0    0  0.00000000000E+00  0.00000000000E+00 -0.44948375606E+03  0.11698841463E+04  0.10800894726E+04 0.  0.
        2    1    3    3  502    0 -0.26255368465E+03  0.27831460652E+03  0.18806645749E+03  0.42633607631E+03  0.25500000920E-02 0.  1.
       -2    1    3    3    0  502  0.26255368465E+03 -0.27831460652E+03 -0.63755021355E+03  0.74354806995E+03  0.25500000920E-02 0. -1.
</event>
<event>
 5   0  0.4641021E-03  0.1101412E+04  0.7818609E-02  0.9203817E-01
        1   -1    0    0  501    0  0.00000000000E+00  0.00000000000E+00  0.14992231428E+04  0.14992231428E+04  0.50400001928E-02 0. -1.
       -1   -1    0    0    0  501  0.00000000000E+00  0.00000000000E+00 -0.20228934265E+03  0.20228934271E+03  0.50400001928E-02 0.  1.
    10030    2    1    2    0    0  0.00000000000E+00  0.00000000000E+00  0.12969338002E+04  0.17015124856E+04  0.11014115745E+04 0.  0.
        1    1    3    3  502    0 -0.63956820598E+02  0.43019960311E+03  0.12660416889E+03  0.45297989914E+03  0.50400001928E-02 0.  1.
       -1    1    3    3    0  502  0.63956820598E+02 -0.43019960311E+03  0.11703296313E+04  0.12485325864E+04  0.50400001928E-02 0. -1.
</event>
<event>
 5   0  0.4598561E-03  0.1100954E+04  0.7818609E-02  0.9204262E-01
        1   -1    0    0  501    0  0.00000000000E+00  0.00000000000E+00  0.59294730518E+03  0.59294730521E+03  0.50400001928E-02 0. -1.
       -1   -1    0    0    0  501  0.00000000000E+00  0.00000000000E+00 -0.51104908802E+03  0.51104908805E+03  0.50400001928E-02 0.  1.
    10030    2    1    2    0    0  0.00000000000E+00  0.00000000000E+00  0.81898217164E+02  0.11039963933E+04  0.11009544579E+04 0.  0.
        2    1    3    3  502    0  0.12354208453E+03 -0.47997976133E+03 -0.19925807748E+03  0.53417880844E+03  0.25500000920E-02 0.  1.
       -2    1    3    3    0  502 -0.12354208453E+03  0.47997976133E+03  0.28115629464E+03  0.56981758481E+03  0.25500000920E-02 0. -1.
</event>
<event>
 5   0  0.2992375E-03  0.1085440E+04  0.7818609E-02  0.9219501E-01
        3   -1    0    0  501    0  0.00000000000E+00  0.00000000000E+00  0.17221651081E+04  0.17221651111E+04  0.10100000352E+00 0.  1.
       -3   -1    0    0    0  501  0.00000000000E+00  0.00000000000E+00 -0.17103165723E+03  0.17103168705E+03  0.10100000352E+00 0. -1.
    10030    2    1    2    0    0  0.00000000000E+00  0.00000000000E+00  0.15511334509E+04  0.18931967982E+04  0.10854396040E+04 0.  0.
        3    1    3    3  502    0 -0.50205756157E+03 -0.20389082864E+03  0.72290799567E+03  0.90345406388E+03  0.10100000352E+00 0.  1.
       -3    1    3    3    0  502  0.50205756157E+03  0.20389082864E+03  0.82822545524E+03  0.98974273428E+03  0.10100000352E+00 0. -1.
</event>
<event>
 5   0  0.7738497E-03  0.1113067E+04  0.7818609E-02  0.9192549E-01
        2   -1    0    0  501    0  0.00000000000E+00  0.00000000000E+00  0.74283777355E+03  0.74283777355E+03  0.25500000920E-02 0. -1.
       -2   -1    0    0    0  501  0.00000000000E+00  0.00000000000E+00 -0.41695456402E+03  0.41695456403E+03  0.25500000920E-02 0.  1.
    10030    2    1    2    0    0  0.00000000000E+00  0.00000000000E+00  0.32588320952E+03  0.11597923376E+04  0.11130671139E+04 0.  0.
        4    1    3    3  502    0 -0.40449314273E+03 -0.38217609301E+03  0.15523388160E+03  0.57773042111E+03  0.12699999809E+01 0. -1.
       -4    1    3    3    0  502  0.40449314273E+03  0.38217609301E+03  0.17064932793E+03  0.58206191647E+03  0.12699999809E+01 0.  1.
</event>
<event>
 5   0  0.7738497E-03  0.1122498E+04  0.7818609E-02  0.9183537E-01
       -2   -1    0    0    0  501  0.00000000000E+00  0.00000000000E+00  0.22648348978E+03  0.22648348979E+03  0.25500000920E-02 0. -1.
        2   -1    0    0  501    0  0.00000000000E+00  0.00000000000E+00 -0.13908308393E+04  0.13908308393E+04  0.25500000920E-02 0.  1.
    10030    2    1    2    0    0  0.00000000000E+00  0.00000000000E+00 -0.11643473495E+04  0.16173143291E+04  0.11224976119E+04 0.  0.
        4    1    3    3  502    0  0.44850804239E+03  0.27620052218E+03 -0.30296561250E+03  0.60764789788E+03  0.12699999809E+01 0. -1.
       -4    1    3    3    0  502 -0.44850804239E+03 -0.27620052218E+03 -0.86138173697E+03  0.10096664312E+04  0.12699999809E+01 0.  1.
</event>
<event>
 5   0  0.7766551E-03  0.1244990E+04  0.7818609E-02  0.9074363E-01
        2   -1    0    0  501    0  0.00000000000E+00  0.00000000000E+00  0.75819696257E+03  0.75819696257E+03  0.25500000920E-02 0.  1.
       -2   -1    0    0    0  501  0.00000000000E+00  0.00000000000E+00 -0.51108087211E+03  0.51108087211E+03  0.25500000920E-02 0. -1.
    10030    2    1    2    0    0  0.00000000000E+00  0.00000000000E+00  0.24711609046E+03  0.12692778347E+04  0.12449899034E+04 0.  0.
        5    1    3    3  502    0 -0.24693978562E+03  0.49815923703E+03  0.40890388138E+03  0.69019298559E+03  0.46999998093E+01 0.  1.
       -5    1    3    3    0  502  0.24693978562E+03 -0.49815923703E+03 -0.16178779091E+03  0.57908484909E+03  0.46999998093E+01 0. -1.
</event>
<event>
 5   0  0.4298101E-03  0.1118096E+04  0.7818609E-02  0.9187732E-01
       -1   -1    0    0    0  501  0.00000000000E+00  0.00000000000E+00  0.44612508156E+03  0.44612508158E+03  0.50400001928E-02 0.  1.
        1   -1    0    0  501    0  0.00000000000E+00  0.00000000000E+00 -0.70055352621E+03  0.70055352623E+03  0.50400001928E-02 0. -1.
    10030    2    1    2    0    0  0.00000000000E+00  0.00000000000E+00 -0.25442844466E+03  0.11466786078E+04  0.11180957008E+04 0.  0.
        3    1    3    3  502    0 -0.20772150395E+03 -0.23913004041E+03  0.34521699162E+03  0.46851486736E+03  0.10100000352E+00 0.  1.
       -3    1    3    3    0  502  0.20772150395E+03  0.23913004041E+03 -0.59964543628E+03  0.67816374046E+03  0.10100000352E+00 0. -1.
</event>
<event>
 5   0  0.4598561E-03  0.1039329E+04  0.7818609E-02  0.9266431E-01
       -1   -1    0    0    0  501  0.00000000000E+00  0.00000000000E+00  0.48946106517E+03  0.48946106520E+03  0.50400001928E-02 0.  1.
        1   -1    0    0  501    0  0.00000000000E+00  0.00000000000E+00 -0.55173166389E+03  0.55173166392E+03  0.50400001928E-02 0. -1.
    10030    2    1    2    0    0  0.00000000000E+00  0.00000000000E+00 -0.62270598720E+02  0.10411927291E+04  0.10393289526E+04 0.  0.
        2    1    3    3  502    0  0.27658707812E+03  0.33893906767E+03  0.24985130402E+03  0.50379140277E+03  0.25500000920E-02 0.  1.
       -2    1    3    3    0  502 -0.27658707812E+03 -0.33893906767E+03 -0.31212190274E+03  0.53740132634E+03  0.25500000920E-02 0. -1.
</event>
<event>
 5   0  0.7537480E-03  0.1095761E+04  0.7818609E-02  0.9209333E-01
        2   -1    0    0  501    0  0.00000000000E+00  0.00000000000E+00  0.14499531392E+04  0.14499531392E+04  0.25500000920E-02 0.  1.
       -2   -1    0    0    0  501  0.00000000000E+00  0.00000000000E+00 -0.20702269663E+03  0.20702269665E+03  0.25500000920E-02 0. -1.
    10030    2    1    2    0    0  0.00000000000E+00  0.00000000000E+00  0.12429304425E+04  0.16569758358E+04  0.10957613041E+04 0.  0.
        1    1    3    3  502    0  0.21148367281E+01  0.91713195298E+02 -0.19532621350E+03  0.21579646066E+03  0.50400001928E-02 0. -1.
       -1    1    3    3    0  502 -0.21148367281E+01 -0.91713195298E+02  0.14382566560E+04  0.14411793752E+04  0.50400001928E-02 0.  1.
</event>
<event>
 5   0  0.4428114E-03  0.1107785E+04  0.7818609E-02  0.9197637E-01
        1   -1    0    0  501    0  0.00000000000E+00  0.00000000000E+00  0.40803429491E+03  0.40803429494E+03  0.50400001928E-02 0. -1.
       -1   -1    0    0    0  501  0.00000000000E+00  0.00000000000E+00 -0.75189013959E+03  0.75189013960E+03  0.50400001928E-02 0.  1.
    10030    2    1    2    0    0  0.00000000000E+00  0.00000000000E+00 -0.34385584468E+03  0.11599244345E+04  0.11077851109E+04 0.  0.
        4    1    3    3  502    0 -0.42065700258E+03  0.30154214885E+03 -0.37848246390E+03  0.64119464263E+03  0.12699999809E+01 0.  1.
       -4    1    3    3    0  502  0.42065700258E+03 -0.30154214885E+03  0.34626619228E+02  0.51872979191E+03  0.12699999809E+01 0. -1.
</event>
<event>
 5   0  0.7738497E-03  0.1085823E+04  0.7818609E-02  0.9219121E-01
        2   -1    0    0  501    0  0.00000000000E+00  0.00000000000E+00  0.10802720351E+04  0.10802720351E+04  0.25500000920E-02 0. -1.
       -2   -1    0    0    0  501  0.00000000000E+00  0.00000000000E+00 -0.27285057959E+03  0.27285057960E+03  0.25500000920E-02 0.  1.
    10030    2    1    2    0    0  0.00000000000E+00  0.00000000000E+00  0.80742145550E+03  0.13531226147E+04  0.10858229154E+04 0.  0.
        4    1    3    3  502    0 -0.22733761903E+03  0.49179669648E+03  0.44696663408E+03  0.70237252834E+03  0.12699999809E+01 0.  1.
       -4    1    3    3    0  502  0.22733761903E+03 -0.49179669648E+03  0.36045482142E+03  0.65075008635E+03  0.12699999809E+01 0. -1.
</event>
<event>
 5   0  0.2992375E-03  0.1099705E+04  0.7818609E-02  0.9205480E-01
       -3   -1    0    0    0  501  0.00000000000E+00  0.00000000000E+00  0.45773526442E+03  0.45773527556E+03  0.10100000352E+00 0.  1.
        3   -1    0    0  501    0  0.00000000000E+00  0.00000000000E+00 -0.66050767960E+03  0.66050768732E+03  0.10100000352E+00 0. -1.
    10030    2    1    2    0    0  0.00000000000E+00  0.00000000000E+00 -0.20277241518E+03  0.11182429629E+04  0.10997048112E+04 0.  0.
        4    1    3    3  502    0  0.94526680050E+02  0.20632200567E+03  0.40788780114E+03  0.46677417932E+03  0.12699999809E+01 0.  1.
       -4    1    3    3    0  502 -0.94526680050E+02 -0.20632200567E+03 -0.61066021632E+03  0.65146878356E+03  0.12699999809E+01 0. -1.
</event>
<event>
 5   0  0.7712816E-03  0.1080918E+04  0.7818609E-02  0.9223992E-01
        2   -1    0    0  501    0  0.00000000000E+00  0.00000000000E+00  0.70031681778E+03  0.70031681779E+03  0.25500000920E-02 0. -1.
       -2   -1    0    0    0  501  0.00000000000E+00  0.00000000000E+00 -0.41709136732E+03  0.41709136733E+03  0.25500000920E-02 0.  1.
    10030    2    1    2    0    0  0.00000000000E+00  0.00000000000E+00  0.28322545047E+03  0.11174081851E+04  0.10809183116E+04 0.  0.
        2    1    3    3  502    0 -0.29571581744E+02 -0.35483396033E+03  0.56192727444E+03  0.66523971591E+03  0.25500000920E-02 0. -1.
       -2    1    3    3    0  502  0.29571581744E+02  0.35483396033E+03 -0.27870182398E+03  0.45216846921E+03  0.25500000920E-02 0.  1.
</event>
<event>
 5   0  0.4428114E-03  0.1096746E+04  0.7818609E-02  0.9208370E-01
       -1   -1    0    0    0  501  0.00000000000E+00  0.00000000000E+00  0.14513389136E+03  0.14513389145E+03  0.50400001928E-02 0. -1.
        1   -1    0    0  501    0  0.00000000000E+00  0.00000000000E+00 -0.20719676515E+04  0.20719676515E+04  0.50400001928E-02 0.  1.
    10030    2    1    2    0    0  0.00000000000E+00  0.00000000000E+00 -0.19268337601E+04  0.22171015429E+04  0.10967456007E+04 0.  0.
        4    1    3    3  502    0  0.48479834039E+03  0.23197166136E+03 -0.11836690906E+04  0.12999670810E+04  0.12699999809E+01 0.  1.
       -4    1    3    3    0  502 -0.48479834039E+03 -0.23197166136E+03 -0.74316466948E+03  0.91713446200E+03  0.12699999809E+01 0. -1.
</event>
<event>
 5   0  0.7738497E-03  0.1087065E+04  0.7818609E-02  0.9217892E-01
       -2   -1    0    0    0  501  0.00000000000E+00  0.00000000000E+00  0.39524359506E+03  0.39524359507E+03  0.25500000920E-02 0. -1.
        2   -1    0    0  501    0  0.00000000000E+00  0.00000000000E+00 -0.74745717197E+03  0.74745717197E+03  0.25500000920E-02 0.  1.
    10030    2    1    2    0    0  0.00000000000E+00  0.00000000000E+00 -0.35221357691E+03  0.11427007670E+04  0.10870651495E+04 0.  0.
        4    1    3    3  502    0 -0.26769939695E+03 -0.36975868654E+03 -0.48623434879E+03  0.66694070819E+03  0.12699999809E+01 0.  1.
       -4    1    3    3    0  502  0.26769939695E+03  0.36975868654E+03  0.13402077189E+03  0.47576005885E+03  0.12699999809E+01 0. -1.
</event>
<event>
 5   0  0.4298101E-03  0.1097663E+04  0.7818609E-02  0.9207472E-01
       -1   -1    0    0    0  501  0.00000000000E+00  0.00000000000E+00  0.16645284102E+03  0.16645284110E+03  0.50400001928E-02 0. -1.
        1   -1    0    0  501    0  0.00000000000E+00  0.00000000000E+00 -0.18096182806E+04  0.18096182806E+04  0.50400001928E-02 0.  1.
    10030    2    1    2    0    0  0.00000000000E+00  0.00000000000E+00 -0.16431654396E+04  0.19760711217E+04  0.10976631616E+04 0.  0.
        3    1    3    3  502    0  0.10013497602E+03 -0.16647071032E+03  0.10248647689E+03  0.21964288962E+03  0.10100000352E+00 0. -1.
       -3    1    3    3    0  502 -0.10013497602E+03  0.16647071032E+03 -0.17456519165E+04  0.17564282321E+04  0.10100000352E+00 0.  1.
</event>
<event>
 5   0  0.7766551E-03  0.1463826E+04  0.7818609E-02  0.8908871E-01
        2   -1    0    0  501    0  0.00000000000E+00  0.00000000000E+00  0.16890414906E+04  0.16890414906E+04  0.25500000920E-02 0.  1.
       -2   -1    0    0    0  501  0.00000000000E+00  0.00000000000E+00 -0.31716008675E+03  0.31716008676E+03  0.25500000920E-02 0. -1.
    10030    2    1    2    0    0  0.00000000000E+00  0.00000000000E+00  0.13718814038E+04  0.20062015773E+04  0.14638258717E+04 0.  0.
        5    1    3    3  502    0 -0.63188292259E+02 -0.30996960395E+02  0.16843721175E+04  0.16858484784E+04  0.46999998093E+01 0.  1.
       -5    1    3    3    0  502  0.63188292259E+02  0.30996960395E+02 -0.31249071372E+03  0.32035309892E+03  0.46999998093E+01 0. -1.
</event>
<event>
 5   0  0.7766551E-03  0.1078350E+04  0.7818609E-02  0.9226554E-01
        2   -1    0    0  501    0  0.00000000000E+00  0.00000000000E+00  0.36209100051E+03  0.36209100052E+03  0.25500000920E-02 0. -1.
       -2   -1    0    0    0  501  0.00000000000E+00  0.00000000000E+00 -0.80286421137E+03  0.80286421137E+03  0.25500000920E-02 0.  1.
    10030    2    1    2    0    0  0.00000000000E+00  0.00000000000E+00 -0.44077321086E+03  0.11649552119E+04  0.10783504172E+04 0.  0.
        5    1    3    3  502    0 -0.66481718613E+02  0.53450001105E+03 -0.24635311675E+03  0.59230231204E+03  0.46999998093E+01 0.  1.
       -5    1    3    3    0  502  0.66481718613E+02 -0.53450001105E+03 -0.19442009410E+03  0.57265289985E+03  0.46999998093E+01 0. -1.
</event>
<event>
 5   0  0.7537480E-03  0.1083023E+04  0.7818609E-02  0.9221898E-01
        2   -1    0    0  501    0  0.00000000000E+00  0.00000000000E+00  0.14953283011E+04  0.14953283011E+04  0.25500000920E-02 0. -1.
       -2   -1    0    0    0  501  0.00000000000E+00  0.00000000000E+00 -0.19610069390E+03  0.19610069391E+03  0.25500000920E-02 0.  1.
    10030    2    1    2    0    0  0.00000000000E+00  0.00000000000E+00  0.12992276072E+04  0.16914289950E+04  0.10830233930E+04 0.  0.
        1    1    3    3  502    0 -0.26809188703E+03 -0.17654611072E+03  0.13307176685E+04  0.13688868845E+04  0.50400001928E-02 0. -1.
       -1    1    3    3    0  502  0.26809188703E+03  0.17654611072E+03 -0.31490061309E+02  0.32254211057E+03  0.50400001928E-02 0.  1.
</event>
<event>
 5   0  0.4598561E-03  0.1103486E+04  0.7818609E-02  0.9201800E-01
       -1   -1    0    0    0  501  0.00000000000E+00  0.00000000000E+00  0.23331589158E+03  0.23331589164E+03  0.50400001928E-02 0. -1.
        1   -1    0    0  501    0  0.00000000000E+00  0.00000000000E+00 -0.13047570003E+04  0.13047570003E+04  0.50400001928E-02 0.  1.
    10030    2    1    2    0    0  0.00000000000E+00  0.00000000000E+00 -0.10714411087E+04  0.15380728920E+04  0.11034863712E+04 0.  0.
        2    1    3    3  502    0 -0.43723287421E+03  0.17830014220E+03 -0.13791193192E+03  0.49191790776E+03  0.25500000920E-02 0. -1.
       -2    1    3    3    0  502  0.43723287421E+03 -0.17830014220E+03 -0.93352917681E+03  0.10461549842E+04  0.25500000920E-02 0.  1.
</event>
<event>
 5   0  0.4298101E-03  0.1073974E+04  0.7818609E-02  0.9230937E-01
        1   -1    0    0  501    0  0.00000000000E+00  0.00000000000E+00  0.67240078108E+03  0.67240078110E+03  0.50400001928E-02 0.  1.
       -1   -1    0    0    0  501  0.00000000000E+00  0.00000000000E+00 -0.42884368804E+03  0.42884368807E+03  0.50400001928E-02 0. -1.
    10030    2    1    2    0    0  0.00000000000E+00  0.00000000000E+00  0.24355709304E+03  0.11012444692E+04  0.10739736139E+04 0.  0.
        3    1    3    3  502    0 -0.68259858278E+02 -0.54853311873E+02 -0.42147292567E+03  0.43047384514E+03  0.10100000352E+00 0. -1.
       -3    1    3    3    0  502  0.68259858278E+02  0.54853311873E+02  0.66503001871E+03  0.67077062403E+03  0.10100000352E+00 0.  1.
</event>
<event>
 5   0  0.4298101E-03  0.1095182E+04  0.7818609E-02  0.9209901E-01
        1   -1    0    0  501    0  0.00000000000E+00  0.00000000000E+00  0.26993523076E+03  0.26993523081E+03  0.50400001928E-02 0. -1.
       -1   -1    0    0    0  501  0.00000000000E+00  0.00000000000E+00 -0.11108430038E+04  0.11108430038E+04  0.50400001928E-02 0.  1.
    10030    2    1    2    0    0  0.00000000000E+00  0.00000000000E+00 -0.84090777302E+03  0.13807782346E+04  0.10951815605E+04 0.  0.
        3    1    3    3  502    0 -0.71708127342E+02 -0.53408300608E+03 -0.54313804278E+03  0.76510499712E+03  0.10100000352E+00 0. -1.
       -3    1    3    3    0  502  0.71708127342E+02  0.53408300608E+03 -0.29776973024E+03  0.61567323749E+03  0.10100000352E+00 0.  1.
</event>
<event>
 5   0  0.7738497E-03  0.1099908E+04  0.7818609E-02  0.9205282E-01
       -2   -1    0    0    0  501  0.00000000000E+00  0.00000000000E+00  0.33592985043E+03  0.33592985044E+03  0.25500000920E-02 0.  1.
        2   -1    0    0  501    0  0.00000000000E+00  0.00000000000E+00 -0.90033454117E+03  0.90033454117E+03  0.25500000920E-02 0. -1.
    10030    2    1    2    0    0  0.00000000000E+00  0.00000000000E+00 -0.56440469074E+03  0.12362643916E+04  0.10999077193E+04 0.  0.
        4    1    3    3  502    0 -0.50483544296E+03 -0.14663464241E+03 -0.10066417860E+03  0.53525268106E+03  0.12699999809E+01 0.  1.
       -4    1    3    3    0  502  0.50483544296E+03  0.14663464241E+03 -0.46374051214E+03  0.70101171055E+03  0.12699999809E+01 0. -1.
</event>
<event>
 5   0  0.4504740E-03  0.1125339E+04  0.7818609E-02  0.9180840E-01
       -1   -1    0    0    0  501  0.00000000000E+00  0.00000000000E+00  0.31110305047E+03  0.31110305051E+03  0.50400001928E-02 0. -1.
        1   -1    0    0  501    0  0.00000000000E+00  0.00000000000E+00 -0.10176603527E+04  0.10176603527E+04  0.50400001928E-02 0.  1.
    10030    2    1    2    0    0  0.00000000000E+00  0.00000000000E+00 -0.70655730219E+03  0.13287634032E+04  0.11253394867E+04 0.  0.
        5    1    3    3  502    0 -0.42015477879E+03 -0.21424656395E+03 -0.71557113195E+03  0.85702728263E+03  0.46999998093E+01 0.  1.
       -5    1    3    3    0  502  0.42015477879E+03  0.21424656395E+03  0.90138297620E+01  0.47173612055E+03  0.46999998093E+01 0. -1.
</event>
<event>
 5   0  0.4428114E-03  0.1105142E+04  0.7818609E-02  0.9200195E-01
        1   -1    0    0  501    0  0.00000000000E+00  0.00000000000E+00  0.58816530377E+03  0.58816530379E+03  0.50400001928E-02 0. -1.
       -1   -1    0    0    0  501  0.00000000000E+00  0.00000000000E+00 -0.51913050329E+03  0.51913050331E+03  0.50400001928E-02 0.  1.
    10030    2    1    2    0    0  0.00000000000E+00  0.00000000000E+00  0.69034800488E+02  0.11072958071E+04  0.11051417107E+04 0.  0.
        4    1    3    3  502    0  0.16803162929E+03 -0.66421391063E+02 -0.48869437535E+03  0.52102805589E+03  0.12699999809E+01 0.  1.
       -4    1    3    3    0  502 -0.16803162929E+03  0.66421391063E+02  0.55772917583E+03  0.58626775121E+03  0.12699999809E+01 0. -1.
</event>
<event>
 5   0  0.4598561E-03  0.1096108E+04  0.7818609E-02  0.9208993E-01
       -1   -1    0    0    0  501  0.00000000000E+00  0.00000000000E+00  0.17895867753E+03  0.17895867760E+03  0.50400001928E-02 0. -1.
        1   -1    0    0  501    0  0.00000000000E+00  0.00000000000E+00 -0.16783955113E+04  0.16783955113E+04  0.50400001928E-02 0.  1.
    10030    2    1    2    0    0  0.00000000000E+00  0.00000000000E+00 -0.14994368338E+04  0.18573541889E+04  0.10961084639E+04 0.  0.
        2    1    3    3  502    0  0.10949521745E+03 -0.32437988027E+03 -0.24536526448E+02  0.34323978572E+03  0.25500000920E-02 0. -1.
       -2    1    3    3    0  502 -0.10949521745E+03  0.32437988027E+03 -0.14749003074E+04  0.15141144032E+04  0.25500000920E-02 0.  1.
</event>
<event>
 5   0  0.7952121E-03  0.1053124E+04  0.7818609E-02  0.9252125E-01
        2   -1    0    0  501    0  0.00000000000E+00  0.00000000000E+00  0.11035011505E+04  0.11035011505E+04  0.25500000920E-02 0. -1.
       -2   -1    0    0    0  501  0.00000000000E+00  0.00000000000E+00 -0.25126161522E+03  0.25126161523E+03  0.25500000920E-02 0.  1.
    10030    2    1    2    0    0  0.00000000000E+00  0.00000000000E+00  0.85223953526E+03  0.13547627657E+04  0.10531238891E+04 0.  0.
        3    1    3    3  502    0  0.16779109892E+01  0.23724273734E+03 -0.17860924130E+03  0.29696498629E+03  0.10100000352E+00 0.  1.
       -3    1    3    3    0  502 -0.16779109892E+01 -0.23724273734E+03  0.10308487766E+04  0.10577977794E+04  0.10100000352E+00 0. -1.
</event>
<event>
 5   0  0.7738497E-03  0.1090079E+04  0.7818609E-02  0.9214916E-01
        2   -1    0    0  501    0  0.00000000000E+00  0.00000000000E+00  0.69997492500E+03  0.69997492501E+03  0.25500000920E-02 0.  1.
       -2   -1    0    0    0  501  0.00000000000E+00  0.00000000000E+00 -0.42439780881E+03  0.42439780882E+03  0.25500000920E-02 0. -1.
    10030    2    1    2    0    0  0.00000000000E+00  0.00000000000E+00  0.27557711619E+03  0.11243727338E+04  0.10900785741E+04 0.  0.
        4    1    3    3  502    0  0.28800521960E+03  0.18782178715E+03  0.57399038579E+03  0.66909685855E+03  0.12699999809E+01 0.  1.
       -4    1    3    3    0  502 -0.28800521960E+03 -0.18782178715E+03 -0.29841326959E+03  0.45527587528E+03  0.12699999809E+01 0. -1.
</event>
<event>
 5   0  0.7537480E-03  0.1100079E+04  0.7818609E-02  0.9205115E-01
        2   -1    0    0  501    0  0.00000000000E+00  0.00000000000E+00  0.84616892062E+03  0.84616892063E+03  0.25500000920E-02 0.  1.
       -2   -1    0    0    0  501  0.00000000000E+00  0.00000000000E+00 -0.35754484552E+03  0.35754484553E+03  0.25500000920E-02 0. -1.
    10030    2    1    2    0    0  0.00000000000E+00  0.00000000000E+00  0.48862407510E+03  0.12037137662E+04  0.11000787899E+04 0.  0.
        1    1    3    3  502    0 -0.24613106795E+03 -0.49164478421E+03  0.22707213061E+03  0.59485867983E+03  0.50400001928E-02 0.  1.
       -1    1    3    3    0  502  0.24613106795E+03  0.49164478421E+03  0.26155194450E+03  0.60885508632E+03  0.50400001928E-02 0. -1.
</event>
<event>
 5   0  0.7952121E-03  0.1097210E+04  0.7818609E-02  0.9207916E-01
       -2   -1    0    0    0  501  0.00000000000E+00  0.00000000000E+00  0.57819864860E+03  0.57819864861E+03  0.25500000920E-02 0. -1.
        2   -1    0    0  501    0  0.00000000000E+00  0.00000000000E+00 -0.52052577858E+03  0.52052577858E+03  0.25500000920E-02 0.  1.
    10030    2    1    2    0    0  0.00000000000E+00  0.00000000000E+00  0.57672870023E+02  0.10987244272E+04  0.10972097370E+04 0.  0.
        3    1    3    3  502    0  0.82030268226E+02 -0.43908454285E+03  0.34777744384E+03  0.56610366659E+03  0.10100000352E+00 0.  1.
       -3    1    3    3    0  502 -0.82030268226E+02  0.43908454285E+03 -0.29010457382E+03  0.53262076060E+03  0.10100000352E+00 0. -1.
</event>
<event>
 5   0  0.4504740E-03  0.1145627E+04  0.7818609E-02  0.9161827E-01
        1   -1    0    0  501    0  0.00000000000E+00  0.00000000000E+00  0.54284193196E+03  0.54284193198E+03  0.50400001928E-02 0.  1.
       -1   -1    0    0    0  501  0.00000000000E+00  0.00000000000E+00 -0.60444009127E+03  0.60444009130E+03  0.50400001928E-02 0. -1.
    10030    2    1    2    0    0  0.00000000000E+00  0.00000000000E+00 -0.61598159313E+02  0.11472820233E+04  0.11456272115E+04 0.  0.
        5    1    3    3  502    0 -0.21752299029E+03  0.51243769042E+03  0.10424636129E+03  0.56639035276E+03  0.46999998093E+01 0.  1.
       -5    1    3    3    0  502  0.21752299029E+03 -0.51243769042E+03 -0.16584452061E+03  0.58089167052E+03  0.46999998093E+01 0. -1.
</event>
<event>
 5   0  0.4428114E-03  0.1121346E+04  0.7818609E-02  0.9184633E-01
       -1   -1    0    0    0  501  0.00000000000E+00  0.00000000000E+00  0.28178325197E+03  0.28178325201E+03  0.50400001928E-02 0.  1.
        1   -1    0    0  501    0  0.00000000000E+00  0.00000000000E+00 -0.11155886785E+04  0.11155886785E+04  0.50400001928E-02 0. -1.
    10030    2    1    2    0    0  0.00000000000E+00  0.00000000000E+00 -0.83380542656E+03  0.13973719306E+04  0.11213459872E+04 0.  0.
        4    1    3    3  502    0  0.86105916293E+02 -0.22181090397E+03 -0.10495502927E+04  0.10761838764E+04  0.12699999809E+01 0. -1.
       -4    1    3    3    0  502 -0.86105916293E+02  0.22181090397E+03  0.21574486618E+03  0.32118805414E+03  0.12699999809E+01 0.  1.
</event>
<event>
 5   0  0.4504740E-03  0.1096319E+04  0.7818609E-02  0.9208787E-01
        1   -1    0    0  501    0  0.00000000000E+00  0.00000000000E+00  0.13268898594E+04  0.13268898594E+04  0.50400001928E-02 0. -1.
       -1   -1    0    0    0  501  0.00000000000E+00  0.00000000000E+00 -0.22645335216E+03  0.22645335222E+03  0.50400001928E-02 0.  1.
    10030    2    1    2    0    0  0.00000000000E+00  0.00000000000E+00  0.11004365072E+04  0.15533432116E+04  0.10963186702E+04 0.  0.
        5    1    3    3  502    0 -0.39665468808E+03  0.11145598390E+03  0.37985836674E+02  0.41379027503E+03  0.46999998093E+01 0.  1.
       -5    1    3    3    0  502  0.39665468808E+03 -0.11145598390E+03  0.10624506705E+04  0.11395529366E+04  0.46999998093E+01 0. -1.
</event>
<event>
 5   0  0.4641021E-03  0.8235473E+03  0.7818609E-02  0.9526545E-01
        1   -1    0    0  501    0  0.00000000000E+00  0.00000000000E+00  0.10137228135E+04  0.10137228135E+04  0.50400001928E-02 0. -1.
       -1   -1    0    0    0  501  0.00000000000E+00  0.00000000000E+00 -0.16726223228E+03  0.16726223236E+03  0.50400001928E-02 0.  1.
    10030    2    1    2    0    0  0.00000000000E+00  0.00000000000E+00  0.84646058119E+03  0.11809850458E+04  0.82354730465E+03 0.  0.
        1    1    3    3  502    0  0.17309708713E+03  0.16359439678E+03  0.90492472737E+03  0.93574274801E+03  0.50400001928E-02 0. -1.
       -1    1    3    3    0  502 -0.17309708713E+03 -0.16359439678E+03 -0.58464146176E+02  0.24524229783E+03  0.50400001928E-02 0.  1.
</event>
<event>
 5   0  0.7738497E-03  0.1094274E+04  0.7818609E-02  0.9210791E-01
        2   -1    0    0  501    0  0.00000000000E+00  0.00000000000E+00  0.51144729987E+03  0.51144729988E+03  0.25500000920E-02 0.  1.
       -2   -1    0    0    0  501  0.00000000000E+00  0.00000000000E+00 -0.58531750893E+03  0.58531750893E+03  0.25500000920E-02 0. -1.
    10030    2    1    2    0    0  0.00000000000E+00  0.00000000000E+00 -0.73870209058E+02  0.10967648088E+04  0.10942742974E+04 0.  0.
        4    1    3    3  502    0  0.34872872561E+03  0.28717692040E+03 -0.34630432565E+03  0.56921929565E+03  0.12699999809E+01 0. -1.
       -4    1    3    3    0  502 -0.34872872561E+03 -0.28717692040E+03  0.27243411659E+03  0.52754551316E+03  0.12699999809E+01 0.  1.
</event>
<event>
 5   0  0.7537480E-03  0.1098897E+04  0.7818609E-02  0.9206267E-01
       -2   -1    0    0    0  501  0.00000000000E+00  0.00000000000E+00  0.18392662355E+04  0.18392662355E+04  0.25500000920E-02 0. -1.
        2   -1    0    0  501    0  0.00000000000E+00  0.00000000000E+00 -0.16413812170E+03  0.16413812172E+03  0.25500000920E-02 0.  1.
    10030    2    1    2    0    0  0.00000000000E+00  0.00000000000E+00  0.16751281138E+04  0.20034043572E+04  0.10988970930E+04 0.  0.
        1    1    3    3  502    0 -0.17878199047E+03  0.49559270901E+03  0.11218665204E+04  0.12394190667E+04  0.50400001928E-02 0. -1.
       -1    1    3    3    0  502  0.17878199047E+03 -0.49559270901E+03  0.55326159340E+03  0.76398529050E+03  0.50400001928E-02 0.  1.
</event>
<event>
 5   0  0.7712816E-03  0.1095575E+04  0.7818609E-02  0.9209516E-01
        2   -1    0    0  501    0  0.00000000000E+00  0.00000000000E+00  0.43257176258E+03  0.43257176259E+03  0.25500000920E-02 0. -1.
       -2   -1    0    0    0  501  0.00000000000E+00  0.00000000000E+00 -0.69369043599E+03  0.69369043600E+03  0.25500000920E-02 0.  1.
    10030    2    1    2    0    0  0.00000000000E+00  0.00000000000E+00 -0.26111867341E+03  0.11262621986E+04  0.10955745426E+04 0.  0.
        2    1    3    3  502    0  0.41736267096E+03  0.51738351786E+02  0.23027447614E+03  0.47947345132E+03  0.25500000920E-02 0. -1.
       -2    1    3    3    0  502 -0.41736267096E+03 -0.51738351786E+02 -0.49139314955E+03  0.64678874726E+03  0.25500000920E-02 0.  1.
</event>
<event>
 5   0  0.4298101E-03  0.1110042E+04  0.7818609E-02  0.9195460E-01
       -1   -1    0    0    0  501  0.00000000000E+00  0.00000000000E+00  0.76724790210E+03  0.76724790211E+03  0.50400001928E-02 0. -1.
        1   -1    0    0  501    0  0.00000000000E+00  0.00000000000E+00 -0.40149743438E+03  0.40149743441E+03  0.50400001928E-02 0.  1.
    10030    2    1    2    0    0  0.00000000000E+00  0.00000000000E+00  0.36575046772E+03  0.11687453365E+04  0.11100415564E+04 0.  0.
        3    1    3    3  502    0 -0.38749856657E+03 -0.28906757580E+03  0.46993415618E+03  0.67420569845E+03  0.10100000352E+00 0. -1.
       -3    1    3    3    0  502  0.38749856657E+03  0.28906757580E+03 -0.10418368846E+03  0.49453963807E+03  0.10100000352E+00 0.  1.
</event>
<event>
 5   0  0.7952121E-03  0.1135097E+04  0.7818609E-02  0.9171643E-01
        2   -1    0    0  501    0  0.00000000000E+00  0.00000000000E+00  0.75505234472E+03  0.75505234472E+03  0.25500000920E-02 0.  1.
       -2   -1    0    0    0  501  0.00000000000E+00  0.00000000000E+00 -0.42660790194E+03  0.42660790195E+03  0.25500000920E-02 0. -1.
    10030    2    1    2    0    0  0.00000000000E+00  0.00000000000E+00  0.32844444278E+03  0.11816602467E+04  0.11350969943E+04 0.  0.
        3    1    3    3  502    0 -0.32300436933E+03  0.19271703945E+03 -0.27822975653E+03  0.46784985574E+03  0.10100000352E+00 0. -1.
       -3    1    3    3    0  502  0.32300436933E+03 -0.19271703945E+03  0.60667419931E+03  0.71381039093E+03  0.10100000352E+00 0.  1.
</event>
<event>
 5   0  0.7766551E-03  0.9476120E+03  0.7818609E-02  0.9367946E-01
       -2   -1    0    0    0  501  0.00000000000E+00  0.00000000000E+00  0.40855537725E+03  0.40855537726E+03  0.25500000920E-02 0.  1.
        2   -1    0    0  501    0  0.00000000000E+00  0.00000000000E+00 -0.54947787163E+03  0.54947787164E+03  0.25500000920E-02 0. -1.
    10030    2    1    2    0    0  0.00000000000E+00  0.00000000000E+00 -0.14092249438E+03  0.95803324889E+03  0.94761202850E+03 0.  0.
        5    1    3    3  502    0 -0.17645526868E+03  0.14547283178E+02  0.37382805011E+03  0.41366361496E+03  0.46999998093E+01 0.  1.
       -5    1    3    3    0  502  0.17645526868E+03 -0.14547283178E+02 -0.51475054449E+03  0.54436963393E+03  0.46999998093E+01 0. -1.
</event>
<event>
 5   0  0.7537480E-03  0.1109875E+04  0.7818609E-02  0.9195620E-01
        2   -1    0    0  501    0  0.00000000000E+00  0.00000000000E+00  0.63681682830E+03  0.63681682830E+03  0.25500000920E-02 0.  1.
       -2   -1    0    0    0  501  0.00000000000E+00  0.00000000000E+00 -0.48358584665E+03  0.48358584666E+03  0.25500000920E-02 0. -1.
    10030    2    1    2    0    0  0.00000000000E+00  0.00000000000E+00  0.15323098165E+03  0.11204026750E+04  0.11098749571E+04 0.  0.
        1    1    3    3  502    0  0.65876525247E+02 -0.51436906124E+03  0.27607602454E+03  0.58748039890E+03  0.50400001928E-02 0. -1.
       -1    1    3    3    0  502 -0.65876525247E+02  0.51436906124E+03 -0.12284504290E+03  0.53292227607E+03  0.50400001928E-02 0.  1.
</event>
<event>
 5   0  0.4298101E-03  0.1091502E+04  0.7818609E-02  0.9213515E-01
       -1   -1    0    0    0  501  0.00000000000E+00  0.00000000000E+00  0.69087772789E+03  0.69087772791E+03  0.50400001928E-02 0. -1.
        1   -1    0    0  501    0  0.00000000000E+00  0.00000000000E+00 -0.43110958582E+03  0.43110958585E+03  0.50400001928E-02 0.  1.
    10030    2    1    2    0    0  0.00000000000E+00  0.00000000000E+00  0.25976814207E+03  0.11219873138E+04  0.10915017382E+04 0.  0.
        3    1    3    3  502    0  0.18598208798E+03 -0.43615609296E+03 -0.14789015241E+03  0.49668197255E+03  0.10100000352E+00 0. -1.
       -3    1    3    3    0  502 -0.18598208798E+03  0.43615609296E+03  0.40765829448E+03  0.62530534120E+03  0.10100000352E+00 0.  1.
</event>
<event>
 5   0  0.4428114E-03  0.1103929E+04  0.7818609E-02  0.9201371E-01
       -1   -1    0    0    0  501  0.00000000000E+00  0.00000000000E+00  0.51717616506E+03  0.51717616509E+03  0.50400001928E-02 0. -1.
        1   -1    0    0  501    0  0.00000000000E+00  0.00000000000E+00 -0.58909269264E+03  0.58909269267E+03  0.50400001928E-02 0.  1.
    10030    2    1    2    0    0  0.00000000000E+00  0.00000000000E+00 -0.71916527582E+02  0.11062688578E+04  0.11039288015E+04 0.  0.
        4    1    3    3  502    0 -0.36778738490E+03 -0.46024808234E+02  0.37390411285E+03  0.52649002078E+03  0.12699999809E+01 0. -1.
       -4    1    3    3    0  502  0.36778738490E+03  0.46024808234E+02 -0.44582064044E+03  0.57977883698E+03  0.12699999809E+01 0.  1.
</event>
<event>
 5   0  0.4298101E-03  0.1088969E+04  0.7818609E-02  0.9216010E-01
        1   -1    0    0  501    0  0.00000000000E+00  0.00000000000E+00  0.16872665848E+04  0.16872665848E+04  0.50400001928E-02 0. -1.
       -1   -1    0    0    0  501  0.00000000000E+00  0.00000000000E+00 -0.17570634778E+03  0.17570634785E+03  0.50400001928E-02 0.  1.
    10030    2    1    2    0    0  0.00000000000E+00  0.00000000000E+00  0.15115602371E+04  0.18629729327E+04  0.10889691445E+04 0.  0.
        3    1    3    3  502    0 -0.17502383103E+03  0.49341153736E+03  0.49987794559E+03  0.72385513559E+03  0.10100000352E+00 0.  1.
       -3    1    3    3    0  502  0.17502383103E+03 -0.49341153736E+03  0.10116822915E+04  0.11391177971E+04  0.10100000352E+00 0. -1.
</event>
<event>
 5   0  0.7738497E-03  0.1103078E+04  0.7818609E-02  0.9202197E-01
       -2   -1    0    0    0  501  0.00000000000E+00  0.00000000000E+00  0.37511645168E+03  0.37511645169E+03  0.25500000920E-02 0. -1.
        2   -1    0    0  501    0  0.00000000000E+00  0.00000000000E+00 -0.81093565529E+03  0.81093565530E+03  0.25500000920E-02 0.  1.
    10030    2    1    2    0    0  0.00000000000E+00  0.00000000000E+00 -0.43581920361E+03  0.11860521070E+04  0.11030780672E+04 0.  0.
        4    1    3    3  502    0  0.88190116510E+02 -0.25557340527E+03 -0.73479708784E+03  0.78295825900E+03  0.12699999809E+01 0.  1.
       -4    1    3    3    0  502 -0.88190116510E+02  0.25557340527E+03  0.29897788423E+03  0.40309384799E+03  0.12699999809E+01 0. -1.
</event>
<event>
 5   0  0.7766551E-03  0.1102770E+04  0.7818609E-02  0.9202497E-01
        2   -1    0    0  501    0  0.00000000000E+00  0.00000000000E+00  0.36387092240E+03  0.36387092241E+03  0.25500000920E-02 0.  1.
       -2   -1    0    0    0  501  0.00000000000E+00  0.00000000000E+00 -0.83553040319E+03  0.83553040320E+03  0.25500000920E-02 0. -1.
    10030    2    1    2    0    0  0.00000000000E+00  0.00000000000E+00 -0.47165948079E+03  0.11994013256E+04  0.11027696378E+04 0.  0.
        5    1    3    3  502    0  0.17495133557E+03 -0.31763181066E+03 -0.68756169114E+03  0.77734233519E+03  0.46999998093E+01 0. -1.
       -5    1    3    3    0  502 -0.17495133557E+03  0.31763181066E+03  0.21590221034E+03  0.42205899042E+03  0.46999998093E+01 0.  1.
</event>
<event>
 5   0  0.7712816E-03  0.1114586E+04  0.7818609E-02  0.9191091E-01
       -2   -1    0    0    0  501  0.00000000000E+00  0.00000000000E+00  0.29549078295E+03  0.29549078296E+03  0.25500000920E-02 0. -1.
        2   -1    0    0  501    0  0.00000000000E+00  0.00000000000E+00 -0.10510490163E+04  0.10510490163E+04  0.25500000920E-02 0.  1.
    10030    2    1    2    0    0  0.00000000000E+00  0.00000000000E+00 -0.75555823333E+03  0.13465397992E+04  0.11145856571E+04 0.  0.
        2    1    3    3  502    0 -0.37823899406E+00 -0.18071943486E+03  0.25910766845E+03  0.31590574711E+03  0.25500000920E-02 0. -1.
       -2    1    3    3    0  502  0.37823899406E+00  0.18071943486E+03 -0.10146659018E+04  0.10306340521E+04  0.25500000920E-02 0.  1.
</event>
<event>
 5   0  0.7952121E-03  0.6874725E+03  0.7818609E-02  0.9738899E-01
       -2   -1    0    0    0  501  0.00000000000E+00  0.00000000000E+00  0.10408176366E+03  0.10408176369E+03  0.25500000920E-02 0.  1.
        2   -1    0    0  501    0  0.00000000000E+00  0.00000000000E+00 -0.11352094402E+04  0.11352094402E+04  0.25500000920E-02 0. -1.
    10030    2    1    2    0    0  0.00000000000E+00  0.00000000000E+00 -0.10311276766E+04  0.12392912039E+04  0.68747247417E+03 0.  0.
        3    1    3    3  502    0  0.35627654372E+02  0.73442088328E+02 -0.11174841130E+04  0.11204614332E+04  0.10100000352E+00 0. -1.
       -3    1    3    3    0  502 -0.35627654372E+02 -0.73442088328E+02  0.86356436487E+02  0.11882977076E+03  0.10100000352E+00 0.  1.
</event>
<event>
 5   0  0.7712816E-03  0.1094078E+04  0.7818609E-02  0.9210983E-01
       -2   -1    0    0    0  501  0.00000000000E+00  0.00000000000E+00  0.14195868599E+03  0.14195868601E+03  0.25500000920E-02 0. -1.
        2   -1    0    0  501    0  0.00000000000E+00  0.00000000000E+00 -0.21080212481E+04  0.21080212481E+04  0.25500000920E-02 0.  1.
    10030    2    1    2    0    0  0.00000000000E+00  0.00000000000E+00 -0.19660625621E+04  0.22499799341E+04  0.10940784733E+04 0.  0.
        2    1    3    3  502    0  0.34966554281E+03  0.10539266046E+03 -0.14545380814E+03  0.39310356780E+03  0.25500000920E-02 0. -1.
       -2    1    3    3    0  502 -0.34966554281E+03 -0.10539266046E+03 -0.18206087540E+04  0.18568763663E+04  0.25500000920E-02 0.  1.
</event>
<event>
 5   0  0.7952121E-03  0.1101738E+04  0.7818609E-02  0.9203500E-01
       -2   -1    0    0    0  501  0.00000000000E+00  0.00000000000E+00  0.33572793939E+03  0.33572793940E+03  0.25500000920E-02 0.  1.
        2   -1    0    0  501    0  0.00000000000E+00  0.00000000000E+00 -0.90387654126E+03  0.90387654126E+03  0.25500000920E-02 0. -1.
    10030    2    1    2    0    0  0.00000000000E+00  0.00000000000E+00 -0.56814860186E+03  0.12396044807E+04  0.11017379156E+04 0.  0.
        3    1    3    3  502    0  0.52657338780E+03 -0.77065798426E+02 -0.44413616478E+03  0.69316348223E+03  0.10100000352E+00 0.  1.
       -3    1    3    3    0  502 -0.52657338780E+03  0.77065798426E+02 -0.12401243708E+03  0.54644099844E+03  0.10100000352E+00 0. -1.
</event>
<event>
 5   0  0.7952121E-03  0.1138712E+04  0.7818609E-02  0.9168260E-01
        2   -1    0    0  501    0  0.00000000000E+00  0.00000000000E+00  0.48457813487E+03  0.48457813488E+03  0.25500000920E-02 0.  1.
       -2   -1    0    0    0  501  0.00000000000E+00  0.00000000000E+00 -0.66896636893E+03  0.66896636893E+03  0.25500000920E-02 0. -1.
    10030    2    1    2    0    0  0.00000000000E+00  0.00000000000E+00 -0.18438823406E+03  0.11535445038E+04  0.11387123875E+04 0.  0.
        3    1    3    3  502    0  0.21228698685E+03  0.33751670134E+03  0.31952706987E+03  0.51096070989E+03  0.10100000352E+00 0.  1.
       -3    1    3    3    0  502 -0.21228698685E+03 -0.33751670134E+03 -0.50391530393E+03  0.64258379392E+03  0.10100000352E+00 0. -1.
</event>
<event>
 5   0  0.7738497E-03  0.1138289E+04  0.7818609E-02  0.9168656E-01
       -2   -1    0    0    0  501  0.00000000000E+00  0.00000000000E+00  0.66623585639E+03  0.66623585640E+03  0.25500000920E-02 0. -1.
        2   -1    0    0  501    0  0.00000000000E+00  0.00000000000E+00 -0.48620257578E+03  0.48620257578E+03  0.25500000920E-02 0.  1.
    10030    2    1    2    0    0  0.00000000000E+00  0.00000000000E+00  0.18003328062E+03  0.11524384322E+04  0.11382892242E+04 0.  0.
        4    1    3    3  502    0  0.43763161604E+03 -0.94202061682E+02  0.44585168840E+03  0.63180756622E+03  0.12699999809E+01 0. -1.
       -4    1    3    3    0  502 -0.43763161604E+03  0.94202061682E+02 -0.26581840778E+03  0.52063086597E+03  0.12699999809E+01 0.  1.
</event>
<event>
 5   0  0.4298101E-03  0.1105035E+04  0.7818609E-02  0.9200298E-01
       -1   -1    0    0    0  501  0.00000000000E+00  0.00000000000E+00  0.52588691128E+03  0.52588691131E+03  0.50400001928E-02 0.  1.
        1   -1    0    0  501    0  0.00000000000E+00  0.00000000000E+00 -0.58049687013E+03  0.58049687015E+03  0.50400001928E-02 0. -1.
    10030    2    1    2    0    0  0.00000000000E+00  0.00000000000E+00 -0.54609958847E+02  0.11063837815E+04  0.11050352140E+04 0.  0.
        3    1    3    3  502    0 -0.39595646618E+03  0.19983136266E+03  0.30258399377E+03  0.53690891230E+03  0.10100000352E+00 0.  1.
       -3    1    3    3    0  502  0.39595646618E+03 -0.19983136266E+03 -0.35719395262E+03  0.56947486916E+03  0.10100000352E+00 0. -1.
</event>
<event>
 5   0  0.4598561E-03  0.1072029E+04  0.7818609E-02  0.9232891E-01
       -1   -1    0    0    0  501  0.00000000000E+00  0.00000000000E+00  0.78411346509E+03  0.78411346511E+03  0.50400001928E-02 0.  1.
        1   -1    0    0  501    0  0.00000000000E+00  0.00000000000E+00 -0.36641610038E+03  0.36641610041E+03  0.50400001928E-02 0. -1.
    10030    2    1    2    0    0  0.00000000000E+00  0.00000000000E+00  0.41769736472E+03  0.11505295655E+04  0.10720294738E+04 0.  0.
        2    1    3    3  502    0 -0.30321818142E+03 -0.23371739559E+03 -0.19378507693E+03  0.42908943426E+03  0.25500000920E-02 0. -1.
       -2    1    3    3    0  502  0.30321818142E+03  0.23371739559E+03  0.61148244165E+03  0.72144013126E+03  0.25500000920E-02 0.  1.
</event>
<event>
 5   0  0.4598561E-03  0.1105795E+04  0.7818609E-02  0.9199562E-01
        1   -1    0    0  501    0  0.00000000000E+00  0.00000000000E+00  0.49834595499E+03  0.49834595502E+03  0.50400001928E-02 0. -1.
       -1   -1    0    0    0  501  0.00000000000E+00  0.00000000000E+00 -0.61342056260E+03  0.61342056262E+03  0.50400001928E-02 0.  1.
    10030    2    1    2    0    0  0.00000000000E+00  0.00000000000E+00 -0.11507460761E+03  0.11117665176E+04  0.11057950192E+04 0.  0.
        2    1    3    3  502    0 -0.25673706503E+03 -0.47569852475E+03 -0.17432244065E+03  0.56797123195E+03  0.25500000920E-02 0.  1.
       -2    1    3    3    0  502  0.25673706503E+03  0.47569852475E+03  0.59247833042E+02  0.54379528568E+03  0.25500000920E-02 0. -1.
</event>
<event>
 5   0  0.4298101E-03  0.1124885E+04  0.7818609E-02  0.9181271E-01
       -1   -1    0    0    0  501  0.00000000000E+00  0.00000000000E+00  0.24251697776E+03  0.24251697781E+03  0.50400001928E-02 0.  1.
        1   -1    0    0  501    0  0.00000000000E+00  0.00000000000E+00 -0.13044111226E+04  0.13044111226E+04  0.50400001928E-02 0. -1.
    10030    2    1    2    0    0  0.00000000000E+00  0.00000000000E+00 -0.10618941448E+04  0.15469281004E+04  0.11248854933E+04 0.  0.
        3    1    3    3  502    0  0.46816759839E+03  0.89738490783E+02 -0.12044060376E+03  0.49167046499E+03  0.10100000352E+00 0.  1.
       -3    1    3    3    0  502 -0.46816759839E+03 -0.89738490783E+02 -0.94145354105E+03  0.10552576354E+04  0.10100000352E+00 0. -1.
</event>
<event>
 5   0  0.7537480E-03  0.7504803E+03  0.7818609E-02  0.9634597E-01
        2   -1    0    0  501    0  0.00000000000E+00  0.00000000000E+00  0.11707663950E+04  0.11707663950E+04  0.25500000920E-02 0.  1.
       -2   -1    0    0    0  501  0.00000000000E+00  0.00000000000E+00 -0.12026752238E+03  0.12026752241E+03  0.25500000920E-02 0. -1.
    10030    2    1    2    0    0  0.00000000000E+00  0.00000000000E+00  0.10504988726E+04  0.12910339174E+04  0.75048030922E+03 0.  0.
        1    1    3    3  502    0  0.20657212293E+03 -0.19259949078E+03  0.10023809674E+03  0.29969030996E+03  0.50400001928E-02 0. -1.
       -1    1    3    3    0  502 -0.20657212293E+03  0.19259949078E+03  0.95026077590E+03  0.99134360746E+03  0.50400001928E-02 0.  1.
</event>
<event>
 5   0  0.4298101E-03  0.1107133E+04  0.7818609E-02  0.9198267E-01
       -1   -1    0    0    0  501  0.00000000000E+00  0.00000000000E+00  0.14645496618E+04  0.14645496618E+04  0.50400001928E-02 0. -1.
        1   -1    0    0  501    0  0.00000000000E+00  0.00000000000E+00 -0.20923563021E+03  0.20923563027E+03  0.50400001928E-02 0.  1.
    10030    2    1    2    0    0  0.00000000000E+00  0.00000000000E+00  0.12553140316E+04  0.16737852921E+04  0.11071331835E+04 0.  0.
        3    1    3    3  502    0 -0.12204410183E+03  0.66495825107E+02  0.14377432025E+04  0.14444452168E+04  0.10100000352E+00 0. -1.
       -3    1    3    3    0  502  0.12204410183E+03 -0.66495825107E+02 -0.18242917094E+03  0.22934007534E+03  0.10100000352E+00 0.  1.
</event>
<event>
 5   0  0.7952121E-03  0.1098943E+04  0.7818609E-02  0.9206222E-01
       -2   -1    0    0    0  501  0.00000000000E+00  0.00000000000E+00  0.25554738273E+03  0.25554738274E+03  0.25500000920E-02 0. -1.
        2   -1    0    0  501    0  0.00000000000E+00  0.00000000000E+00 -0.11814606455E+04  0.11814606455E+04  0.25500000920E-02 0.  1.
    10030    2    1    2    0    0  0.00000000000E+00  0.00000000000E+00 -0.92591326278E+03  0.14370080283E+04  0.10989434485E+04 0.  0.
        3    1    3    3  502    0 -0.15646655569E+03  0.49455796195E+03 -0.69995766864E+03  0.87121186221E+03  0.10100000352E+00 0.  1.
       -3    1    3    3    0  502  0.15646655569E+03 -0.49455796195E+03 -0.22595559414E+03  0.56579616604E+03  0.10100000352E+00 0. -1.
</event>
<event>
 5   0  0.4641021E-03  0.1136836E+04  0.7818609E-02  0.9170014E-01
        1   -1    0    0  501    0  0.00000000000E+00  0.00000000000E+00  0.13176050907E+04  0.13176050907E+04  0.50400001928E-02 0. -1.
       -1   -1    0    0    0  501  0.00000000000E+00  0.00000000000E+00 -0.24521691620E+03  0.24521691625E+03  0.50400001928E-02 0.  1.
    10030    2    1    2    0    0  0.00000000000E+00  0.00000000000E+00  0.10723881745E+04  0.15628220069E+04  0.11368360606E+04 0.  0.
        1    1    3    3  502    0  0.50167387585E+03  0.26281260931E+03  0.60286281904E+03  0.82715822182E+03  0.50400001928E-02 0.  1.
       -1    1    3    3    0  502 -0.50167387585E+03 -0.26281260931E+03  0.46952535545E+03  0.73566378513E+03  0.50400001928E-02 0. -1.
</event>
<event>
 5   0  0.7738497E-03  0.1117174E+04  0.7818609E-02  0.9188613E-01
       -2   -1    0    0    0  501  0.00000000000E+00  0.00000000000E+00  0.37542782936E+03  0.37542782937E+03  0.25500000920E-02 0.  1.
        2   -1    0    0  501    0  0.00000000000E+00  0.00000000000E+00 -0.83110320847E+03  0.83110320848E+03  0.25500000920E-02 0. -1.
    10030    2    1    2    0    0  0.00000000000E+00  0.00000000000E+00 -0.45567537911E+03  0.12065310379E+04  0.11171737081E+04 0.  0.
        4    1    3    3  502    0 -0.27408519939E+03 -0.24838706857E+03  0.22420910171E+03  0.43253920810E+03  0.12699999809E+01 0.  1.
       -4    1    3    3    0  502  0.27408519939E+03  0.24838706857E+03 -0.67988448082E+03  0.77399182975E+03  0.12699999809E+01 0. -1.
</event>
<event>
 5   0  0.7738497E-03  0.1147848E+04  0.7818609E-02  0.9159771E-01
        2   -1    0    0  501    0  0.00000000000E+00  0.00000000000E+00  0.67638505844E+03  0.67638505845E+03  0.25500000920E-02 0.  1.
       -2   -1    0    0    0  501  0.00000000000E+00  0.00000000000E+00 -0.48698390946E+03  0.48698390946E+03  0.25500000920E-02 0. -1.
    10030    2    1    2    0    0  0.00000000000E+00  0.00000000000E+00  0.18940114899E+03  0.11633689679E+04  0.11478477949E+04 0.  0.
        4    1    3    3  502    0  0.35463949305E+03 -0.14573594669E+03 -0.33813251651E+03  0.51121751516E+03  0.12699999809E+01 0. -1.
       -4    1    3    3    0  502 -0.35463949305E+03  0.14573594669E+03  0.52753366550E+03  0.65215145275E+03  0.12699999809E+01 0.  1.
</event>
<event>
 5   0  0.4504740E-03  0.1104374E+04  0.7818609E-02  0.9200939E-01
       -1   -1    0    0    0  501  0.00000000000E+00  0.00000000000E+00  0.97908683001E+03  0.97908683003E+03  0.50400001928E-02 0.  1.
        1   -1    0    0  501    0  0.00000000000E+00  0.00000000000E+00 -0.31142340278E+03  0.31142340282E+03  0.50400001928E-02 0. -1.
    10030    2    1    2    0    0  0.00000000000E+00  0.00000000000E+00  0.66766342723E+03  0.12905102328E+04  0.11043741255E+04 0.  0.
        5    1    3    3  502    0 -0.50248842160E+02 -0.15542056178E+03  0.95018541649E+03  0.96413428156E+03  0.46999998093E+01 0.  1.
       -5    1    3    3    0  502  0.50248842160E+02  0.15542056178E+03 -0.28252198926E+03  0.32637595129E+03  0.46999998093E+01 0. -1.
</event>
<event>
 5   0  0.4298101E-03  0.1087900E+04  0.7818609E-02  0.9217066E-01
        1   -1    0    0  501    0  0.00000000000E+00  0.00000000000E+00  0.25498128137E+03  0.25498128142E+03  0.50400001928E-02 0.  1.
       -1   -1    0    0    0  501  0.00000000000E+00  0.00000000000E+00 -0.11604056705E+04  0.11604056706E+04  0.50400001928E-02 0. -1.
    10030    2    1    2    0    0  0.00000000000E+00  0.00000000000E+00 -0.90542438917E+03  0.14153869520E+04  0.10879002249E+04 0.  0.
        3    1    3    3  502    0  0.32163895498E+03 -0.42813783659E+03 -0.57701361212E+03  0.78720921187E+03  0.10100000352E+00 0. -1.
       -3    1    3    3    0  502 -0.32163895498E+03  0.42813783659E+03 -0.32841077705E+03  0.62817774011E+03  0.10100000352E+00 0.  1.
</event>
<event>
 5   0  0.4598561E-03  0.1059531E+04  0.7818609E-02  0.9245559E-01
       -1   -1    0    0    0  501  0.00000000000E+00  0.00000000000E+00  0.26461187393E+03  0.26461187398E+03  0.50400001928E-02 0.  1.
        1   -1    0    0  501    0  0.00000000000E+00  0.00000000000E+00 -0.10606152086E+04  0.10606152086E+04  0.50400001928E-02 0. -1.
    10030    2    1    2    0    0  0.00000000000E+00  0.00000000000E+00 -0.79600333465E+03  0.13252270826E+04  0.10595307979E+04 0.  0.
        2    1    3    3  502    0  0.34538862216E+03 -0.39814529862E+03 -0.33136497644E+03  0.62258792692E+03  0.25500000920E-02 0.  1.
       -2    1    3    3    0  502 -0.34538862216E+03  0.39814529862E+03 -0.46463835822E+03  0.70263915566E+03  0.25500000920E-02 0. -1.
</event>
<event>
 5   0  0.7738497E-03  0.1076600E+04  0.7818609E-02  0.9228304E-01
       -2   -1    0    0    0  501  0.00000000000E+00  0.00000000000E+00  0.16912757675E+03  0.16912757677E+03  0.25500000920E-02 0. -1.
        2   -1    0    0  501    0  0.00000000000E+00  0.00000000000E+00 -0.17133043656E+04  0.17133043656E+04  0.25500000920E-02 0.  1.
    10030    2    1    2    0    0  0.00000000000E+00  0.00000000000E+00 -0.15441767888E+04  0.18824319424E+04  0.10766002333E+04 0.  0.
        4    1    3    3  502    0  0.42438196524E+03  0.21997870024E+03 -0.12049065678E+04  0.12962608268E+04  0.12699999809E+01 0.  1.
       -4    1    3    3    0  502 -0.42438196524E+03 -0.21997870024E+03 -0.33927022104E+03  0.58617111560E+03  0.12699999809E+01 0. -1.
</event>
<event>
 5   0  0.4298101E-03  0.1117702E+04  0.7818609E-02  0.9188108E-01
       -1   -1    0    0    0  501  0.00000000000E+00  0.00000000000E+00  0.47090667591E+03  0.47090667593E+03  0.50400001928E-02 0.  1.
        1   -1    0    0  501    0  0.00000000000E+00  0.00000000000E+00 -0.66321940844E+03  0.66321940845E+03  0.50400001928E-02 0. -1.
    10030    2    1    2    0    0  0.00000000000E+00  0.00000000000E+00 -0.19231273253E+03  0.11341260844E+04  0.11177020123E+04 0.  0.
        3    1    3    3  502    0  0.16329498088E+03 -0.36034153482E+03 -0.49667566148E+03  0.63497873618E+03  0.10100000352E+00 0. -1.
       -3    1    3    3    0  502 -0.16329498088E+03  0.36034153482E+03  0.30436292895E+03  0.49914734820E+03  0.10100000352E+00 0.  1.
</event>
<event>
 5   0  0.7712816E-03  0.1056142E+04  0.7818609E-02  0.9249025E-01
       -2   -1    0    0    0  501  0.00000000000E+00  0.00000000000E+00  0.52084738414E+03  0.52084738414E+03  0.25500000920E-02 0.  1.
        2   -1    0    0  501    0  0.00000000000E+00  0.00000000000E+00 -0.53539529265E+03  0.53539529266E+03  0.25500000920E-02 0. -1.
    10030    2    1    2    0    0  0.00000000000E+00  0.00000000000E+00 -0.14547908514E+02  0.10562426768E+04  0.10561424860E+04 0.  0.
        2    1    3    3  502    0  0.96591348195E+02 -0.42416264333E+03 -0.30666066844E+03  0.53224487045E+03  0.25500000920E-02 0. -1.
       -2    1    3    3    0  502 -0.96591348195E+02  0.42416264333E+03  0.29211275993E+03  0.52399780635E+03  0.25500000920E-02 0.  1.
</event>
<event>
 5   0  0.7738497E-03  0.1082119E+04  0.7818609E-02  0.9222797E-01
        2   -1    0    0  501    0  0.00000000000E+00  0.00000000000E+00  0.49877492504E+03  0.49877492504E+03  0.25500000920E-02 0.  1.
       -2   -1    0    0    0  501  0.00000000000E+00  0.00000000000E+00 -0.58692925743E+03  0.58692925743E+03  0.25500000920E-02 0. -1.
    10030    2    1    2    0    0  0.00000000000E+00  0.00000000000E+00 -0.88154332389E+02  0.10857041825E+04  0.10821193952E+04 0.  0.
        4    1    3    3  502    0  0.36811752654E+03 -0.34901026544E+03  0.14476245789E+03  0.52751915685E+03  0.12699999809E+01 0.  1.
       -4    1    3    3    0  502 -0.36811752654E+03  0.34901026544E+03 -0.23291679028E+03  0.55818502562E+03  0.12699999809E+01 0. -1.
</event>
<event>
 5   0  0.4504740E-03  0.1114032E+04  0.7818609E-02  0.9191622E-01
        1   -1    0    0  501    0  0.00000000000E+00  0.00000000000E+00  0.39097595636E+03  0.39097595639E+03  0.50400001928E-02 0. -1.
       -1   -1    0    0    0  501  0.00000000000E+00  0.00000000000E+00 -0.79356974489E+03  0.79356974491E+03  0.50400001928E-02 0.  1.
    10030    2    1    2    0    0  0.00000000000E+00  0.00000000000E+00 -0.40259378853E+03  0.11845457013E+04  0.11140317589E+04 0.  0.
        5    1    3    3  502    0 -0.10156732467E+03 -0.49819830576E+03 -0.44312870439E+03  0.67446468548E+03  0.46999998093E+01 0. -1.
       -5    1    3    3    0  502  0.10156732467E+03  0.49819830576E+03  0.40534915855E+02  0.51008101583E+03  0.46999998093E+01 0.  1.
</event>
<event>
 5   0  0.2992375E-03  0.9963308E+03  0.7818609E-02  0.9312578E-01
       -4   -1    0    0    0  501  0.00000000000E+00  0.00000000000E+00  0.98412629823E+03  0.98412711769E+03  0.12699999809E+01 0. -1.
        4   -1    0    0  501    0  0.00000000000E+00  0.00000000000E+00 -0.25216913180E+03  0.25217232984E+03  0.12699999809E+01 0.  1.
    10030    2    1    2    0    0  0.00000000000E+00  0.00000000000E+00  0.73195716643E+03  0.12362994475E+04  0.99633078366E+03 0.  0.
        3    1    3    3  502    0 -0.64132299691E+02 -0.24708058396E+03  0.89680674359E+03  0.93242914604E+03  0.10100000352E+00 0. -1.
       -3    1    3    3    0  502  0.64132299691E+02  0.24708058396E+03 -0.16484957716E+03  0.30387030149E+03  0.10100000352E+00 0.  1.
</event>
<event>
 5   0  0.7712816E-03  0.1064491E+04  0.7818609E-02  0.9240510E-01
        2   -1    0    0  501    0  0.00000000000E+00  0.00000000000E+00  0.19445786760E+04  0.19445786760E+04  0.25500000920E-02 0.  1.
       -2   -1    0    0    0  501  0.00000000000E+00  0.00000000000E+00 -0.14567943657E+03  0.14567943659E+03  0.25500000920E-02 0. -1.
    10030    2    1    2    0    0  0.00000000000E+00  0.00000000000E+00  0.17988992394E+04  0.20902581125E+04  0.10644907250E+04 0.  0.
        2    1    3    3  502    0 -0.88495380563E+02 -0.25138159790E+03 -0.52264952140E+01  0.26655479062E+03  0.25500000920E-02 0. -1.
       -2    1    3    3    0  502  0.88495380563E+02  0.25138159790E+03  0.18041257346E+04  0.18237033219E+04  0.25500000920E-02 0.  1.
</event>
<event>
 5   0  0.7952121E-03  0.1099935E+04  0.7818609E-02  0.9205255E-01
       -2   -1    0    0    0  501  0.00000000000E+00  0.00000000000E+00  0.26502705853E+03  0.26502705854E+03  0.25500000920E-02 0.  1.
        2   -1    0    0  501    0  0.00000000000E+00  0.00000000000E+00 -0.11412582806E+04  0.11412582806E+04  0.25500000920E-02 0. -1.
    10030    2    1    2    0    0  0.00000000000E+00  0.00000000000E+00 -0.87623122206E+03  0.14062853391E+04  0.10999351347E+04 0.  0.
        3    1    3    3  502    0  0.51686083826E+01 -0.30218379301E+03 -0.10255693762E+04  0.10691745951E+04  0.10100000352E+00 0. -1.
       -3    1    3    3    0  502 -0.51686083826E+01  0.30218379301E+03  0.14933815411E+03  0.33711074403E+03  0.10100000352E+00 0.  1.
</event>
<event>
 5   0  0.7766551E-03  0.1170251E+04  0.7818609E-02  0.9139302E-01
        2   -1    0    0  501    0  0.00000000000E+00  0.00000000000E+00  0.63520943896E+03  0.63520943897E+03  0.25500000920E-02 0.  1.
       -2   -1    0    0    0  501  0.00000000000E+00  0.00000000000E+00 -0.53899043083E+03  0.53899043083E+03  0.25500000920E-02 0. -1.
    10030    2    1    2    0    0  0.00000000000E+00  0.00000000000E+00  0.96219008133E+02  0.11741998698E+04  0.11702509290E+04 0.  0.
        5    1    3    3  502    0  0.46837373726E+03 -0.25020230672E+02 -0.30285611575E+03  0.55834029636E+03  0.46999998093E+01 0. -1.
       -5    1    3    3    0  502 -0.46837373726E+03  0.25020230672E+02  0.39907512388E+03  0.61585957344E+03  0.46999998093E+01 0.  1.
</event>
<event>
 5   0  0.4598561E-03  0.1097605E+04  0.7818609E-02  0.9207529E-01
       -1   -1    0    0    0  501  0.00000000000E+00  0.00000000000E+00  0.24307988355E+03  0.24307988360E+03  0.50400001928E-02 0. -1.
        1   -1    0    0  501    0  0.00000000000E+00  0.00000000000E+00 -0.12390336126E+04  0.12390336126E+04  0.50400001928E-02 0.  1.
    10030    2    1    2    0    0  0.00000000000E+00  0.00000000000E+00 -0.99595372907E+03  0.14821134962E+04  0.10976049313E+04 0.  0.
        2    1    3    3  502    0 -0.51957209413E+02 -0.53093076759E+03 -0.67193779043E+03  0.85795537517E+03  0.25500000920E-02 0.  1.
       -2    1    3    3    0  502  0.51957209413E+02  0.53093076759E+03 -0.32401593864E+03  0.62415812106E+03  0.25500000920E-02 0. -1.
</event>
<event>
 5   0  0.7712816E-03  0.1105201E+04  0.7818609E-02  0.9200137E-01
       -2   -1    0    0    0  501  0.00000000000E+00  0.00000000000E+00  0.24568489399E+03  0.24568489400E+03  0.25500000920E-02 0.  1.
        2   -1    0    0  501    0  0.00000000000E+00  0.00000000000E+00 -0.12429231259E+04  0.12429231259E+04  0.25500000920E-02 0. -1.
    10030    2    1    2    0    0  0.00000000000E+00  0.00000000000E+00 -0.99723823195E+03  0.14886080199E+04  0.11052012241E+04 0.  0.
        2    1    3    3  502    0 -0.50212320462E+03 -0.87795765942E+02 -0.21121327949E+03  0.55176703288E+03  0.25500000920E-02 0.  1.
       -2    1    3    3    0  502  0.50212320462E+03  0.87795765942E+02 -0.78602495246E+03  0.93684098706E+03  0.25500000920E-02 0. -1.
</event>
<event>
 5   0  0.4598561E-03  0.1107831E+04  0.7818609E-02  0.9197592E-01
       -1   -1    0    0    0  501  0.00000000000E+00  0.00000000000E+00  0.23826394906E+03  0.23826394911E+03  0.50400001928E-02 0.  1.
        1   -1    0    0  501    0  0.00000000000E+00  0.00000000000E+00 -0.12877420870E+04  0.12877420870E+04  0.50400001928E-02 0. -1.
    10030    2    1    2    0    0  0.00000000000E+00  0.00000000000E+00 -0.10494781379E+04  0.15260060361E+04  0.11078312418E+04 0.  0.
        2    1    3    3  502    0  0.41749421288E+03  0.21300951678E+03 -0.93138034792E+03  0.10426618937E+04  0.25500000920E-02 0. -1.
       -2    1    3    3    0  502 -0.41749421288E+03 -0.21300951678E+03 -0.11809779003E+03  0.48334414245E+03  0.25500000920E-02 0.  1.
</event>
<event>
 5   0  0.7766551E-03  0.1115047E+04  0.7818609E-02  0.9190649E-01
       -2   -1    0    0    0  501  0.00000000000E+00  0.00000000000E+00  0.18819868072E+03  0.18819868073E+03  0.25500000920E-02 0. -1.
        2   -1    0    0  501    0  0.00000000000E+00  0.00000000000E+00 -0.16516198565E+04  0.16516198565E+04  0.25500000920E-02 0.  1.
    10030    2    1    2    0    0  0.00000000000E+00  0.00000000000E+00 -0.14634211758E+04  0.18398185372E+04  0.11150474036E+04 0.  0.
        5    1    3    3  502    0  0.24946490103E+03 -0.40303350540E+03 -0.24743927465E+03  0.53471209820E+03  0.46999998093E+01 0. -1.
       -5    1    3    3    0  502 -0.24946490103E+03  0.40303350540E+03 -0.12159819011E+04  0.13051064390E+04  0.46999998093E+01 0.  1.
</event>
<event>
 5   0  0.4428114E-03  0.1046934E+04  0.7818609E-02  0.9258515E-01
       -1   -1    0    0    0  501  0.00000000000E+00  0.00000000000E+00  0.66276793179E+03  0.66276793181E+03  0.50400001928E-02 0.  1.
        1   -1    0    0  501    0  0.00000000000E+00  0.00000000000E+00 -0.41344445003E+03  0.41344445006E+03  0.50400001928E-02 0. -1.
    10030    2    1    2    0    0  0.00000000000E+00  0.00000000000E+00  0.24932348176E+03  0.10762123819E+04  0.10469340439E+04 0.  0.
        4    1    3    3  502    0  0.45713564422E+03 -0.23435126217E+03  0.22808653762E+03  0.56206635982E+03  0.12699999809E+01 0. -1.
       -4    1    3    3    0  502 -0.45713564422E+03  0.23435126217E+03  0.21236944142E+02  0.51414602205E+03  0.12699999809E+01 0.  1.
</event>
<event>
 5   0  0.4598561E-03  0.9599998E+03  0.7818609E-02  0.9353538E-01
       -1   -1    0    0    0  501  0.00000000000E+00  0.00000000000E+00  0.88789473738E+03  0.88789473739E+03  0.50400001928E-02 0.  1.
        1   -1    0    0  501    0  0.00000000000E+00  0.00000000000E+00 -0.25949011430E+03  0.25949011435E+03  0.50400001928E-02 0. -1.
    10030    2    1    2    0    0  0.00000000000E+00  0.00000000000E+00  0.62840462308E+03  0.11473848517E+04  0.95999980609E+03 0.  0.
        2    1    3    3  502    0  0.16790349733E+03 -0.23958392068E+01 -0.22323933310E+03  0.27934409661E+03  0.25500000920E-02 0. -1.
       -2    1    3    3    0  502 -0.16790349733E+03  0.23958392068E+01  0.85164395618E+03  0.86804075513E+03  0.25500000920E-02 0.  1.
</event>
<event>
 5   0  0.4641021E-03  0.9941186E+03  0.7818609E-02  0.9315019E-01
       -1   -1    0    0    0  501  0.00000000000E+00  0.00000000000E+00  0.84037007423E+03  0.84037007425E+03  0.50400001928E-02 0. -1.
        1   -1    0    0  501    0  0.00000000000E+00  0.00000000000E+00 -0.29399895592E+03  0.29399895597E+03  0.50400001928E-02 0.  1.
    10030    2    1    2    0    0  0.00000000000E+00  0.00000000000E+00  0.54637111831E+03  0.11343690302E+04  0.99411855318E+03 0.  0.
        1    1    3    3  502    0  0.20860010451E+03 -0.32471296442E+03 -0.84239334833E+02  0.39503009812E+03  0.50400001928E-02 0.  1.
       -1    1    3    3    0  502 -0.20860010451E+03  0.32471296442E+03  0.63061045314E+03  0.73933893209E+03  0.50400001928E-02 0. -1.
</event>
<event>
 5   0  0.7766551E-03  0.1262580E+04  0.7818609E-02  0.9059778E-01
        2   -1    0    0  501    0  0.00000000000E+00  0.00000000000E+00  0.18426578108E+04  0.18426578108E+04  0.25500000920E-02 0.  1.
       -2   -1    0    0    0  501  0.00000000000E+00  0.00000000000E+00 -0.21627822541E+03  0.21627822542E+03  0.25500000920E-02 0. -1.
    10030    2    1    2    0    0  0.00000000000E+00  0.00000000000E+00  0.16263795854E+04  0.20589360362E+04  0.12625795205E+04 0.  0.
        5    1    3    3  502    0  0.13466240260E+03  0.39756232006E+03  0.15820872237E+04  0.16368298122E+04  0.46999998093E+01 0.  1.
       -5    1    3    3    0  502 -0.13466240260E+03 -0.39756232006E+03  0.44292361729E+02  0.42210622397E+03  0.46999998093E+01 0. -1.
</event>
<event>
 5   0  0.4504740E-03  0.9734995E+03  0.7818609E-02  0.9338097E-01
        1   -1    0    0  501    0  0.00000000000E+00  0.00000000000E+00  0.58596096466E+03  0.58596096468E+03  0.50400001928E-02 0.  1.
       -1   -1    0    0    0  501  0.00000000000E+00  0.00000000000E+00 -0.40433637274E+03  0.40433637277E+03  0.50400001928E-02 0. -1.
    10030    2    1    2    0    0  0.00000000000E+00  0.00000000000E+00  0.18162459192E+03  0.99029733745E+03  0.97349952449E+03 0.  0.
        5    1    3    3  502    0  0.18854241298E+03 -0.17365656601E+03 -0.33008846813E+03  0.41795374290E+03  0.46999998093E+01 0. -1.
       -5    1    3    3    0  502 -0.18854241298E+03  0.17365656601E+03  0.51171306005E+03  0.57234359456E+03  0.46999998093E+01 0.  1.
</event>
<event>
 5   0  0.4298101E-03  0.1089647E+04  0.7818609E-02  0.9215342E-01
       -1   -1    0    0    0  501  0.00000000000E+00  0.00000000000E+00  0.28617742777E+03  0.28617742781E+03  0.50400001928E-02 0.  1.
        1   -1    0    0  501    0  0.00000000000E+00  0.00000000000E+00 -0.10372321220E+04  0.10372321220E+04  0.50400001928E-02 0. -1.
    10030    2    1    2    0    0  0.00000000000E+00  0.00000000000E+00 -0.75105469420E+03  0.13234095498E+04  0.10896465862E+04 0.  0.
        3    1    3    3  502    0 -0.34796774298E+03  0.13599104842E+03 -0.85715787017E+03  0.93503729337E+03  0.10100000352E+00 0. -1.
       -3    1    3    3    0  502  0.34796774298E+03 -0.13599104842E+03  0.10610317596E+03  0.38837225642E+03  0.10100000352E+00 0.  1.
</event>
<event>
 5   0  0.7537480E-03  0.1101617E+04  0.7818609E-02  0.9203617E-01
        2   -1    0    0  501    0  0.00000000000E+00  0.00000000000E+00  0.17529206243E+04  0.17529206243E+04  0.25500000920E-02 0. -1.
       -2   -1    0    0    0  501  0.00000000000E+00  0.00000000000E+00 -0.17307685809E+03  0.17307685811E+03  0.25500000920E-02 0.  1.
    10030    2    1    2    0    0  0.00000000000E+00  0.00000000000E+00  0.15798437662E+04  0.19259974824E+04  0.11016169827E+04 0.  0.
        1    1    3    3  502    0  0.56864694271E+02  0.44893623858E+03  0.13389459937E+04  0.14133484050E+04  0.50400001928E-02 0. -1.
       -1    1    3    3    0  502 -0.56864694271E+02 -0.44893623858E+03  0.24089777251E+03  0.51264907743E+03  0.50400001928E-02 0.  1.
</event>
<event>
 5   0  0.4641021E-03  0.1136032E+04  0.7818609E-02  0.9170767E-01
        1   -1    0    0  501    0  0.00000000000E+00  0.00000000000E+00  0.49513913019E+03  0.49513913021E+03  0.50400001928E-02 0. -1.
       -1   -1    0    0    0  501  0.00000000000E+00  0.00000000000E+00 -0.65161899942E+03  0.65161899944E+03  0.50400001928E-02 0.  1.
    10030    2    1    2    0    0  0.00000000000E+00  0.00000000000E+00 -0.15647986924E+03  0.11467581297E+04  0.11360318035E+04 0.  0.
        1    1    3    3  502    0 -0.54854673392E+03  0.44659004015E+02 -0.22008042172E+03  0.59273378340E+03  0.50400001928E-02 0.  1.
       -1    1    3    3    0  502  0.54854673392E+03 -0.44659004015E+02  0.63600552480E+02  0.55402434625E+03  0.50400001928E-02 0. -1.
</event>
<event>
 5   0  0.7952121E-03  0.1090715E+04  0.7818609E-02  0.9214289E-01
        2   -1    0    0  501    0  0.00000000000E+00  0.00000000000E+00  0.14267043327E+04  0.14267043327E+04  0.25500000920E-02 0.  1.
       -2   -1    0    0    0  501  0.00000000000E+00  0.00000000000E+00 -0.20846281378E+03  0.20846281380E+03  0.25500000920E-02 0. -1.
    10030    2    1    2    0    0  0.00000000000E+00  0.00000000000E+00  0.12182415189E+04  0.16351671465E+04  0.10907149942E+04 0.  0.
        3    1    3    3  502    0 -0.19030415148E+03  0.45811616298E+03  0.26947124015E+03  0.56453595840E+03  0.10100000352E+00 0. -1.
       -3    1    3    3    0  502  0.19030415148E+03 -0.45811616298E+03  0.94877027879E+03  0.10706311881E+04  0.10100000352E+00 0.  1.
</event>
<event>
 5   0  0.4641021E-03  0.1106605E+04  0.7818609E-02  0.9198778E-01
       -1   -1    0    0    0  501  0.00000000000E+00  0.00000000000E+00  0.25728005276E+03  0.25728005281E+03  0.50400001928E-02 0.  1.
        1   -1    0    0  501    0  0.00000000000E+00  0.00000000000E+00 -0.11899237212E+04  0.11899237212E+04  0.50400001928E-02 0. -1.
    10030    2    1    2    0    0  0.00000000000E+00  0.00000000000E+00 -0.93264366847E+03  0.14472037740E+04  0.11066049662E+04 0.  0.
        1    1    3    3  502    0  0.49589388980E+03 -0.12129844571E+03 -0.74534237137E+03  0.90341536042E+03  0.50400001928E-02 0. -1.
       -1    1    3    3    0  502 -0.49589388980E+03  0.12129844571E+03 -0.18730129711E+03  0.54378841363E+03  0.50400001928E-02 0.  1.
</event>
<event>
 5   0  0.4428114E-03  0.1099825E+04  0.7818609E-02  0.9205362E-01
       -1   -1    0    0    0  501  0.00000000000E+00  0.00000000000E+00  0.44706929374E+03  0.44706929377E+03  0.50400001928E-02 0.  1.
        1   -1    0    0  501    0  0.00000000000E+00  0.00000000000E+00 -0.67641363478E+03  0.67641363480E+03  0.50400001928E-02 0. -1.
    10030    2    1    2    0    0  0.00000000000E+00  0.00000000000E+00 -0.22934434104E+03  0.11234829286E+04  0.10998250152E+04 0.  0.
        4    1    3    3  502    0  0.31330344053E+03 -0.31651243215E+03  0.21485484822E+03  0.49447283470E+03  0.12699999809E+01 0.  1.
       -4    1    3    3    0  502 -0.31330344053E+03  0.31651243215E+03 -0.44419918926E+03  0.62901009387E+03  0.12699999809E+01 0. -1.
</event>
<event>
 5   0  0.7537480E-03  0.1117792E+04  0.7818609E-02  0.9188022E-01
       -2   -1    0    0    0  501  0.00000000000E+00  0.00000000000E+00  0.76298875254E+03  0.76298875254E+03  0.25500000920E-02 0. -1.
        2   -1    0    0  501    0  0.00000000000E+00  0.00000000000E+00 -0.40939622089E+03  0.40939622090E+03  0.25500000920E-02 0.  1.
    10030    2    1    2    0    0  0.00000000000E+00  0.00000000000E+00  0.35359253165E+03  0.11723849734E+04  0.11177919518E+04 0.  0.
        1    1    3    3  502    0  0.13829578051E+03 -0.28569125686E+03  0.65928491593E+03  0.73171156718E+03  0.50400001928E-02 0. -1.
       -1    1    3    3    0  502 -0.13829578051E+03  0.28569125686E+03 -0.30569238428E+03  0.44067340626E+03  0.50400001928E-02 0.  1.
</event>
<event>
 5   0  0.4641021E-03  0.1101153E+04  0.7818609E-02  0.9204069E-01
       -1   -1    0    0    0  501  0.00000000000E+00  0.00000000000E+00  0.11121603251E+04  0.11121603252E+04  0.50400001928E-02 0.  1.
        1   -1    0    0  501    0  0.00000000000E+00  0.00000000000E+00 -0.27256349246E+03  0.27256349251E+03  0.50400001928E-02 0. -1.
    10030    2    1    2    0    0  0.00000000000E+00  0.00000000000E+00  0.83959683269E+03  0.13847238177E+04  0.11011526732E+04 0.  0.
        1    1    3    3  502    0 -0.49566807361E+03  0.21457427481E+03  0.28550033272E+03  0.61093321944E+03  0.50400001928E-02 0. -1.
       -1    1    3    3    0  502  0.49566807361E+03 -0.21457427481E+03  0.55409649997E+03  0.77379059823E+03  0.50400001928E-02 0.  1.
</event>
<event>
 5   0  0.4641021E-03  0.1119740E+04  0.7818609E-02  0.9186162E-01
       -1   -1    0    0    0  501  0.00000000000E+00  0.00000000000E+00  0.38749977195E+03  0.38749977198E+03  0.50400001928E-02 0.  1.
        1   -1    0    0  501    0  0.00000000000E+00  0.00000000000E+00 -0.80891571007E+03  0.80891571008E+03  0.50400001928E-02 0. -1.
    10030    2    1    2    0    0  0.00000000000E+00  0.00000000000E+00 -0.42141593812E+03  0.11964154821E+04  0.11197404221E+04 0.  0.
        1    1    3    3  502    0 -0.48876551364E+01  0.12436085271E+03  0.37253216137E+03  0.39277184489E+03  0.50400001928E-02 0.  1.
       -1    1    3    3    0  502  0.48876551364E+01 -0.12436085271E+03 -0.79394809949E+03  0.80364363717E+03  0.50400001928E-02 0. -1.
</event>
<event>
 5   0  0.7952121E-03  0.1082717E+04  0.7818609E-02  0.9222203E-01
        2   -1    0    0  501    0  0.00000000000E+00  0.00000000000E+00  0.26912710953E+03  0.26912710955E+03  0.25500000920E-02 0. -1.
       -2   -1    0    0    0  501  0.00000000000E+00  0.00000000000E+00 -0.10889611223E+04  0.10889611223E+04  0.25500000920E-02 0.  1.
    10030    2    1    2    0    0  0.00000000000E+00  0.00000000000E+00 -0.81983401277E+03  0.13580882319E+04  0.10827168776E+04 0.  0.
        3    1    3    3  502    0 -0.19867852658E+03  0.40458286783E+03 -0.33808250747E+02  0.45199940474E+03  0.10100000352E+00 0. -1.
       -3    1    3    3    0  502  0.19867852658E+03 -0.40458286783E+03 -0.78602576202E+03  0.90608882712E+03  0.10100000352E+00 0.  1.
</event>
<event>
 5   0  0.7766551E-03  0.1101724E+04  0.7818609E-02  0.9203513E-01
       -2   -1    0    0    0  501  0.00000000000E+00  0.00000000000E+00  0.13681670052E+03  0.13681670054E+03  0.25500000920E-02 0. -1.
        2   -1    0    0  501    0  0.00000000000E+00  0.00000000000E+00 -0.22179222828E+04  0.22179222828E+04  0.25500000920E-02 0.  1.
    10030    2    1    2    0    0  0.00000000000E+00  0.00000000000E+00 -0.20811055822E+04  0.23547389833E+04  0.11017237562E+04 0.  0.
        5    1    3    3  502    0 -0.27798096507E+03  0.13316229803E+03 -0.20163080617E+04  0.20397367242E+04  0.46999998093E+01 0.  1.
       -5    1    3    3    0  502  0.27798096507E+03 -0.13316229803E+03 -0.64797520577E+02  0.31500225909E+03  0.46999998093E+01 0. -1.
</event>
<event>
 5   0  0.7712816E-03  0.1088806E+04  0.7818609E-02  0.9216172E-01
       -2   -1    0    0    0  501  0.00000000000E+00  0.00000000000E+00  0.18496991577E+03  0.18496991579E+03  0.25500000920E-02 0. -1.
        2   -1    0    0  501    0  0.00000000000E+00  0.00000000000E+00 -0.16022841924E+04  0.16022841924E+04  0.25500000920E-02 0.  1.
    10030    2    1    2    0    0  0.00000000000E+00  0.00000000000E+00 -0.14173142767E+04  0.17872541082E+04  0.10888055329E+04 0.  0.
        2    1    3    3  502    0  0.21249565898E+03 -0.26601486358E+03 -0.11353839751E+02  0.34065704516E+03  0.25500000920E-02 0. -1.
       -2    1    3    3    0  502 -0.21249565898E+03  0.26601486358E+03 -0.14059604369E+04  0.14465970631E+04  0.25500000920E-02 0.  1.
</event>
<event>
 5   0  0.7712816E-03  0.1102765E+04  0.7818609E-02  0.9202501E-01
        2   -1    0    0  501    0  0.00000000000E+00  0.00000000000E+00  0.37681437198E+03  0.37681437198E+03  0.25500000920E-02 0.  1.
       -2   -1    0    0    0  501  0.00000000000E+00  0.00000000000E+00 -0.80682399952E+03  0.80682399952E+03  0.25500000920E-02 0. -1.
    10030    2    1    2    0    0  0.00000000000E+00  0.00000000000E+00 -0.43000962754E+03  0.11836383715E+04  0.11027653942E+04 0.  0.
        2    1    3    3  502    0 -0.35664690185E+03 -0.34035745089E+03 -0.48006172353E+03  0.68811297428E+03  0.25500000920E-02 0. -1.
       -2    1    3    3    0  502  0.35664690185E+03  0.34035745089E+03  0.50052095990E+02  0.49552539722E+03  0.25500000920E-02 0.  1.
</event>
<event>
 5   0  0.7952121E-03  0.1106625E+04  0.7818609E-02  0.9198758E-01
       -2   -1    0    0    0  501  0.00000000000E+00  0.00000000000E+00  0.18975051486E+03  0.18975051488E+03  0.25500000920E-02 0. -1.
        2   -1    0    0  501    0  0.00000000000E+00  0.00000000000E+00 -0.16134604348E+04  0.16134604348E+04  0.25500000920E-02 0.  1.
    10030    2    1    2    0    0  0.00000000000E+00  0.00000000000E+00 -0.14237099199E+04  0.18032109497E+04  0.11066254077E+04 0.  0.
        3    1    3    3  502    0 -0.45229418766E+03  0.26136719998E+03 -0.10090803850E+04  0.11362772897E+04  0.10100000352E+00 0.  1.
       -3    1    3    3    0  502  0.45229418766E+03 -0.26136719998E+03 -0.41462953495E+03  0.66693366002E+03  0.10100000352E+00 0. -1.
</event>
<event>
 5   0  0.4598561E-03  0.1119923E+04  0.7818609E-02  0.9185988E-01
       -1   -1    0    0    0  501  0.00000000000E+00  0.00000000000E+00  0.53893381719E+03  0.53893381721E+03  0.50400001928E-02 0.  1.
        1   -1    0    0  501    0  0.00000000000E+00  0.00000000000E+00 -0.58180987488E+03  0.58180987490E+03  0.50400001928E-02 0. -1.
    10030    2    1    2    0    0  0.00000000000E+00  0.00000000000E+00 -0.42876057695E+02  0.11207436921E+04  0.11199232416E+04 0.  0.
        2    1    3    3  502    0 -0.40094829015E+02 -0.23290876385E+03 -0.52945441775E+03  0.57980692310E+03  0.25500000920E-02 0. -1.
       -2    1    3    3    0  502  0.40094829015E+02  0.23290876385E+03  0.48657836005E+03  0.54093676901E+03  0.25500000920E-02 0.  1.
</event>
<event>
 5   0  0.7537480E-03  0.1076990E+04  0.7818609E-02  0.9227914E-01
       -2   -1    0    0    0  501  0.00000000000E+00  0.00000000000E+00  0.62063752604E+03  0.62063752605E+03  0.25500000920E-02 0. -1.
        2   -1    0    0  501    0  0.00000000000E+00  0.00000000000E+00 -0.46722390094E+03  0.46722390094E+03  0.25500000920E-02 0.  1.
    10030    2    1    2    0    0  0.00000000000E+00  0.00000000000E+00  0.15341362510E+03  0.10878614270E+04  0.10769896675E+04 0.  0.
        1    1    3    3  502    0  0.32198626957E+03 -0.13415556414E+03 -0.33768295082E+03  0.48549217139E+03  0.50400001928E-02 0.  1.
       -1    1    3    3    0  502 -0.32198626957E+03  0.13415556414E+03  0.49109657593E+03  0.60236925560E+03  0.50400001928E-02 0. -1.
</event>
<event>
 5   0  0.4298101E-03  0.9508164E+03  0.7818609E-02  0.9364197E-01
       -1   -1    0    0    0  501  0.00000000000E+00  0.00000000000E+00  0.30084530384E+03  0.30084530388E+03  0.50400001928E-02 0.  1.
        1   -1    0    0  501    0  0.00000000000E+00  0.00000000000E+00 -0.75125973281E+03  0.75125973283E+03  0.50400001928E-02 0. -1.
    10030    2    1    2    0    0  0.00000000000E+00  0.00000000000E+00 -0.45041442897E+03  0.10521050367E+04  0.95081641259E+03 0.  0.
        3    1    3    3  502    0  0.40377035888E+03  0.24765141460E+03 -0.18024312931E+03  0.50680304037E+03  0.10100000352E+00 0.  1.
       -3    1    3    3    0  502 -0.40377035888E+03 -0.24765141460E+03 -0.27017129966E+03  0.54530199635E+03  0.10100000352E+00 0. -1.
</event>
<event>
 5   0  0.4298101E-03  0.7923750E+03  0.7818609E-02  0.9571120E-01
       -1   -1    0    0    0  501  0.00000000000E+00  0.00000000000E+00  0.23986620705E+03  0.23986620711E+03  0.50400001928E-02 0. -1.
        1   -1    0    0  501    0  0.00000000000E+00  0.00000000000E+00 -0.65438375958E+03  0.65438375960E+03  0.50400001928E-02 0.  1.
    10030    2    1    2    0    0  0.00000000000E+00  0.00000000000E+00 -0.41451755253E+03  0.89424996671E+03  0.79237503848E+03 0.  0.
        3    1    3    3  502    0 -0.38949628151E+03 -0.71740561033E+02 -0.19539651188E+03  0.44162639014E+03  0.10100000352E+00 0. -1.
       -3    1    3    3    0  502  0.38949628151E+03  0.71740561033E+02 -0.21912104065E+03  0.45262357657E+03  0.10100000352E+00 0.  1.
</event>
<event>
 5   0  0.4428114E-03  0.8025748E+03  0.7818609E-02  0.9556298E-01
        1   -1    0    0  501    0  0.00000000000E+00  0.00000000000E+00  0.11965727979E+04  0.11965727979E+04  0.50400001928E-02 0.  1.
       -1   -1    0    0    0  501  0.00000000000E+00  0.00000000000E+00 -0.13457733228E+03  0.13457733238E+03  0.50400001928E-02 0. -1.
    10030    2    1    2    0    0  0.00000000000E+00  0.00000000000E+00  0.10619954656E+04  0.13311501303E+04  0.80257479425E+03 0.  0.
        4    1    3    3  502    0  0.23448678429E+03 -0.32403911319E+03  0.58460317794E+03  0.70834164598E+03  0.12699999809E+01 0.  1.
       -4    1    3    3    0  502 -0.23448678429E+03  0.32403911319E+03  0.47739228766E+03  0.62280848429E+03  0.12699999809E+01 0. -1.
</event>
<event>
 5   0  0.7738497E-03  0.1095807E+04  0.7818609E-02  0.9209289E-01
        2   -1    0    0  501    0  0.00000000000E+00  0.00000000000E+00  0.10238426444E+04  0.10238426444E+04  0.25500000920E-02 0.  1.
       -2   -1    0    0    0  501  0.00000000000E+00  0.00000000000E+00 -0.29320722549E+03  0.29320722550E+03  0.25500000920E-02 0. -1.
    10030    2    1    2    0    0  0.00000000000E+00  0.00000000000E+00  0.73063541895E+03  0.13170498700E+04  0.10958066638E+04 0.  0.
        4    1    3    3  502    0  0.28057440448E+03 -0.30576748774E+03  0.79529004623E+03  0.89705274290E+03  0.12699999809E+01 0.  1.
       -4    1    3    3    0  502 -0.28057440448E+03  0.30576748774E+03 -0.64654627275E+02  0.41999712706E+03  0.12699999809E+01 0. -1.
</event>
<event>
 5   0  0.4298101E-03  0.1087591E+04  0.7818609E-02  0.9217372E-01
       -1   -1    0    0    0  501  0.00000000000E+00  0.00000000000E+00  0.73661365816E+03  0.73661365818E+03  0.50400001928E-02 0.  1.
        1   -1    0    0  501    0  0.00000000000E+00  0.00000000000E+00 -0.40144972182E+03  0.40144972185E+03  0.50400001928E-02 0. -1.
    10030    2    1    2    0    0  0.00000000000E+00  0.00000000000E+00  0.33516393635E+03  0.11380633800E+04  0.10875906366E+04 0.  0.
        3    1    3    3  502    0 -0.57591458962E+02 -0.50991885135E+02  0.73089198547E+03  0.73492860410E+03  0.10100000352E+00 0.  1.
       -3    1    3    3    0  502  0.57591458962E+02  0.50991885135E+02 -0.39572804913E+03  0.40313477593E+03  0.10100000352E+00 0. -1.
</event>
<event>
 5   0  0.7766551E-03  0.1091654E+04  0.7818609E-02  0.9213364E-01
       -2   -1    0    0    0  501  0.00000000000E+00  0.00000000000E+00  0.24026931966E+03  0.24026931967E+03  0.25500000920E-02 0. -1.
        2   -1    0    0  501    0  0.00000000000E+00  0.00000000000E+00 -0.12399725368E+04  0.12399725368E+04  0.25500000920E-02 0.  1.
    10030    2    1    2    0    0  0.00000000000E+00  0.00000000000E+00 -0.99970321709E+03  0.14802418564E+04  0.10916544468E+04 0.  0.
        5    1    3    3  502    0 -0.40460950933E+03  0.32717483789E+03 -0.27641377707E+03  0.58921888610E+03  0.46999998093E+01 0.  1.
       -5    1    3    3    0  502  0.40460950933E+03 -0.32717483789E+03 -0.72328944003E+03  0.89102297032E+03  0.46999998093E+01 0. -1.
</event>
<event>
 5   0  0.4298101E-03  0.1078585E+04  0.7818609E-02  0.9226319E-01
        1   -1    0    0  501    0  0.00000000000E+00  0.00000000000E+00  0.10494039854E+04  0.10494039855E+04  0.50400001928E-02 0. -1.
       -1   -1    0    0    0  501  0.00000000000E+00  0.00000000000E+00 -0.27714454884E+03  0.27714454889E+03  0.50400001928E-02 0.  1.
    10030    2    1    2    0    0  0.00000000000E+00  0.00000000000E+00  0.77225943660E+03  0.13265485343E+04  0.10785853590E+04 0.  0.
        3    1    3    3  502    0 -0.46601753102E+03  0.64057341289E+02  0.61751842856E+02  0.47443543553E+03  0.10100000352E+00 0.  1.
       -3    1    3    3    0  502  0.46601753102E+03 -0.64057341289E+02  0.71050759374E+03  0.85211309881E+03  0.10100000352E+00 0. -1.
</event>
<event>
 5   0  0.7537480E-03  0.1096665E+04  0.7818609E-02  0.9208449E-01
       -2   -1    0    0    0  501  0.00000000000E+00  0.00000000000E+00  0.29551025186E+03  0.29551025187E+03  0.25500000920E-02 0. -1.
        2   -1    0    0  501    0  0.00000000000E+00  0.00000000000E+00 -0.10174550636E+04  0.10174550636E+04  0.25500000920E-02 0.  1.
    10030    2    1    2    0    0  0.00000000000E+00  0.00000000000E+00 -0.72194481173E+03  0.13129653155E+04  0.10966647657E+04 0.  0.
        1    1    3    3  502    0  0.19521935324E+03 -0.42948000461E+03 -0.26378492889E+02  0.47250343401E+03  0.50400001928E-02 0. -1.
       -1    1    3    3    0  502 -0.19521935324E+03  0.42948000461E+03 -0.69556631884E+03  0.84046188145E+03  0.50400001928E-02 0.  1.
</event>
<event>
 5   0  0.4298101E-03  0.1075709E+04  0.7818609E-02  0.9229196E-01
        1   -1    0    0  501    0  0.00000000000E+00  0.00000000000E+00  0.34657562137E+03  0.34657562140E+03  0.50400001928E-02 0.  1.
       -1   -1    0    0    0  501  0.00000000000E+00  0.00000000000E+00 -0.83470225730E+03  0.83470225731E+03  0.50400001928E-02 0. -1.
    10030    2    1    2    0    0  0.00000000000E+00  0.00000000000E+00 -0.48812663593E+03  0.11812778787E+04  0.10757089820E+04 0.  0.
        3    1    3    3  502    0 -0.78548994279E+02 -0.41992514598E+03 -0.60290508627E+03  0.73891922831E+03  0.10100000352E+00 0. -1.
       -3    1    3    3    0  502  0.78548994279E+02  0.41992514598E+03  0.11477845033E+03  0.44235865040E+03  0.10100000352E+00 0.  1.
</event>
<event>
 5   0  0.7766551E-03  0.8986068E+03  0.7818609E-02  0.9427325E-01
        2   -1    0    0  501    0  0.00000000000E+00  0.00000000000E+00  0.33699264569E+03  0.33699264570E+03  0.25500000920E-02 0.  1.
       -2   -1    0    0    0  501  0.00000000000E+00  0.00000000000E+00 -0.59904435095E+03  0.59904435096E+03  0.25500000920E-02 0. -1.
    10030    2    1    2    0    0  0.00000000000E+00  0.00000000000E+00 -0.26205170526E+03  0.93603699665E+03  0.89860678991E+03 0.  0.
        5    1    3    3  502    0  0.39229666368E+03  0.16057410284E+03 -0.28612641512E+03  0.51144025092E+03  0.46999998093E+01 0. -1.
       -5    1    3    3    0  502 -0.39229666368E+03 -0.16057410284E+03  0.24074709858E+02  0.42459674573E+03  0.46999998093E+01 0.  1.
</event>
<event>
 5   0  0.7952121E-03  0.1095722E+04  0.7818609E-02  0.9209372E-01
       -2   -1    0    0    0  501  0.00000000000E+00  0.00000000000E+00  0.50347368518E+03  0.50347368519E+03  0.25500000920E-02 0.  1.
        2   -1    0    0  501    0  0.00000000000E+00  0.00000000000E+00 -0.59616136550E+03  0.59616136550E+03  0.25500000920E-02 0. -1.
    10030    2    1    2    0    0  0.00000000000E+00  0.00000000000E+00 -0.92687680317E+02  0.10996350507E+04  0.10957217889E+04 0.  0.
        3    1    3    3  502    0  0.50105589843E+03 -0.69228112019E+02 -0.25757596393E+03  0.56762217385E+03  0.10100000352E+00 0. -1.
       -3    1    3    3    0  502 -0.50105589843E+03  0.69228112019E+02  0.16488828361E+03  0.53201287684E+03  0.10100000352E+00 0.  1.
</event>
<event>
 5   0  0.7952121E-03  0.1107076E+04  0.7818609E-02  0.9198322E-01
        2   -1    0    0  501    0  0.00000000000E+00  0.00000000000E+00  0.35062573276E+03  0.35062573277E+03  0.25500000920E-02 0.  1.
       -2   -1    0    0    0  501  0.00000000000E+00  0.00000000000E+00 -0.87387872880E+03  0.87387872881E+03  0.25500000920E-02 0. -1.
    10030    2    1    2    0    0  0.00000000000E+00  0.00000000000E+00 -0.52325299604E+03  0.12245044616E+04  0.11070760943E+04 0.  0.
        3    1    3    3  502    0 -0.45708758483E+03  0.24088021209E+03 -0.48132016398E+03  0.70613132436E+03  0.10100000352E+00 0.  1.
       -3    1    3    3    0  502  0.45708758483E+03 -0.24088021209E+03 -0.41932832060E+02  0.51837313722E+03  0.10100000352E+00 0. -1.
</event>
<event>
 5   0  0.4641021E-03  0.9923050E+03  0.7818609E-02  0.9317025E-01
       -1   -1    0    0    0  501  0.00000000000E+00  0.00000000000E+00  0.15784485635E+03  0.15784485643E+03  0.50400001928E-02 0.  1.
        1   -1    0    0  501    0  0.00000000000E+00  0.00000000000E+00 -0.15595523612E+04  0.15595523612E+04  0.50400001928E-02 0. -1.
    10030    2    1    2    0    0  0.00000000000E+00  0.00000000000E+00 -0.14017075048E+04  0.17173972176E+04  0.99230503071E+03 0.  0.
        1    1    3    3  502    0  0.89152720798E+02  0.44124599171E+03 -0.33979704111E+03  0.56401087046E+03  0.50400001928E-02 0.  1.
       -1    1    3    3    0  502 -0.89152720798E+02 -0.44124599171E+03 -0.10619104637E+04  0.11533863472E+04  0.50400001928E-02 0. -1.
</event>
<event>
 5   0  0.4428114E-03  0.1077688E+04  0.7818609E-02  0.9227216E-01
        1   -1    0    0  501    0  0.00000000000E+00  0.00000000000E+00  0.36145099476E+03  0.36145099479E+03  0.50400001928E-02 0.  1.
       -1   -1    0    0    0  501  0.00000000000E+00  0.00000000000E+00 -0.80329798288E+03  0.80329798289E+03  0.50400001928E-02 0. -1.
    10030    2    1    2    0    0  0.00000000000E+00  0.00000000000E+00 -0.44184698812E+03  0.11647489777E+04  0.10776879976E+04 0.  0.
        4    1    3    3  502    0  0.32085462166E+02  0.16416789287E+03 -0.77452457896E+03  0.79238280537E+03  0.12699999809E+01 0. -1.
       -4    1    3    3    0  502 -0.32085462166E+02 -0.16416789287E+03  0.33267759085E+03  0.37236617231E+03  0.12699999809E+01 0.  1.
</event>
<event>
 5   0  0.4641021E-03  0.1002786E+04  0.7818609E-02  0.9305494E-01
       -1   -1    0    0    0  501  0.00000000000E+00  0.00000000000E+00  0.11534968259E+03  0.11534968270E+03  0.50400001928E-02 0.  1.
        1   -1    0    0  501    0  0.00000000000E+00  0.00000000000E+00 -0.21794168408E+04  0.21794168408E+04  0.50400001928E-02 0. -1.
    10030    2    1    2    0    0  0.00000000000E+00  0.00000000000E+00 -0.20640671582E+04  0.22947665235E+04  0.10027862005E+04 0.  0.
        1    1    3    3  502    0  0.97955776058E+02 -0.21990496391E+03 -0.25553930404E+02  0.24208785719E+03  0.50400001928E-02 0.  1.
       -1    1    3    3    0  502 -0.97955776058E+02  0.21990496391E+03 -0.20385132278E+04  0.20526786663E+04  0.50400001928E-02 0. -1.
</event>
<event>
 5   0  0.4504740E-03  0.1166056E+04  0.7818609E-02  0.9143098E-01
        1   -1    0    0  501    0  0.00000000000E+00  0.00000000000E+00  0.26205386355E+03  0.26205386360E+03  0.50400001928E-02 0. -1.
       -1   -1    0    0    0  501  0.00000000000E+00  0.00000000000E+00 -0.12971436545E+04  0.12971436545E+04  0.50400001928E-02 0.  1.
    10030    2    1    2    0    0  0.00000000000E+00  0.00000000000E+00 -0.10350897910E+04  0.15591975181E+04  0.11660557556E+04 0.  0.
        5    1    3    3  502    0  0.50074564436E+02 -0.12680222872E+03  0.24041472059E+03  0.27641923791E+03  0.46999998093E+01 0. -1.
       -5    1    3    3    0  502 -0.50074564436E+02  0.12680222872E+03 -0.12755045116E+04  0.12827782802E+04  0.46999998093E+01 0.  1.
</event>
<event>
 5   0  0.4298101E-03  0.1051641E+04  0.7818609E-02  0.9253652E-01
       -1   -1    0    0    0  501  0.00000000000E+00  0.00000000000E+00  0.50013918512E+03  0.50013918514E+03  0.50400001928E-02 0. -1.
        1   -1    0    0  501    0  0.00000000000E+00  0.00000000000E+00 -0.55282005814E+03  0.55282005816E+03  0.50400001928E-02 0.  1.
    10030    2    1    2    0    0  0.00000000000E+00  0.00000000000E+00 -0.52680873023E+02  0.10529592433E+04  0.10516405725E+04 0.  0.
        3    1    3    3  502    0  0.15847308294E+03  0.45551871944E+02 -0.52626429393E+03  0.55149143994E+03  0.10100000352E+00 0.  1.
       -3    1    3    3    0  502 -0.15847308294E+03 -0.45551871944E+02  0.47358342091E+03  0.50146780337E+03  0.10100000352E+00 0. -1.
</event>
<event>
 5   0  0.4428114E-03  0.1110846E+04  0.7818609E-02  0.9194684E-01
       -1   -1    0    0    0  501  0.00000000000E+00  0.00000000000E+00  0.72754149150E+03  0.72754149152E+03  0.50400001928E-02 0.  1.
        1   -1    0    0  501    0  0.00000000000E+00  0.00000000000E+00 -0.42402387132E+03  0.42402387135E+03  0.50400001928E-02 0. -1.
    10030    2    1    2    0    0  0.00000000000E+00  0.00000000000E+00  0.30351762018E+03  0.11515653629E+04  0.11108464517E+04 0.  0.
        4    1    3    3  502    0  0.32864432229E+03 -0.41754215929E+03  0.31937935040E+03  0.61996235992E+03  0.12699999809E+01 0. -1.
       -4    1    3    3    0  502 -0.32864432229E+03  0.41754215929E+03 -0.15861730213E+02  0.53160300295E+03  0.12699999809E+01 0.  1.
</event>
<event>
 5   0  0.4598561E-03  0.1097865E+04  0.7818609E-02  0.9207275E-01
        1   -1    0    0  501    0  0.00000000000E+00  0.00000000000E+00  0.35580008270E+03  0.35580008273E+03  0.50400001928E-02 0. -1.
       -1   -1    0    0    0  501  0.00000000000E+00  0.00000000000E+00 -0.84689967925E+03  0.84689967926E+03  0.50400001928E-02 0.  1.
    10030    2    1    2    0    0  0.00000000000E+00  0.00000000000E+00 -0.49109959655E+03  0.12026997620E+04  0.10978651574E+04 0.  0.
        2    1    3    3  502    0  0.15165557779E+03  0.21260677818E+03  0.28338666122E+03  0.38536872754E+03  0.25500000920E-02 0. -1.
       -2    1    3    3    0  502 -0.15165557779E+03 -0.21260677818E+03 -0.77448625777E+03  0.81733103446E+03  0.25500000920E-02 0.  1.
</event>
<event>
 5   0  0.7712816E-03  0.1098459E+04  0.7818609E-02  0.9206695E-01
        2   -1    0    0  501    0  0.00000000000E+00  0.00000000000E+00  0.10398918908E+04  0.10398918908E+04  0.25500000920E-02 0.  1.
       -2   -1    0    0    0  501  0.00000000000E+00  0.00000000000E+00 -0.29008132867E+03  0.29008132868E+03  0.25500000920E-02 0. -1.
    10030    2    1    2    0    0  0.00000000000E+00  0.00000000000E+00  0.74981056210E+03  0.13299732195E+04  0.10984593235E+04 0.  0.
        2    1    3    3  502    0  0.44269072336E+03  0.68031792140E+02  0.75978647300E+03  0.88197442472E+03  0.25500000920E-02 0.  1.
       -2    1    3    3    0  502 -0.44269072336E+03 -0.68031792140E+02 -0.99759109002E+01  0.44799879475E+03  0.25500000920E-02 0. -1.
</event>
<event>
 5   0  0.4504740E-03  0.1081006E+04  0.7818609E-02  0.9223905E-01
        1   -1    0    0  501    0  0.00000000000E+00  0.00000000000E+00  0.62596919934E+03  0.62596919936E+03  0.50400001928E-02 0.  1.
       -1   -1    0    0    0  501  0.00000000000E+00  0.00000000000E+00 -0.46670558718E+03  0.46670558721E+03  0.50400001928E-02 0. -1.
    10030    2    1    2    0    0  0.00000000000E+00  0.00000000000E+00  0.15926361215E+03  0.10926747866E+04  0.10810056850E+04 0.  0.
        5    1    3    3  502    0 -0.31902870034E+02 -0.46684142857E+03 -0.19377371006E+03  0.50648697244E+03  0.46999998093E+01 0. -1.
       -5    1    3    3    0  502  0.31902870034E+02  0.46684142857E+03  0.35303732222E+03  0.58618781412E+03  0.46999998093E+01 0.  1.
</event>
<event>
 5   0  0.4298101E-03  0.1062076E+04  0.7818609E-02  0.9242964E-01
        1   -1    0    0  501    0  0.00000000000E+00  0.00000000000E+00  0.29622337224E+03  0.29622337228E+03  0.50400001928E-02 0.  1.
       -1   -1    0    0    0  501  0.00000000000E+00  0.00000000000E+00 -0.95198946131E+03  0.95198946132E+03  0.50400001928E-02 0. -1.
    10030    2    1    2    0    0  0.00000000000E+00  0.00000000000E+00 -0.65576608907E+03  0.12482128336E+04  0.10620763223E+04 0.  0.
        3    1    3    3  502    0 -0.81533719568E+02  0.18696637302E+03 -0.90411554728E+03  0.92683823028E+03  0.10100000352E+00 0. -1.
       -3    1    3    3    0  502  0.81533719568E+02 -0.18696637302E+03  0.24834945821E+03  0.32137460333E+03  0.10100000352E+00 0.  1.
</event>
<event>
 5   0  0.7712816E-03  0.1139206E+04  0.7818609E-02  0.9167800E-01
       -2   -1    0    0    0  501  0.00000000000E+00  0.00000000000E+00  0.25471578670E+03  0.25471578671E+03  0.25500000920E-02 0. -1.
        2   -1    0    0  501    0  0.00000000000E+00  0.00000000000E+00 -0.12737631184E+04  0.12737631184E+04  0.25500000920E-02 0.  1.
    10030    2    1    2    0    0  0.00000000000E+00  0.00000000000E+00 -0.10190473317E+04  0.15284789051E+04  0.11392059950E+04 0.  0.
        2    1    3    3  502    0 -0.92059209320E+02  0.33696668352E+03 -0.11131809906E+04  0.11667019163E+04  0.25500000920E-02 0.  1.
       -2    1    3    3    0  502  0.92059209320E+02 -0.33696668352E+03  0.94133658917E+02  0.36177698873E+03  0.25500000920E-02 0. -1.
</event>
<event>
 5   0  0.4598561E-03  0.1111869E+04  0.7818609E-02  0.9193700E-01
       -1   -1    0    0    0  501  0.00000000000E+00  0.00000000000E+00  0.28864030319E+03  0.28864030323E+03  0.50400001928E-02 0.  1.
        1   -1    0    0  501    0  0.00000000000E+00  0.00000000000E+00 -0.10707561821E+04  0.10707561821E+04  0.50400001928E-02 0. -1.
    10030    2    1    2    0    0  0.00000000000E+00  0.00000000000E+00 -0.78211587888E+03  0.13593964853E+04  0.11118693971E+04 0.  0.
        2    1    3    3  502    0 -0.12831914825E+03 -0.16585204588E+03 -0.10205490459E+04  0.10418699823E+04  0.25500000920E-02 0. -1.
       -2    1    3    3    0  502  0.12831914825E+03  0.16585204588E+03  0.23843316706E+03  0.31752650297E+03  0.25500000920E-02 0.  1.
</event>
<event>
 5   0  0.4504740E-03  0.1105979E+04  0.7818609E-02  0.9199384E-01
        1   -1    0    0  501    0  0.00000000000E+00  0.00000000000E+00  0.50718953226E+03  0.50718953229E+03  0.50400001928E-02 0. -1.
       -1   -1    0    0    0  501  0.00000000000E+00  0.00000000000E+00 -0.60292488371E+03  0.60292488374E+03  0.50400001928E-02 0.  1.
    10030    2    1    2    0    0  0.00000000000E+00  0.00000000000E+00 -0.95735351451E+02  0.11101144160E+04  0.11059786432E+04 0.  0.
        5    1    3    3  502    0  0.11453649128E+03 -0.41563951433E+03 -0.39542873443E+03  0.58503058699E+03  0.46999998093E+01 0.  1.
       -5    1    3    3    0  502 -0.11453649128E+03  0.41563951433E+03  0.29969338298E+03  0.52508382903E+03  0.46999998093E+01 0. -1.
</event>
<event>
 5   0  0.7537480E-03  0.1103993E+04  0.7818609E-02  0.9201308E-01
       -2   -1    0    0    0  501  0.00000000000E+00  0.00000000000E+00  0.24158881133E+03  0.24158881134E+03  0.25500000920E-02 0. -1.
        2   -1    0    0  501    0  0.00000000000E+00  0.00000000000E+00 -0.12612355866E+04  0.12612355866E+04  0.25500000920E-02 0.  1.
    10030    2    1    2    0    0  0.00000000000E+00  0.00000000000E+00 -0.10196467753E+04  0.15028243980E+04  0.11039934895E+04 0.  0.
        1    1    3    3  502    0 -0.30176051086E+02  0.42384634208E+03 -0.98945163239E+03  0.10768337145E+04  0.50400001928E-02 0.  1.
       -1    1    3    3    0  502  0.30176051086E+02 -0.42384634208E+03 -0.30195142916E+02  0.42599068351E+03  0.50400001928E-02 0. -1.
</event>
<event>
 5   0  0.7712816E-03  0.1086033E+04  0.7818609E-02  0.9218913E-01
        2   -1    0    0  501    0  0.00000000000E+00  0.00000000000E+00  0.68184269381E+03  0.68184269382E+03  0.25500000920E-02 0. -1.
       -2   -1    0    0    0  501  0.00000000000E+00  0.00000000000E+00 -0.43245589208E+03  0.43245589209E+03  0.25500000920E-02 0.  1.
    10030    2    1    2    0    0  0.00000000000E+00  0.00000000000E+00  0.24938680174E+03  0.11142985859E+04  0.10860329469E+04 0.  0.
        2    1    3    3  502    0 -0.18786043945E+03 -0.79141058796E+02 -0.39170690844E+03  0.44157576250E+03  0.25500000920E-02 0.  1.
       -2    1    3    3    0  502  0.18786043945E+03  0.79141058796E+02  0.64109371018E+03  0.67272282341E+03  0.25500000920E-02 0. -1.
</event>
<event>
 5   0  0.7738497E-03  0.1131226E+04  0.7818609E-02  0.9175280E-01
        2   -1    0    0  501    0  0.00000000000E+00  0.00000000000E+00  0.83435774520E+03  0.83435774520E+03  0.25500000920E-02 0.  1.
       -2   -1    0    0    0  501  0.00000000000E+00  0.00000000000E+00 -0.38343055105E+03  0.38343055106E+03  0.25500000920E-02 0. -1.
    10030    2    1    2    0    0  0.00000000000E+00  0.00000000000E+00  0.45092719415E+03  0.12177882963E+04  0.11312263258E+04 0.  0.
        4    1    3    3  502    0  0.48426644364E+03 -0.16723533468E+03  0.48345817161E+03  0.70442534182E+03  0.12699999809E+01 0.  1.
       -4    1    3    3    0  502 -0.48426644364E+03  0.16723533468E+03 -0.32530977468E+02  0.51336295444E+03  0.12699999809E+01 0. -1.
</event>
<event>
 5   0  0.7766551E-03  0.6938565E+03  0.7818609E-02  0.9727797E-01
        2   -1    0    0  501    0  0.00000000000E+00  0.00000000000E+00  0.59326768660E+03  0.59326768660E+03  0.25500000920E-02 0.  1.
       -2   -1    0    0    0  501  0.00000000000E+00  0.00000000000E+00 -0.20287502833E+03  0.20287502835E+03  0.25500000920E-02 0. -1.
    10030    2    1    2    0    0  0.00000000000E+00  0.00000000000E+00  0.39039265827E+03  0.79614271495E+03  0.69385646566E+03 0.  0.
        5    1    3    3  502    0 -0.14585877124E+03 -0.75888607603E+02 -0.15528885525E+03  0.22620915206E+03  0.46999998093E+01 0. -1.
       -5    1    3    3    0  502  0.14585877124E+03  0.75888607603E+02  0.54568151352E+03  0.56993356289E+03  0.46999998093E+01 0.  1.
</event>
<event>
 5   0  0.7738497E-03  0.1113614E+04  0.7818609E-02  0.9192024E-01
        2   -1    0    0  501    0  0.00000000000E+00  0.00000000000E+00  0.15830955277E+04  0.15830955277E+04  0.25500000920E-02 0.  1.
       -2   -1    0    0    0  501  0.00000000000E+00  0.00000000000E+00 -0.19584032848E+03  0.19584032850E+03  0.25500000920E-02 0. -1.
    10030    2    1    2    0    0  0.00000000000E+00  0.00000000000E+00  0.13872551992E+04  0.17789358562E+04  0.11136138436E+04 0.  0.
        4    1    3    3  502    0  0.13229010855E+03  0.89122114921E+02  0.15458141088E+04  0.15540226176E+04  0.12699999809E+01 0.  1.
       -4    1    3    3    0  502 -0.13229010855E+03 -0.89122114921E+02 -0.15855890958E+03  0.22491323859E+03  0.12699999809E+01 0. -1.
</event>
<event>
 5   0  0.7537480E-03  0.1010886E+04  0.7818609E-02  0.9296685E-01
       -2   -1    0    0    0  501  0.00000000000E+00  0.00000000000E+00  0.29944749395E+03  0.29944749396E+03  0.25500000920E-02 0.  1.
        2   -1    0    0  501    0  0.00000000000E+00  0.00000000000E+00 -0.85314613720E+03  0.85314613720E+03  0.25500000920E-02 0. -1.
    10030    2    1    2    0    0  0.00000000000E+00  0.00000000000E+00 -0.55369864325E+03  0.11525936312E+04  0.10108856963E+04 0.  0.
        1    1    3    3  502    0  0.23687371437E+02  0.25364373206E+03 -0.77459619339E+03  0.81541124423E+03  0.50400001928E-02 0. -1.
       -1    1    3    3    0  502 -0.23687371437E+02 -0.25364373206E+03  0.22089755014E+03  0.33718238694E+03  0.50400001928E-02 0.  1.
</event>
<event>
 5   0  0.4598561E-03  0.1261060E+04  0.7818609E-02  0.9061028E-01
        1   -1    0    0  501    0  0.00000000000E+00  0.00000000000E+00  0.11510318508E+04  0.11510318508E+04  0.50400001928E-02 0. -1.
       -1   -1    0    0    0  501  0.00000000000E+00  0.00000000000E+00 -0.34540169882E+03  0.34540169886E+03  0.50400001928E-02 0.  1.
    10030    2    1    2    0    0  0.00000000000E+00  0.00000000000E+00  0.80563015194E+03  0.14964335496E+04  0.12610604374E+04 0.  0.
        2    1    3    3  502    0 -0.63872243975E+02  0.49357869153E+03 -0.56570235249E+02  0.50089897165E+03  0.25500000920E-02 0.  1.
       -2    1    3    3    0  502  0.63872243975E+02 -0.49357869153E+03  0.86220038719E+03  0.99553457798E+03  0.25500000920E-02 0. -1.
</event>
<event>
 5   0  0.7712816E-03  0.1087780E+04  0.7818609E-02  0.9217185E-01
       -2   -1    0    0    0  501  0.00000000000E+00  0.00000000000E+00  0.12494111738E+03  0.12494111740E+03  0.25500000920E-02 0.  1.
        2   -1    0    0  501    0  0.00000000000E+00  0.00000000000E+00 -0.23676458023E+04  0.23676458023E+04  0.25500000920E-02 0. -1.
    10030    2    1    2    0    0  0.00000000000E+00  0.00000000000E+00 -0.22427046849E+04  0.24925869197E+04  0.10877799633E+04 0.  0.
        2    1    3    3  502    0 -0.42900738437E+03  0.32305903704E+02 -0.35886489389E+03  0.56024549916E+03  0.25500000920E-02 0.  1.
       -2    1    3    3    0  502  0.42900738437E+03 -0.32305903704E+02 -0.18838397910E+04  0.19323414205E+04  0.25500000920E-02 0. -1.
</event>
<event>
 5   0  0.7952121E-03  0.1074725E+04  0.7818609E-02  0.9230183E-01
        2   -1    0    0  501    0  0.00000000000E+00  0.00000000000E+00  0.17903162949E+04  0.17903162949E+04  0.25500000920E-02 0. -1.
       -2   -1    0    0    0  501  0.00000000000E+00  0.00000000000E+00 -0.16128913599E+03  0.16128913601E+03  0.25500000920E-02 0.  1.
    10030    2    1    2    0    0  0.00000000000E+00  0.00000000000E+00  0.16290271589E+04  0.19516054309E+04  0.10747252084E+04 0.  0.
        3    1    3    3  502    0 -0.24708532366E+03  0.40527657948E+03  0.35706868747E+03  0.59396828267E+03  0.10100000352E+00 0.  1.
       -3    1    3    3    0  502  0.24708532366E+03 -0.40527657948E+03  0.12719584714E+04  0.13576371482E+04  0.10100000352E+00 0. -1.
</event>
<event>
 5   0  0.7766551E-03  0.1121659E+04  0.7818609E-02  0.9184335E-01
       -2   -1    0    0    0  501  0.00000000000E+00  0.00000000000E+00  0.23536722432E+03  0.23536722433E+03  0.25500000920E-02 0.  1.
        2   -1    0    0  501    0  0.00000000000E+00  0.00000000000E+00 -0.13363364034E+04  0.13363364034E+04  0.25500000920E-02 0. -1.
    10030    2    1    2    0    0  0.00000000000E+00  0.00000000000E+00 -0.11009691791E+04  0.15717036277E+04  0.11216591105E+04 0.  0.
        5    1    3    3  502    0 -0.36377800401E+03 -0.19358286841E+02  0.46970052439E+02  0.36733833900E+03  0.46999998093E+01 0.  1.
       -5    1    3    3    0  502  0.36377800401E+03  0.19358286841E+02 -0.11479392315E+04  0.12043652887E+04  0.46999998093E+01 0. -1.
</event>
<event>
 5   0  0.7537480E-03  0.1104866E+04  0.7818609E-02  0.9200462E-01
       -2   -1    0    0    0  501  0.00000000000E+00  0.00000000000E+00  0.28330842401E+03  0.28330842402E+03  0.25500000920E-02 0. -1.
        2   -1    0    0  501    0  0.00000000000E+00  0.00000000000E+00 -0.10772083504E+04  0.10772083504E+04  0.25500000920E-02 0.  1.
    10030    2    1    2    0    0  0.00000000000E+00  0.00000000000E+00 -0.79389992641E+03  0.13605167744E+04  0.11048659649E+04 0.  0.
        1    1    3    3  502    0  0.16730102556E+03 -0.43700950156E+03 -0.75851496248E+03  0.89124176627E+03  0.50400001928E-02 0.  1.
       -1    1    3    3    0  502 -0.16730102556E+03  0.43700950156E+03 -0.35384963931E+02  0.46927500818E+03  0.50400001928E-02 0. -1.
</event>
<event>
 5   0  0.4641021E-03  0.1127588E+04  0.7818609E-02  0.9178712E-01
       -1   -1    0    0    0  501  0.00000000000E+00  0.00000000000E+00  0.33514192334E+03  0.33514192338E+03  0.50400001928E-02 0. -1.
        1   -1    0    0  501    0  0.00000000000E+00  0.00000000000E+00 -0.94844500318E+03  0.94844500319E+03  0.50400001928E-02 0.  1.
    10030    2    1    2    0    0  0.00000000000E+00  0.00000000000E+00 -0.61330307983E+03  0.12835869266E+04  0.11275880144E+04 0.  0.
        1    1    3    3  502    0  0.27768417465E+03  0.11000017730E+03 -0.85098536326E+03  0.90187838889E+03  0.50400001928E-02 0.  1.
       -1    1    3    3    0  502 -0.27768417465E+03 -0.11000017730E+03  0.23768228342E+03  0.38170853767E+03  0.50400001928E-02 0. -1.
</event>
<event>
 5   0  0.7712816E-03  0.1120502E+04  0.7818609E-02  0.9185436E-01
       -2   -1    0    0    0  501  0.00000000000E+00  0.00000000000E+00  0.97754280798E+03  0.97754280798E+03  0.25500000920E-02 0.  1.
        2   -1    0    0  501    0  0.00000000000E+00  0.00000000000E+00 -0.32109216811E+03  0.32109216812E+03  0.25500000920E-02 0. -1.
    10030    2    1    2    0    0  0.00000000000E+00  0.00000000000E+00  0.65645063987E+03  0.12986349761E+04  0.11205022796E+04 0.  0.
        2    1    3    3  502    0  0.15147146036E+03  0.41695530712E+03  0.72480170624E+03  0.84978399892E+03  0.25500000920E-02 0.  1.
       -2    1    3    3    0  502 -0.15147146036E+03 -0.41695530712E+03 -0.68351066376E+02  0.44885097719E+03  0.25500000920E-02 0. -1.
</event>
<event>
 5   0  0.4298101E-03  0.1092821E+04  0.7818609E-02  0.9212218E-01
       -1   -1    0    0    0  501  0.00000000000E+00  0.00000000000E+00  0.40591663363E+03  0.40591663366E+03  0.50400001928E-02 0.  1.
        1   -1    0    0  501    0  0.00000000000E+00  0.00000000000E+00 -0.73553110089E+03  0.73553110091E+03  0.50400001928E-02 0. -1.
    10030    2    1    2    0    0  0.00000000000E+00  0.00000000000E+00 -0.32961446726E+03  0.11414477346E+04  0.10928207693E+04 0.  0.
        3    1    3    3  502    0  0.18005214499E+03 -0.51371145377E+03 -0.11530573968E+03  0.55642938138E+03  0.10100000352E+00 0.  1.
       -3    1    3    3    0  502 -0.18005214499E+03  0.51371145377E+03 -0.21430872758E+03  0.58501835319E+03  0.10100000352E+00 0. -1.
</event>
<event>
 5   0  0.7766551E-03  0.1082980E+04  0.7818609E-02  0.9221941E-01
       -2   -1    0    0    0  501  0.00000000000E+00  0.00000000000E+00  0.13112811886E+03  0.13112811889E+03  0.25500000920E-02 0. -1.
        2   -1    0    0  501    0  0.00000000000E+00  0.00000000000E+00 -0.22360690911E+04  0.22360690911E+04  0.25500000920E-02 0.  1.
    10030    2    1    2    0    0  0.00000000000E+00  0.00000000000E+00 -0.21049409722E+04  0.23671972100E+04  0.10829802096E+04 0.  0.
        5    1    3    3  502    0  0.54892803807E+02 -0.94114410425E+02 -0.22118168971E+04  0.22145037409E+04  0.46999998093E+01 0.  1.
       -5    1    3    3    0  502 -0.54892803807E+02  0.94114410425E+02  0.10687592492E+03  0.15269346903E+03  0.46999998093E+01 0. -1.
</event>
<event>
 5   0  0.4598561E-03  0.1217717E+04  0.7818609E-02  0.9097489E-01
        1   -1    0    0  501    0  0.00000000000E+00  0.00000000000E+00  0.50614517391E+03  0.50614517393E+03  0.50400001928E-02 0.  1.
       -1   -1    0    0    0  501  0.00000000000E+00  0.00000000000E+00 -0.73241541835E+03  0.73241541837E+03  0.50400001928E-02 0. -1.
    10030    2    1    2    0    0  0.00000000000E+00  0.00000000000E+00 -0.22627024444E+03  0.12385605923E+04  0.12177167640E+04 0.  0.
        2    1    3    3  502    0  0.30014328982E+03 -0.15569229767E+03  0.40187422802E+03  0.52519423182E+03  0.25500000920E-02 0.  1.
       -2    1    3    3    0  502 -0.30014328982E+03  0.15569229767E+03 -0.62814447246E+03  0.71336636049E+03  0.25500000920E-02 0. -1.
</event>
<event>
 5   0  0.7738497E-03  0.1100143E+04  0.7818609E-02  0.9205052E-01
        2   -1    0    0  501    0  0.00000000000E+00  0.00000000000E+00  0.42485241105E+03  0.42485241106E+03  0.25500000920E-02 0.  1.
       -2   -1    0    0    0  501  0.00000000000E+00  0.00000000000E+00 -0.71219771988E+03  0.71219771988E+03  0.25500000920E-02 0. -1.
    10030    2    1    2    0    0  0.00000000000E+00  0.00000000000E+00 -0.28734530883E+03  0.11370501309E+04  0.11001434787E+04 0.  0.
        4    1    3    3  502    0 -0.12470973518E+03  0.49391307722E+03  0.70834218151E+02  0.51431677520E+03  0.12699999809E+01 0.  1.
       -4    1    3    3    0  502  0.12470973518E+03 -0.49391307722E+03 -0.35817952698E+03  0.62273335573E+03  0.12699999809E+01 0. -1.
</event>
<event>
 5   0  0.4641021E-03  0.1084973E+04  0.7818609E-02  0.9219963E-01
        1   -1    0    0  501    0  0.00000000000E+00  0.00000000000E+00  0.10015972657E+04  0.10015972657E+04  0.50400001928E-02 0.  1.
       -1   -1    0    0    0  501  0.00000000000E+00  0.00000000000E+00 -0.29382240439E+03  0.29382240444E+03  0.50400001928E-02 0. -1.
    10030    2    1    2    0    0  0.00000000000E+00  0.00000000000E+00  0.70777486128E+03  0.12954196701E+04  0.10849732105E+04 0.  0.
        1    1    3    3  502    0  0.42078058730E+03  0.28858294528E+03  0.13387600018E+03  0.52750279848E+03  0.50400001928E-02 0. -1.
       -1    1    3    3    0  502 -0.42078058730E+03 -0.28858294528E+03  0.57389886110E+03  0.76791687164E+03  0.50400001928E-02 0.  1.
</event>
<event>
 5   0  0.7537480E-03  0.1125966E+04  0.7818609E-02  0.9180247E-01
       -2   -1    0    0    0  501  0.00000000000E+00  0.00000000000E+00  0.42372773348E+03  0.42372773348E+03  0.25500000920E-02 0. -1.
        2   -1    0    0  501    0  0.00000000000E+00  0.00000000000E+00 -0.74800309389E+03  0.74800309390E+03  0.25500000920E-02 0.  1.
    10030    2    1    2    0    0  0.00000000000E+00  0.00000000000E+00 -0.32427536042E+03  0.11717308274E+04  0.11259656400E+04 0.  0.
        1    1    3    3  502    0 -0.84793336192E+02 -0.47020703970E+03  0.14773196649E+03  0.50010929205E+03  0.50400001928E-02 0. -1.
       -1    1    3    3    0  502  0.84793336192E+02  0.47020703970E+03 -0.47200732690E+03  0.67162153533E+03  0.50400001928E-02 0.  1.
</event>
<event>
 5   0  0.4428114E-03  0.1092001E+04  0.7818609E-02  0.9213024E-01
        1   -1    0    0  501    0  0.00000000000E+00  0.00000000000E+00  0.51197792813E+03  0.51197792816E+03  0.50400001928E-02 0.  1.
       -1   -1    0    0    0  501  0.00000000000E+00  0.00000000000E+00 -0.58228377813E+03  0.58228377816E+03  0.50400001928E-02 0. -1.
    10030    2    1    2    0    0  0.00000000000E+00  0.00000000000E+00 -0.70305850003E+02  0.10942617063E+04  0.10920008101E+04 0.  0.
        4    1    3    3  502    0  0.76822318134E+02  0.16838920635E+03  0.47958191922E+03  0.51405935797E+03  0.12699999809E+01 0.  1.
       -4    1    3    3    0  502 -0.76822318134E+02 -0.16838920635E+03 -0.54988776922E+03  0.58020234834E+03  0.12699999809E+01 0. -1.
</event>
<event>
 5   0  0.2992375E-03  0.1114555E+04  0.7818609E-02  0.9191121E-01
       -3   -1    0    0    0  501  0.00000000000E+00  0.00000000000E+00  0.44283873059E+03  0.44283874210E+03  0.10100000352E+00 0.  1.
        3   -1    0    0  501    0  0.00000000000E+00  0.00000000000E+00 -0.70128957840E+03  0.70128958567E+03  0.10100000352E+00 0. -1.
    10030    2    1    2    0    0  0.00000000000E+00  0.00000000000E+00 -0.25845084781E+03  0.11441283278E+04  0.11145549738E+04 0.  0.
        1    1    3    3  502    0 -0.29626281487E+03 -0.25367746560E+03  0.27937407424E+03  0.47976430193E+03  0.50400001928E-02 0.  1.
       -1    1    3    3    0  502  0.29626281487E+03  0.25367746560E+03 -0.53782492205E+03  0.66436402584E+03  0.50400001928E-02 0. -1.
</event>
<event>
 5   0  0.7952121E-03  0.1094064E+04  0.7818609E-02  0.9210997E-01
       -2   -1    0    0    0  501  0.00000000000E+00  0.00000000000E+00  0.36052256783E+03  0.36052256784E+03  0.25500000920E-02 0.  1.
        2   -1    0    0  501    0  0.00000000000E+00  0.00000000000E+00 -0.83002845592E+03  0.83002845593E+03  0.25500000920E-02 0. -1.
    10030    2    1    2    0    0  0.00000000000E+00  0.00000000000E+00 -0.46950588809E+03  0.11905510238E+04  0.10940639658E+04 0.  0.
        3    1    3    3  502    0 -0.11974827740E+03 -0.12781308007E+03 -0.79869248915E+03  0.81767079917E+03  0.10100000352E+00 0. -1.
       -3    1    3    3    0  502  0.11974827740E+03  0.12781308007E+03  0.32918660106E+03  0.37288022460E+03  0.10100000352E+00 0.  1.
</event>
<event>
 5   0  0.4298101E-03  0.1097386E+04  0.7818609E-02  0.9207743E-01
        1   -1    0    0  501    0  0.00000000000E+00  0.00000000000E+00  0.71783140967E+03  0.71783140969E+03  0.50400001928E-02 0.  1.
       -1   -1    0    0    0  501  0.00000000000E+00  0.00000000000E+00 -0.41940802651E+03  0.41940802654E+03  0.50400001928E-02 0. -1.
    10030    2    1    2    0    0  0.00000000000E+00  0.00000000000E+00  0.29842338316E+03  0.11372394362E+04  0.10973864496E+04 0.  0.
        3    1    3    3  502    0 -0.48261873576E+03 -0.26043697482E+03  0.13079023275E+03  0.56378573690E+03  0.10100000352E+00 0.  1.
       -3    1    3    3    0  502  0.48261873576E+03  0.26043697482E+03  0.16763315041E+03  0.57345369933E+03  0.10100000352E+00 0. -1.
</event>
<event>
 5   0  0.7537480E-03  0.1110590E+04  0.7818609E-02  0.9194932E-01
        2   -1    0    0  501    0  0.00000000000E+00  0.00000000000E+00  0.11968002243E+04  0.11968002243E+04  0.25500000920E-02 0. -1.
       -2   -1    0    0    0  501  0.00000000000E+00  0.00000000000E+00 -0.25764730279E+03  0.25764730280E+03  0.25500000920E-02 0.  1.
    10030    2    1    2    0    0  0.00000000000E+00  0.00000000000E+00  0.93915292148E+03  0.14544475271E+04  0.11105896628E+04 0.  0.
        1    1    3    3  502    0  0.15691977085E+03  0.41323846991E+03  0.90973748407E+03  0.10114406248E+04  0.50400001928E-02 0. -1.
       -1    1    3    3    0  502 -0.15691977085E+03 -0.41323846991E+03  0.29415437405E+02  0.44300690229E+03  0.50400001928E-02 0.  1.
</event>
<event>
 5   0  0.4428114E-03  0.1089965E+04  0.7818609E-02  0.9215029E-01
       -1   -1    0    0    0  501  0.00000000000E+00  0.00000000000E+00  0.64657063734E+03  0.64657063736E+03  0.50400001928E-02 0.  1.
        1   -1    0    0  501    0  0.00000000000E+00  0.00000000000E+00 -0.45935530961E+03  0.45935530963E+03  0.50400001928E-02 0. -1.
    10030    2    1    2    0    0  0.00000000000E+00  0.00000000000E+00  0.18721532773E+03  0.11059259470E+04  0.10899645046E+04 0.  0.
        4    1    3    3  502    0  0.36703825859E+03 -0.30145990498E+03  0.36474530780E+03  0.59886217950E+03  0.12699999809E+01 0.  1.
       -4    1    3    3    0  502 -0.36703825859E+03  0.30145990498E+03 -0.17752998007E+03  0.50706376749E+03  0.12699999809E+01 0. -1.
</event>
<event>
 5   0  0.7952121E-03  0.1088138E+04  0.7818609E-02  0.9216832E-01
        2   -1    0    0  501    0  0.00000000000E+00  0.00000000000E+00  0.82648879608E+03  0.82648879608E+03  0.25500000920E-02 0. -1.
       -2   -1    0    0    0  501  0.00000000000E+00  0.00000000000E+00 -0.35815468255E+03  0.35815468256E+03  0.25500000920E-02 0.  1.
    10030    2    1    2    0    0  0.00000000000E+00  0.00000000000E+00  0.46833411353E+03  0.11846434786E+04  0.10881375509E+04 0.  0.
        3    1    3    3  502    0 -0.47180841972E+03 -0.24314461428E+03  0.10403189255E+03  0.54087441541E+03  0.10100000352E+00 0. -1.
       -3    1    3    3    0  502  0.47180841972E+03  0.24314461428E+03  0.36430222097E+03  0.64376906324E+03  0.10100000352E+00 0.  1.
</event>
<event>
 5   0  0.4428114E-03  0.7732426E+03  0.7818609E-02  0.9599576E-01
        1   -1    0    0  501    0  0.00000000000E+00  0.00000000000E+00  0.26614852664E+03  0.26614852669E+03  0.50400001928E-02 0.  1.
       -1   -1    0    0    0  501  0.00000000000E+00  0.00000000000E+00 -0.56162637738E+03  0.56162637741E+03  0.50400001928E-02 0. -1.
    10030    2    1    2    0    0  0.00000000000E+00  0.00000000000E+00 -0.29547785074E+03  0.82777490409E+03  0.77324260848E+03 0.  0.
        4    1    3    3  502    0  0.17080894625E+03  0.13514347180E+03 -0.48969552530E+03  0.53595034704E+03  0.12699999809E+01 0. -1.
       -4    1    3    3    0  502 -0.17080894625E+03 -0.13514347180E+03  0.19421767456E+03  0.29182455706E+03  0.12699999809E+01 0.  1.
</event>
<event>
 5   0  0.4504740E-03  0.1115597E+04  0.7818609E-02  0.9190122E-01
       -1   -1    0    0    0  501  0.00000000000E+00  0.00000000000E+00  0.41665647972E+03  0.41665647975E+03  0.50400001928E-02 0.  1.
        1   -1    0    0  501    0  0.00000000000E+00  0.00000000000E+00 -0.74675191698E+03  0.74675191700E+03  0.50400001928E-02 0. -1.
    10030    2    1    2    0    0  0.00000000000E+00  0.00000000000E+00 -0.33009543727E+03  0.11634083967E+04  0.11155967461E+04 0.  0.
        5    1    3    3  502    0  0.22210156832E+03 -0.45454585090E+02 -0.69651811783E+03  0.73249901325E+03  0.46999998093E+01 0. -1.
       -5    1    3    3    0  502 -0.22210156832E+03  0.45454585090E+02  0.36642268056E+03  0.43090938350E+03  0.46999998093E+01 0.  1.
</event>
<event>
 5   0  0.4428114E-03  0.1049816E+04  0.7818609E-02  0.9255534E-01
       -1   -1    0    0    0  501  0.00000000000E+00  0.00000000000E+00  0.10221681228E+04  0.10221681228E+04  0.50400001928E-02 0. -1.
        1   -1    0    0  501    0  0.00000000000E+00  0.00000000000E+00 -0.26955298615E+03  0.26955298620E+03  0.50400001928E-02 0.  1.
    10030    2    1    2    0    0  0.00000000000E+00  0.00000000000E+00  0.75261513663E+03  0.12917211090E+04  0.10498161170E+04 0.  0.
        4    1    3    3  502    0 -0.34057112318E+03 -0.35901879108E+03  0.16091736681E+03  0.52036448200E+03  0.12699999809E+01 0.  1.
       -4    1    3    3    0  502  0.34057112318E+03  0.35901879108E+03  0.59169776983E+03  0.77135662699E+03  0.12699999809E+01 0. -1.
</event>
<event>
 5   0  0.4298101E-03  0.8921233E+03  0.7818609E-02  0.9435482E-01
       -1   -1    0    0    0  501  0.00000000000E+00  0.00000000000E+00  0.18254705172E+03  0.18254705179E+03  0.50400001928E-02 0.  1.
        1   -1    0    0  501    0  0.00000000000E+00  0.00000000000E+00 -0.10899710485E+04  0.10899710485E+04  0.50400001928E-02 0. -1.
    10030    2    1    2    0    0  0.00000000000E+00  0.00000000000E+00 -0.90742399681E+03  0.12725181003E+04  0.89212331305E+03 0.  0.
        3    1    3    3  502    0  0.35689993181E+02 -0.42658738336E+03 -0.63255467126E+03  0.76379054301E+03  0.10100000352E+00 0. -1.
       -3    1    3    3    0  502 -0.35689993181E+02  0.42658738336E+03 -0.27486932555E+03  0.50872755732E+03  0.10100000352E+00 0.  1.
</event>
<event>
 5   0  0.7712816E-03  0.1131441E+04  0.7818609E-02  0.9175077E-01
        2   -1    0    0  501    0  0.00000000000E+00  0.00000000000E+00  0.99286131250E+03  0.99286131250E+03  0.25500000920E-02 0. -1.
       -2   -1    0    0    0  501  0.00000000000E+00  0.00000000000E+00 -0.32234099805E+03  0.32234099806E+03  0.25500000920E-02 0.  1.
    10030    2    1    2    0    0  0.00000000000E+00  0.00000000000E+00  0.67052031445E+03  0.13152023106E+04  0.11314413929E+04 0.  0.
        2    1    3    3  502    0  0.27560012681E+03 -0.19230682995E+03 -0.19373687236E+03  0.38790633207E+03  0.25500000920E-02 0.  1.
       -2    1    3    3    0  502 -0.27560012681E+03  0.19230682995E+03  0.86425718681E+03  0.92729597848E+03  0.25500000920E-02 0. -1.
</event>
<event>
 5   0  0.7738497E-03  0.1077338E+04  0.7818609E-02  0.9227566E-01
        2   -1    0    0  501    0  0.00000000000E+00  0.00000000000E+00  0.12327152482E+04  0.12327152482E+04  0.25500000920E-02 0. -1.
       -2   -1    0    0    0  501  0.00000000000E+00  0.00000000000E+00 -0.23538636721E+03  0.23538636723E+03  0.25500000920E-02 0.  1.
    10030    2    1    2    0    0  0.00000000000E+00  0.00000000000E+00  0.99732888098E+03  0.14681016154E+04  0.10773381347E+04 0.  0.
        4    1    3    3  502    0 -0.53341234895E+03 -0.70451945022E+02  0.46337728675E+03  0.71007910359E+03  0.12699999809E+01 0. -1.
       -4    1    3    3    0  502  0.53341234895E+03  0.70451945022E+02  0.53395159423E+03  0.75802251184E+03  0.12699999809E+01 0.  1.
</event>
<event>
 5   0  0.7766551E-03  0.1105478E+04  0.7818609E-02  0.9199869E-01
        2   -1    0    0  501    0  0.00000000000E+00  0.00000000000E+00  0.54272331238E+03  0.54272331239E+03  0.25500000920E-02 0. -1.
       -2   -1    0    0    0  501  0.00000000000E+00  0.00000000000E+00 -0.56293928309E+03  0.56293928310E+03  0.25500000920E-02 0.  1.
    10030    2    1    2    0    0  0.00000000000E+00  0.00000000000E+00 -0.20215970705E+02  0.11056625955E+04  0.11054777653E+04 0.  0.
        5    1    3    3  502    0 -0.39938158604E+03  0.30370808336E+03 -0.24199568985E+03  0.55707114004E+03  0.46999998093E+01 0.  1.
       -5    1    3    3    0  502  0.39938158604E+03 -0.30370808336E+03  0.22177971915E+03  0.54859145544E+03  0.46999998093E+01 0. -1.
</event>
<event>
 5   0  0.7766551E-03  0.1035088E+04  0.7818609E-02  0.9270876E-01
       -2   -1    0    0    0  501  0.00000000000E+00  0.00000000000E+00  0.43930593131E+03  0.43930593132E+03  0.25500000920E-02 0.  1.
        2   -1    0    0  501    0  0.00000000000E+00  0.00000000000E+00 -0.60971621356E+03  0.60971621356E+03  0.25500000920E-02 0. -1.
    10030    2    1    2    0    0  0.00000000000E+00  0.00000000000E+00 -0.17041028224E+03  0.10490221449E+04  0.10350883036E+04 0.  0.
        5    1    3    3  502    0 -0.12005293023E+01 -0.49533505432E+03  0.66718118447E+02  0.49983162628E+03  0.46999998093E+01 0.  1.
       -5    1    3    3    0  502  0.12005293023E+01  0.49533505432E+03 -0.23712840069E+03  0.54919051860E+03  0.46999998093E+01 0. -1.
</event>
<event>
 5   0  0.4428114E-03  0.9753361E+03  0.7818609E-02  0.9336017E-01
        1   -1    0    0  501    0  0.00000000000E+00  0.00000000000E+00  0.98276438400E+03  0.98276438402E+03  0.50400001928E-02 0.  1.
       -1   -1    0    0    0  501  0.00000000000E+00  0.00000000000E+00 -0.24199098194E+03  0.24199098199E+03  0.50400001928E-02 0. -1.
    10030    2    1    2    0    0  0.00000000000E+00  0.00000000000E+00  0.74077340206E+03  0.12247553660E+04  0.97533608226E+03 0.  0.
        4    1    3    3  502    0 -0.28342803290E+02  0.47451521958E+03  0.50708507486E+03  0.69505747543E+03  0.12699999809E+01 0.  1.
       -4    1    3    3    0  502  0.28342803290E+02 -0.47451521958E+03  0.23368832721E+03  0.52969789058E+03  0.12699999809E+01 0. -1.
</event>
<event>
 5   0  0.4641021E-03  0.1043658E+04  0.7818609E-02  0.9261917E-01
       -1   -1    0    0    0  501  0.00000000000E+00  0.00000000000E+00  0.42192677270E+03  0.42192677273E+03  0.50400001928E-02 0. -1.
        1   -1    0    0  501    0  0.00000000000E+00  0.00000000000E+00 -0.64538547120E+03  0.64538547122E+03  0.50400001928E-02 0.  1.
    10030    2    1    2    0    0  0.00000000000E+00  0.00000000000E+00 -0.22345869851E+03  0.10673122440E+04  0.10436578156E+04 0.  0.
        1    1    3    3  502    0  0.71399910780E+01  0.18543668509E+03  0.38704150426E+03  0.42923055541E+03  0.50400001928E-02 0. -1.
       -1    1    3    3    0  502 -0.71399910780E+01 -0.18543668509E+03 -0.61050020277E+03  0.63808168854E+03  0.50400001928E-02 0.  1.
</event>
<event>
 5   0  0.7952121E-03  0.1095647E+04  0.7818609E-02  0.9209445E-01
        2   -1    0    0  501    0  0.00000000000E+00  0.00000000000E+00  0.14966693639E+04  0.14966693639E+04  0.25500000920E-02 0.  1.
       -2   -1    0    0    0  501  0.00000000000E+00  0.00000000000E+00 -0.20051898129E+03  0.20051898130E+03  0.25500000920E-02 0. -1.
    10030    2    1    2    0    0  0.00000000000E+00  0.00000000000E+00  0.12961503826E+04  0.16971883452E+04  0.10956470530E+04 0.  0.
        3    1    3    3  502    0 -0.53290715305E+03  0.12601255519E+03  0.62400745058E+03  0.83021353061E+03  0.10100000352E+00 0.  1.
       -3    1    3    3    0  502  0.53290715305E+03 -0.12601255519E+03  0.67214293199E+03  0.86697481455E+03  0.10100000352E+00 0. -1.
</event>
<event>
 5   0  0.7537480E-03  0.1070160E+04  0.7818609E-02  0.9234774E-01
       -2   -1    0    0    0  501  0.00000000000E+00  0.00000000000E+00  0.57109293306E+03  0.57109293307E+03  0.25500000920E-02 0.  1.
        2   -1    0    0  501    0  0.00000000000E+00  0.00000000000E+00 -0.50133789004E+03  0.50133789005E+03  0.25500000920E-02 0. -1.
    10030    2    1    2    0    0  0.00000000000E+00  0.00000000000E+00  0.69755043022E+02  0.10724308231E+04  0.10701598499E+04 0.  0.
        1    1    3    3  502    0 -0.51484465380E+03 -0.14411342083E+03  0.56760308075E+02  0.53763875252E+03  0.50400001928E-02 0. -1.
       -1    1    3    3    0  502  0.51484465380E+03  0.14411342083E+03  0.12994734947E+02  0.53479207060E+03  0.50400001928E-02 0.  1.
</event>
<event>
 5   0  0.2992375E-03  0.1124461E+04  0.7818609E-02  0.9181673E-01
       -3   -1    0    0    0  501  0.00000000000E+00  0.00000000000E+00  0.15675417248E+04  0.15675417280E+04  0.10100000352E+00 0. -1.
        3   -1    0    0  501    0  0.00000000000E+00  0.00000000000E+00 -0.20165537162E+03  0.20165539692E+03  0.10100000352E+00 0.  1.
    10030    2    1    2    0    0  0.00000000000E+00  0.00000000000E+00  0.13658863532E+04  0.17691971250E+04  0.11244611764E+04 0.  0.
        1    1    3    3  502    0 -0.38074944223E+03 -0.33416050779E+03  0.29925343608E+03  0.58837573179E+03  0.50400001928E-02 0.  1.
       -1    1    3    3    0  502  0.38074944223E+03  0.33416050779E+03  0.10666329171E+04  0.11808213932E+04  0.50400001928E-02 0. -1.
</event>
<event>
 5   0  0.7766551E-03  0.1014659E+04  0.7818609E-02  0.9292612E-01
        2   -1    0    0  501    0  0.00000000000E+00  0.00000000000E+00  0.69378739504E+03  0.69378739505E+03  0.25500000920E-02 0. -1.
       -2   -1    0    0    0  501  0.00000000000E+00  0.00000000000E+00 -0.37098278574E+03  0.37098278575E+03  0.25500000920E-02 0.  1.
    10030    2    1    2    0    0  0.00000000000E+00  0.00000000000E+00  0.32280460931E+03  0.10647701808E+04  0.10146589191E+04 0.  0.
        5    1    3    3  502    0  0.50477037372E+03 -0.41055453486E+02  0.19257476160E+03  0.54183559246E+03  0.46999998093E+01 0. -1.
       -5    1    3    3    0  502 -0.50477037372E+03  0.41055453486E+02  0.13022984770E+03  0.52293458834E+03  0.46999998093E+01 0.  1.
</event>
<event>
 5   0  0.4298101E-03  0.1103722E+04  0.7818609E-02  0.9201572E-01
        1   -1    0    0  501    0  0.00000000000E+00  0.00000000000E+00  0.41163324741E+03  0.41163324745E+03  0.50400001928E-02 0. -1.
       -1   -1    0    0    0  501  0.00000000000E+00  0.00000000000E+00 -0.73985867434E+03  0.73985867436E+03  0.50400001928E-02 0.  1.
    10030    2    1    2    0    0  0.00000000000E+00  0.00000000000E+00 -0.32822542693E+03  0.11514919218E+04  0.11037217562E+04 0.  0.
        3    1    3    3  502    0  0.34289378882E+03 -0.21009373124E+03  0.23017972458E+03  0.46335541664E+03  0.10100000352E+00 0. -1.
       -3    1    3    3    0  502 -0.34289378882E+03  0.21009373124E+03 -0.55840515151E+03  0.68813650517E+03  0.10100000352E+00 0.  1.
</event>
<event>
 5   0  0.2992375E-03  0.1114229E+04  0.7818609E-02  0.9191433E-01
       -3   -1    0    0    0  501  0.00000000000E+00  0.00000000000E+00  0.26745208971E+03  0.26745210879E+03  0.10100000352E+00 0.  1.
        3   -1    0    0  501    0  0.00000000000E+00  0.00000000000E+00 -0.11604936225E+04  0.11604936269E+04  0.10100000352E+00 0. -1.
    10030    2    1    2    0    0  0.00000000000E+00  0.00000000000E+00 -0.89304153277E+03  0.14279457357E+04  0.11142288117E+04 0.  0.
        3    1    3    3  502    0 -0.30327959158E+03  0.22449226417E+03  0.78762377282E+02  0.38545921914E+03  0.10100000352E+00 0.  1.
       -3    1    3    3    0  502  0.30327959158E+03 -0.22449226417E+03 -0.97180391005E+03  0.10424865165E+04  0.10100000352E+00 0. -1.
</event>
<event>
 5   0  0.7712816E-03  0.1118322E+04  0.7818609E-02  0.9187515E-01
       -2   -1    0    0    0  501  0.00000000000E+00  0.00000000000E+00  0.44262938506E+03  0.44262938507E+03  0.25500000920E-02 0.  1.
        2   -1    0    0  501    0  0.00000000000E+00  0.00000000000E+00 -0.70637265293E+03  0.70637265294E+03  0.25500000920E-02 0. -1.
    10030    2    1    2    0    0  0.00000000000E+00  0.00000000000E+00 -0.26374326787E+03  0.11490020380E+04  0.11183224812E+04 0.  0.
        2    1    3    3  502    0  0.40908401697E+03  0.74868118664E+02 -0.51589864987E+03  0.66265102813E+03  0.25500000920E-02 0. -1.
       -2    1    3    3    0  502 -0.40908401697E+03 -0.74868118664E+02  0.25215538200E+03  0.48635100988E+03  0.25500000920E-02 0.  1.
</event>
<event>
 5   0  0.4641021E-03  0.8421064E+03  0.7818609E-02  0.9500993E-01
       -1   -1    0    0    0  501  0.00000000000E+00  0.00000000000E+00  0.20394859127E+03  0.20394859133E+03  0.50400001928E-02 0. -1.
        1   -1    0    0  501    0  0.00000000000E+00  0.00000000000E+00 -0.86926708399E+03  0.86926708401E+03  0.50400001928E-02 0.  1.
    10030    2    1    2    0    0  0.00000000000E+00  0.00000000000E+00 -0.66531849272E+03  0.10732156753E+04  0.84210640007E+03 0.  0.
        1    1    3    3  502    0  0.16012228797E+03 -0.26091274719E+03 -0.70108359850E+03  0.76500511166E+03  0.50400001928E-02 0.  1.
       -1    1    3    3    0  502 -0.16012228797E+03  0.26091274719E+03  0.35765105777E+02  0.30821056369E+03  0.50400001928E-02 0. -1.
</event>
<event>
 5   0  0.7952121E-03  0.1103478E+04  0.7818609E-02  0.9201809E-01
        2   -1    0    0  501    0  0.00000000000E+00  0.00000000000E+00  0.47769670907E+03  0.47769670908E+03  0.25500000920E-02 0. -1.
       -2   -1    0    0    0  501  0.00000000000E+00  0.00000000000E+00 -0.63725719546E+03  0.63725719547E+03  0.25500000920E-02 0.  1.
    10030    2    1    2    0    0  0.00000000000E+00  0.00000000000E+00 -0.15956048639E+03  0.11149539045E+04  0.11034775306E+04 0.  0.
        3    1    3    3  502    0 -0.42091781855E+03  0.12713976014E+03 -0.41653212945E+03  0.60566934350E+03  0.10100000352E+00 0.  1.
       -3    1    3    3    0  502  0.42091781855E+03 -0.12713976014E+03  0.25697164306E+03  0.50928456105E+03  0.10100000352E+00 0. -1.
</event>
<event>
 5   0  0.7712816E-03  0.1100199E+04  0.7818609E-02  0.9204998E-01
        2   -1    0    0  501    0  0.00000000000E+00  0.00000000000E+00  0.18514159825E+04  0.18514159825E+04  0.25500000920E-02 0.  1.
       -2   -1    0    0    0  501  0.00000000000E+00  0.00000000000E+00 -0.16344743631E+03  0.16344743633E+03  0.25500000920E-02 0. -1.
    10030    2    1    2    0    0  0.00000000000E+00  0.00000000000E+00  0.16879685462E+04  0.20148634188E+04  0.11001985201E+04 0.  0.
        2    1    3    3  502    0 -0.14444348687E+03 -0.53067349428E+03  0.86493858320E+03  0.10249863566E+04  0.25500000920E-02 0. -1.
       -2    1    3    3    0  502  0.14444348687E+03  0.53067349428E+03  0.82302996299E+03  0.98987706227E+03  0.25500000920E-02 0.  1.
</event>
<event>
 5   0  0.4641021E-03  0.1102265E+04  0.7818609E-02  0.9202987E-01
       -1   -1    0    0    0  501  0.00000000000E+00  0.00000000000E+00  0.14594627345E+04  0.14594627345E+04  0.50400001928E-02 0. -1.
        1   -1    0    0  501    0  0.00000000000E+00  0.00000000000E+00 -0.20812264309E+03  0.20812264315E+03  0.50400001928E-02 0.  1.
    10030    2    1    2    0    0  0.00000000000E+00  0.00000000000E+00  0.12513400914E+04  0.16675853777E+04  0.11022653798E+04 0.  0.
        1    1    3    3  502    0  0.14038429026E+03 -0.44516539144E+03  0.18235167171E+03  0.50113082812E+03  0.50400001928E-02 0.  1.
       -1    1    3    3    0  502 -0.14038429026E+03  0.44516539144E+03  0.10689884197E+04  0.11664545496E+04  0.50400001928E-02 0. -1.
</event>
<event>
 5   0  0.7766551E-03  0.1099901E+04  0.7818609E-02  0.9205288E-01
        2   -1    0    0  501    0  0.00000000000E+00  0.00000000000E+00  0.75585844621E+03  0.75585844622E+03  0.25500000920E-02 0. -1.
       -2   -1    0    0    0  501  0.00000000000E+00  0.00000000000E+00 -0.40013537108E+03  0.40013537108E+03  0.25500000920E-02 0.  1.
    10030    2    1    2    0    0  0.00000000000E+00  0.00000000000E+00  0.35572307514E+03  0.11559938173E+04  0.10999012680E+04 0.  0.
        5    1    3    3  502    0 -0.18436406947E+03  0.31082023488E+03 -0.25779484060E+03  0.44393648010E+03  0.46999998093E+01 0.  1.
       -5    1    3    3    0  502  0.18436406947E+03 -0.31082023488E+03  0.61351791574E+03  0.71205733720E+03  0.46999998093E+01 0. -1.
</event>
<event>
 5   0  0.7712816E-03  0.1100960E+04  0.7818609E-02  0.9204257E-01
       -2   -1    0    0    0  501  0.00000000000E+00  0.00000000000E+00  0.21972901300E+03  0.21972901302E+03  0.25500000920E-02 0. -1.
        2   -1    0    0  501    0  0.00000000000E+00  0.00000000000E+00 -0.13791001883E+04  0.13791001883E+04  0.25500000920E-02 0.  1.
    10030    2    1    2    0    0  0.00000000000E+00  0.00000000000E+00 -0.11593711753E+04  0.15988292013E+04  0.11009601686E+04 0.  0.
        2    1    3    3  502    0  0.25915191458E+03 -0.41267588234E+03 -0.20783038271E+03  0.52976840854E+03  0.25500000920E-02 0. -1.
       -2    1    3    3    0  502 -0.25915191458E+03  0.41267588234E+03 -0.95154079260E+03  0.10690607928E+04  0.25500000920E-02 0.  1.
</event>
<event>
 5   0  0.7766551E-03  0.1083210E+04  0.7818609E-02  0.9221713E-01
       -2   -1    0    0    0  501  0.00000000000E+00  0.00000000000E+00  0.85675482678E+03  0.85675482678E+03  0.25500000920E-02 0. -1.
        2   -1    0    0  501    0  0.00000000000E+00  0.00000000000E+00 -0.34238047861E+03  0.34238047861E+03  0.25500000920E-02 0.  1.
    10030    2    1    2    0    0  0.00000000000E+00  0.00000000000E+00  0.51437434817E+03  0.11991353054E+04  0.10832102799E+04 0.  0.
        5    1    3    3  502    0  0.26638873546E+03  0.86015329287E+02  0.77043439796E+03  0.81972730027E+03  0.46999998093E+01 0. -1.
       -5    1    3    3    0  502 -0.26638873546E+03 -0.86015329287E+02 -0.25606004979E+03  0.37940800512E+03  0.46999998093E+01 0.  1.
</event>
<event>
 5   0  0.4641021E-03  0.1091688E+04  0.7818609E-02  0.9213331E-01
        1   -1    0    0  501    0  0.00000000000E+00  0.00000000000E+00  0.21029154630E+04  0.21029154630E+04  0.50400001928E-02 0.  1.
       -1   -1    0    0    0  501  0.00000000000E+00  0.00000000000E+00 -0.14168222115E+03  0.14168222124E+03  0.50400001928E-02 0. -1.
    10030    2    1    2    0    0  0.00000000000E+00  0.00000000000E+00  0.19612332418E+04  0.22445976842E+04  0.10916881126E+04 0.  0.
        1    1    3    3  502    0 -0.48579799800E+03  0.23529456671E+03  0.11474317953E+04  0.12680547910E+04  0.50400001928E-02 0. -1.
       -1    1    3    3    0  502  0.48579799800E+03 -0.23529456671E+03  0.81380144653E+03  0.97654289326E+03  0.50400001928E-02 0.  1.
</event>
<event>
 5   0  0.7738497E-03  0.1098042E+04  0.7818609E-02  0.9207102E-01
       -2   -1    0    0    0  501  0.00000000000E+00  0.00000000000E+00  0.64110328194E+03  0.64110328195E+03  0.25500000920E-02 0.  1.
        2   -1    0    0  501    0  0.00000000000E+00  0.00000000000E+00 -0.47016485649E+03  0.47016485650E+03  0.25500000920E-02 0. -1.
    10030    2    1    2    0    0  0.00000000000E+00  0.00000000000E+00  0.17093842545E+03  0.11112681384E+04  0.10980423171E+04 0.  0.
        4    1    3    3  502    0 -0.33272031102E+03  0.86422507462E+02  0.51870359895E+03  0.62227541461E+03  0.12699999809E+01 0.  1.
       -4    1    3    3    0  502  0.33272031102E+03 -0.86422507462E+02 -0.34776517350E+03  0.48899272384E+03  0.12699999809E+01 0. -1.
</event>
<event>
 5   0  0.7952121E-03  0.1085301E+04  0.7818609E-02  0.9219638E-01
       -2   -1    0    0    0  501  0.00000000000E+00  0.00000000000E+00  0.83306801605E+03  0.83306801605E+03  0.25500000920E-02 0. -1.
        2   -1    0    0  501    0  0.00000000000E+00  0.00000000000E+00 -0.35347596038E+03  0.35347596039E+03  0.25500000920E-02 0.  1.
    10030    2    1    2    0    0  0.00000000000E+00  0.00000000000E+00  0.47959205566E+03  0.11865439764E+04  0.10853009114E+04 0.  0.
        3    1    3    3  502    0  0.20073108149E+03  0.11575952702E+02 -0.31124875116E+03  0.37054387737E+03  0.10100000352E+00 0.  1.
       -3    1    3    3    0  502 -0.20073108149E+03 -0.11575952702E+02  0.79084080682E+03  0.81600009907E+03  0.10100000352E+00 0. -1.
</event>
<event>
 5   0  0.7766551E-03  0.1104941E+04  0.7818609E-02  0.9200389E-01
       -2   -1    0    0    0  501  0.00000000000E+00  0.00000000000E+00  0.17012154472E+03  0.17012154474E+03  0.25500000920E-02 0. -1.
        2   -1    0    0  501    0  0.00000000000E+00  0.00000000000E+00 -0.17941509516E+04  0.17941509516E+04  0.25500000920E-02 0.  1.
    10030    2    1    2    0    0  0.00000000000E+00  0.00000000000E+00 -0.16240294069E+04  0.19642724963E+04  0.11049411412E+04 0.  0.
        5    1    3    3  502    0 -0.25156681282E+03  0.29264231953E+03 -0.15147780238E+04  0.15631698371E+04  0.46999998093E+01 0.  1.
       -5    1    3    3    0  502  0.25156681282E+03 -0.29264231953E+03 -0.10925138311E+03  0.40110265918E+03  0.46999998093E+01 0. -1.
</event>
<event>
 5   0  0.7952121E-03  0.1034149E+04  0.7818609E-02  0.9271864E-01
        2   -1    0    0  501    0  0.00000000000E+00  0.00000000000E+00  0.13072003312E+04  0.13072003312E+04  0.25500000920E-02 0. -1.
       -2   -1    0    0    0  501  0.00000000000E+00  0.00000000000E+00 -0.20453323966E+03  0.20453323968E+03  0.25500000920E-02 0.  1.
    10030    2    1    2    0    0  0.00000000000E+00  0.00000000000E+00  0.11026670915E+04  0.15117335708E+04  0.10341487681E+04 0.  0.
        3    1    3    3  502    0 -0.85381249126E+02  0.15939347403E+03  0.12594761453E+04  0.12723900377E+04  0.10100000352E+00 0. -1.
       -3    1    3    3    0  502  0.85381249126E+02 -0.15939347403E+03 -0.15680905385E+03  0.23934353310E+03  0.10100000352E+00 0.  1.
</event>
<event>
 5   0  0.4298101E-03  0.1158558E+04  0.7818609E-02  0.9149925E-01
        1   -1    0    0  501    0  0.00000000000E+00  0.00000000000E+00  0.74616580744E+03  0.74616580746E+03  0.50400001928E-02 0.  1.
       -1   -1    0    0    0  501  0.00000000000E+00  0.00000000000E+00 -0.44971781132E+03  0.44971781135E+03  0.50400001928E-02 0. -1.
    10030    2    1    2    0    0  0.00000000000E+00  0.00000000000E+00  0.29644799612E+03  0.11958836188E+04  0.11585578170E+04 0.  0.
        3    1    3    3  502    0 -0.53061863458E+03  0.22871076546E+03  0.19077457668E+03  0.60848968678E+03  0.10100000352E+00 0. -1.
       -3    1    3    3    0  502  0.53061863458E+03 -0.22871076546E+03  0.10567341944E+03  0.58739393203E+03  0.10100000352E+00 0.  1.
</event>
<event>
 5   0  0.4298101E-03  0.9025378E+03  0.7818609E-02  0.9422415E-01
       -1   -1    0    0    0  501  0.00000000000E+00  0.00000000000E+00  0.50219777813E+03  0.50219777816E+03  0.50400001928E-02 0. -1.
        1   -1    0    0  501    0  0.00000000000E+00  0.00000000000E+00 -0.40550482864E+03  0.40550482867E+03  0.50400001928E-02 0.  1.
    10030    2    1    2    0    0  0.00000000000E+00  0.00000000000E+00  0.96692949492E+02  0.90770260683E+03  0.90253780861E+03 0.  0.
        3    1    3    3  502    0  0.44521222413E+03  0.43086076543E+02 -0.11772512966E+02  0.44744713293E+03  0.10100000352E+00 0.  1.
       -3    1    3    3    0  502 -0.44521222413E+03 -0.43086076543E+02  0.10846546246E+03  0.46025547390E+03  0.10100000352E+00 0. -1.
</event>
<event>
 5   0  0.7738497E-03  0.1090665E+04  0.7818609E-02  0.9214338E-01
        2   -1    0    0  501    0  0.00000000000E+00  0.00000000000E+00  0.14005863497E+04  0.14005863497E+04  0.25500000920E-02 0. -1.
       -2   -1    0    0    0  501  0.00000000000E+00  0.00000000000E+00 -0.21233081253E+03  0.21233081254E+03  0.25500000920E-02 0.  1.
    10030    2    1    2    0    0  0.00000000000E+00  0.00000000000E+00  0.11882555372E+04  0.16129171623E+04  0.10906651872E+04 0.  0.
        4    1    3    3  502    0 -0.53223230360E+03  0.31523771504E+02  0.76352446393E+03  0.93125517077E+03  0.12699999809E+01 0. -1.
       -4    1    3    3    0  502  0.53223230360E+03 -0.31523771504E+02  0.42473107327E+03  0.68166199151E+03  0.12699999809E+01 0.  1.
</event>
<event>
 5   0  0.4504740E-03  0.1138259E+04  0.7818609E-02  0.9168684E-01
       -1   -1    0    0    0  501  0.00000000000E+00  0.00000000000E+00  0.20151553865E+03  0.20151553871E+03  0.50400001928E-02 0.  1.
        1   -1    0    0  501    0  0.00000000000E+00  0.00000000000E+00 -0.16073623067E+04  0.16073623068E+04  0.50400001928E-02 0. -1.
    10030    2    1    2    0    0  0.00000000000E+00  0.00000000000E+00 -0.14058467681E+04  0.18088778455E+04  0.11382591640E+04 0.  0.
        5    1    3    3  502    0 -0.37988395872E+03 -0.13552900091E+02 -0.29840923050E+02  0.38132410609E+03  0.46999998093E+01 0.  1.
       -5    1    3    3    0  502  0.37988395872E+03  0.13552900091E+02 -0.13760058451E+04  0.14275537394E+04  0.46999998093E+01 0. -1.
</event>
<event>
 5   0  0.2992375E-03  0.1174014E+04  0.7818609E-02  0.9135911E-01
       -3   -1    0    0    0  501  0.00000000000E+00  0.00000000000E+00  0.13536140146E+04  0.13536140183E+04  0.10100000352E+00 0. -1.
        3   -1    0    0  501    0  0.00000000000E+00  0.00000000000E+00 -0.25456071794E+03  0.25456073797E+03  0.10100000352E+00 0.  1.
    10030    2    1    2    0    0  0.00000000000E+00  0.00000000000E+00  0.10990532966E+04  0.16081747563E+04  0.11740135851E+04 0.  0.
        4    1    3    3  502    0  0.48922332322E+03  0.27438957870E+03  0.31248131001E+03  0.64208666306E+03  0.12699999809E+01 0. -1.
       -4    1    3    3    0  502 -0.48922332322E+03 -0.27438957870E+03  0.78657198660E+03  0.96608809323E+03  0.12699999809E+01 0.  1.
</event>
<event>
 5   0  0.4298101E-03  0.1061224E+04  0.7818609E-02  0.9243832E-01
        1   -1    0    0  501    0  0.00000000000E+00  0.00000000000E+00  0.81043463717E+03  0.81043463719E+03  0.50400001928E-02 0. -1.
       -1   -1    0    0    0  501  0.00000000000E+00  0.00000000000E+00 -0.34740490757E+03  0.34740490761E+03  0.50400001928E-02 0.  1.
    10030    2    1    2    0    0  0.00000000000E+00  0.00000000000E+00  0.46302972960E+03  0.11578395448E+04  0.10612237658E+04 0.  0.
        3    1    3    3  502    0  0.23838338424E+03  0.34293347838E+03  0.58860229897E+03  0.72172202754E+03  0.10100000352E+00 0. -1.
       -3    1    3    3    0  502 -0.23838338424E+03 -0.34293347838E+03 -0.12557256937E+03  0.43611751726E+03  0.10100000352E+00 0.  1.
</event>
<event>
 5   0  0.2992375E-03  0.1103405E+04  0.7818609E-02  0.9201879E-01
       -3   -1    0    0    0  501  0.00000000000E+00  0.00000000000E+00  0.17033413705E+04  0.17033413735E+04  0.10100000352E+00 0. -1.
        3   -1    0    0  501    0  0.00000000000E+00  0.00000000000E+00 -0.17869325139E+03  0.17869327993E+03  0.10100000352E+00 0.  1.
    10030    2    1    2    0    0  0.00000000000E+00  0.00000000000E+00  0.15246481191E+04  0.18820346534E+04  0.11034049799E+04 0.  0.
        2    1    3    3  502    0  0.15799025382E+02 -0.29160720845E+03  0.15606958931E+04  0.15877833743E+04  0.25500000920E-02 0. -1.
       -2    1    3    3    0  502 -0.15799025382E+02  0.29160720845E+03 -0.36047773949E+02  0.29425127907E+03  0.25500000920E-02 0.  1.
</event>
<event>
 5   0  0.4298101E-03  0.1075333E+04  0.7818609E-02  0.9229573E-01
        1   -1    0    0  501    0  0.00000000000E+00  0.00000000000E+00  0.56255366577E+03  0.56255366579E+03  0.50400001928E-02 0.  1.
       -1   -1    0    0    0  501  0.00000000000E+00  0.00000000000E+00 -0.51388053821E+03  0.51388053823E+03  0.50400001928E-02 0. -1.
    10030    2    1    2    0    0  0.00000000000E+00  0.00000000000E+00  0.48673127558E+02  0.10764342040E+04  0.10753332145E+04 0.  0.
        3    1    3    3  502    0 -0.33571822067E+03  0.74145780671E+01  0.44467561344E+03  0.55722357366E+03  0.10100000352E+00 0.  1.
       -3    1    3    3    0  502  0.33571822067E+03 -0.74145780671E+01 -0.39600248588E+03  0.51921063036E+03  0.10100000352E+00 0. -1.
</event>
<event>
 5   0  0.7537480E-03  0.1113881E+04  0.7818609E-02  0.9191767E-01
        2   -1    0    0  501    0  0.00000000000E+00  0.00000000000E+00  0.60946629561E+03  0.60946629562E+03  0.25500000920E-02 0.  1.
       -2   -1    0    0    0  501  0.00000000000E+00  0.00000000000E+00 -0.50894129370E+03  0.50894129371E+03  0.25500000920E-02 0. -1.
    10030    2    1    2    0    0  0.00000000000E+00  0.00000000000E+00  0.10052500191E+03  0.11184075893E+04  0.11138807207E+04 0.  0.
        1    1    3    3  502    0  0.15712913874E+03 -0.50215641180E+03  0.23357483752E+03  0.57568032179E+03  0.50400001928E-02 0.  1.
       -1    1    3    3    0  502 -0.15712913874E+03  0.50215641180E+03 -0.13304983561E+03  0.54272726754E+03  0.50400001928E-02 0. -1.
</event>
<event>
 5   0  0.4598561E-03  0.1125045E+04  0.7818609E-02  0.9181120E-01
        1   -1    0    0  501    0  0.00000000000E+00  0.00000000000E+00  0.57121493952E+03  0.57121493954E+03  0.50400001928E-02 0. -1.
       -1   -1    0    0    0  501  0.00000000000E+00  0.00000000000E+00 -0.55396202396E+03  0.55396202398E+03  0.50400001928E-02 0.  1.
    10030    2    1    2    0    0  0.00000000000E+00  0.00000000000E+00  0.17252915559E+02  0.11251769635E+04  0.11250446818E+04 0.  0.
        2    1    3    3  502    0  0.16563922301E+03  0.34547558180E+03 -0.40329774540E+03  0.55627223665E+03  0.25500000920E-02 0.  1.
       -2    1    3    3    0  502 -0.16563922301E+03 -0.34547558180E+03  0.42055066096E+03  0.56890472687E+03  0.25500000920E-02 0. -1.
</event>
<event>
 5   0  0.4298101E-03  0.1095613E+04  0.7818609E-02  0.9209478E-01
        1   -1    0    0  501    0  0.00000000000E+00  0.00000000000E+00  0.77587901165E+03  0.77587901166E+03  0.50400001928E-02 0. -1.
       -1   -1    0    0    0  501  0.00000000000E+00  0.00000000000E+00 -0.38677676917E+03  0.38677676921E+03  0.50400001928E-02 0.  1.
    10030    2    1    2    0    0  0.00000000000E+00  0.00000000000E+00  0.38910224247E+03  0.11626557809E+04  0.10956130292E+04 0.  0.
        3    1    3    3  502    0 -0.28147487162E+03  0.30745499011E+03  0.57173777102E+03  0.70755972421E+03  0.10100000352E+00 0. -1.
       -3    1    3    3    0  502  0.28147487162E+03 -0.30745499011E+03 -0.18263552855E+03  0.45509605666E+03  0.10100000352E+00 0.  1.
</event>
<event>
 5   0  0.4598561E-03  0.7801443E+03  0.7818609E-02  0.9589211E-01
       -1   -1    0    0    0  501  0.00000000000E+00  0.00000000000E+00  0.59175170685E+02  0.59175170900E+02  0.50400001928E-02 0. -1.
        1   -1    0    0  501    0  0.00000000000E+00  0.00000000000E+00 -0.25712856037E+04  0.25712856037E+04  0.50400001928E-02 0.  1.
    10030    2    1    2    0    0  0.00000000000E+00  0.00000000000E+00 -0.25121104331E+04  0.26304607746E+04  0.78014425530E+03 0.  0.
        2    1    3    3  502    0  0.98980297051E+02  0.14575449386E+02  0.15178313799E+02  0.10119251032E+03  0.25500000920E-02 0. -1.
       -2    1    3    3    0  502 -0.98980297051E+02 -0.14575449386E+02 -0.25272887469E+04  0.25292682643E+04  0.25500000920E-02 0.  1.
</event>
<event>
 5   0  0.4298101E-03  0.1087641E+04  0.7818609E-02  0.9217323E-01
        1   -1    0    0  501    0  0.00000000000E+00  0.00000000000E+00  0.51369128200E+03  0.51369128202E+03  0.50400001928E-02 0.  1.
       -1   -1    0    0    0  501  0.00000000000E+00  0.00000000000E+00 -0.57571638156E+03  0.57571638158E+03  0.50400001928E-02 0. -1.
    10030    2    1    2    0    0  0.00000000000E+00  0.00000000000E+00 -0.62025099561E+02  0.10894076636E+04  0.10876405401E+04 0.  0.
        3    1    3    3  502    0 -0.45984472994E+03 -0.25183162364E+03  0.11366635646E+03  0.53646658154E+03  0.10100000352E+00 0.  1.
       -3    1    3    3    0  502  0.45984472994E+03  0.25183162364E+03 -0.17569145602E+03  0.55294108207E+03  0.10100000352E+00 0. -1.
</event>
<event>
 5   0  0.7766551E-03  0.1141818E+04  0.7818609E-02  0.9165365E-01
        2   -1    0    0  501    0  0.00000000000E+00  0.00000000000E+00  0.13859427372E+04  0.13859427372E+04  0.25500000920E-02 0.  1.
       -2   -1    0    0    0  501  0.00000000000E+00  0.00000000000E+00 -0.23517371099E+03  0.23517371100E+03  0.25500000920E-02 0. -1.
    10030    2    1    2    0    0  0.00000000000E+00  0.00000000000E+00  0.11507690263E+04  0.16211164482E+04  0.11418183686E+04 0.  0.
        5    1    3    3  502    0 -0.60077862801E+02 -0.21102428050E+03 -0.17289432006E+03  0.27938348639E+03  0.46999998093E+01 0. -1.
       -5    1    3    3    0  502  0.60077862801E+02  0.21102428050E+03  0.13236633463E+04  0.13417329619E+04  0.46999998093E+01 0.  1.
</event>
<event>
 5   0  0.7537480E-03  0.1104192E+04  0.7818609E-02  0.9201116E-01
       -2   -1    0    0    0  501  0.00000000000E+00  0.00000000000E+00  0.15550638085E+03  0.15550638087E+03  0.25500000920E-02 0. -1.
        2   -1    0    0  501    0  0.00000000000E+00  0.00000000000E+00 -0.19601130155E+04  0.19601130155E+04  0.25500000920E-02 0.  1.
    10030    2    1    2    0    0  0.00000000000E+00  0.00000000000E+00 -0.18046066347E+04  0.21156193964E+04  0.11041921592E+04 0.  0.
        1    1    3    3  502    0 -0.11267387374E+03 -0.41407874252E+03 -0.23678073385E+03  0.49012419118E+03  0.50400001928E-02 0. -1.
       -1    1    3    3    0  502  0.11267387374E+03  0.41407874252E+03 -0.15678259008E+04  0.16254952052E+04  0.50400001928E-02 0.  1.
</event>
<event>
 5   0  0.4641021E-03  0.1080849E+04  0.7818609E-02  0.9224061E-01
        1   -1    0    0  501    0  0.00000000000E+00  0.00000000000E+00  0.76567138100E+03  0.76567138102E+03  0.50400001928E-02 0.  1.
       -1   -1    0    0    0  501  0.00000000000E+00  0.00000000000E+00 -0.38144134940E+03  0.38144134943E+03  0.50400001928E-02 0. -1.
    10030    2    1    2    0    0  0.00000000000E+00  0.00000000000E+00  0.38423003160E+03  0.11471127305E+04  0.10808491565E+04 0.  0.
        1    1    3    3  502    0 -0.35523788568E+03 -0.39602757317E+03  0.29294996046E+03  0.60733143627E+03  0.50400001928E-02 0. -1.
       -1    1    3    3    0  502  0.35523788568E+03  0.39602757317E+03  0.91280071143E+02  0.53978129418E+03  0.50400001928E-02 0.  1.
</event>
<event>
 5   0  0.7712816E-03  0.1106931E+04  0.7818609E-02  0.9198462E-01
        2   -1    0    0  501    0  0.00000000000E+00  0.00000000000E+00  0.83037912054E+03  0.83037912055E+03  0.25500000920E-02 0.  1.
       -2   -1    0    0    0  501  0.00000000000E+00  0.00000000000E+00 -0.36889674973E+03  0.36889674974E+03  0.25500000920E-02 0. -1.
    10030    2    1    2    0    0  0.00000000000E+00  0.00000000000E+00  0.46148237082E+03  0.11992758703E+04  0.11069311787E+04 0.  0.
        2    1    3    3  502    0  0.21022166755E+03 -0.43361601102E+03 -0.64197338630E+02  0.48614534124E+03  0.25500000920E-02 0. -1.
       -2    1    3    3    0  502 -0.21022166755E+03  0.43361601102E+03  0.52567970945E+03  0.71313052904E+03  0.25500000920E-02 0.  1.
</event>
<event>
 5   0  0.7766551E-03  0.1092151E+04  0.7818609E-02  0.9212876E-01
       -2   -1    0    0    0  501  0.00000000000E+00  0.00000000000E+00  0.12198420743E+04  0.12198420743E+04  0.25500000920E-02 0. -1.
        2   -1    0    0  501    0  0.00000000000E+00  0.00000000000E+00 -0.24445657740E+03  0.24445657742E+03  0.25500000920E-02 0.  1.
    10030    2    1    2    0    0  0.00000000000E+00  0.00000000000E+00  0.97538549693E+03  0.14642986517E+04  0.10921509392E+04 0.  0.
        5    1    3    3  502    0 -0.22003699165E+02 -0.63934846435E+02  0.12141805954E+04  0.12160709007E+04  0.46999998093E+01 0. -1.
       -5    1    3    3    0  502  0.22003699165E+02  0.63934846435E+02 -0.23879509843E+03  0.24822775106E+03  0.46999998093E+01 0.  1.
</event>
<event>
 5   0  0.4598561E-03  0.1079259E+04  0.7818609E-02  0.9225647E-01
       -1   -1    0    0    0  501  0.00000000000E+00  0.00000000000E+00  0.23019824722E+03  0.23019824728E+03  0.50400001928E-02 0.  1.
        1   -1    0    0  501    0  0.00000000000E+00  0.00000000000E+00 -0.12649955103E+04  0.12649955104E+04  0.50400001928E-02 0. -1.
    10030    2    1    2    0    0  0.00000000000E+00  0.00000000000E+00 -0.10347972631E+04  0.14951937576E+04  0.10792585404E+04 0.  0.
        2    1    3    3  502    0  0.32079508405E+03 -0.12162243059E+03  0.59659450025E+02  0.34822514493E+03  0.25500000920E-02 0.  1.
       -2    1    3    3    0  502 -0.32079508405E+03  0.12162243059E+03 -0.10944567131E+04  0.11469686127E+04  0.25500000920E-02 0. -1.
</event>
<event>
 5   0  0.7712816E-03  0.1096238E+04  0.7818609E-02  0.9208867E-01
        2   -1    0    0  501    0  0.00000000000E+00  0.00000000000E+00  0.94012277673E+03  0.94012277673E+03  0.25500000920E-02 0. -1.
       -2   -1    0    0    0  501  0.00000000000E+00  0.00000000000E+00 -0.31956917174E+03  0.31956917175E+03  0.25500000920E-02 0.  1.
    10030    2    1    2    0    0  0.00000000000E+00  0.00000000000E+00  0.62055360499E+03  0.12596919485E+04  0.10962376697E+04 0.  0.
        2    1    3    3  502    0  0.33347344570E+03  0.10281007551E+03  0.79598234754E+03  0.86911584280E+03  0.25500000920E-02 0. -1.
       -2    1    3    3    0  502 -0.33347344570E+03 -0.10281007551E+03 -0.17542874255E+03  0.39057610568E+03  0.25500000920E-02 0.  1.
</event>
<event>
 5   0  0.7952121E-03  0.1058705E+04  0.7818609E-02  0.9246403E-01
       -2   -1    0    0    0  501  0.00000000000E+00  0.00000000000E+00  0.20335743030E+03  0.20335743031E+03  0.25500000920E-02 0.  1.
        2   -1    0    0  501    0  0.00000000000E+00  0.00000000000E+00 -0.13779387631E+04  0.13779387631E+04  0.25500000920E-02 0. -1.
    10030    2    1    2    0    0  0.00000000000E+00  0.00000000000E+00 -0.11745813328E+04  0.15812961935E+04  0.10587050316E+04 0.  0.
        3    1    3    3  502    0 -0.27055752162E+03  0.13560650873E+03  0.61397891871E+02  0.30880448352E+03  0.10100000352E+00 0.  1.
       -3    1    3    3    0  502  0.27055752162E+03 -0.13560650873E+03 -0.12359792247E+04  0.12724917099E+04  0.10100000352E+00 0. -1.
</event>
<event>
 5   0  0.4504740E-03  0.1098656E+04  0.7818609E-02  0.9206503E-01
        1   -1    0    0  501    0  0.00000000000E+00  0.00000000000E+00  0.41203754838E+03  0.41203754841E+03  0.50400001928E-02 0. -1.
       -1   -1    0    0    0  501  0.00000000000E+00  0.00000000000E+00 -0.73236355756E+03  0.73236355758E+03  0.50400001928E-02 0.  1.
    10030    2    1    2    0    0  0.00000000000E+00  0.00000000000E+00 -0.32032600918E+03  0.11444011060E+04  0.10986560605E+04 0.  0.
        5    1    3    3  502    0 -0.43990257440E+03 -0.32893169279E+03 -0.15456704468E+03  0.57063420401E+03  0.46999998093E+01 0. -1.
       -5    1    3    3    0  502  0.43990257440E+03  0.32893169279E+03 -0.16575896450E+03  0.57376690197E+03  0.46999998093E+01 0.  1.
</event>
<event>
 5   0  0.4504740E-03  0.1070189E+04  0.7818609E-02  0.9234744E-01
       -1   -1    0    0    0  501  0.00000000000E+00  0.00000000000E+00  0.38861700603E+03  0.38861700607E+03  0.50400001928E-02 0. -1.
        1   -1    0    0  501    0  0.00000000000E+00  0.00000000000E+00 -0.73678288052E+03  0.73678288053E+03  0.50400001928E-02 0.  1.
    10030    2    1    2    0    0  0.00000000000E+00  0.00000000000E+00 -0.34816587448E+03  0.11253998866E+04  0.10701894358E+04 0.  0.
        5    1    3    3  502    0 -0.31041863980E+03 -0.14581985327E+03 -0.60597918093E+03  0.69631603404E+03  0.46999998093E+01 0.  1.
       -5    1    3    3    0  502  0.31041863980E+03  0.14581985327E+03  0.25781330645E+03  0.42908385256E+03  0.46999998093E+01 0. -1.
</event>
<event>
 5   0  0.7537480E-03  0.1159824E+04  0.7818609E-02  0.9148768E-01
       -2   -1    0    0    0  501  0.00000000000E+00  0.00000000000E+00  0.27500528969E+03  0.27500528970E+03  0.25500000920E-02 0. -1.
        2   -1    0    0  501    0  0.00000000000E+00  0.00000000000E+00 -0.12228781762E+04  0.12228781762E+04  0.25500000920E-02 0.  1.
    10030    2    1    2    0    0  0.00000000000E+00  0.00000000000E+00 -0.94787288647E+03  0.14978834659E+04  0.11598240679E+04 0.  0.
        1    1    3    3  502    0  0.14257004284E+03 -0.52601217138E+03 -0.72990577376E+03  0.91092121512E+03  0.50400001928E-02 0.  1.
       -1    1    3    3    0  502 -0.14257004284E+03  0.52601217138E+03 -0.21796711271E+03  0.58696225075E+03  0.50400001928E-02 0. -1.
</event>
<event>
 5   0  0.4428114E-03  0.1125873E+04  0.7818609E-02  0.9180335E-01
        1   -1    0    0  501    0  0.00000000000E+00  0.00000000000E+00  0.22305044747E+03  0.22305044753E+03  0.50400001928E-02 0. -1.
       -1   -1    0    0    0  501  0.00000000000E+00  0.00000000000E+00 -0.14207439364E+04  0.14207439364E+04  0.50400001928E-02 0.  1.
    10030    2    1    2    0    0  0.00000000000E+00  0.00000000000E+00 -0.11976934889E+04  0.16437943839E+04  0.11258731204E+04 0.  0.
        4    1    3    3  502    0 -0.11703923733E+03 -0.35181932992E+03  0.19589021408E+02  0.37129552467E+03  0.12699999809E+01 0. -1.
       -4    1    3    3    0  502  0.11703923733E+03  0.35181932992E+03 -0.12172825103E+04  0.12724988593E+04  0.12699999809E+01 0.  1.
</event>
<event>
 5   0  0.4598561E-03  0.1073599E+04  0.7818609E-02  0.9231313E-01
       -1   -1    0    0    0  501  0.00000000000E+00  0.00000000000E+00  0.36948553172E+03  0.36948553175E+03  0.50400001928E-02 0.  1.
        1   -1    0    0  501    0  0.00000000000E+00  0.00000000000E+00 -0.77987859656E+03  0.77987859657E+03  0.50400001928E-02 0. -1.
    10030    2    1    2    0    0  0.00000000000E+00  0.00000000000E+00 -0.41039306484E+03  0.11493641283E+04  0.10735992883E+04 0.  0.
        2    1    3    3  502    0  0.32747897572E+03  0.25132325398E+03 -0.57255680964E+03  0.70585207926E+03  0.25500000920E-02 0. -1.
       -2    1    3    3    0  502 -0.32747897572E+03 -0.25132325398E+03  0.16216374480E+03  0.44351204906E+03  0.25500000920E-02 0.  1.
</event>
<event>
 5   0  0.7738497E-03  0.1073845E+04  0.7818609E-02  0.9231066E-01
        2   -1    0    0  501    0  0.00000000000E+00  0.00000000000E+00  0.15543180511E+04  0.15543180511E+04  0.25500000920E-02 0. -1.
       -2   -1    0    0    0  501  0.00000000000E+00  0.00000000000E+00 -0.18547420038E+03  0.18547420039E+03  0.25500000920E-02 0.  1.
    10030    2    1    2    0    0  0.00000000000E+00  0.00000000000E+00  0.13688438507E+04  0.17397922515E+04  0.10738452359E+04 0.  0.
        4    1    3    3  502    0  0.32505891513E+03  0.15491744926E+03  0.13296850103E+04  0.13775799628E+04  0.12699999809E+01 0. -1.
       -4    1    3    3    0  502 -0.32505891513E+03 -0.15491744926E+03  0.39158840414E+02  0.36221228869E+03  0.12699999809E+01 0.  1.
</event>
<event>
 5   0  0.7712816E-03  0.1179453E+04  0.7818609E-02  0.9131034E-01
       -2   -1    0    0    0  501  0.00000000000E+00  0.00000000000E+00  0.37360813588E+03  0.37360813589E+03  0.25500000920E-02 0. -1.
        2   -1    0    0  501    0  0.00000000000E+00  0.00000000000E+00 -0.93086124997E+03  0.93086124997E+03  0.25500000920E-02 0.  1.
    10030    2    1    2    0    0  0.00000000000E+00  0.00000000000E+00 -0.55725311409E+03  0.13044693859E+04  0.11794529857E+04 0.  0.
        2    1    3    3  502    0  0.26895303186E+03  0.62034806236E+02  0.29775857798E+03  0.40601012463E+03  0.25500000920E-02 0. -1.
       -2    1    3    3    0  502 -0.26895303186E+03 -0.62034806236E+02 -0.85501169206E+03  0.89845926124E+03  0.25500000920E-02 0.  1.
</event>
<event>
 5   0  0.7952121E-03  0.1075942E+04  0.7818609E-02  0.9228963E-01
       -2   -1    0    0    0  501  0.00000000000E+00  0.00000000000E+00  0.18206145773E+03  0.18206145774E+03  0.25500000920E-02 0. -1.
        2   -1    0    0  501    0  0.00000000000E+00  0.00000000000E+00 -0.15896439748E+04  0.15896439748E+04  0.25500000920E-02 0.  1.
    10030    2    1    2    0    0  0.00000000000E+00  0.00000000000E+00 -0.14075825171E+04  0.17717054325E+04  0.10759421905E+04 0.  0.
        3    1    3    3  502    0  0.47947842061E+03  0.19903911852E+02 -0.11041592859E+04  0.12039366513E+04  0.10100000352E+00 0.  1.
       -3    1    3    3    0  502 -0.47947842061E+03 -0.19903911852E+02 -0.30342323120E+03  0.56776878126E+03  0.10100000352E+00 0. -1.
</event>
<event>
 5   0  0.2992375E-03  0.1085880E+04  0.7818609E-02  0.9219065E-01
       -4   -1    0    0    0  501  0.00000000000E+00  0.00000000000E+00  0.11860234309E+04  0.11860241109E+04  0.12699999809E+01 0.  1.
        4   -1    0    0  501    0  0.00000000000E+00  0.00000000000E+00 -0.24854563392E+03  0.24854887857E+03  0.12699999809E+01 0. -1.
    10030    2    1    2    0    0  0.00000000000E+00  0.00000000000E+00  0.93747779701E+03  0.14345729895E+04  0.10858798470E+04 0.  0.
        1    1    3    3  502    0  0.28787726369E+03  0.11761643578E+03  0.10567123259E+04  0.11015207146E+04  0.50400001928E-02 0.  1.
       -1    1    3    3    0  502 -0.28787726369E+03 -0.11761643578E+03 -0.11923452887E+03  0.33305227490E+03  0.50400001928E-02 0. -1.
</event>
<event>
 5   0  0.7738497E-03  0.1188947E+04  0.7818609E-02  0.9122587E-01
        2   -1    0    0  501    0  0.00000000000E+00  0.00000000000E+00  0.23968810188E+03  0.23968810189E+03  0.25500000920E-02 0. -1.
       -2   -1    0    0    0  501  0.00000000000E+00  0.00000000000E+00 -0.14744102390E+04  0.14744102390E+04  0.25500000920E-02 0.  1.
    10030    2    1    2    0    0  0.00000000000E+00  0.00000000000E+00 -0.12347221371E+04  0.17140983408E+04  0.11889467466E+04 0.  0.
        4    1    3    3  502    0 -0.17492002475E+03  0.38951385824E+03 -0.12136703635E+04  0.12865906206E+04  0.12699999809E+01 0.  1.
       -4    1    3    3    0  502  0.17492002475E+03 -0.38951385824E+03 -0.21051773581E+02  0.42750772027E+03  0.12699999809E+01 0. -1.
</event>
<event>
 5   0  0.7952121E-03  0.1095212E+04  0.7818609E-02  0.9209872E-01
        2   -1    0    0  501    0  0.00000000000E+00  0.00000000000E+00  0.38087286728E+03  0.38087286729E+03  0.25500000920E-02 0.  1.
       -2   -1    0    0    0  501  0.00000000000E+00  0.00000000000E+00 -0.78732865696E+03  0.78732865697E+03  0.25500000920E-02 0. -1.
    10030    2    1    2    0    0  0.00000000000E+00  0.00000000000E+00 -0.40645578968E+03  0.11682015243E+04  0.10952116199E+04 0.  0.
        3    1    3    3  502    0  0.40803794053E+03 -0.30757438542E+03  0.68094238753E+01  0.51102186053E+03  0.10100000352E+00 0. -1.
       -3    1    3    3    0  502 -0.40803794053E+03  0.30757438542E+03 -0.41326521356E+03  0.65717966373E+03  0.10100000352E+00 0.  1.
</event>
<event>
 5   0  0.4298101E-03  0.7363817E+03  0.7818609E-02  0.9656961E-01
        1   -1    0    0  501    0  0.00000000000E+00  0.00000000000E+00  0.87300241466E+03  0.87300241467E+03  0.50400001928E-02 0.  1.
       -1   -1    0    0    0  501  0.00000000000E+00  0.00000000000E+00 -0.15528536303E+03  0.15528536311E+03  0.50400001928E-02 0. -1.
    10030    2    1    2    0    0  0.00000000000E+00  0.00000000000E+00  0.71771705163E+03  0.10282877778E+04  0.73638168618E+03 0.  0.
        3    1    3    3  502    0 -0.17593534932E+03  0.15553032772E+03 -0.37143978664E+02  0.23774485344E+03  0.10100000352E+00 0. -1.
       -3    1    3    3    0  502  0.17593534932E+03 -0.15553032772E+03  0.75486103029E+03  0.79054292435E+03  0.10100000352E+00 0.  1.
</event>
<event>
 5   0  0.7952121E-03  0.8427937E+03  0.7818609E-02  0.9500060E-01
        2   -1    0    0  501    0  0.00000000000E+00  0.00000000000E+00  0.57583083058E+03  0.57583083058E+03  0.25500000920E-02 0. -1.
       -2   -1    0    0    0  501  0.00000000000E+00  0.00000000000E+00 -0.30838106674E+03  0.30838106675E+03  0.25500000920E-02 0.  1.
    10030    2    1    2    0    0  0.00000000000E+00  0.00000000000E+00  0.26744976383E+03  0.88421189734E+03  0.84279374892E+03 0.  0.
        3    1    3    3  502    0  0.28016432410E+03  0.11117016409E+03  0.44268744190E+03  0.53555861985E+03  0.10100000352E+00 0. -1.
       -3    1    3    3    0  502 -0.28016432410E+03 -0.11117016409E+03 -0.17523767807E+03  0.34865327748E+03  0.10100000352E+00 0.  1.
</event>
<event>
 5   0  0.4598561E-03  0.1099083E+04  0.7818609E-02  0.9206086E-01
        1   -1    0    0  501    0  0.00000000000E+00  0.00000000000E+00  0.31623003954E+03  0.31623003958E+03  0.50400001928E-02 0. -1.
       -1   -1    0    0    0  501  0.00000000000E+00  0.00000000000E+00 -0.95498731966E+03  0.95498731967E+03  0.50400001928E-02 0.  1.
    10030    2    1    2    0    0  0.00000000000E+00  0.00000000000E+00 -0.63875728012E+03  0.12712173593E+04  0.10990826682E+04 0.  0.
        2    1    3    3  502    0  0.35203611392E+03 -0.31297071145E+03  0.79982076903E+01  0.47110939607E+03  0.25500000920E-02 0. -1.
       -2    1    3    3    0  502 -0.35203611392E+03  0.31297071145E+03 -0.64675548781E+03  0.80010796318E+03  0.25500000920E-02 0.  1.
</event>
<event>
 5   0  0.4641021E-03  0.1060094E+04  0.7818609E-02  0.9244985E-01
       -1   -1    0    0    0  501  0.00000000000E+00  0.00000000000E+00  0.44648016900E+03  0.44648016903E+03  0.50400001928E-02 0.  1.
        1   -1    0    0  501    0  0.00000000000E+00  0.00000000000E+00 -0.62925448572E+03  0.62925448574E+03  0.50400001928E-02 0. -1.
    10030    2    1    2    0    0  0.00000000000E+00  0.00000000000E+00 -0.18277431672E+03  0.10757346548E+04  0.10600936735E+04 0.  0.
        1    1    3    3  502    0  0.11481538668E+03  0.78794047173E+01 -0.61642324114E+03  0.62707437381E+03  0.50400001928E-02 0. -1.
       -1    1    3    3    0  502 -0.11481538668E+03 -0.78794047173E+01  0.43364892442E+03  0.44866028097E+03  0.50400001928E-02 0.  1.
</event>
<event>
 5   0  0.7738497E-03  0.1090546E+04  0.7818609E-02  0.9214456E-01
       -2   -1    0    0    0  501  0.00000000000E+00  0.00000000000E+00  0.36537987111E+03  0.36537987112E+03  0.25500000920E-02 0. -1.
        2   -1    0    0  501    0  0.00000000000E+00  0.00000000000E+00 -0.81373568597E+03  0.81373568597E+03  0.25500000920E-02 0.  1.
    10030    2    1    2    0    0  0.00000000000E+00  0.00000000000E+00 -0.44835581486E+03  0.11791155571E+04  0.10905459918E+04 0.  0.
        4    1    3    3  502    0 -0.36126125008E+02  0.33717897838E+03  0.23749777880E+03  0.41400672483E+03  0.12699999809E+01 0. -1.
       -4    1    3    3    0  502  0.36126125008E+02 -0.33717897838E+03 -0.68585359366E+03  0.76510883226E+03  0.12699999809E+01 0.  1.
</event>
<event>
 5   0  0.7738497E-03  0.1112509E+04  0.7818609E-02  0.9193085E-01
        2   -1    0    0  501    0  0.00000000000E+00  0.00000000000E+00  0.87708441351E+03  0.87708441352E+03  0.25500000920E-02 0. -1.
       -2   -1    0    0    0  501  0.00000000000E+00  0.00000000000E+00 -0.35278158344E+03  0.35278158345E+03  0.25500000920E-02 0.  1.
    10030    2    1    2    0    0  0.00000000000E+00  0.00000000000E+00  0.52430283008E+03  0.12298659970E+04  0.11125092866E+04 0.  0.
        4    1    3    3  502    0 -0.89074898004E+02 -0.24269115419E+03 -0.28233303089E+03  0.38281442895E+03  0.12699999809E+01 0.  1.
       -4    1    3    3    0  502  0.89074898004E+02  0.24269115419E+03  0.80663586097E+03  0.84705156802E+03  0.12699999809E+01 0. -1.
</event>
<event>
 5   0  0.7738497E-03  0.1093228E+04  0.7818609E-02  0.9211818E-01
       -2   -1    0    0    0  501  0.00000000000E+00  0.00000000000E+00  0.65914639820E+03  0.65914639820E+03  0.25500000920E-02 0. -1.
        2   -1    0    0  501    0  0.00000000000E+00  0.00000000000E+00 -0.45329341141E+03  0.45329341142E+03  0.25500000920E-02 0.  1.
    10030    2    1    2    0    0  0.00000000000E+00  0.00000000000E+00  0.20585298679E+03  0.11124398096E+04  0.10932277338E+04 0.  0.
        4    1    3    3  502    0  0.16625335433E+03 -0.17994013322E+03 -0.39429804968E+03  0.46421029098E+03  0.12699999809E+01 0.  1.
       -4    1    3    3    0  502 -0.16625335433E+03  0.17994013322E+03  0.60015103646E+03  0.64822951864E+03  0.12699999809E+01 0. -1.
</event>
<event>
 5   0  0.2992375E-03  0.8099199E+03  0.7818609E-02  0.9545768E-01
        3   -1    0    0  501    0  0.00000000000E+00  0.00000000000E+00  0.21718479908E+04  0.21718479932E+04  0.10100000352E+00 0. -1.
       -3   -1    0    0    0  501  0.00000000000E+00  0.00000000000E+00 -0.75508268119E+02  0.75508335668E+02  0.10100000352E+00 0.  1.
    10030    2    1    2    0    0  0.00000000000E+00  0.00000000000E+00  0.20963397227E+04  0.22473563289E+04  0.80991989468E+03 0.  0.
        4    1    3    3  502    0 -0.33511158655E+03  0.21833344876E+03  0.87220198330E+03  0.95953487840E+03  0.12699999809E+01 0.  1.
       -4    1    3    3    0  502  0.33511158655E+03 -0.21833344876E+03  0.12241377394E+04  0.12878214505E+04  0.12699999809E+01 0. -1.
</event>
<event>
 5   0  0.4641021E-03  0.1084230E+04  0.7818609E-02  0.9220701E-01
        1   -1    0    0  501    0  0.00000000000E+00  0.00000000000E+00  0.70944315146E+03  0.70944315147E+03  0.50400001928E-02 0.  1.
       -1   -1    0    0    0  501  0.00000000000E+00  0.00000000000E+00 -0.41425224197E+03  0.41425224200E+03  0.50400001928E-02 0. -1.
    10030    2    1    2    0    0  0.00000000000E+00  0.00000000000E+00  0.29519090949E+03  0.11236953935E+04  0.10842295256E+04 0.  0.
        1    1    3    3  502    0 -0.38488563051E+03 -0.38170775959E+03  0.15497166212E+03  0.56378540101E+03  0.50400001928E-02 0. -1.
       -1    1    3    3    0  502  0.38488563051E+03  0.38170775959E+03  0.14021924737E+03  0.55990999246E+03  0.50400001928E-02 0.  1.
</event>
<event>
 5   0  0.2992375E-03  0.1106596E+04  0.7818609E-02  0.9198787E-01
        3   -1    0    0  501    0  0.00000000000E+00  0.00000000000E+00  0.30116084811E+03  0.30116086504E+03  0.10100000352E+00 0.  1.
       -3   -1    0    0    0  501  0.00000000000E+00  0.00000000000E+00 -0.10165291410E+04  0.10165291461E+04  0.10100000352E+00 0. -1.
    10030    2    1    2    0    0  0.00000000000E+00  0.00000000000E+00 -0.71536829293E+03  0.13176900111E+04  0.11065962095E+04 0.  0.
        1    1    3    3  502    0 -0.55319436754E+02 -0.11880565887E+03 -0.99778111641E+03  0.10063509234E+04  0.50400001928E-02 0. -1.
       -1    1    3    3    0  502  0.55319436754E+02  0.11880565887E+03  0.28241282348E+03  0.31133908774E+03  0.50400001928E-02 0.  1.
</event>
<event>
 5   0  0.7952121E-03  0.1125186E+04  0.7818609E-02  0.9180986E-01
        2   -1    0    0  501    0  0.00000000000E+00  0.00000000000E+00  0.11799659110E+04  0.11799659110E+04  0.25500000920E-02 0.  1.
       -2   -1    0    0    0  501  0.00000000000E+00  0.00000000000E+00 -0.26823720235E+03  0.26823720236E+03  0.25500000920E-02 0. -1.
    10030    2    1    2    0    0  0.00000000000E+00  0.00000000000E+00  0.91172870866E+03  0.14482031134E+04  0.11251857711E+04 0.  0.
        3    1    3    3  502    0 -0.19829137254E+03 -0.52074103516E+03  0.35600119230E+03  0.66123184531E+03  0.10100000352E+00 0. -1.
       -3    1    3    3    0  502  0.19829137254E+03  0.52074103516E+03  0.55572751636E+03  0.78697126807E+03  0.10100000352E+00 0.  1.
</event>
<event>
 5   0  0.7537480E-03  0.1164408E+04  0.7818609E-02  0.9144593E-01
       -2   -1    0    0    0  501  0.00000000000E+00  0.00000000000E+00  0.20383634111E+03  0.20383634112E+03  0.25500000920E-02 0.  1.
        2   -1    0    0  501    0  0.00000000000E+00  0.00000000000E+00 -0.16629100586E+04  0.16629100586E+04  0.25500000920E-02 0. -1.
    10030    2    1    2    0    0  0.00000000000E+00  0.00000000000E+00 -0.14590737175E+04  0.18667463997E+04  0.11644080074E+04 0.  0.
        1    1    3    3  502    0  0.12471505988E+03 -0.48366126928E+03 -0.12090955311E+04  0.13082026116E+04  0.50400001928E-02 0. -1.
       -1    1    3    3    0  502 -0.12471505988E+03  0.48366126928E+03 -0.24997818634E+03  0.55854378811E+03  0.50400001928E-02 0.  1.
</event>
<event>
 5   0  0.2992375E-03  0.1110887E+04  0.7818609E-02  0.9194645E-01
       -4   -1    0    0    0  501  0.00000000000E+00  0.00000000000E+00  0.10429695262E+04  0.10429702994E+04  0.12699999809E+01 0. -1.
        4   -1    0    0  501    0  0.00000000000E+00  0.00000000000E+00 -0.29580480251E+03  0.29580752879E+03  0.12699999809E+01 0.  1.
    10030    2    1    2    0    0  0.00000000000E+00  0.00000000000E+00  0.74716472371E+03  0.13387778282E+04  0.11108874601E+04 0.  0.
        1    1    3    3  502    0 -0.38668728426E+03 -0.17730267603E+03 -0.56831491715E+02  0.42917725151E+03  0.50400001928E-02 0.  1.
       -1    1    3    3    0  502  0.38668728426E+03  0.17730267603E+03  0.80399621543E+03  0.90960057673E+03  0.50400001928E-02 0. -1.
</event>
<event>
 5   0  0.4641021E-03  0.1128451E+04  0.7818609E-02  0.9177897E-01
       -1   -1    0    0    0  501  0.00000000000E+00  0.00000000000E+00  0.19599676560E+03  0.19599676566E+03  0.50400001928E-02 0.  1.
        1   -1    0    0  501    0  0.00000000000E+00  0.00000000000E+00 -0.16242626985E+04  0.16242626985E+04  0.50400001928E-02 0. -1.
    10030    2    1    2    0    0  0.00000000000E+00  0.00000000000E+00 -0.14282659329E+04  0.18202594642E+04  0.11284506821E+04 0.  0.
        1    1    3    3  502    0  0.12512083205E+03 -0.50614004232E+03 -0.36623024527E+03  0.63714798723E+03  0.50400001928E-02 0.  1.
       -1    1    3    3    0  502 -0.12512083205E+03  0.50614004232E+03 -0.10620356877E+04  0.11831114770E+04  0.50400001928E-02 0. -1.
</event>
<event>
 5   0  0.4598561E-03  0.1134747E+04  0.7818609E-02  0.9171971E-01
        1   -1    0    0  501    0  0.00000000000E+00  0.00000000000E+00  0.93584386648E+03  0.93584386649E+03  0.50400001928E-02 0.  1.
       -1   -1    0    0    0  501  0.00000000000E+00  0.00000000000E+00 -0.34398141348E+03  0.34398141351E+03  0.50400001928E-02 0. -1.
    10030    2    1    2    0    0  0.00000000000E+00  0.00000000000E+00  0.59186245300E+03  0.12798252800E+04  0.11347473657E+04 0.  0.
        2    1    3    3  502    0  0.13344170073E+03  0.47190123073E+03 -0.25882734041E+02  0.49108795036E+03  0.25500000920E-02 0. -1.
       -2    1    3    3    0  502 -0.13344170073E+03 -0.47190123073E+03  0.61774518704E+03  0.78873732965E+03  0.25500000920E-02 0.  1.
</event>
<event>
 5   0  0.7952121E-03  0.1145164E+04  0.7818609E-02  0.9162257E-01
       -2   -1    0    0    0  501  0.00000000000E+00  0.00000000000E+00  0.27256852026E+03  0.27256852027E+03  0.25500000920E-02 0. -1.
        2   -1    0    0  501    0  0.00000000000E+00  0.00000000000E+00 -0.12028165101E+04  0.12028165101E+04  0.25500000920E-02 0.  1.
    10030    2    1    2    0    0  0.00000000000E+00  0.00000000000E+00 -0.93024798985E+03  0.14753850304E+04  0.11451635976E+04 0.  0.
        3    1    3    3  502    0 -0.90319910491E+02  0.54862190748E+03 -0.28891385890E+03  0.62658990709E+03  0.10100000352E+00 0.  1.
       -3    1    3    3    0  502  0.90319910491E+02 -0.54862190748E+03 -0.64133413096E+03  0.84879512330E+03  0.10100000352E+00 0. -1.
</event>
<event>
 5   0  0.4598561E-03  0.1126027E+04  0.7818609E-02  0.9180189E-01
        1   -1    0    0  501    0  0.00000000000E+00  0.00000000000E+00  0.98169532015E+03  0.98169532016E+03  0.50400001928E-02 0. -1.
       -1   -1    0    0    0  501  0.00000000000E+00  0.00000000000E+00 -0.32289456785E+03  0.32289456789E+03  0.50400001928E-02 0.  1.
    10030    2    1    2    0    0  0.00000000000E+00  0.00000000000E+00  0.65880075229E+03  0.13045898881E+04  0.11260267958E+04 0.  0.
        2    1    3    3  502    0  0.13093576439E+03  0.56176436262E+02 -0.30166221025E+03  0.33361662951E+03  0.25500000920E-02 0.  1.
       -2    1    3    3    0  502 -0.13093576439E+03 -0.56176436262E+02  0.96046296254E+03  0.97097325854E+03  0.25500000920E-02 0. -1.
</event>
<event>
 5   0  0.7738497E-03  0.1141710E+04  0.7818609E-02  0.9165465E-01
       -2   -1    0    0    0  501  0.00000000000E+00  0.00000000000E+00  0.53899862298E+03  0.53899862299E+03  0.25500000920E-02 0.  1.
        2   -1    0    0  501    0  0.00000000000E+00  0.00000000000E+00 -0.60459443393E+03  0.60459443393E+03  0.25500000920E-02 0. -1.
    10030    2    1    2    0    0  0.00000000000E+00  0.00000000000E+00 -0.65595810947E+02  0.11435930569E+04  0.11417102388E+04 0.  0.
        4    1    3    3  502    0 -0.41337266215E+03  0.18217168762E+03  0.31679123126E+03  0.55174430553E+03  0.12699999809E+01 0.  1.
       -4    1    3    3    0  502  0.41337266215E+03 -0.18217168762E+03 -0.38238704220E+03  0.59184875139E+03  0.12699999809E+01 0. -1.
</event>
<event>
 5   0  0.4298101E-03  0.9233682E+03  0.7818609E-02  0.9396832E-01
       -1   -1    0    0    0  501  0.00000000000E+00  0.00000000000E+00  0.87456891220E+03  0.87456891221E+03  0.50400001928E-02 0.  1.
        1   -1    0    0  501    0  0.00000000000E+00  0.00000000000E+00 -0.24372260556E+03  0.24372260561E+03  0.50400001928E-02 0. -1.
    10030    2    1    2    0    0  0.00000000000E+00  0.00000000000E+00  0.63084630663E+03  0.11182915178E+04  0.92336821271E+03 0.  0.
        3    1    3    3  502    0  0.81400396216E+02  0.31918748685E+03 -0.76355209499E+02  0.33813725687E+03  0.10100000352E+00 0. -1.
       -3    1    3    3    0  502 -0.81400396216E+02 -0.31918748685E+03  0.70720151613E+03  0.78015426095E+03  0.10100000352E+00 0.  1.
</event>
<event>
 5   0  0.4641021E-03  0.1113405E+04  0.7818609E-02  0.9192224E-01
       -1   -1    0    0    0  501  0.00000000000E+00  0.00000000000E+00  0.33122995589E+03  0.33122995592E+03  0.50400001928E-02 0.  1.
        1   -1    0    0  501    0  0.00000000000E+00  0.00000000000E+00 -0.93565724998E+03  0.93565724999E+03  0.50400001928E-02 0. -1.
    10030    2    1    2    0    0  0.00000000000E+00  0.00000000000E+00 -0.60442729409E+03  0.12668872059E+04  0.11134050650E+04 0.  0.
        1    1    3    3  502    0 -0.45374045090E+03 -0.31149316393E+03 -0.20695097621E+03  0.58799412798E+03  0.50400001928E-02 0. -1.
       -1    1    3    3    0  502  0.45374045090E+03  0.31149316393E+03 -0.39747631789E+03  0.67889307794E+03  0.50400001928E-02 0.  1.
</event>
<event>
 5   0  0.7738497E-03  0.1091974E+04  0.7818609E-02  0.9213050E-01
       -2   -1    0    0    0  501  0.00000000000E+00  0.00000000000E+00  0.15714708865E+03  0.15714708867E+03  0.25500000920E-02 0. -1.
        2   -1    0    0  501    0  0.00000000000E+00  0.00000000000E+00 -0.18969611204E+04  0.18969611204E+04  0.25500000920E-02 0.  1.
    10030    2    1    2    0    0  0.00000000000E+00  0.00000000000E+00 -0.17398140317E+04  0.20541082091E+04  0.10919742074E+04 0.  0.
        4    1    3    3  502    0 -0.82249539786E+02 -0.11902828441E+03  0.12042805006E+03  0.18824783511E+03  0.12699999809E+01 0. -1.
       -4    1    3    3    0  502  0.82249539786E+02  0.11902828441E+03 -0.18602420818E+04  0.18658603740E+04  0.12699999809E+01 0.  1.
</event>
<event>
 5   0  0.7766551E-03  0.1138574E+04  0.7818609E-02  0.9168390E-01
        2   -1    0    0  501    0  0.00000000000E+00  0.00000000000E+00  0.35991180336E+03  0.35991180337E+03  0.25500000920E-02 0.  1.
       -2   -1    0    0    0  501  0.00000000000E+00  0.00000000000E+00 -0.90046353995E+03  0.90046353995E+03  0.25500000920E-02 0. -1.
    10030    2    1    2    0    0  0.00000000000E+00  0.00000000000E+00 -0.54055173659E+03  0.12603753433E+04  0.11385735928E+04 0.  0.
        5    1    3    3  502    0  0.53665303732E+02  0.29517901717E+03 -0.80582278195E+03  0.85987386454E+03  0.46999998093E+01 0. -1.
       -5    1    3    3    0  502 -0.53665303732E+02 -0.29517901717E+03  0.26527104536E+03  0.40050147878E+03  0.46999998093E+01 0.  1.
</event>
<event>
 5   0  0.4598561E-03  0.1095818E+04  0.7818609E-02  0.9209278E-01
        1   -1    0    0  501    0  0.00000000000E+00  0.00000000000E+00  0.97756321400E+03  0.97756321401E+03  0.50400001928E-02 0. -1.
       -1   -1    0    0    0  501  0.00000000000E+00  0.00000000000E+00 -0.30709445634E+03  0.30709445638E+03  0.50400001928E-02 0.  1.
    10030    2    1    2    0    0  0.00000000000E+00  0.00000000000E+00  0.67046875765E+03  0.12846576704E+04  0.10958179480E+04 0.  0.
        2    1    3    3  502    0 -0.12841957693E+03  0.19098924474E+03 -0.24767984450E+03  0.33810321608E+03  0.25500000920E-02 0.  1.
       -2    1    3    3    0  502  0.12841957693E+03 -0.19098924474E+03  0.91814860215E+03  0.94655445431E+03  0.25500000920E-02 0. -1.
</event>
<event>
 5   0  0.4598561E-03  0.1100129E+04  0.7818609E-02  0.9205066E-01
        1   -1    0    0  501    0  0.00000000000E+00  0.00000000000E+00  0.59740824272E+03  0.59740824274E+03  0.50400001928E-02 0.  1.
       -1   -1    0    0    0  501  0.00000000000E+00  0.00000000000E+00 -0.50647275842E+03  0.50647275845E+03  0.50400001928E-02 0. -1.
    10030    2    1    2    0    0  0.00000000000E+00  0.00000000000E+00  0.90935484299E+02  0.11038810012E+04  0.11001290845E+04 0.  0.
        2    1    3    3  502    0  0.21653352338E+03  0.28012687377E+03  0.46787036640E+03  0.58673717448E+03  0.25500000920E-02 0.  1.
       -2    1    3    3    0  502 -0.21653352338E+03 -0.28012687377E+03 -0.37693488210E+03  0.51714382671E+03  0.25500000920E-02 0. -1.
</event>
<event>
 5   0  0.4641021E-03  0.1071767E+04  0.7818609E-02  0.9233155E-01
       -1   -1    0    0    0  501  0.00000000000E+00  0.00000000000E+00  0.38313027418E+03  0.38313027421E+03  0.50400001928E-02 0.  1.
        1   -1    0    0  501    0  0.00000000000E+00  0.00000000000E+00 -0.74953871999E+03  0.74953872001E+03  0.50400001928E-02 0. -1.
    10030    2    1    2    0    0  0.00000000000E+00  0.00000000000E+00 -0.36640844582E+03  0.11326689942E+04  0.10717667196E+04 0.  0.
        1    1    3    3  502    0  0.45246716195E+03 -0.22335444219E+03  0.74851574737E+01  0.50464816169E+03  0.50400001928E-02 0.  1.
       -1    1    3    3    0  502 -0.45246716195E+03  0.22335444219E+03 -0.37389360329E+03  0.62802083253E+03  0.50400001928E-02 0. -1.
</event>
<event>
 5   0  0.4504740E-03  0.1067139E+04  0.7818609E-02  0.9237826E-01
       -1   -1    0    0    0  501  0.00000000000E+00  0.00000000000E+00  0.32178820068E+03  0.32178820072E+03  0.50400001928E-02 0. -1.
        1   -1    0    0  501    0  0.00000000000E+00  0.00000000000E+00 -0.88473195341E+03  0.88473195343E+03  0.50400001928E-02 0.  1.
    10030    2    1    2    0    0  0.00000000000E+00  0.00000000000E+00 -0.56294375273E+03  0.12065201541E+04  0.10671387977E+04 0.  0.
        5    1    3    3  502    0 -0.46415653023E+03 -0.12723771231E+03 -0.21078621312E+02  0.48176458802E+03  0.46999998093E+01 0. -1.
       -5    1    3    3    0  502  0.46415653023E+03  0.12723771231E+03 -0.54186513142E+03  0.72475556613E+03  0.46999998093E+01 0.  1.
</event>
<event>
 5   0  0.4298101E-03  0.1064563E+04  0.7818609E-02  0.9240437E-01
        1   -1    0    0  501    0  0.00000000000E+00  0.00000000000E+00  0.67712891912E+03  0.67712891914E+03  0.50400001928E-02 0.  1.
       -1   -1    0    0    0  501  0.00000000000E+00  0.00000000000E+00 -0.41841872408E+03  0.41841872411E+03  0.50400001928E-02 0. -1.
    10030    2    1    2    0    0  0.00000000000E+00  0.00000000000E+00  0.25871019504E+03  0.10955476433E+04  0.10645626678E+04 0.  0.
        3    1    3    3  502    0 -0.48559174910E+03  0.15413563703E+03 -0.29295064853E+02  0.51030907539E+03  0.10100000352E+00 0. -1.
       -3    1    3    3    0  502  0.48559174910E+03 -0.15413563703E+03  0.28800525989E+03  0.58523856787E+03  0.10100000352E+00 0.  1.
</event>
<event>
 5   0  0.7537480E-03  0.1054419E+04  0.7818609E-02  0.9250793E-01
        2   -1    0    0  501    0  0.00000000000E+00  0.00000000000E+00  0.95391272192E+03  0.95391272193E+03  0.25500000920E-02 0.  1.
       -2   -1    0    0    0  501  0.00000000000E+00  0.00000000000E+00 -0.29137896373E+03  0.29137896374E+03  0.25500000920E-02 0. -1.
    10030    2    1    2    0    0  0.00000000000E+00  0.00000000000E+00  0.66253375820E+03  0.12452916857E+04  0.10544194619E+04 0.  0.
        1    1    3    3  502    0 -0.35371208435E+02  0.22045207051E+01  0.95250434391E+03  0.95316342119E+03  0.50400001928E-02 0.  1.
       -1    1    3    3    0  502  0.35371208435E+02 -0.22045207051E+01 -0.28997058572E+03  0.29212826447E+03  0.50400001928E-02 0. -1.
</event>
<event>
 5   0  0.4504740E-03  0.1050608E+04  0.7818609E-02  0.9254716E-01
        1   -1    0    0  501    0  0.00000000000E+00  0.00000000000E+00  0.39000088238E+03  0.39000088241E+03  0.50400001928E-02 0. -1.
       -1   -1    0    0    0  501  0.00000000000E+00  0.00000000000E+00 -0.70754849085E+03  0.70754849086E+03  0.50400001928E-02 0.  1.
    10030    2    1    2    0    0  0.00000000000E+00  0.00000000000E+00 -0.31754760847E+03  0.10975493733E+04  0.10506084633E+04 0.  0.
        5    1    3    3  502    0  0.46474945177E+03 -0.19505992591E+03 -0.31330880488E+03  0.59348540405E+03  0.46999998093E+01 0.  1.
       -5    1    3    3    0  502 -0.46474945177E+03  0.19505992591E+03 -0.42388035913E+01  0.50406396922E+03  0.46999998093E+01 0. -1.
</event>
<event>
 5   0  0.4641021E-03  0.1098309E+04  0.7818609E-02  0.9206842E-01
       -1   -1    0    0    0  501  0.00000000000E+00  0.00000000000E+00  0.11313011613E+04  0.11313011614E+04  0.50400001928E-02 0.  1.
        1   -1    0    0  501    0  0.00000000000E+00  0.00000000000E+00 -0.26656973115E+03  0.26656973120E+03  0.50400001928E-02 0. -1.
    10030    2    1    2    0    0  0.00000000000E+00  0.00000000000E+00  0.86473143019E+03  0.13978708926E+04  0.10983089665E+04 0.  0.
        1    1    3    3  502    0 -0.12857948295E+03  0.41428485507E+03  0.37574014124E+01  0.43379573841E+03  0.50400001928E-02 0. -1.
       -1    1    3    3    0  502  0.12857948295E+03 -0.41428485507E+03  0.86097402877E+03  0.96407515414E+03  0.50400001928E-02 0.  1.
</event>
<event>
 5   0  0.4641021E-03  0.1109976E+04  0.7818609E-02  0.9195523E-01
        1   -1    0    0  501    0  0.00000000000E+00  0.00000000000E+00  0.10620875493E+04  0.10620875493E+04  0.50400001928E-02 0.  1.
       -1   -1    0    0    0  501  0.00000000000E+00  0.00000000000E+00 -0.29000575521E+03  0.29000575525E+03  0.50400001928E-02 0. -1.
    10030    2    1    2    0    0  0.00000000000E+00  0.00000000000E+00  0.77208179406E+03  0.13520933045E+04  0.11099756788E+04 0.  0.
        1    1    3    3  502    0 -0.16703139994E+03  0.66869280043E+02  0.10255764958E+04  0.10412387517E+04  0.50400001928E-02 0.  1.
       -1    1    3    3    0  502  0.16703139994E+03 -0.66869280043E+02 -0.25349470177E+03  0.31085455285E+03  0.50400001928E-02 0. -1.
</event>
<event>
 5   0  0.4598561E-03  0.1088900E+04  0.7818609E-02  0.9216079E-01
       -1   -1    0    0    0  501  0.00000000000E+00  0.00000000000E+00  0.10822239111E+04  0.10822239112E+04  0.50400001928E-02 0.  1.
        1   -1    0    0  501    0  0.00000000000E+00  0.00000000000E+00 -0.27390411817E+03  0.27390411822E+03  0.50400001928E-02 0. -1.
    10030    2    1    2    0    0  0.00000000000E+00  0.00000000000E+00  0.80831979297E+03  0.13561280294E+04  0.10888996025E+04 0.  0.
        2    1    3    3  502    0  0.34800316971E+01  0.20465086302E+03  0.10324838568E+04  0.10525763635E+04  0.25500000920E-02 0.  1.
       -2    1    3    3    0  502 -0.34800316971E+01 -0.20465086302E+03 -0.22416406384E+03  0.30355166591E+03  0.25500000920E-02 0. -1.
</event>
<event>
 5   0  0.4298101E-03  0.1077897E+04  0.7818609E-02  0.9227007E-01
       -1   -1    0    0    0  501  0.00000000000E+00  0.00000000000E+00  0.10203358185E+04  0.10203358185E+04  0.50400001928E-02 0. -1.
        1   -1    0    0  501    0  0.00000000000E+00  0.00000000000E+00 -0.28467648756E+03  0.28467648760E+03  0.50400001928E-02 0.  1.
    10030    2    1    2    0    0  0.00000000000E+00  0.00000000000E+00  0.73565933091E+03  0.13050123061E+04  0.10778972437E+04 0.  0.
        3    1    3    3  502    0  0.55300352584E+02 -0.52757592921E+03  0.25251949278E+03  0.58750369744E+03  0.10100000352E+00 0.  1.
       -3    1    3    3    0  502 -0.55300352584E+02  0.52757592921E+03  0.48313983813E+03  0.71750860864E+03  0.10100000352E+00 0. -1.
</event>
<event>
 5   0  0.7537480E-03  0.1084634E+04  0.7818609E-02  0.9220299E-01
       -2   -1    0    0    0  501  0.00000000000E+00  0.00000000000E+00  0.41934657475E+03  0.41934657476E+03  0.25500000920E-02 0.  1.
        2   -1    0    0  501    0  0.00000000000E+00  0.00000000000E+00 -0.70134744690E+03  0.70134744690E+03  0.25500000920E-02 0. -1.
    10030    2    1    2    0    0  0.00000000000E+00  0.00000000000E+00 -0.28200087215E+03  0.11206940217E+04  0.10846338545E+04 0.  0.
        1    1    3    3  502    0  0.15665450153E+03 -0.44265264350E+03  0.13936113294E+03  0.48979947024E+03  0.50400001928E-02 0.  1.
       -1    1    3    3    0  502 -0.15665450153E+03  0.44265264350E+03 -0.42136200509E+03  0.63089455142E+03  0.50400001928E-02 0. -1.
</event>
<event>
 5   0  0.7952121E-03  0.1079512E+04  0.7818609E-02  0.9225394E-01
        2   -1    0    0  501    0  0.00000000000E+00  0.00000000000E+00  0.60285674072E+03  0.60285674072E+03  0.25500000920E-02 0.  1.
       -2   -1    0    0    0  501  0.00000000000E+00  0.00000000000E+00 -0.48325972013E+03  0.48325972014E+03  0.25500000920E-02 0. -1.
    10030    2    1    2    0    0  0.00000000000E+00  0.00000000000E+00  0.11959702059E+03  0.10861164609E+04  0.10795117041E+04 0.  0.
        3    1    3    3  502    0  0.32952977932E+03 -0.20652462889E+03  0.43637995702E+03  0.58452525598E+03  0.10100000352E+00 0.  1.
       -3    1    3    3    0  502 -0.32952977932E+03  0.20652462889E+03 -0.31678293643E+03  0.50159120488E+03  0.10100000352E+00 0. -1.
</event>
<event>
 5   0  0.4298101E-03  0.1103146E+04  0.7818609E-02  0.9202131E-01
        1   -1    0    0  501    0  0.00000000000E+00  0.00000000000E+00  0.86527896413E+03  0.86527896415E+03  0.50400001928E-02 0.  1.
       -1   -1    0    0    0  501  0.00000000000E+00  0.00000000000E+00 -0.35160062606E+03  0.35160062610E+03  0.50400001928E-02 0. -1.
    10030    2    1    2    0    0  0.00000000000E+00  0.00000000000E+00  0.51367833807E+03  0.12168795902E+04  0.11031457302E+04 0.  0.
        3    1    3    3  502    0  0.31776131579E+03 -0.28525265710E+03 -0.12828523843E+03  0.44586819218E+03  0.10100000352E+00 0. -1.
       -3    1    3    3    0  502 -0.31776131579E+03  0.28525265710E+03  0.64196357650E+03  0.77101139807E+03  0.10100000352E+00 0.  1.
</event>
<event>
 5   0  0.2992375E-03  0.1091157E+04  0.7818609E-02  0.9213854E-01
        4   -1    0    0  501    0  0.00000000000E+00  0.00000000000E+00  0.11949138657E+04  0.11949145406E+04  0.12699999809E+01 0.  1.
       -4   -1    0    0    0  501  0.00000000000E+00  0.00000000000E+00 -0.24910011141E+03  0.24910334884E+03  0.12699999809E+01 0. -1.
    10030    2    1    2    0    0  0.00000000000E+00  0.00000000000E+00  0.94581375429E+03  0.14440178894E+04  0.10911571872E+04 0.  0.
        2    1    3    3  502    0  0.37644787823E+03 -0.29800828677E+03  0.13001538853E+03  0.49741928518E+03  0.25500000920E-02 0. -1.
       -2    1    3    3    0  502 -0.37644787823E+03  0.29800828677E+03  0.81579836576E+03  0.94659860426E+03  0.25500000920E-02 0.  1.
</event>
<event>
 5   0  0.4428114E-03  0.1068719E+04  0.7818609E-02  0.9236228E-01
       -1   -1    0    0    0  501  0.00000000000E+00  0.00000000000E+00  0.13766989562E+03  0.13766989572E+03  0.50400001928E-02 0. -1.
        1   -1    0    0  501    0  0.00000000000E+00  0.00000000000E+00 -0.20740928827E+04  0.20740928827E+04  0.50400001928E-02 0.  1.
    10030    2    1    2    0    0  0.00000000000E+00  0.00000000000E+00 -0.19364229871E+04  0.22117627784E+04  0.10687191414E+04 0.  0.
        4    1    3    3  502    0  0.46713803197E+03  0.21837161834E+02 -0.15032749770E+04  0.15743354382E+04  0.12699999809E+01 0.  1.
       -4    1    3    3    0  502 -0.46713803197E+03 -0.21837161834E+02 -0.43314801008E+03  0.63742734024E+03  0.12699999809E+01 0. -1.
</event>
<event>
 5   0  0.4598561E-03  0.1095728E+04  0.7818609E-02  0.9209366E-01
        1   -1    0    0  501    0  0.00000000000E+00  0.00000000000E+00  0.25765694908E+03  0.25765694913E+03  0.50400001928E-02 0.  1.
       -1   -1    0    0    0  501  0.00000000000E+00  0.00000000000E+00 -0.11649393646E+04  0.11649393646E+04  0.50400001928E-02 0. -1.
    10030    2    1    2    0    0  0.00000000000E+00  0.00000000000E+00 -0.90728241553E+03  0.14225963138E+04  0.10957275621E+04 0.  0.
        2    1    3    3  502    0 -0.10876235108E+03  0.52143887926E+03 -0.62004292684E+03  0.81742338170E+03  0.25500000920E-02 0. -1.
       -2    1    3    3    0  502  0.10876235108E+03 -0.52143887926E+03 -0.28723948869E+03  0.60517293205E+03  0.25500000920E-02 0.  1.
</event>
<event>
 5   0  0.4641021E-03  0.1085073E+04  0.7818609E-02  0.9219864E-01
       -1   -1    0    0    0  501  0.00000000000E+00  0.00000000000E+00  0.33765410290E+03  0.33765410293E+03  0.50400001928E-02 0. -1.
        1   -1    0    0  501    0  0.00000000000E+00  0.00000000000E+00 -0.87173829872E+03  0.87173829874E+03  0.50400001928E-02 0.  1.
    10030    2    1    2    0    0  0.00000000000E+00  0.00000000000E+00 -0.53408419583E+03  0.12093924017E+04  0.10850732938E+04 0.  0.
        1    1    3    3  502    0  0.41682773345E+03 -0.20892680252E+03  0.42139163467E+02  0.46815753471E+03  0.50400001928E-02 0. -1.
       -1    1    3    3    0  502 -0.41682773345E+03  0.20892680252E+03 -0.57622335929E+03  0.74123486696E+03  0.50400001928E-02 0.  1.
</event>
<event>
 5   0  0.4504740E-03  0.7618883E+03  0.7818609E-02  0.9616882E-01
        1   -1    0    0  501    0  0.00000000000E+00  0.00000000000E+00  0.57827383253E+03  0.57827383255E+03  0.50400001928E-02 0. -1.
       -1   -1    0    0    0  501  0.00000000000E+00  0.00000000000E+00 -0.25095111703E+03  0.25095111708E+03  0.50400001928E-02 0.  1.
    10030    2    1    2    0    0  0.00000000000E+00  0.00000000000E+00  0.32732271550E+03  0.82922494963E+03  0.76188834944E+03 0.  0.
        5    1    3    3  502    0 -0.68777671676E+02 -0.27283638675E+03 -0.11579269962E+03  0.30430264760E+03  0.46999998093E+01 0.  1.
       -5    1    3    3    0  502  0.68777671676E+02  0.27283638675E+03  0.44311541512E+03  0.52492230203E+03  0.46999998093E+01 0. -1.
</event>
<event>
 5   0  0.7766551E-03  0.1099881E+04  0.7818609E-02  0.9205308E-01
        2   -1    0    0  501    0  0.00000000000E+00  0.00000000000E+00  0.10002489148E+04  0.10002489148E+04  0.25500000920E-02 0. -1.
       -2   -1    0    0    0  501  0.00000000000E+00  0.00000000000E+00 -0.30235948751E+03  0.30235948752E+03  0.25500000920E-02 0.  1.
    10030    2    1    2    0    0  0.00000000000E+00  0.00000000000E+00  0.69788942728E+03  0.13026084023E+04  0.10998813559E+04 0.  0.
        5    1    3    3  502    0 -0.46942680893E+03 -0.10754643909E+03  0.66336898242E+03  0.81976110077E+03  0.46999998093E+01 0. -1.
       -5    1    3    3    0  502  0.46942680893E+03  0.10754643909E+03  0.34520444862E+02  0.48284730155E+03  0.46999998093E+01 0.  1.
</event>
<event>
 5   0  0.7738497E-03  0.1149168E+04  0.7818609E-02  0.9158551E-01
        2   -1    0    0  501    0  0.00000000000E+00  0.00000000000E+00  0.69063619932E+03  0.69063619933E+03  0.25500000920E-02 0.  1.
       -2   -1    0    0    0  501  0.00000000000E+00  0.00000000000E+00 -0.47803312340E+03  0.47803312340E+03  0.25500000920E-02 0. -1.
    10030    2    1    2    0    0  0.00000000000E+00  0.00000000000E+00  0.21260307592E+03  0.11686693227E+04  0.11491683593E+04 0.  0.
        4    1    3    3  502    0 -0.11513302183E+03  0.47080512794E+02 -0.46417507929E+03  0.48055416400E+03  0.12699999809E+01 0. -1.
       -4    1    3    3    0  502  0.11513302183E+03 -0.47080512794E+02  0.67677815522E+03  0.68811515873E+03  0.12699999809E+01 0.  1.
</event>
<event>
 5   0  0.4504740E-03  0.1077562E+04  0.7818609E-02  0.9227342E-01
        1   -1    0    0  501    0  0.00000000000E+00  0.00000000000E+00  0.10855393847E+04  0.10855393847E+04  0.50400001928E-02 0. -1.
       -1   -1    0    0    0  501  0.00000000000E+00  0.00000000000E+00 -0.26741082824E+03  0.26741082828E+03  0.50400001928E-02 0.  1.
    10030    2    1    2    0    0  0.00000000000E+00  0.00000000000E+00  0.81812855647E+03  0.13529502130E+04  0.10775620372E+04 0.  0.
        5    1    3    3  502    0 -0.49884289099E+03 -0.17638177985E+03  0.28158794668E+03  0.59939021002E+03  0.46999998093E+01 0.  1.
       -5    1    3    3    0  502  0.49884289099E+03  0.17638177985E+03  0.53654060979E+03  0.75356000299E+03  0.46999998093E+01 0. -1.
</event>
<event>
 5   0  0.4504740E-03  0.1105580E+04  0.7818609E-02  0.9199770E-01
       -1   -1    0    0    0  501  0.00000000000E+00  0.00000000000E+00  0.41495689315E+03  0.41495689318E+03  0.50400001928E-02 0. -1.
        1   -1    0    0  501    0  0.00000000000E+00  0.00000000000E+00 -0.73640620401E+03  0.73640620402E+03  0.50400001928E-02 0.  1.
    10030    2    1    2    0    0  0.00000000000E+00  0.00000000000E+00 -0.32144931086E+03  0.11513630972E+04  0.11055800840E+04 0.  0.
        5    1    3    3  502    0 -0.48091103106E+03 -0.21369739351E+03 -0.33688244786E+03  0.62486308058E+03  0.46999998093E+01 0.  1.
       -5    1    3    3    0  502  0.48091103106E+03  0.21369739351E+03  0.15433137003E+02  0.52650001663E+03  0.46999998093E+01 0. -1.
</event>
<event>
 5   0  0.7537480E-03  0.1088666E+04  0.7818609E-02  0.9216309E-01
       -2   -1    0    0    0  501  0.00000000000E+00  0.00000000000E+00  0.66254507394E+03  0.66254507394E+03  0.25500000920E-02 0.  1.
        2   -1    0    0  501    0  0.00000000000E+00  0.00000000000E+00 -0.44721280188E+03  0.44721280188E+03  0.25500000920E-02 0. -1.
    10030    2    1    2    0    0  0.00000000000E+00  0.00000000000E+00  0.21533227206E+03  0.11097578758E+04  0.10886664115E+04 0.  0.
        1    1    3    3  502    0  0.53998490032E+03  0.65737703615E+02  0.87444973614E+02  0.55095531733E+03  0.50400001928E-02 0.  1.
       -1    1    3    3    0  502 -0.53998490032E+03 -0.65737703615E+02  0.12788729845E+03  0.55880255850E+03  0.50400001928E-02 0. -1.
</event>
<event>
 5   0  0.7738497E-03  0.1127167E+04  0.7818609E-02  0.9179110E-01
       -2   -1    0    0    0  501  0.00000000000E+00  0.00000000000E+00  0.54464792745E+03  0.54464792746E+03  0.25500000920E-02 0.  1.
        2   -1    0    0  501    0  0.00000000000E+00  0.00000000000E+00 -0.58317749381E+03  0.58317749381E+03  0.25500000920E-02 0. -1.
    10030    2    1    2    0    0  0.00000000000E+00  0.00000000000E+00 -0.38529566357E+02  0.11278254213E+04  0.11271670920E+04 0.  0.
        4    1    3    3  502    0  0.25596111553E+03  0.19427281808E+03 -0.48253280244E+03  0.57973919898E+03  0.12699999809E+01 0. -1.
       -4    1    3    3    0  502 -0.25596111553E+03 -0.19427281808E+03  0.44400323608E+03  0.54808622229E+03  0.12699999809E+01 0.  1.
</event>
<event>
 5   0  0.7738497E-03  0.1105915E+04  0.7818609E-02  0.9199446E-01
       -2   -1    0    0    0  501  0.00000000000E+00  0.00000000000E+00  0.32601981961E+03  0.32601981962E+03  0.25500000920E-02 0. -1.
        2   -1    0    0  501    0  0.00000000000E+00  0.00000000000E+00 -0.93786321830E+03  0.93786321830E+03  0.25500000920E-02 0.  1.
    10030    2    1    2    0    0  0.00000000000E+00  0.00000000000E+00 -0.61184339869E+03  0.12638830379E+04  0.11059150008E+04 0.  0.
        4    1    3    3  502    0  0.58898856625E+02 -0.53944890041E+03 -0.18451046606E+03  0.57316656955E+03  0.12699999809E+01 0.  1.
       -4    1    3    3    0  502 -0.58898856625E+02  0.53944890041E+03 -0.42733293263E+03  0.69071646837E+03  0.12699999809E+01 0. -1.
</event>
<event>
 5   0  0.4428114E-03  0.1092987E+04  0.7818609E-02  0.9212054E-01
        1   -1    0    0  501    0  0.00000000000E+00  0.00000000000E+00  0.10086282389E+04  0.10086282389E+04  0.50400001928E-02 0.  1.
       -1   -1    0    0    0  501  0.00000000000E+00  0.00000000000E+00 -0.29610044692E+03  0.29610044697E+03  0.50400001928E-02 0. -1.
    10030    2    1    2    0    0  0.00000000000E+00  0.00000000000E+00  0.71252779197E+03  0.13047286859E+04  0.10929872320E+04 0.  0.
        4    1    3    3  502    0  0.12222576362E+03  0.22103806909E+03  0.93476819944E+03  0.96829239637E+03  0.12699999809E+01 0.  1.
       -4    1    3    3    0  502 -0.12222576362E+03 -0.22103806909E+03 -0.22224040747E+03  0.33643628950E+03  0.12699999809E+01 0. -1.
</event>
<event>
 5   0  0.4298101E-03  0.1116867E+04  0.7818609E-02  0.9188906E-01
       -1   -1    0    0    0  501  0.00000000000E+00  0.00000000000E+00  0.10987814256E+04  0.10987814256E+04  0.50400001928E-02 0.  1.
        1   -1    0    0  501    0  0.00000000000E+00  0.00000000000E+00 -0.28381280858E+03  0.28381280863E+03  0.50400001928E-02 0. -1.
    10030    2    1    2    0    0  0.00000000000E+00  0.00000000000E+00  0.81496861703E+03  0.13825942342E+04  0.11168674809E+04 0.  0.
        3    1    3    3  502    0 -0.23080108594E+03  0.22310450328E+03 -0.15818413647E+03  0.35786448817E+03  0.10100000352E+00 0. -1.
       -3    1    3    3    0  502  0.23080108594E+03 -0.22310450328E+03  0.97315275350E+03  0.10247297461E+04  0.10100000352E+00 0.  1.
</event>
<event>
 5   0  0.4298101E-03  0.1078263E+04  0.7818609E-02  0.9226641E-01
       -1   -1    0    0    0  501  0.00000000000E+00  0.00000000000E+00  0.29697981555E+03  0.29697981559E+03  0.50400001928E-02 0. -1.
        1   -1    0    0  501    0  0.00000000000E+00  0.00000000000E+00 -0.97872992905E+03  0.97872992906E+03  0.50400001928E-02 0.  1.
    10030    2    1    2    0    0  0.00000000000E+00  0.00000000000E+00 -0.68175011350E+03  0.12757097446E+04  0.10782634814E+04 0.  0.
        3    1    3    3  502    0 -0.72569884768E+02 -0.47969230037E+03 -0.61907552745E+03  0.78652756474E+03  0.10100000352E+00 0. -1.
       -3    1    3    3    0  502  0.72569884768E+02  0.47969230037E+03 -0.62674586048E+02  0.48918217991E+03  0.10100000352E+00 0.  1.
</event>
<event>
 5   0  0.7738497E-03  0.1099058E+04  0.7818609E-02  0.9206110E-01
       -2   -1    0    0    0  501  0.00000000000E+00  0.00000000000E+00  0.71706508153E+03  0.71706508154E+03  0.25500000920E-02 0.  1.
        2   -1    0    0  501    0  0.00000000000E+00  0.00000000000E+00 -0.42113665769E+03  0.42113665770E+03  0.25500000920E-02 0. -1.
    10030    2    1    2    0    0  0.00000000000E+00  0.00000000000E+00  0.29592842384E+03  0.11382017392E+04  0.10990584912E+04 0.  0.
        4    1    3    3  502    0  0.25921135304E+03 -0.47297163397E+03  0.38913941333E+02  0.54074818522E+03  0.12699999809E+01 0. -1.
       -4    1    3    3    0  502 -0.25921135304E+03  0.47297163397E+03  0.25701448250E+03  0.59745355402E+03  0.12699999809E+01 0.  1.
</event>
<event>
 5   0  0.4428114E-03  0.1106235E+04  0.7818609E-02  0.9199136E-01
        1   -1    0    0  501    0  0.00000000000E+00  0.00000000000E+00  0.48925069910E+03  0.48925069912E+03  0.50400001928E-02 0.  1.
       -1   -1    0    0    0  501  0.00000000000E+00  0.00000000000E+00 -0.62532108270E+03  0.62532108272E+03  0.50400001928E-02 0. -1.
    10030    2    1    2    0    0  0.00000000000E+00  0.00000000000E+00 -0.13607038361E+03  0.11145717818E+04  0.11062346530E+04 0.  0.
        4    1    3    3  502    0 -0.53042047127E+03  0.21661761305E+01  0.89947671786E+02  0.53799885244E+03  0.12699999809E+01 0.  1.
       -4    1    3    3    0  502  0.53042047127E+03 -0.21661761305E+01 -0.22601805539E+03  0.57657292941E+03  0.12699999809E+01 0. -1.
</event>
<event>
 5   0  0.7537480E-03  0.1065048E+04  0.7818609E-02  0.9239945E-01
       -2   -1    0    0    0  501  0.00000000000E+00  0.00000000000E+00  0.22852277983E+03  0.22852277984E+03  0.25500000920E-02 0.  1.
        2   -1    0    0  501    0  0.00000000000E+00  0.00000000000E+00 -0.12409341076E+04  0.12409341076E+04  0.25500000920E-02 0. -1.
    10030    2    1    2    0    0  0.00000000000E+00  0.00000000000E+00 -0.10124113277E+04  0.14694568874E+04  0.10650478146E+04 0.  0.
        1    1    3    3  502    0  0.98895705355E+02 -0.46318468040E+02 -0.12253190195E+04  0.12301757844E+04  0.50400001928E-02 0. -1.
       -1    1    3    3    0  502 -0.98895705355E+02  0.46318468040E+02  0.21290769175E+03  0.23928110299E+03  0.50400001928E-02 0.  1.
</event>
<event>
 5   0  0.4504740E-03  0.1058204E+04  0.7818609E-02  0.9246915E-01
        1   -1    0    0  501    0  0.00000000000E+00  0.00000000000E+00  0.92312611340E+03  0.92312611341E+03  0.50400001928E-02 0. -1.
       -1   -1    0    0    0  501  0.00000000000E+00  0.00000000000E+00 -0.30326155861E+03  0.30326155865E+03  0.50400001928E-02 0.  1.
    10030    2    1    2    0    0  0.00000000000E+00  0.00000000000E+00  0.61986455479E+03  0.12263876721E+04  0.10582035040E+04 0.  0.
        5    1    3    3  502    0  0.39768996696E+03  0.34425195571E+03  0.37610175900E+03  0.64663849402E+03  0.46999998093E+01 0. -1.
       -5    1    3    3    0  502 -0.39768996696E+03 -0.34425195571E+03  0.24376279579E+03  0.57974917805E+03  0.46999998093E+01 0.  1.
</event>
<event>
 5   0  0.7952121E-03  0.1023558E+04  0.7818609E-02  0.9283077E-01
       -2   -1    0    0    0  501  0.00000000000E+00  0.00000000000E+00  0.57127096229E+03  0.57127096229E+03  0.25500000920E-02 0.  1.
        2   -1    0    0  501    0  0.00000000000E+00  0.00000000000E+00 -0.45848264378E+03  0.45848264379E+03  0.25500000920E-02 0. -1.
    10030    2    1    2    0    0  0.00000000000E+00  0.00000000000E+00  0.11278831851E+03  0.10297536061E+04  0.10235581490E+04 0.  0.
        3    1    3    3  502    0  0.34635780784E+03  0.14727001886E+03 -0.29249827432E+03  0.47666281603E+03  0.10100000352E+00 0. -1.
       -3    1    3    3    0  502 -0.34635780784E+03 -0.14727001886E+03  0.40528659283E+03  0.55309079005E+03  0.10100000352E+00 0.  1.
</event>
<event>
 5   0  0.7537480E-03  0.8337979E+03  0.7818609E-02  0.9512345E-01
       -2   -1    0    0    0  501  0.00000000000E+00  0.00000000000E+00  0.20186634706E+03  0.20186634707E+03  0.25500000920E-02 0.  1.
        2   -1    0    0  501    0  0.00000000000E+00  0.00000000000E+00 -0.86098925063E+03  0.86098925064E+03  0.25500000920E-02 0. -1.
    10030    2    1    2    0    0  0.00000000000E+00  0.00000000000E+00 -0.65912290358E+03  0.10628555977E+04  0.83379794889E+03 0.  0.
        1    1    3    3  502    0 -0.11287677156E+02 -0.10072793742E+03 -0.84504378769E+03  0.85110077674E+03  0.50400001928E-02 0. -1.
       -1    1    3    3    0  502  0.11287677156E+02  0.10072793742E+03  0.18592088411E+03  0.21175482097E+03  0.50400001928E-02 0.  1.
</event>
<event>
 5   0  0.4504740E-03  0.1097399E+04  0.7818609E-02  0.9207731E-01
        1   -1    0    0  501    0  0.00000000000E+00  0.00000000000E+00  0.96843603620E+03  0.96843603621E+03  0.50400001928E-02 0.  1.
       -1   -1    0    0    0  501  0.00000000000E+00  0.00000000000E+00 -0.31088377379E+03  0.31088377383E+03  0.50400001928E-02 0. -1.
    10030    2    1    2    0    0  0.00000000000E+00  0.00000000000E+00  0.65755226241E+03  0.12793198100E+04  0.10973988330E+04 0.  0.
        5    1    3    3  502    0  0.22653039124E+03 -0.44853448298E+03  0.71909215851E+02  0.50763394873E+03  0.46999998093E+01 0. -1.
       -5    1    3    3    0  502 -0.22653039124E+03  0.44853448298E+03  0.58564304656E+03  0.77168586131E+03  0.46999998093E+01 0.  1.
</event>
<event>
 5   0  0.4598561E-03  0.1086730E+04  0.7818609E-02  0.9218223E-01
        1   -1    0    0  501    0  0.00000000000E+00  0.00000000000E+00  0.49012136988E+03  0.49012136990E+03  0.50400001928E-02 0.  1.
       -1   -1    0    0    0  501  0.00000000000E+00  0.00000000000E+00 -0.60239315104E+03  0.60239315106E+03  0.50400001928E-02 0. -1.
    10030    2    1    2    0    0  0.00000000000E+00  0.00000000000E+00 -0.11227178116E+03  0.10925145210E+04  0.10867304292E+04 0.  0.
        2    1    3    3  502    0  0.44884181580E+03 -0.29185074553E+03  0.37147651270E+02  0.53667101774E+03  0.25500000920E-02 0.  1.
       -2    1    3    3    0  502 -0.44884181580E+03  0.29185074553E+03 -0.14941943243E+03  0.55584350322E+03  0.25500000920E-02 0. -1.
</event>
<event>
 5   0  0.7712816E-03  0.1103991E+04  0.7818609E-02  0.9201311E-01
       -2   -1    0    0    0  501  0.00000000000E+00  0.00000000000E+00  0.14959063356E+03  0.14959063358E+03  0.25500000920E-02 0.  1.
        2   -1    0    0  501    0  0.00000000000E+00  0.00000000000E+00 -0.20368847496E+04  0.20368847496E+04  0.25500000920E-02 0. -1.
    10030    2    1    2    0    0  0.00000000000E+00  0.00000000000E+00 -0.18872941160E+04  0.21864753832E+04  0.11039907250E+04 0.  0.
        2    1    3    3  502    0 -0.46132323677E+03  0.28076872994E+03 -0.71741074227E+03  0.89795789524E+03  0.25500000920E-02 0.  1.
       -2    1    3    3    0  502  0.46132323677E+03 -0.28076872994E+03 -0.11698833737E+04  0.12885174879E+04  0.25500000920E-02 0. -1.
</event>
<event>
 5   0  0.7712816E-03  0.1120355E+04  0.7818609E-02  0.9185576E-01
        2   -1    0    0  501    0  0.00000000000E+00  0.00000000000E+00  0.85796881169E+03  0.85796881169E+03  0.25500000920E-02 0. -1.
       -2   -1    0    0    0  501  0.00000000000E+00  0.00000000000E+00 -0.36574648700E+03  0.36574648701E+03  0.25500000920E-02 0.  1.
    10030    2    1    2    0    0  0.00000000000E+00  0.00000000000E+00  0.49222232469E+03  0.12237152987E+04  0.11203554415E+04 0.  0.
        2    1    3    3  502    0  0.18451666544E+02 -0.31432902073E+03  0.75216410900E+03  0.81541035322E+03  0.25500000920E-02 0. -1.
       -2    1    3    3    0  502 -0.18451666544E+02  0.31432902073E+03 -0.25994178430E+03  0.40830494548E+03  0.25500000920E-02 0.  1.
</event>
<event>
 5   0  0.4298101E-03  0.1086108E+04  0.7818609E-02  0.9218838E-01
        1   -1    0    0  501    0  0.00000000000E+00  0.00000000000E+00  0.89870932849E+03  0.89870932851E+03  0.50400001928E-02 0. -1.
       -1   -1    0    0    0  501  0.00000000000E+00  0.00000000000E+00 -0.32814594582E+03  0.32814594586E+03  0.50400001928E-02 0.  1.
    10030    2    1    2    0    0  0.00000000000E+00  0.00000000000E+00  0.57056338267E+03  0.12268552744E+04  0.10861083236E+04 0.  0.
        3    1    3    3  502    0 -0.52139037563E+03 -0.70522800768E+02  0.13336813288E+03  0.54277846153E+03  0.10100000352E+00 0.  1.
       -3    1    3    3    0  502  0.52139037563E+03  0.70522800768E+02  0.43719524979E+03  0.68407681284E+03  0.10100000352E+00 0. -1.
</event>
<event>
 5   0  0.4598561E-03  0.1109277E+04  0.7818609E-02  0.9196197E-01
        1   -1    0    0  501    0  0.00000000000E+00  0.00000000000E+00  0.54697391917E+03  0.54697391919E+03  0.50400001928E-02 0. -1.
       -1   -1    0    0    0  501  0.00000000000E+00  0.00000000000E+00 -0.56241003966E+03  0.56241003969E+03  0.50400001928E-02 0.  1.
    10030    2    1    2    0    0  0.00000000000E+00  0.00000000000E+00 -0.15436120493E+02  0.11093839589E+04  0.11092765635E+04 0.  0.
        2    1    3    3  502    0  0.19412670816E+03 -0.51099022966E+02  0.50936906982E+03  0.54749715822E+03  0.25500000920E-02 0. -1.
       -2    1    3    3    0  502 -0.19412670816E+03  0.51099022966E+02 -0.52480519031E+03  0.56188680066E+03  0.25500000920E-02 0.  1.
</event>
<event>
 5   0  0.7537480E-03  0.1096775E+04  0.7818609E-02  0.9208341E-01
        2   -1    0    0  501    0  0.00000000000E+00  0.00000000000E+00  0.13445157514E+04  0.13445157514E+04  0.25500000920E-02 0. -1.
       -2   -1    0    0    0  501  0.00000000000E+00  0.00000000000E+00 -0.22367088728E+03  0.22367088729E+03  0.25500000920E-02 0.  1.
    10030    2    1    2    0    0  0.00000000000E+00  0.00000000000E+00  0.11208448641E+04  0.15681866387E+04  0.10967753299E+04 0.  0.
        1    1    3    3  502    0  0.35776774691E+03  0.17921636359E+02 -0.33269858511E+02  0.35975801491E+03  0.50400001928E-02 0.  1.
       -1    1    3    3    0  502 -0.35776774691E+03 -0.17921636359E+02  0.11541147226E+04  0.12084286238E+04  0.50400001928E-02 0. -1.
</event>
<event>
 5   0  0.4428114E-03  0.1104142E+04  0.7818609E-02  0.9201165E-01
        1   -1    0    0  501    0  0.00000000000E+00  0.00000000000E+00  0.14358895923E+04  0.14358895923E+04  0.50400001928E-02 0.  1.
       -1   -1    0    0    0  501  0.00000000000E+00  0.00000000000E+00 -0.21226014327E+03  0.21226014333E+03  0.50400001928E-02 0. -1.
    10030    2    1    2    0    0  0.00000000000E+00  0.00000000000E+00  0.12236294490E+04  0.16481497356E+04  0.11041415319E+04 0.  0.
        4    1    3    3  502    0  0.35467199792E+03  0.14096701937E+03  0.16386178093E+02  0.38201314950E+03  0.12699999809E+01 0. -1.
       -4    1    3    3    0  502 -0.35467199792E+03 -0.14096701937E+03  0.12072432709E+04  0.12661365861E+04  0.12699999809E+01 0.  1.
</event>
<event>
 5   0  0.7537480E-03  0.1115581E+04  0.7818609E-02  0.9190138E-01
        2   -1    0    0  501    0  0.00000000000E+00  0.00000000000E+00  0.15565741931E+04  0.15565741931E+04  0.25500000920E-02 0.  1.
       -2   -1    0    0    0  501  0.00000000000E+00  0.00000000000E+00 -0.19988123743E+03  0.19988123745E+03  0.25500000920E-02 0. -1.
    10030    2    1    2    0    0  0.00000000000E+00  0.00000000000E+00  0.13566929557E+04  0.17564554306E+04  0.11155805231E+04 0.  0.
        1    1    3    3  502    0  0.17008762744E+03 -0.35049142306E+03  0.49824692734E+02  0.39275506194E+03  0.50400001928E-02 0. -1.
       -1    1    3    3    0  502 -0.17008762744E+03  0.35049142306E+03  0.13068682630E+04  0.13637003686E+04  0.50400001928E-02 0.  1.
</event>
<event>
 5   0  0.4641021E-03  0.1101232E+04  0.7818609E-02  0.9203992E-01
        1   -1    0    0  501    0  0.00000000000E+00  0.00000000000E+00  0.41624472213E+03  0.41624472216E+03  0.50400001928E-02 0.  1.
       -1   -1    0    0    0  501  0.00000000000E+00  0.00000000000E+00 -0.72836474224E+03  0.72836474226E+03  0.50400001928E-02 0. -1.
    10030    2    1    2    0    0  0.00000000000E+00  0.00000000000E+00 -0.31212002011E+03  0.11446094644E+04  0.11012320006E+04 0.  0.
        1    1    3    3  502    0  0.27125127667E+03 -0.97405246768E+02 -0.64370222973E+03  0.70527838317E+03  0.50400001928E-02 0. -1.
       -1    1    3    3    0  502 -0.27125127667E+03  0.97405246768E+02  0.33158220961E+03  0.43933108125E+03  0.50400001928E-02 0.  1.
</event>
<event>
 5   0  0.7738497E-03  0.1098631E+04  0.7818609E-02  0.9206527E-01
        2   -1    0    0  501    0  0.00000000000E+00  0.00000000000E+00  0.62503312390E+03  0.62503312391E+03  0.25500000920E-02 0.  1.
       -2   -1    0    0    0  501  0.00000000000E+00  0.00000000000E+00 -0.48277070586E+03  0.48277070586E+03  0.25500000920E-02 0. -1.
    10030    2    1    2    0    0  0.00000000000E+00  0.00000000000E+00  0.14226241805E+03  0.11078038298E+04  0.10986312983E+04 0.  0.
        4    1    3    3  502    0 -0.27769501578E+03 -0.47317255730E+03  0.43714520122E+02  0.55038110700E+03  0.12699999809E+01 0. -1.
       -4    1    3    3    0  502  0.27769501578E+03  0.47317255730E+03  0.98547897923E+02  0.55742272277E+03  0.12699999809E+01 0.  1.
</event>
<event>
 5   0  0.4504740E-03  0.1081761E+04  0.7818609E-02  0.9223153E-01
        1   -1    0    0  501    0  0.00000000000E+00  0.00000000000E+00  0.33806011727E+03  0.33806011731E+03  0.50400001928E-02 0. -1.
       -1   -1    0    0    0  501  0.00000000000E+00  0.00000000000E+00 -0.86538422523E+03  0.86538422525E+03  0.50400001928E-02 0.  1.
    10030    2    1    2    0    0  0.00000000000E+00  0.00000000000E+00 -0.52732410796E+03  0.12034443426E+04  0.10817613280E+04 0.  0.
        5    1    3    3  502    0 -0.64782355788E+02  0.29946578621E+03  0.23217895317E+03  0.38445502601E+03  0.46999998093E+01 0. -1.
       -5    1    3    3    0  502  0.64782355788E+02 -0.29946578621E+03 -0.75950306114E+03  0.81898931654E+03  0.46999998093E+01 0.  1.
</event>
<event>
 5   0  0.7952121E-03  0.1097249E+04  0.7818609E-02  0.9207878E-01
       -2   -1    0    0    0  501  0.00000000000E+00  0.00000000000E+00  0.35586911916E+03  0.35586911917E+03  0.25500000920E-02 0. -1.
        2   -1    0    0  501    0  0.00000000000E+00  0.00000000000E+00 -0.84578479752E+03  0.84578479753E+03  0.25500000920E-02 0.  1.
    10030    2    1    2    0    0  0.00000000000E+00  0.00000000000E+00 -0.48991567836E+03  0.12016539167E+04  0.10972487246E+04 0.  0.
        3    1    3    3  502    0  0.14064838291E+03 -0.12870031082E+03  0.31842612389E+03  0.37113467124E+03  0.10100000352E+00 0. -1.
       -3    1    3    3    0  502 -0.14064838291E+03  0.12870031082E+03 -0.80834180225E+03  0.83051924546E+03  0.10100000352E+00 0.  1.
</event>
<event>
 5   0  0.7712816E-03  0.1095368E+04  0.7818609E-02  0.9209718E-01
       -2   -1    0    0    0  501  0.00000000000E+00  0.00000000000E+00  0.60874758606E+03  0.60874758607E+03  0.25500000920E-02 0. -1.
        2   -1    0    0  501    0  0.00000000000E+00  0.00000000000E+00 -0.49274596623E+03  0.49274596623E+03  0.25500000920E-02 0.  1.
    10030    2    1    2    0    0  0.00000000000E+00  0.00000000000E+00  0.11600161984E+03  0.11014935523E+04  0.10953682805E+04 0.  0.
        2    1    3    3  502    0  0.10758807815E+03  0.46733719186E+03  0.32401490393E+03  0.57876152552E+03  0.25500000920E-02 0. -1.
       -2    1    3    3    0  502 -0.10758807815E+03 -0.46733719186E+03 -0.20801328409E+03  0.52273202678E+03  0.25500000920E-02 0.  1.
</event>
<event>
 5   0  0.7537480E-03  0.1113189E+04  0.7818609E-02  0.9192432E-01
       -2   -1    0    0    0  501  0.00000000000E+00  0.00000000000E+00  0.22812335492E+03  0.22812335494E+03  0.25500000920E-02 0.  1.
        2   -1    0    0  501    0  0.00000000000E+00  0.00000000000E+00 -0.13580247747E+04  0.13580247748E+04  0.25500000920E-02 0. -1.
    10030    2    1    2    0    0  0.00000000000E+00  0.00000000000E+00 -0.11299014198E+04  0.15861481297E+04  0.11131885154E+04 0.  0.
        1    1    3    3  502    0  0.65618012638E+01  0.52738738971E+03 -0.81830774213E+03  0.97355435232E+03  0.50400001928E-02 0. -1.
       -1    1    3    3    0  502 -0.65618012638E+01 -0.52738738971E+03 -0.31159367769E+03  0.61259377737E+03  0.50400001928E-02 0.  1.
</event>
<event>
 5   0  0.4598561E-03  0.9528250E+03  0.7818609E-02  0.9361855E-01
       -1   -1    0    0    0  501  0.00000000000E+00  0.00000000000E+00  0.39445404814E+03  0.39445404817E+03  0.50400001928E-02 0. -1.
        1   -1    0    0  501    0  0.00000000000E+00  0.00000000000E+00 -0.57540007188E+03  0.57540007191E+03  0.50400001928E-02 0.  1.
    10030    2    1    2    0    0  0.00000000000E+00  0.00000000000E+00 -0.18094602375E+03  0.96985412007E+03  0.95282503678E+03 0.  0.
        2    1    3    3  502    0  0.10968696070E+03  0.37979408470E+03 -0.36110858141E+03  0.53541963328E+03  0.25500000920E-02 0.  1.
       -2    1    3    3    0  502 -0.10968696070E+03 -0.37979408470E+03  0.18016255767E+03  0.43443448679E+03  0.25500000920E-02 0. -1.
</event>
<event>
 5   0  0.7712816E-03  0.9185304E+03  0.7818609E-02  0.9402709E-01
        2   -1    0    0  501    0  0.00000000000E+00  0.00000000000E+00  0.44653099062E+03  0.44653099063E+03  0.25500000920E-02 0. -1.
       -2   -1    0    0    0  501  0.00000000000E+00  0.00000000000E+00 -0.47236260425E+03  0.47236260425E+03  0.25500000920E-02 0.  1.
    10030    2    1    2    0    0  0.00000000000E+00  0.00000000000E+00 -0.25831613622E+02  0.91889359489E+03  0.91853043851E+03 0.  0.
        2    1    3    3  502    0  0.32254547109E+03 -0.19094201231E+03  0.25257583350E+03  0.45198338981E+03  0.25500000920E-02 0.  1.
       -2    1    3    3    0  502 -0.32254547109E+03  0.19094201231E+03 -0.27840744712E+03  0.46691020508E+03  0.25500000920E-02 0. -1.
</event>
<event>
 5   0  0.4298101E-03  0.1105989E+04  0.7818609E-02  0.9199374E-01
       -1   -1    0    0    0  501  0.00000000000E+00  0.00000000000E+00  0.38537057017E+03  0.38537057020E+03  0.50400001928E-02 0.  1.
        1   -1    0    0  501    0  0.00000000000E+00  0.00000000000E+00 -0.79352920376E+03  0.79352920377E+03  0.50400001928E-02 0. -1.
    10030    2    1    2    0    0  0.00000000000E+00  0.00000000000E+00 -0.40815863359E+03  0.11788997740E+04  0.11059887915E+04 0.  0.
        3    1    3    3  502    0  0.59999541077E+02 -0.24606097297E+03 -0.72807258620E+03  0.77086681621E+03  0.10100000352E+00 0. -1.
       -3    1    3    3    0  502 -0.59999541077E+02  0.24606097297E+03  0.31991395261E+03  0.40803295777E+03  0.10100000352E+00 0.  1.
</event>
<event>
 5   0  0.4428114E-03  0.1109818E+04  0.7818609E-02  0.9195675E-01
        1   -1    0    0  501    0  0.00000000000E+00  0.00000000000E+00  0.38067402758E+03  0.38067402761E+03  0.50400001928E-02 0.  1.
       -1   -1    0    0    0  501  0.00000000000E+00  0.00000000000E+00 -0.80889106474E+03  0.80889106475E+03  0.50400001928E-02 0. -1.
    10030    2    1    2    0    0  0.00000000000E+00  0.00000000000E+00 -0.42821703716E+03  0.11895650924E+04  0.11098176779E+04 0.  0.
        4    1    3    3  502    0 -0.21752249494E+03 -0.50786306438E+03 -0.15860665719E+03  0.57480310766E+03  0.12699999809E+01 0. -1.
       -4    1    3    3    0  502  0.21752249494E+03  0.50786306438E+03 -0.26961037996E+03  0.61476198471E+03  0.12699999809E+01 0.  1.
</event>
<event>
 5   0  0.4598561E-03  0.1134679E+04  0.7818609E-02  0.9172036E-01
        1   -1    0    0  501    0  0.00000000000E+00  0.00000000000E+00  0.97968479318E+03  0.97968479319E+03  0.50400001928E-02 0.  1.
       -1   -1    0    0    0  501  0.00000000000E+00  0.00000000000E+00 -0.32854841173E+03  0.32854841177E+03  0.50400001928E-02 0. -1.
    10030    2    1    2    0    0  0.00000000000E+00  0.00000000000E+00  0.65113638145E+03  0.13082332050E+04  0.11346786026E+04 0.  0.
        2    1    3    3  502    0  0.65348906635E+01  0.36727450327E+03 -0.17293063431E+03  0.40600279535E+03  0.25500000920E-02 0. -1.
       -2    1    3    3    0  502 -0.65348906635E+01 -0.36727450327E+03  0.82406701576E+03  0.90223040960E+03  0.25500000920E-02 0.  1.
</event>
<event>
 5   0  0.4504740E-03  0.1093977E+04  0.7818609E-02  0.9211082E-01
        1   -1    0    0  501    0  0.00000000000E+00  0.00000000000E+00  0.81014636271E+03  0.81014636273E+03  0.50400001928E-02 0.  1.
       -1   -1    0    0    0  501  0.00000000000E+00  0.00000000000E+00 -0.36931161415E+03  0.36931161419E+03  0.50400001928E-02 0. -1.
    10030    2    1    2    0    0  0.00000000000E+00  0.00000000000E+00  0.44083474856E+03  0.11794579769E+04  0.10939770764E+04 0.  0.
        5    1    3    3  502    0  0.31209458267E+03  0.36355777217E+03  0.50484369723E+03  0.69603629997E+03  0.46999998093E+01 0.  1.
       -5    1    3    3    0  502 -0.31209458267E+03 -0.36355777217E+03 -0.64008948675E+02  0.48342167695E+03  0.46999998093E+01 0. -1.
</event>
<event>
 5   0  0.7537480E-03  0.1073728E+04  0.7818609E-02  0.9231183E-01
        2   -1    0    0  501    0  0.00000000000E+00  0.00000000000E+00  0.10617949785E+04  0.10617949785E+04  0.25500000920E-02 0. -1.
       -2   -1    0    0    0  501  0.00000000000E+00  0.00000000000E+00 -0.27144888060E+03  0.27144888062E+03  0.25500000920E-02 0.  1.
    10030    2    1    2    0    0  0.00000000000E+00  0.00000000000E+00  0.79034609791E+03  0.13332438591E+04  0.10737281935E+04 0.  0.
        1    1    3    3  502    0 -0.52228861091E+03  0.10757631946E+03  0.47236820079E+03  0.71238316568E+03  0.50400001928E-02 0.  1.
       -1    1    3    3    0  502  0.52228861091E+03 -0.10757631946E+03  0.31797789712E+03  0.62086069346E+03  0.50400001928E-02 0. -1.
</event>
<event>
 5   0  0.7738497E-03  0.1131839E+04  0.7818609E-02  0.9174703E-01
       -2   -1    0    0    0  501  0.00000000000E+00  0.00000000000E+00  0.15095825808E+03  0.15095825810E+03  0.25500000920E-02 0.  1.
        2   -1    0    0  501    0  0.00000000000E+00  0.00000000000E+00 -0.21215462469E+04  0.21215462469E+04  0.25500000920E-02 0. -1.
    10030    2    1    2    0    0  0.00000000000E+00  0.00000000000E+00 -0.19705879888E+04  0.22725045050E+04  0.11318390802E+04 0.  0.
        4    1    3    3  502    0 -0.39133262311E+03  0.36617412829E+03 -0.62034608679E+03  0.81978996971E+03  0.12699999809E+01 0. -1.
       -4    1    3    3    0  502  0.39133262311E+03 -0.36617412829E+03 -0.13502419020E+04  0.14527145353E+04  0.12699999809E+01 0.  1.
</event>
<event>
 5   0  0.7952121E-03  0.1098148E+04  0.7818609E-02  0.9206999E-01
        2   -1    0    0  501    0  0.00000000000E+00  0.00000000000E+00  0.19088586833E+04  0.19088586833E+04  0.25500000920E-02 0. -1.
       -2   -1    0    0    0  501  0.00000000000E+00  0.00000000000E+00 -0.15793849080E+03  0.15793849083E+03  0.25500000920E-02 0.  1.
    10030    2    1    2    0    0  0.00000000000E+00  0.00000000000E+00  0.17509201925E+04  0.20667971741E+04  0.10981480039E+04 0.  0.
        3    1    3    3  502    0 -0.45812888653E+03 -0.23219172883E+03  0.51008935364E+03  0.72386893462E+03  0.10100000352E+00 0.  1.
       -3    1    3    3    0  502  0.45812888653E+03  0.23219172883E+03  0.12408308389E+04  0.13429282395E+04  0.10100000352E+00 0. -1.
</event>
<event>
 5   0  0.4598561E-03  0.1072277E+04  0.7818609E-02  0.9232642E-01
       -1   -1    0    0    0  501  0.00000000000E+00  0.00000000000E+00  0.84930105569E+03  0.84930105571E+03  0.50400001928E-02 0.  1.
        1   -1    0    0  501    0  0.00000000000E+00  0.00000000000E+00 -0.33844808618E+03  0.33844808621E+03  0.50400001928E-02 0. -1.
    10030    2    1    2    0    0  0.00000000000E+00  0.00000000000E+00  0.51085296952E+03  0.11877491419E+04  0.10722766750E+04 0.  0.
        2    1    3    3  502    0  0.33508598201E+03  0.29785672099E+03 -0.70247427232E+02  0.45380165559E+03  0.25500000920E-02 0. -1.
       -2    1    3    3    0  502 -0.33508598201E+03 -0.29785672099E+03  0.58110039675E+03  0.73394748633E+03  0.25500000920E-02 0.  1.
</event>
<event>
 5   0  0.2992375E-03  0.1061032E+04  0.7818609E-02  0.9244028E-01
        4   -1    0    0  501    0  0.00000000000E+00  0.00000000000E+00  0.34717412650E+03  0.34717644939E+03  0.12699999809E+01 0.  1.
       -4   -1    0    0    0  501  0.00000000000E+00  0.00000000000E+00 -0.81067409699E+03  0.81067509178E+03  0.12699999809E+01 0. -1.
    10030    2    1    2    0    0  0.00000000000E+00  0.00000000000E+00 -0.46349997049E+03  0.11578515412E+04  0.10610315588E+04 0.  0.
        1    1    3    3  502    0  0.23128233724E+03  0.41892689760E+03 -0.48168150626E+03  0.67897594843E+03  0.50400001928E-02 0.  1.
       -1    1    3    3    0  502 -0.23128233724E+03 -0.41892689760E+03  0.18181535776E+02  0.47887559274E+03  0.50400001928E-02 0. -1.
</event>
<event>
 5   0  0.2992375E-03  0.1175647E+04  0.7818609E-02  0.9134443E-01
        3   -1    0    0  501    0  0.00000000000E+00  0.00000000000E+00  0.57792700521E+03  0.57792701404E+03  0.10100000352E+00 0.  1.
       -3   -1    0    0    0  501  0.00000000000E+00  0.00000000000E+00 -0.59788985506E+03  0.59788986359E+03  0.10100000352E+00 0. -1.
    10030    2    1    2    0    0  0.00000000000E+00  0.00000000000E+00 -0.19962849849E+02  0.11758168776E+04  0.11756474022E+04 0.  0.
        2    1    3    3  502    0  0.10339134200E+03  0.51868763653E+03  0.24659028972E+03  0.58355240114E+03  0.25500000920E-02 0.  1.
       -2    1    3    3    0  502 -0.10339134200E+03 -0.51868763653E+03 -0.26655313957E+03  0.59226447649E+03  0.25500000920E-02 0. -1.
</event>
<event>
 5   0  0.4504740E-03  0.1092232E+04  0.7818609E-02  0.9212796E-01
        1   -1    0    0  501    0  0.00000000000E+00  0.00000000000E+00  0.23695742927E+04  0.23695742927E+04  0.50400001928E-02 0.  1.
       -1   -1    0    0    0  501  0.00000000000E+00  0.00000000000E+00 -0.12586345619E+03  0.12586345629E+03  0.50400001928E-02 0. -1.
    10030    2    1    2    0    0  0.00000000000E+00  0.00000000000E+00  0.22437108366E+04  0.24954377490E+04  0.10922322286E+04 0.  0.
        5    1    3    3  502    0  0.37588829621E+03 -0.23580631701E+03  0.39459808492E+03  0.59382351670E+03  0.46999998093E+01 0. -1.
       -5    1    3    3    0  502 -0.37588829621E+03  0.23580631701E+03  0.18491127516E+04  0.19016142323E+04  0.46999998093E+01 0.  1.
</event>
<event>
 5   0  0.4428114E-03  0.1107005E+04  0.7818609E-02  0.9198391E-01
        1   -1    0    0  501    0  0.00000000000E+00  0.00000000000E+00  0.70013066055E+03  0.70013066057E+03  0.50400001928E-02 0. -1.
       -1   -1    0    0    0  501  0.00000000000E+00  0.00000000000E+00 -0.43758264039E+03  0.43758264042E+03  0.50400001928E-02 0.  1.
    10030    2    1    2    0    0  0.00000000000E+00  0.00000000000E+00  0.26254802015E+03  0.11377133010E+04  0.11070050101E+04 0.  0.
        4    1    3    3  502    0  0.21318148795E+03  0.36607694625E+03 -0.23484489810E+03  0.48436805886E+03  0.12699999809E+01 0.  1.
       -4    1    3    3    0  502 -0.21318148795E+03 -0.36607694625E+03  0.49739291825E+03  0.65334524213E+03  0.12699999809E+01 0. -1.
</event>
<event>
 5   0  0.4641021E-03  0.1098469E+04  0.7818609E-02  0.9206685E-01
       -1   -1    0    0    0  501  0.00000000000E+00  0.00000000000E+00  0.73231613372E+03  0.73231613374E+03  0.50400001928E-02 0.  1.
        1   -1    0    0  501    0  0.00000000000E+00  0.00000000000E+00 -0.41192396779E+03  0.41192396782E+03  0.50400001928E-02 0. -1.
    10030    2    1    2    0    0  0.00000000000E+00  0.00000000000E+00  0.32039216593E+03  0.11442401016E+04  0.10984690574E+04 0.  0.
        1    1    3    3  502    0  0.40422516652E+03 -0.23407890399E+01 -0.22712391534E+03  0.46366877993E+03  0.50400001928E-02 0. -1.
       -1    1    3    3    0  502 -0.40422516652E+03  0.23407890399E+01  0.54751608128E+03  0.68057132163E+03  0.50400001928E-02 0.  1.
</event>
<event>
 5   0  0.7738497E-03  0.1147011E+04  0.7818609E-02  0.9160545E-01
        2   -1    0    0  501    0  0.00000000000E+00  0.00000000000E+00  0.17369645788E+03  0.17369645790E+03  0.25500000920E-02 0.  1.
       -2   -1    0    0    0  501  0.00000000000E+00  0.00000000000E+00 -0.18935827653E+04  0.18935827653E+04  0.25500000920E-02 0. -1.
    10030    2    1    2    0    0  0.00000000000E+00  0.00000000000E+00 -0.17198863074E+04  0.20672792232E+04  0.11470111055E+04 0.  0.
        4    1    3    3  502    0  0.38020343536E+03 -0.40488962448E+03 -0.11174713457E+04  0.12478918549E+04  0.12699999809E+01 0. -1.
       -4    1    3    3    0  502 -0.38020343536E+03  0.40488962448E+03 -0.60241496174E+03  0.81938736828E+03  0.12699999809E+01 0.  1.
</event>
<event>
 5   0  0.7766551E-03  0.1091765E+04  0.7818609E-02  0.9213256E-01
       -2   -1    0    0    0  501  0.00000000000E+00  0.00000000000E+00  0.57030089404E+03  0.57030089405E+03  0.25500000920E-02 0. -1.
        2   -1    0    0  501    0  0.00000000000E+00  0.00000000000E+00 -0.52250972342E+03  0.52250972343E+03  0.25500000920E-02 0.  1.
    10030    2    1    2    0    0  0.00000000000E+00  0.00000000000E+00  0.47791170616E+02  0.10928106175E+04  0.10917651074E+04 0.  0.
        5    1    3    3  502    0 -0.50265654959E+03  0.11959665443E+03  0.20012868382E+03  0.55411239535E+03  0.46999998093E+01 0. -1.
       -5    1    3    3    0  502  0.50265654959E+03 -0.11959665443E+03 -0.15233751321E+03  0.53869822213E+03  0.46999998093E+01 0.  1.
</event>
<event>
 5   0  0.4504740E-03  0.1122785E+04  0.7818609E-02  0.9183265E-01
       -1   -1    0    0    0  501  0.00000000000E+00  0.00000000000E+00  0.16942316908E+03  0.16942316916E+03  0.50400001928E-02 0. -1.
        1   -1    0    0  501    0  0.00000000000E+00  0.00000000000E+00 -0.18602020178E+04  0.18602020178E+04  0.50400001928E-02 0.  1.
    10030    2    1    2    0    0  0.00000000000E+00  0.00000000000E+00 -0.16907788487E+04  0.20296251869E+04  0.11227846117E+04 0.  0.
        5    1    3    3  502    0 -0.10403999515E+03 -0.47701122318E+03 -0.13462650291E+04  0.14320669141E+04  0.46999998093E+01 0.  1.
       -5    1    3    3    0  502  0.10403999515E+03  0.47701122318E+03 -0.34451381953E+03  0.59755827286E+03  0.46999998093E+01 0. -1.
</event>
<event>
 5   0  0.7537480E-03  0.1104746E+04  0.7818609E-02  0.9200578E-01
       -2   -1    0    0    0  501  0.00000000000E+00  0.00000000000E+00  0.33641137875E+03  0.33641137876E+03  0.25500000920E-02 0.  1.
        2   -1    0    0  501    0  0.00000000000E+00  0.00000000000E+00 -0.90697300093E+03  0.90697300094E+03  0.25500000920E-02 0. -1.
    10030    2    1    2    0    0  0.00000000000E+00  0.00000000000E+00 -0.57056162218E+03  0.12433843797E+04  0.11047461930E+04 0.  0.
        1    1    3    3  502    0  0.29314137740E+03 -0.26196653973E+03  0.15143044222E+03  0.42129504381E+03  0.50400001928E-02 0. -1.
       -1    1    3    3    0  502 -0.29314137740E+03  0.26196653973E+03 -0.72199206440E+03  0.82208933588E+03  0.50400001928E-02 0.  1.
</event>
<event>
 5   0  0.7712816E-03  0.1093653E+04  0.7818609E-02  0.9211401E-01
        2   -1    0    0  501    0  0.00000000000E+00  0.00000000000E+00  0.48995938552E+03  0.48995938552E+03  0.25500000920E-02 0.  1.
       -2   -1    0    0    0  501  0.00000000000E+00  0.00000000000E+00 -0.61029341551E+03  0.61029341551E+03  0.25500000920E-02 0. -1.
    10030    2    1    2    0    0  0.00000000000E+00  0.00000000000E+00 -0.12033402999E+03  0.11002528010E+04  0.10936525716E+04 0.  0.
        2    1    3    3  502    0  0.39790217326E+03  0.35551081514E+03 -0.18049194952E+03  0.56328627093E+03  0.25500000920E-02 0. -1.
       -2    1    3    3    0  502 -0.39790217326E+03 -0.35551081514E+03  0.60157919526E+02  0.53696653011E+03  0.25500000920E-02 0.  1.
</event>
<event>
 5   0  0.7712816E-03  0.1061283E+04  0.7818609E-02  0.9243772E-01
       -2   -1    0    0    0  501  0.00000000000E+00  0.00000000000E+00  0.35228293496E+03  0.35228293497E+03  0.25500000920E-02 0.  1.
        2   -1    0    0  501    0  0.00000000000E+00  0.00000000000E+00 -0.79930137121E+03  0.79930137121E+03  0.25500000920E-02 0. -1.
    10030    2    1    2    0    0  0.00000000000E+00  0.00000000000E+00 -0.44701843625E+03  0.11515843062E+04  0.10612826824E+04 0.  0.
        2    1    3    3  502    0  0.58664234052E+02  0.26250958161E+03 -0.71984318984E+03  0.76845753999E+03  0.25500000920E-02 0. -1.
       -2    1    3    3    0  502 -0.58664234052E+02 -0.26250958161E+03  0.27282475359E+03  0.38312676619E+03  0.25500000920E-02 0.  1.
</event>
<event>
 5   0  0.4428114E-03  0.1100107E+04  0.7818609E-02  0.9205088E-01
       -1   -1    0    0    0  501  0.00000000000E+00  0.00000000000E+00  0.26776722074E+03  0.26776722079E+03  0.50400001928E-02 0.  1.
        1   -1    0    0  501    0  0.00000000000E+00  0.00000000000E+00 -0.11299320046E+04  0.11299320046E+04  0.50400001928E-02 0. -1.
    10030    2    1    2    0    0  0.00000000000E+00  0.00000000000E+00 -0.86216478385E+03  0.13976992254E+04  0.11001068176E+04 0.  0.
        4    1    3    3  502    0  0.68647199203E+02  0.28519722455E+03  0.16009128087E+03  0.33418666335E+03  0.12699999809E+01 0.  1.
       -4    1    3    3    0  502 -0.68647199203E+02 -0.28519722455E+03 -0.10222560647E+04  0.10635125620E+04  0.12699999809E+01 0. -1.
</event>
<event>
 5   0  0.4641021E-03  0.1104994E+04  0.7818609E-02  0.9200338E-01
        1   -1    0    0  501    0  0.00000000000E+00  0.00000000000E+00  0.97036673923E+03  0.97036673925E+03  0.50400001928E-02 0.  1.
       -1   -1    0    0    0  501  0.00000000000E+00  0.00000000000E+00 -0.31457493436E+03  0.31457493440E+03  0.50400001928E-02 0. -1.
    10030    2    1    2    0    0  0.00000000000E+00  0.00000000000E+00  0.65579180488E+03  0.12849416736E+04  0.11049942142E+04 0.  0.
        1    1    3    3  502    0  0.16039520650E+03 -0.42362462925E+02 -0.28492879037E+03  0.32970534745E+03  0.50400001928E-02 0. -1.
       -1    1    3    3    0  502 -0.16039520650E+03  0.42362462925E+02  0.94072059524E+03  0.95523632619E+03  0.50400001928E-02 0.  1.
</event>
<event>
 5   0  0.7766551E-03  0.1092984E+04  0.7818609E-02  0.9212057E-01
        2   -1    0    0  501    0  0.00000000000E+00  0.00000000000E+00  0.64751959764E+03  0.64751959765E+03  0.25500000920E-02 0.  1.
       -2   -1    0    0    0  501  0.00000000000E+00  0.00000000000E+00 -0.46122689183E+03  0.46122689184E+03  0.25500000920E-02 0. -1.
    10030    2    1    2    0    0  0.00000000000E+00  0.00000000000E+00  0.18629270581E+03  0.11087464895E+04  0.10929839000E+04 0.  0.
        5    1    3    3  502    0 -0.88337883555E+02  0.53318284026E+03  0.11085734961E+02  0.54058533677E+03  0.46999998093E+01 0. -1.
       -5    1    3    3    0  502  0.88337883555E+02 -0.53318284026E+03  0.17520697085E+03  0.56816115271E+03  0.46999998093E+01 0.  1.
</event>
<event>
 5   0  0.4504740E-03  0.1092384E+04  0.7818609E-02  0.9212647E-01
       -1   -1    0    0    0  501  0.00000000000E+00  0.00000000000E+00  0.18791363227E+03  0.18791363234E+03  0.50400001928E-02 0.  1.
        1   -1    0    0  501    0  0.00000000000E+00  0.00000000000E+00 -0.15875691107E+04  0.15875691107E+04  0.50400001928E-02 0. -1.
    10030    2    1    2    0    0  0.00000000000E+00  0.00000000000E+00 -0.13996554785E+04  0.17754827431E+04  0.10923843246E+04 0.  0.
        5    1    3    3  502    0 -0.11146127058E+03 -0.14356900626E+03 -0.15369396487E+04  0.15476566958E+04  0.46999998093E+01 0. -1.
       -5    1    3    3    0  502  0.11146127058E+03  0.14356900626E+03  0.13728417025E+03  0.22782604723E+03  0.46999998093E+01 0.  1.
</event>
<event>
 5   0  0.7712816E-03  0.1105134E+04  0.7818609E-02  0.9200203E-01
       -2   -1    0    0    0  501  0.00000000000E+00  0.00000000000E+00  0.47350334913E+03  0.47350334913E+03  0.25500000920E-02 0.  1.
        2   -1    0    0  501    0  0.00000000000E+00  0.00000000000E+00 -0.64483180617E+03  0.64483180618E+03  0.25500000920E-02 0. -1.
    10030    2    1    2    0    0  0.00000000000E+00  0.00000000000E+00 -0.17132845705E+03  0.11183351553E+04  0.11051335120E+04 0.  0.
        2    1    3    3  502    0 -0.25410486841E+03 -0.25250827143E+03  0.34007556031E+03  0.49394442807E+03  0.25500000920E-02 0.  1.
       -2    1    3    3    0  502  0.25410486841E+03  0.25250827143E+03 -0.51140401736E+03  0.62439072724E+03  0.25500000920E-02 0. -1.
</event>
<event>
 5   0  0.7738497E-03  0.1117420E+04  0.7818609E-02  0.9188377E-01
        2   -1    0    0  501    0  0.00000000000E+00  0.00000000000E+00  0.21171508650E+04  0.21171508650E+04  0.25500000920E-02 0.  1.
       -2   -1    0    0    0  501  0.00000000000E+00  0.00000000000E+00 -0.14744205032E+03  0.14744205034E+03  0.25500000920E-02 0. -1.
    10030    2    1    2    0    0  0.00000000000E+00  0.00000000000E+00  0.19697088147E+04  0.22645929153E+04  0.11174203585E+04 0.  0.
        4    1    3    3  502    0  0.49694711872E+03  0.84261609982E+02  0.14733468735E+04  0.15571798484E+04  0.12699999809E+01 0.  1.
       -4    1    3    3    0  502 -0.49694711872E+03 -0.84261609982E+02  0.49636194120E+03  0.70741306695E+03  0.12699999809E+01 0. -1.
</event>
<event>
 5   0  0.4428114E-03  0.1134152E+04  0.7818609E-02  0.9172530E-01
        1   -1    0    0  501    0  0.00000000000E+00  0.00000000000E+00  0.84426257166E+03  0.84426257168E+03  0.50400001928E-02 0.  1.
       -1   -1    0    0    0  501  0.00000000000E+00  0.00000000000E+00 -0.38089457748E+03  0.38089457751E+03  0.50400001928E-02 0. -1.
    10030    2    1    2    0    0  0.00000000000E+00  0.00000000000E+00  0.46336799418E+03  0.12251571492E+04  0.11341517280E+04 0.  0.
        4    1    3    3  502    0  0.49328658295E+03  0.22206339679E+03  0.47948958118E+02  0.54308794923E+03  0.12699999809E+01 0.  1.
       -4    1    3    3    0  502 -0.49328658295E+03 -0.22206339679E+03  0.41541903606E+03  0.68206919996E+03  0.12699999809E+01 0. -1.
</event>
<event>
 5   0  0.7766551E-03  0.1099629E+04  0.7818609E-02  0.9205553E-01
       -2   -1    0    0    0  501  0.00000000000E+00  0.00000000000E+00  0.12531669314E+04  0.12531669315E+04  0.25500000920E-02 0.  1.
        2   -1    0    0  501    0  0.00000000000E+00  0.00000000000E+00 -0.24122578366E+03  0.24122578367E+03  0.25500000920E-02 0. -1.
    10030    2    1    2    0    0  0.00000000000E+00  0.00000000000E+00  0.10119411478E+04  0.14943927151E+04  0.10996293468E+04 0.  0.
        5    1    3    3  502    0 -0.52265074493E+03 -0.39958474333E+02  0.28055072038E+03  0.59455132457E+03  0.46999998093E+01 0. -1.
       -5    1    3    3    0  502  0.52265074493E+03  0.39958474333E+02  0.73139042741E+03  0.89984139055E+03  0.46999998093E+01 0.  1.
</event>
<event>
 5   0  0.7952121E-03  0.1077599E+04  0.7818609E-02  0.9227305E-01
       -2   -1    0    0    0  501  0.00000000000E+00  0.00000000000E+00  0.18605522440E+03  0.18605522441E+03  0.25500000920E-02 0. -1.
        2   -1    0    0  501    0  0.00000000000E+00  0.00000000000E+00 -0.15603146240E+04  0.15603146240E+04  0.25500000920E-02 0.  1.
    10030    2    1    2    0    0  0.00000000000E+00  0.00000000000E+00 -0.13742593996E+04  0.17463698484E+04  0.10775986034E+04 0.  0.
        3    1    3    3  502    0  0.46709806392E+03  0.94746579528E+02 -0.10943750385E+04  0.11936558342E+04  0.10100000352E+00 0.  1.
       -3    1    3    3    0  502 -0.46709806392E+03 -0.94746579528E+02 -0.27988436116E+03  0.55271401418E+03  0.10100000352E+00 0. -1.
</event>
<event>
 5   0  0.7738497E-03  0.1173728E+04  0.7818609E-02  0.9136168E-01
       -2   -1    0    0    0  501  0.00000000000E+00  0.00000000000E+00  0.40838125958E+03  0.40838125959E+03  0.25500000920E-02 0. -1.
        2   -1    0    0  501    0  0.00000000000E+00  0.00000000000E+00 -0.84335288879E+03  0.84335288879E+03  0.25500000920E-02 0.  1.
    10030    2    1    2    0    0  0.00000000000E+00  0.00000000000E+00 -0.43497162920E+03  0.12517341484E+04  0.11737282735E+04 0.  0.
        4    1    3    3  502    0  0.36620586100E+03 -0.15821177907E+03 -0.67652242295E+03  0.78538009990E+03  0.12699999809E+01 0.  1.
       -4    1    3    3    0  502 -0.36620586100E+03  0.15821177907E+03  0.24155079375E+03  0.46635404848E+03  0.12699999809E+01 0. -1.
</event>
<event>
 5   0  0.4598561E-03  0.1080399E+04  0.7818609E-02  0.9224509E-01
       -1   -1    0    0    0  501  0.00000000000E+00  0.00000000000E+00  0.39155686325E+03  0.39155686328E+03  0.50400001928E-02 0.  1.
        1   -1    0    0  501    0  0.00000000000E+00  0.00000000000E+00 -0.74527020896E+03  0.74527020897E+03  0.50400001928E-02 0. -1.
    10030    2    1    2    0    0  0.00000000000E+00  0.00000000000E+00 -0.35371334571E+03  0.11368270723E+04  0.10803993064E+04 0.  0.
        2    1    3    3  502    0 -0.30762062783E+03  0.82003478991E+02 -0.63606815103E+03  0.71129298745E+03  0.25500000920E-02 0.  1.
       -2    1    3    3    0  502  0.30762062783E+03 -0.82003478991E+02  0.28235480532E+03  0.42553408480E+03  0.25500000920E-02 0. -1.
</event>
<event>
 5   0  0.7766551E-03  0.1083582E+04  0.7818609E-02  0.9221343E-01
        2   -1    0    0  501    0  0.00000000000E+00  0.00000000000E+00  0.48856845125E+03  0.48856845126E+03  0.25500000920E-02 0.  1.
       -2   -1    0    0    0  501  0.00000000000E+00  0.00000000000E+00 -0.60081169353E+03  0.60081169354E+03  0.25500000920E-02 0. -1.
    10030    2    1    2    0    0  0.00000000000E+00  0.00000000000E+00 -0.11224324228E+03  0.10893801448E+04  0.10835822786E+04 0.  0.
        5    1    3    3  502    0 -0.14934783551E+03  0.46409674358E+03 -0.29365895093E+03  0.56916450420E+03  0.46999998093E+01 0.  1.
       -5    1    3    3    0  502  0.14934783551E+03 -0.46409674358E+03  0.18141570866E+03  0.52021564060E+03  0.46999998093E+01 0. -1.
</event>
<event>
 5   0  0.4298101E-03  0.1121446E+04  0.7818609E-02  0.9184537E-01
        1   -1    0    0  501    0  0.00000000000E+00  0.00000000000E+00  0.40516503708E+03  0.40516503711E+03  0.50400001928E-02 0.  1.
       -1   -1    0    0    0  501  0.00000000000E+00  0.00000000000E+00 -0.77600607681E+03  0.77600607683E+03  0.50400001928E-02 0. -1.
    10030    2    1    2    0    0  0.00000000000E+00  0.00000000000E+00 -0.37084103974E+03  0.11811711139E+04  0.11214464426E+04 0.  0.
        3    1    3    3  502    0 -0.11558638093E+03 -0.40069917919E+03 -0.58020286588E+03  0.71453160842E+03  0.10100000352E+00 0. -1.
       -3    1    3    3    0  502  0.11558638093E+03  0.40069917919E+03  0.20936182614E+03  0.46663950552E+03  0.10100000352E+00 0.  1.
</event>
<event>
 5   0  0.7738497E-03  0.1131767E+04  0.7818609E-02  0.9174771E-01
       -2   -1    0    0    0  501  0.00000000000E+00  0.00000000000E+00  0.26491483026E+03  0.26491483027E+03  0.25500000920E-02 0. -1.
        2   -1    0    0  501    0  0.00000000000E+00  0.00000000000E+00 -0.12087805021E+04  0.12087805021E+04  0.25500000920E-02 0.  1.
    10030    2    1    2    0    0  0.00000000000E+00  0.00000000000E+00 -0.94386567185E+03  0.14736953324E+04  0.11317665511E+04 0.  0.
        4    1    3    3  502    0  0.29803674753E+03  0.44714101629E+03 -0.24097163500E+03  0.58892268856E+03  0.12699999809E+01 0. -1.
       -4    1    3    3    0  502 -0.29803674753E+03 -0.44714101629E+03 -0.70289403685E+03  0.88477264382E+03  0.12699999809E+01 0.  1.
</event>
<event>
 5   0  0.4641021E-03  0.1066022E+04  0.7818609E-02  0.9238957E-01
        1   -1    0    0  501    0  0.00000000000E+00  0.00000000000E+00  0.11443613370E+04  0.11443613370E+04  0.50400001928E-02 0. -1.
       -1   -1    0    0    0  501  0.00000000000E+00  0.00000000000E+00 -0.24826125040E+03  0.24826125045E+03  0.50400001928E-02 0.  1.
    10030    2    1    2    0    0  0.00000000000E+00  0.00000000000E+00  0.89610008664E+03  0.13926225875E+04  0.10660217193E+04 0.  0.
        1    1    3    3  502    0  0.56230155413E+02 -0.20780194122E+03  0.10850422641E+04  0.11061917519E+04  0.50400001928E-02 0. -1.
       -1    1    3    3    0  502 -0.56230155413E+02  0.20780194122E+03 -0.18894217741E+03  0.28643083560E+03  0.50400001928E-02 0.  1.
</event>
<event>
 5   0  0.7766551E-03  0.1121796E+04  0.7818609E-02  0.9184205E-01
       -2   -1    0    0    0  501  0.00000000000E+00  0.00000000000E+00  0.26995061400E+03  0.26995061401E+03  0.25500000920E-02 0.  1.
        2   -1    0    0  501    0  0.00000000000E+00  0.00000000000E+00 -0.11654219254E+04  0.11654219254E+04  0.25500000920E-02 0. -1.
    10030    2    1    2    0    0  0.00000000000E+00  0.00000000000E+00 -0.89547131138E+03  0.14353725394E+04  0.11217956397E+04 0.  0.
        5    1    3    3  502    0 -0.54310118900E+03 -0.28050974133E+02 -0.62335575822E+03  0.82724860226E+03  0.46999998093E+01 0. -1.
       -5    1    3    3    0  502  0.54310118900E+03  0.28050974133E+02 -0.27211555317E+03  0.60812393713E+03  0.46999998093E+01 0.  1.
</event>
<event>
 5   0  0.4504740E-03  0.1067748E+04  0.7818609E-02  0.9237210E-01
       -1   -1    0    0    0  501  0.00000000000E+00  0.00000000000E+00  0.98859806342E+03  0.98859806344E+03  0.50400001928E-02 0.  1.
        1   -1    0    0  501    0  0.00000000000E+00  0.00000000000E+00 -0.28830883425E+03  0.28830883430E+03  0.50400001928E-02 0. -1.
    10030    2    1    2    0    0  0.00000000000E+00  0.00000000000E+00  0.70028922917E+03  0.12769068977E+04  0.10677482011E+04 0.  0.
        5    1    3    3  502    0 -0.97534366200E+02 -0.44883310351E+03  0.24750289509E+02  0.45999866764E+03  0.46999998093E+01 0.  1.
       -5    1    3    3    0  502  0.97534366200E+02  0.44883310351E+03  0.67553893966E+03  0.81690823010E+03  0.46999998093E+01 0. -1.
</event>
<event>
 5   0  0.4504740E-03  0.1116922E+04  0.7818609E-02  0.9188853E-01
       -1   -1    0    0    0  501  0.00000000000E+00  0.00000000000E+00  0.38799733210E+03  0.38799733213E+03  0.50400001928E-02 0. -1.
        1   -1    0    0  501    0  0.00000000000E+00  0.00000000000E+00 -0.80381720937E+03  0.80381720939E+03  0.50400001928E-02 0.  1.
    10030    2    1    2    0    0  0.00000000000E+00  0.00000000000E+00 -0.41581987727E+03  0.11918145415E+04  0.11169224373E+04 0.  0.
        5    1    3    3  502    0  0.34246476741E+03 -0.43044832334E+03 -0.10506820964E+03  0.56002615533E+03  0.46999998093E+01 0.  1.
       -5    1    3    3    0  502 -0.34246476741E+03  0.43044832334E+03 -0.31075166764E+03  0.63178838619E+03  0.46999998093E+01 0. -1.
</event>
<event>
 5   0  0.7766551E-03  0.9935419E+03  0.7818609E-02  0.9315656E-01
       -2   -1    0    0    0  501  0.00000000000E+00  0.00000000000E+00  0.30028951333E+03  0.30028951334E+03  0.25500000920E-02 0. -1.
        2   -1    0    0  501    0  0.00000000000E+00  0.00000000000E+00 -0.82181154340E+03  0.82181154340E+03  0.25500000920E-02 0.  1.
    10030    2    1    2    0    0  0.00000000000E+00  0.00000000000E+00 -0.52152203007E+03  0.11221010567E+04  0.99354192347E+03 0.  0.
        5    1    3    3  502    0 -0.41751880985E+03  0.78215003159E+02 -0.55160978473E+03  0.69622912027E+03  0.46999998093E+01 0.  1.
       -5    1    3    3    0  502  0.41751880985E+03 -0.78215003159E+02  0.30087754658E+02  0.42587193648E+03  0.46999998093E+01 0. -1.
</event>
<event>
 5   0  0.4428114E-03  0.1089628E+04  0.7818609E-02  0.9215361E-01
       -1   -1    0    0    0  501  0.00000000000E+00  0.00000000000E+00  0.75549522024E+03  0.75549522026E+03  0.50400001928E-02 0. -1.
        1   -1    0    0  501    0  0.00000000000E+00  0.00000000000E+00 -0.39288413077E+03  0.39288413080E+03  0.50400001928E-02 0.  1.
    10030    2    1    2    0    0  0.00000000000E+00  0.00000000000E+00  0.36261108947E+03  0.11483793511E+04  0.10896276115E+04 0.  0.
        4    1    3    3  502    0  0.35504832412E+03  0.14655201836E+03  0.58851084026E+03  0.70276840321E+03  0.12699999809E+01 0. -1.
       -4    1    3    3    0  502 -0.35504832412E+03 -0.14655201836E+03 -0.22589975079E+03  0.44561094786E+03  0.12699999809E+01 0.  1.
</event>
<event>
 5   0  0.4428114E-03  0.1100804E+04  0.7818609E-02  0.9204408E-01
       -1   -1    0    0    0  501  0.00000000000E+00  0.00000000000E+00  0.84172887491E+03  0.84172887492E+03  0.50400001928E-02 0.  1.
        1   -1    0    0  501    0  0.00000000000E+00  0.00000000000E+00 -0.35990508804E+03  0.35990508807E+03  0.50400001928E-02 0. -1.
    10030    2    1    2    0    0  0.00000000000E+00  0.00000000000E+00  0.48182378687E+03  0.12016339630E+04  0.11008042603E+04 0.  0.
        4    1    3    3  502    0 -0.37756183195E+03 -0.11948079131E+03 -0.17634687799E+03  0.43350712879E+03  0.12699999809E+01 0. -1.
       -4    1    3    3    0  502  0.37756183195E+03  0.11948079131E+03  0.65817066486E+03  0.76812683420E+03  0.12699999809E+01 0.  1.
</event>
<event>
 5   0  0.4504740E-03  0.1106646E+04  0.7818609E-02  0.9198738E-01
        1   -1    0    0  501    0  0.00000000000E+00  0.00000000000E+00  0.46411561967E+03  0.46411561970E+03  0.50400001928E-02 0. -1.
       -1   -1    0    0    0  501  0.00000000000E+00  0.00000000000E+00 -0.65967714688E+03  0.65967714690E+03  0.50400001928E-02 0.  1.
    10030    2    1    2    0    0  0.00000000000E+00  0.00000000000E+00 -0.19556152721E+03  0.11237927666E+04  0.11066462268E+04 0.  0.
        5    1    3    3  502    0  0.20131721881E+03 -0.37551731297E+03 -0.45624085226E+03  0.62427532403E+03  0.46999998093E+01 0.  1.
       -5    1    3    3    0  502 -0.20131721881E+03  0.37551731297E+03  0.26067932504E+03  0.49951744257E+03  0.46999998093E+01 0. -1.
</event>
<event>
 5   0  0.4428114E-03  0.1108813E+04  0.7818609E-02  0.9196644E-01
        1   -1    0    0  501    0  0.00000000000E+00  0.00000000000E+00  0.14280531376E+04  0.14280531376E+04  0.50400001928E-02 0.  1.
       -1   -1    0    0    0  501  0.00000000000E+00  0.00000000000E+00 -0.21523487162E+03  0.21523487168E+03  0.50400001928E-02 0. -1.
    10030    2    1    2    0    0  0.00000000000E+00  0.00000000000E+00  0.12128182659E+04  0.16432880093E+04  0.11088134808E+04 0.  0.
        4    1    3    3  502    0 -0.34349047652E+03  0.22547177809E+03  0.11580366229E+04  0.12287691659E+04  0.12699999809E+01 0.  1.
       -4    1    3    3    0  502  0.34349047652E+03 -0.22547177809E+03  0.54781643033E+02  0.41451884335E+03  0.12699999809E+01 0. -1.
</event>
<event>
 5   0  0.4428114E-03  0.1102367E+04  0.7818609E-02  0.9202888E-01
        1   -1    0    0  501    0  0.00000000000E+00  0.00000000000E+00  0.14487290593E+04  0.14487290593E+04  0.50400001928E-02 0.  1.
       -1   -1    0    0    0  501  0.00000000000E+00  0.00000000000E+00 -0.20970336434E+03  0.20970336440E+03  0.50400001928E-02 0. -1.
    10030    2    1    2    0    0  0.00000000000E+00  0.00000000000E+00  0.12390256950E+04  0.16584324237E+04  0.11023671944E+04 0.  0.
        4    1    3    3  502    0 -0.36472826299E+03 -0.33586736411E+03  0.98172767988E+03  0.10998292788E+04  0.12699999809E+01 0.  1.
       -4    1    3    3    0  502  0.36472826299E+03  0.33586736411E+03  0.25729801511E+03  0.55860314497E+03  0.12699999809E+01 0. -1.
</event>
<event>
 5   0  0.4428114E-03  0.1084965E+04  0.7818609E-02  0.9219971E-01
       -1   -1    0    0    0  501  0.00000000000E+00  0.00000000000E+00  0.57913216515E+03  0.57913216518E+03  0.50400001928E-02 0.  1.
        1   -1    0    0  501    0  0.00000000000E+00  0.00000000000E+00 -0.50815194724E+03  0.50815194726E+03  0.50400001928E-02 0. -1.
    10030    2    1    2    0    0  0.00000000000E+00  0.00000000000E+00  0.70980217920E+02  0.10872841124E+04  0.10849647689E+04 0.  0.
        4    1    3    3  502    0 -0.40494429913E+03 -0.36058156429E+03  0.18525404819E+02  0.54253456427E+03  0.12699999809E+01 0. -1.
       -4    1    3    3    0  502  0.40494429913E+03  0.36058156429E+03  0.52454813100E+02  0.54474954816E+03  0.12699999809E+01 0.  1.
</event>
<event>
 5   0  0.4641021E-03  0.1078200E+04  0.7818609E-02  0.9226704E-01
        1   -1    0    0  501    0  0.00000000000E+00  0.00000000000E+00  0.77585365311E+03  0.77585365312E+03  0.50400001928E-02 0.  1.
       -1   -1    0    0    0  501  0.00000000000E+00  0.00000000000E+00 -0.37459263509E+03  0.37459263512E+03  0.50400001928E-02 0. -1.
    10030    2    1    2    0    0  0.00000000000E+00  0.00000000000E+00  0.40126101802E+03  0.11504462882E+04  0.10782004719E+04 0.  0.
        1    1    3    3  502    0  0.19397579544E+03 -0.38677686289E+03  0.54374569297E+03  0.69489735179E+03  0.50400001928E-02 0.  1.
       -1    1    3    3    0  502 -0.19397579544E+03  0.38677686289E+03 -0.14248467495E+03  0.45554893645E+03  0.50400001928E-02 0. -1.
</event>
<event>
 5   0  0.7712816E-03  0.1139480E+04  0.7818609E-02  0.9167544E-01
        2   -1    0    0  501    0  0.00000000000E+00  0.00000000000E+00  0.11253072480E+04  0.11253072480E+04  0.25500000920E-02 0. -1.
       -2   -1    0    0    0  501  0.00000000000E+00  0.00000000000E+00 -0.28845773896E+03  0.28845773897E+03  0.25500000920E-02 0.  1.
    10030    2    1    2    0    0  0.00000000000E+00  0.00000000000E+00  0.83684950901E+03  0.14137649869E+04  0.11394798539E+04 0.  0.
        2    1    3    3  502    0  0.28565739376E+03  0.45578460455E+03  0.18543580533E+03  0.56896941065E+03  0.25500000920E-02 0.  1.
       -2    1    3    3    0  502 -0.28565739376E+03 -0.45578460455E+03  0.65141370368E+03  0.84479557628E+03  0.25500000920E-02 0. -1.
</event>
<event>
 5   0  0.4641021E-03  0.1092340E+04  0.7818609E-02  0.9212690E-01
       -1   -1    0    0    0  501  0.00000000000E+00  0.00000000000E+00  0.16376073739E+03  0.16376073747E+03  0.50400001928E-02 0.  1.
        1   -1    0    0  501    0  0.00000000000E+00  0.00000000000E+00 -0.18215706745E+04  0.18215706745E+04  0.50400001928E-02 0. -1.
    10030    2    1    2    0    0  0.00000000000E+00  0.00000000000E+00 -0.16578099371E+04  0.19853314119E+04  0.10923401612E+04 0.  0.
        1    1    3    3  502    0 -0.26234224837E+03  0.47309471861E+03 -0.69217258293E+03  0.87849015512E+03  0.50400001928E-02 0. -1.
       -1    1    3    3    0  502  0.26234224837E+03 -0.47309471861E+03 -0.96563735415E+03  0.11068412568E+04  0.50400001928E-02 0.  1.
</event>
<event>
 5   0  0.4428114E-03  0.1103948E+04  0.7818609E-02  0.9201353E-01
        1   -1    0    0  501    0  0.00000000000E+00  0.00000000000E+00  0.89716503912E+03  0.89716503914E+03  0.50400001928E-02 0. -1.
       -1   -1    0    0    0  501  0.00000000000E+00  0.00000000000E+00 -0.33959757564E+03  0.33959757568E+03  0.50400001928E-02 0.  1.
    10030    2    1    2    0    0  0.00000000000E+00  0.00000000000E+00  0.55756746348E+03  0.12367626148E+04  0.11039475934E+04 0.  0.
        4    1    3    3  502    0  0.21160252679E+03  0.76571443344E+02 -0.28587281215E+03  0.36381821410E+03  0.12699999809E+01 0.  1.
       -4    1    3    3    0  502 -0.21160252679E+03 -0.76571443344E+02  0.84344027564E+03  0.87294440072E+03  0.12699999809E+01 0. -1.
</event>
<event>
 5   0  0.7766551E-03  0.1110249E+04  0.7818609E-02  0.9195260E-01
       -2   -1    0    0    0  501  0.00000000000E+00  0.00000000000E+00  0.21627136903E+03  0.21627136905E+03  0.25500000920E-02 0.  1.
        2   -1    0    0  501    0  0.00000000000E+00  0.00000000000E+00 -0.14248909311E+04  0.14248909311E+04  0.25500000920E-02 0. -1.
    10030    2    1    2    0    0  0.00000000000E+00  0.00000000000E+00 -0.12086195620E+04  0.16411623001E+04  0.11102488233E+04 0.  0.
        5    1    3    3  502    0  0.13687142455E+03 -0.13271909857E+03 -0.13749474709E+04  0.13881105085E+04  0.46999998093E+01 0. -1.
       -5    1    3    3    0  502 -0.13687142455E+03  0.13271909857E+03  0.16632790887E+03  0.25305179164E+03  0.46999998093E+01 0.  1.
</event>
<event>
 5   0  0.2992375E-03  0.9574035E+03  0.7818609E-02  0.9356539E-01
       -4   -1    0    0    0  501  0.00000000000E+00  0.00000000000E+00  0.38696003941E+03  0.38696212347E+03  0.12699999809E+01 0.  1.
        4   -1    0    0  501    0  0.00000000000E+00  0.00000000000E+00 -0.59218952304E+03  0.59219088485E+03  0.12699999809E+01 0. -1.
    10030    2    1    2    0    0  0.00000000000E+00  0.00000000000E+00 -0.20522948363E+03  0.97915300832E+03  0.95740350572E+03 0.  0.
        2    1    3    3  502    0 -0.76674143776E+02 -0.34793351786E+03 -0.42959441035E+03  0.55811111312E+03  0.25500000920E-02 0. -1.
       -2    1    3    3    0  502  0.76674143776E+02  0.34793351786E+03  0.22436492672E+03  0.42104189521E+03  0.25500000920E-02 0.  1.
</event>
<event>
 5   0  0.4298101E-03  0.1025704E+04  0.7818609E-02  0.9280793E-01
        1   -1    0    0  501    0  0.00000000000E+00  0.00000000000E+00  0.10464942566E+04  0.10464942566E+04  0.50400001928E-02 0.  1.
       -1   -1    0    0    0  501  0.00000000000E+00  0.00000000000E+00 -0.25133186496E+03  0.25133186501E+03  0.50400001928E-02 0. -1.
    10030    2    1    2    0    0  0.00000000000E+00  0.00000000000E+00  0.79516239162E+03  0.12978261216E+04  0.10257043496E+04 0.  0.
        3    1    3    3  502    0 -0.45305683582E+02 -0.41878719988E+03  0.76773786490E+03  0.87570358178E+03  0.10100000352E+00 0.  1.
       -3    1    3    3    0  502  0.45305683582E+02  0.41878719988E+03  0.27424526724E+02  0.42212253981E+03  0.10100000352E+00 0. -1.
</event>
<event>
 5   0  0.4428114E-03  0.1054150E+04  0.7818609E-02  0.9251070E-01
        1   -1    0    0  501    0  0.00000000000E+00  0.00000000000E+00  0.15441983230E+04  0.15441983231E+04  0.50400001928E-02 0. -1.
       -1   -1    0    0    0  501  0.00000000000E+00  0.00000000000E+00 -0.17990444321E+03  0.17990444328E+03  0.50400001928E-02 0.  1.
    10030    2    1    2    0    0  0.00000000000E+00  0.00000000000E+00  0.13642938798E+04  0.17241027663E+04  0.10541501593E+04 0.  0.
        4    1    3    3  502    0 -0.26214503775E+03 -0.42667475314E+03  0.41322567260E+03  0.64925221230E+03  0.12699999809E+01 0.  1.
       -4    1    3    3    0  502  0.26214503775E+03  0.42667475314E+03  0.95106820724E+03  0.10748505540E+04  0.12699999809E+01 0. -1.
</event>
<event>
 5   0  0.4428114E-03  0.1022828E+04  0.7818609E-02  0.9283856E-01
       -1   -1    0    0    0  501  0.00000000000E+00  0.00000000000E+00  0.19380407514E+04  0.19380407514E+04  0.50400001928E-02 0. -1.
        1   -1    0    0  501    0  0.00000000000E+00  0.00000000000E+00 -0.13495295896E+03  0.13495295905E+03  0.50400001928E-02 0.  1.
    10030    2    1    2    0    0  0.00000000000E+00  0.00000000000E+00  0.18030877925E+04  0.20729937105E+04  0.10228281070E+04 0.  0.
        4    1    3    3  502    0  0.15679757013E+03  0.29016426681E+03  0.10940212472E+03  0.34749275895E+03  0.12699999809E+01 0.  1.
       -4    1    3    3    0  502 -0.15679757013E+03 -0.29016426681E+03  0.16936856677E+04  0.17255009515E+04  0.12699999809E+01 0. -1.
</event>
<event>
 5   0  0.7738497E-03  0.1106506E+04  0.7818609E-02  0.9198874E-01
        2   -1    0    0  501    0  0.00000000000E+00  0.00000000000E+00  0.12990463160E+04  0.12990463160E+04  0.25500000920E-02 0. -1.
       -2   -1    0    0    0  501  0.00000000000E+00  0.00000000000E+00 -0.23562566731E+03  0.23562566732E+03  0.25500000920E-02 0.  1.
    10030    2    1    2    0    0  0.00000000000E+00  0.00000000000E+00  0.10634206486E+04  0.15346719833E+04  0.11065055898E+04 0.  0.
        4    1    3    3  502    0 -0.39063383058E+03  0.22047115202E+03  0.82532743486E+02  0.45608725603E+03  0.12699999809E+01 0.  1.
       -4    1    3    3    0  502  0.39063383058E+03 -0.22047115202E+03  0.98088790516E+03  0.10785847272E+04  0.12699999809E+01 0. -1.
</event>
<event>
 5   0  0.2992375E-03  0.1144862E+04  0.7818609E-02  0.9162537E-01
        3   -1    0    0  501    0  0.00000000000E+00  0.00000000000E+00  0.21844384340E+03  0.21844386675E+03  0.10100000352E+00 0.  1.
       -3   -1    0    0    0  501  0.00000000000E+00  0.00000000000E+00 -0.15000522170E+04  0.15000522204E+04  0.10100000352E+00 0. -1.
    10030    2    1    2    0    0  0.00000000000E+00  0.00000000000E+00 -0.12816083736E+04  0.17184960871E+04  0.11448619036E+04 0.  0.
        2    1    3    3  502    0  0.13718561696E+03 -0.13162774233E+03  0.16966804805E+03  0.25481954907E+03  0.25500000920E-02 0.  1.
       -2    1    3    3    0  502 -0.13718561696E+03  0.13162774233E+03 -0.14512764216E+04  0.14636765381E+04  0.25500000920E-02 0. -1.
</event>
<event>
 5   0  0.4298101E-03  0.1095019E+04  0.7818609E-02  0.9210060E-01
       -1   -1    0    0    0  501  0.00000000000E+00  0.00000000000E+00  0.40203935576E+03  0.40203935579E+03  0.50400001928E-02 0. -1.
        1   -1    0    0  501    0  0.00000000000E+00  0.00000000000E+00 -0.74561559829E+03  0.74561559830E+03  0.50400001928E-02 0.  1.
    10030    2    1    2    0    0  0.00000000000E+00  0.00000000000E+00 -0.34357624253E+03  0.11476549541E+04  0.10950192963E+04 0.  0.
        3    1    3    3  502    0  0.41974671562E+03 -0.85534297989E+00  0.19664739935E+03  0.46352804312E+03  0.10100000352E+00 0. -1.
       -3    1    3    3    0  502 -0.41974671562E+03  0.85534297989E+00 -0.54022364188E+03  0.68412691098E+03  0.10100000352E+00 0.  1.
</event>
<event>
 5   0  0.7712816E-03  0.7612225E+03  0.7818609E-02  0.9617907E-01
       -2   -1    0    0    0  501  0.00000000000E+00  0.00000000000E+00  0.12188351158E+03  0.12188351161E+03  0.25500000920E-02 0. -1.
        2   -1    0    0  501    0  0.00000000000E+00  0.00000000000E+00 -0.11885521641E+04  0.11885521641E+04  0.25500000920E-02 0.  1.
    10030    2    1    2    0    0  0.00000000000E+00  0.00000000000E+00 -0.10666686525E+04  0.13104356757E+04  0.76122246807E+03 0.  0.
        2    1    3    3  502    0 -0.16863601085E+03  0.17003563426E+03 -0.24068434728E+02  0.24068550150E+03  0.25500000920E-02 0.  1.
       -2    1    3    3    0  502  0.16863601085E+03 -0.17003563426E+03 -0.10426002178E+04  0.10697501742E+04  0.25500000920E-02 0. -1.
</event>
<event>
 5   0  0.7766551E-03  0.1116670E+04  0.7818609E-02  0.9189095E-01
        2   -1    0    0  501    0  0.00000000000E+00  0.00000000000E+00  0.13463745973E+04  0.13463745973E+04  0.25500000920E-02 0. -1.
       -2   -1    0    0    0  501  0.00000000000E+00  0.00000000000E+00 -0.23153869378E+03  0.23153869379E+03  0.25500000920E-02 0.  1.
    10030    2    1    2    0    0  0.00000000000E+00  0.00000000000E+00  0.11148359035E+04  0.15779132911E+04  0.11166697195E+04 0.  0.
        5    1    3    3  502    0  0.22233493262E+03 -0.16429676394E+03  0.12428424876E+04  0.12732265265E+04  0.46999998093E+01 0. -1.
       -5    1    3    3    0  502 -0.22233493262E+03  0.16429676394E+03 -0.12800658410E+03  0.30468676453E+03  0.46999998093E+01 0.  1.
</event>
<event>
 5   0  0.7952121E-03  0.1109046E+04  0.7818609E-02  0.9196419E-01
       -2   -1    0    0    0  501  0.00000000000E+00  0.00000000000E+00  0.13804812283E+03  0.13804812286E+03  0.25500000920E-02 0. -1.
        2   -1    0    0  501    0  0.00000000000E+00  0.00000000000E+00 -0.22274540296E+04  0.22274540296E+04  0.25500000920E-02 0.  1.
    10030    2    1    2    0    0  0.00000000000E+00  0.00000000000E+00 -0.20894059067E+04  0.23655021524E+04  0.11090461623E+04 0.  0.
        3    1    3    3  502    0  0.99928949763E+02  0.18723061370E+03 -0.21374029311E+04  0.21479134986E+04  0.10100000352E+00 0.  1.
       -3    1    3    3    0  502 -0.99928949763E+02 -0.18723061370E+03  0.47997024336E+02  0.21758865378E+03  0.10100000352E+00 0. -1.
</event>
<event>
 5   0  0.4598561E-03  0.1095778E+04  0.7818609E-02  0.9209316E-01
       -1   -1    0    0    0  501  0.00000000000E+00  0.00000000000E+00  0.27511132791E+03  0.27511132795E+03  0.50400001928E-02 0. -1.
        1   -1    0    0  501    0  0.00000000000E+00  0.00000000000E+00 -0.10911310854E+04  0.10911310854E+04  0.50400001928E-02 0.  1.
    10030    2    1    2    0    0  0.00000000000E+00  0.00000000000E+00 -0.81601975747E+03  0.13662424133E+04  0.10957783021E+04 0.  0.
        2    1    3    3  502    0 -0.46875097882E+03 -0.16063690082E+03 -0.11653345045E+03  0.50903019471E+03  0.25500000920E-02 0. -1.
       -2    1    3    3    0  502  0.46875097882E+03  0.16063690082E+03 -0.69948630702E+03  0.85721221863E+03  0.25500000920E-02 0.  1.
</event>
<event>
 5   0  0.7952121E-03  0.1095731E+04  0.7818609E-02  0.9209363E-01
       -2   -1    0    0    0  501  0.00000000000E+00  0.00000000000E+00  0.84035615580E+03  0.84035615580E+03  0.25500000920E-02 0.  1.
        2   -1    0    0  501    0  0.00000000000E+00  0.00000000000E+00 -0.35717791740E+03  0.35717791741E+03  0.25500000920E-02 0. -1.
    10030    2    1    2    0    0  0.00000000000E+00  0.00000000000E+00  0.48317823840E+03  0.11975340732E+04  0.10957311013E+04 0.  0.
        3    1    3    3  502    0  0.11196690664E+03  0.46016496698E+02  0.82555689458E+03  0.83438498460E+03  0.10100000352E+00 0.  1.
       -3    1    3    3    0  502 -0.11196690664E+03 -0.46016496698E+02 -0.34237865618E+03  0.36314908861E+03  0.10100000352E+00 0. -1.
</event>
<event>
 5   0  0.4504740E-03  0.1111531E+04  0.7818609E-02  0.9194025E-01
        1   -1    0    0  501    0  0.00000000000E+00  0.00000000000E+00  0.90633289431E+03  0.90633289432E+03  0.50400001928E-02 0.  1.
       -1   -1    0    0    0  501  0.00000000000E+00  0.00000000000E+00 -0.34079676717E+03  0.34079676721E+03  0.50400001928E-02 0. -1.
    10030    2    1    2    0    0  0.00000000000E+00  0.00000000000E+00  0.56553612713E+03  0.12471296615E+04  0.11115310529E+04 0.  0.
        5    1    3    3  502    0  0.30018318872E+02 -0.25992188176E+03  0.83287951798E+03  0.87302397765E+03  0.46999998093E+01 0.  1.
       -5    1    3    3    0  502 -0.30018318872E+02  0.25992188176E+03 -0.26734339084E+03  0.37410568388E+03  0.46999998093E+01 0. -1.
</event>
<event>
 5   0  0.4298101E-03  0.1100944E+04  0.7818609E-02  0.9204272E-01
       -1   -1    0    0    0  501  0.00000000000E+00  0.00000000000E+00  0.60476540204E+03  0.60476540206E+03  0.50400001928E-02 0. -1.
        1   -1    0    0  501    0  0.00000000000E+00  0.00000000000E+00 -0.50105274014E+03  0.50105274016E+03  0.50400001928E-02 0.  1.
    10030    2    1    2    0    0  0.00000000000E+00  0.00000000000E+00  0.10371266190E+03  0.11058181422E+04  0.11009438893E+04 0.  0.
        3    1    3    3  502    0  0.14621205944E+03 -0.47233423544E+03 -0.19116891745E+03  0.53011617736E+03  0.10100000352E+00 0.  1.
       -3    1    3    3    0  502 -0.14621205944E+03  0.47233423544E+03  0.29488157935E+03  0.57570196486E+03  0.10100000352E+00 0. -1.
</event>
<event>
 5   0  0.2992375E-03  0.1041627E+04  0.7818609E-02  0.9264031E-01
       -3   -1    0    0    0  501  0.00000000000E+00  0.00000000000E+00  0.34695330809E+03  0.34695332280E+03  0.10100000352E+00 0.  1.
        3   -1    0    0  501    0  0.00000000000E+00  0.00000000000E+00 -0.78179609475E+03  0.78179610128E+03  0.10100000352E+00 0. -1.
    10030    2    1    2    0    0  0.00000000000E+00  0.00000000000E+00 -0.43484278666E+03  0.11287494241E+04  0.10416270989E+04 0.  0.
        5    1    3    3  502    0  0.45961650250E+03  0.20340513217E+03 -0.36522491223E+03  0.62131497944E+03  0.46999998093E+01 0. -1.
       -5    1    3    3    0  502 -0.45961650250E+03 -0.20340513217E+03 -0.69617874425E+02  0.50743444463E+03  0.46999998093E+01 0.  1.
</event>
<event>
 5   0  0.4428114E-03  0.1101887E+04  0.7818609E-02  0.9203355E-01
        1   -1    0    0  501    0  0.00000000000E+00  0.00000000000E+00  0.10039355327E+04  0.10039355327E+04  0.50400001928E-02 0. -1.
       -1   -1    0    0    0  501  0.00000000000E+00  0.00000000000E+00 -0.30234870897E+03  0.30234870901E+03  0.50400001928E-02 0.  1.
    10030    2    1    2    0    0  0.00000000000E+00  0.00000000000E+00  0.70158682369E+03  0.13062842417E+04  0.11018867677E+04 0.  0.
        4    1    3    3  502    0 -0.34041170215E+02  0.25294799867E+03 -0.22803488488E+03  0.34226161474E+03  0.12699999809E+01 0.  1.
       -4    1    3    3    0  502  0.34041170215E+02 -0.25294799867E+03  0.92962170857E+03  0.96402262694E+03  0.12699999809E+01 0. -1.
</event>
<event>
 5   0  0.7738497E-03  0.1098224E+04  0.7818609E-02  0.9206925E-01
        2   -1    0    0  501    0  0.00000000000E+00  0.00000000000E+00  0.76252870803E+03  0.76252870804E+03  0.25500000920E-02 0.  1.
       -2   -1    0    0    0  501  0.00000000000E+00  0.00000000000E+00 -0.39542623718E+03  0.39542623719E+03  0.25500000920E-02 0. -1.
    10030    2    1    2    0    0  0.00000000000E+00  0.00000000000E+00  0.36710247085E+03  0.11579549452E+04  0.10982237618E+04 0.  0.
        4    1    3    3  502    0  0.35899775302E+03  0.39076306299E+03  0.34635508986E+02  0.53176723240E+03  0.12699999809E+01 0. -1.
       -4    1    3    3    0  502 -0.35899775302E+03 -0.39076306299E+03  0.33246696186E+03  0.62618771283E+03  0.12699999809E+01 0.  1.
</event>
<event>
 5   0  0.4428114E-03  0.8555351E+03  0.7818609E-02  0.9482938E-01
        1   -1    0    0  501    0  0.00000000000E+00  0.00000000000E+00  0.53624624423E+03  0.53624624425E+03  0.50400001928E-02 0. -1.
       -1   -1    0    0    0  501  0.00000000000E+00  0.00000000000E+00 -0.34123334072E+03  0.34123334076E+03  0.50400001928E-02 0.  1.
    10030    2    1    2    0    0  0.00000000000E+00  0.00000000000E+00  0.19501290351E+03  0.87747958501E+03  0.85553514807E+03 0.  0.
        4    1    3    3  502    0  0.31746773730E+03 -0.14115619297E+03 -0.15843924763E+03  0.38185788342E+03  0.12699999809E+01 0. -1.
       -4    1    3    3    0  502 -0.31746773730E+03  0.14115619297E+03  0.35345215114E+03  0.49562170159E+03  0.12699999809E+01 0.  1.
</event>
<event>
 5   0  0.7766551E-03  0.1039847E+04  0.7818609E-02  0.9265890E-01
        2   -1    0    0  501    0  0.00000000000E+00  0.00000000000E+00  0.14593450072E+04  0.14593450072E+04  0.25500000920E-02 0. -1.
       -2   -1    0    0    0  501  0.00000000000E+00  0.00000000000E+00 -0.18523403336E+03  0.18523403338E+03  0.25500000920E-02 0.  1.
    10030    2    1    2    0    0  0.00000000000E+00  0.00000000000E+00  0.12741109738E+04  0.16445790406E+04  0.10398468383E+04 0.  0.
        5    1    3    3  502    0  0.23299092542E+03  0.23828014518E+03  0.12681670024E+04  0.13112329446E+04  0.46999998093E+01 0. -1.
       -5    1    3    3    0  502 -0.23299092542E+03 -0.23828014518E+03  0.59439714019E+01  0.33334609599E+03  0.46999998093E+01 0.  1.
</event>
<event>
 5   0  0.4298101E-03  0.1084046E+04  0.7818609E-02  0.9220883E-01
        1   -1    0    0  501    0  0.00000000000E+00  0.00000000000E+00  0.69406360422E+03  0.69406360424E+03  0.50400001928E-02 0.  1.
       -1   -1    0    0    0  501  0.00000000000E+00  0.00000000000E+00 -0.42328792182E+03  0.42328792185E+03  0.50400001928E-02 0. -1.
    10030    2    1    2    0    0  0.00000000000E+00  0.00000000000E+00  0.27077568240E+03  0.11173515261E+04  0.10840456460E+04 0.  0.
        3    1    3    3  502    0  0.15927307425E+03 -0.11126015940E+02  0.66927587825E+03  0.68805661964E+03  0.10100000352E+00 0.  1.
       -3    1    3    3    0  502 -0.15927307425E+03  0.11126015940E+02 -0.39850019585E+03  0.42929490645E+03  0.10100000352E+00 0. -1.
</event>
<event>
 5   0  0.7712816E-03  0.1093119E+04  0.7818609E-02  0.9211924E-01
       -2   -1    0    0    0  501  0.00000000000E+00  0.00000000000E+00  0.76930251950E+03  0.76930251951E+03  0.25500000920E-02 0.  1.
        2   -1    0    0  501    0  0.00000000000E+00  0.00000000000E+00 -0.38830935844E+03  0.38830935845E+03  0.25500000920E-02 0. -1.
    10030    2    1    2    0    0  0.00000000000E+00  0.00000000000E+00  0.38099316106E+03  0.11576118780E+04  0.10931191478E+04 0.  0.
        2    1    3    3  502    0  0.48048774992E+03 -0.10865745674E+03  0.44121876394E+03  0.66132361094E+03  0.25500000920E-02 0.  1.
       -2    1    3    3    0  502 -0.48048774992E+03  0.10865745674E+03 -0.60225602877E+02  0.49628826701E+03  0.25500000920E-02 0. -1.
</event>
<event>
 5   0  0.7738497E-03  0.1035354E+04  0.7818609E-02  0.9270597E-01
        2   -1    0    0  501    0  0.00000000000E+00  0.00000000000E+00  0.14255400370E+04  0.14255400370E+04  0.25500000920E-02 0. -1.
       -2   -1    0    0    0  501  0.00000000000E+00  0.00000000000E+00 -0.18799160478E+03  0.18799160480E+03  0.25500000920E-02 0.  1.
    10030    2    1    2    0    0  0.00000000000E+00  0.00000000000E+00  0.12375484322E+04  0.16135316418E+04  0.10353541602E+04 0.  0.
        4    1    3    3  502    0 -0.31139817091E+03 -0.41347407298E+03  0.63067523699E+03  0.81589368016E+03  0.12699999809E+01 0. -1.
       -4    1    3    3    0  502  0.31139817091E+03  0.41347407298E+03  0.60687319524E+03  0.79763796165E+03  0.12699999809E+01 0.  1.
</event>
<event>
 5   0  0.7712816E-03  0.1090780E+04  0.7818609E-02  0.9214225E-01
        2   -1    0    0  501    0  0.00000000000E+00  0.00000000000E+00  0.12262559178E+04  0.12262559178E+04  0.25500000920E-02 0. -1.
       -2   -1    0    0    0  501  0.00000000000E+00  0.00000000000E+00 -0.24256795293E+03  0.24256795294E+03  0.25500000920E-02 0.  1.
    10030    2    1    2    0    0  0.00000000000E+00  0.00000000000E+00  0.98368796488E+03  0.14688238708E+04  0.10907802487E+04 0.  0.
        2    1    3    3  502    0  0.24430168619E+03  0.48682808276E+03  0.45458742655E+03  0.70946079837E+03  0.25500000920E-02 0.  1.
       -2    1    3    3    0  502 -0.24430168619E+03 -0.48682808276E+03  0.52910053833E+03  0.75936307239E+03  0.25500000920E-02 0. -1.
</event>
<event>
 5   0  0.4428114E-03  0.1096497E+04  0.7818609E-02  0.9208613E-01
        1   -1    0    0  501    0  0.00000000000E+00  0.00000000000E+00  0.28479195377E+03  0.28479195382E+03  0.50400001928E-02 0.  1.
       -1   -1    0    0    0  501  0.00000000000E+00  0.00000000000E+00 -0.10554252309E+04  0.10554252309E+04  0.50400001928E-02 0. -1.
    10030    2    1    2    0    0  0.00000000000E+00  0.00000000000E+00 -0.77063327713E+03  0.13402171847E+04  0.10964973572E+04 0.  0.
        4    1    3    3  502    0  0.81792443416E+02  0.43847198621E+02 -0.10457531436E+04  0.10498637201E+04  0.12699999809E+01 0. -1.
       -4    1    3    3    0  502 -0.81792443416E+02 -0.43847198621E+02  0.27511986642E+03  0.29035346464E+03  0.12699999809E+01 0.  1.
</event>
<event>
 5   0  0.7766551E-03  0.1103143E+04  0.7818609E-02  0.9202134E-01
        2   -1    0    0  501    0  0.00000000000E+00  0.00000000000E+00  0.92794903526E+03  0.92794903526E+03  0.25500000920E-02 0.  1.
       -2   -1    0    0    0  501  0.00000000000E+00  0.00000000000E+00 -0.32785336704E+03  0.32785336705E+03  0.25500000920E-02 0. -1.
    10030    2    1    2    0    0  0.00000000000E+00  0.00000000000E+00  0.60009566821E+03  0.12558024023E+04  0.11031431741E+04 0.  0.
        5    1    3    3  502    0  0.70813888415E+02  0.53884033011E+03  0.19298135875E+03  0.57673859154E+03  0.46999998093E+01 0.  1.
       -5    1    3    3    0  502 -0.70813888415E+02 -0.53884033011E+03  0.40711430946E+03  0.67906381078E+03  0.46999998093E+01 0. -1.
</event>
<event>
 5   0  0.4598561E-03  0.1103182E+04  0.7818609E-02  0.9202096E-01
        1   -1    0    0  501    0  0.00000000000E+00  0.00000000000E+00  0.94746471641E+03  0.94746471643E+03  0.50400001928E-02 0.  1.
       -1   -1    0    0    0  501  0.00000000000E+00  0.00000000000E+00 -0.32112310796E+03  0.32112310800E+03  0.50400001928E-02 0. -1.
    10030    2    1    2    0    0  0.00000000000E+00  0.00000000000E+00  0.62634160845E+03  0.12685878244E+04  0.11031823321E+04 0.  0.
        2    1    3    3  502    0  0.34002077567E+03  0.13923476579E+03 -0.15991576197E+03  0.40071623229E+03  0.25500000920E-02 0. -1.
       -2    1    3    3    0  502 -0.34002077567E+03 -0.13923476579E+03  0.78625737042E+03  0.86787159213E+03  0.25500000920E-02 0.  1.
</event>
<event>
 5   0  0.4641021E-03  0.1115586E+04  0.7818609E-02  0.9190133E-01
       -1   -1    0    0    0  501  0.00000000000E+00  0.00000000000E+00  0.16079111435E+03  0.16079111443E+03  0.50400001928E-02 0. -1.
        1   -1    0    0  501    0  0.00000000000E+00  0.00000000000E+00 -0.19350134698E+04  0.19350134698E+04  0.50400001928E-02 0.  1.
    10030    2    1    2    0    0  0.00000000000E+00  0.00000000000E+00 -0.17742223555E+04  0.20958045843E+04  0.11155858948E+04 0.  0.
        1    1    3    3  502    0  0.16428692336E+03 -0.98947581363E+02 -0.18711267232E+04  0.18809295658E+04  0.50400001928E-02 0.  1.
       -1    1    3    3    0  502 -0.16428692336E+03  0.98947581363E+02  0.96904367764E+02  0.21487501847E+03  0.50400001928E-02 0. -1.
</event>
<event>
 5   0  0.4504740E-03  0.1086207E+04  0.7818609E-02  0.9218741E-01
        1   -1    0    0  501    0  0.00000000000E+00  0.00000000000E+00  0.74537987029E+03  0.74537987031E+03  0.50400001928E-02 0.  1.
       -1   -1    0    0    0  501  0.00000000000E+00  0.00000000000E+00 -0.39571928087E+03  0.39571928090E+03  0.50400001928E-02 0. -1.
    10030    2    1    2    0    0  0.00000000000E+00  0.00000000000E+00  0.34966058942E+03  0.11410991512E+04  0.10862065849E+04 0.  0.
        5    1    3    3  502    0 -0.46411355280E+03 -0.31785408686E+02  0.46921927156E+03  0.66075753261E+03  0.46999998093E+01 0.  1.
       -5    1    3    3    0  502  0.46411355280E+03  0.31785408686E+02 -0.11955868214E+03  0.48034161861E+03  0.46999998093E+01 0. -1.
</event>
<event>
 5   0  0.4428114E-03  0.1112502E+04  0.7818609E-02  0.9193091E-01
        1   -1    0    0  501    0  0.00000000000E+00  0.00000000000E+00  0.16503602637E+04  0.16503602637E+04  0.50400001928E-02 0. -1.
       -1   -1    0    0    0  501  0.00000000000E+00  0.00000000000E+00 -0.18748348589E+03  0.18748348596E+03  0.50400001928E-02 0.  1.
    10030    2    1    2    0    0  0.00000000000E+00  0.00000000000E+00  0.14628767778E+04  0.18378437496E+04  0.11125022162E+04 0.  0.
        4    1    3    3  502    0 -0.41256999607E+03  0.26629585342E+03  0.11631305584E+04  0.12625378378E+04  0.12699999809E+01 0. -1.
       -4    1    3    3    0  502  0.41256999607E+03 -0.26629585342E+03  0.29974621939E+03  0.57530591179E+03  0.12699999809E+01 0.  1.
</event>
<event>
 5   0  0.7537480E-03  0.1082526E+04  0.7818609E-02  0.9222393E-01
       -2   -1    0    0    0  501  0.00000000000E+00  0.00000000000E+00  0.47845025152E+03  0.47845025153E+03  0.25500000920E-02 0. -1.
        2   -1    0    0  501    0  0.00000000000E+00  0.00000000000E+00 -0.61232197222E+03  0.61232197222E+03  0.25500000920E-02 0.  1.
    10030    2    1    2    0    0  0.00000000000E+00  0.00000000000E+00 -0.13387172069E+03  0.10907722238E+04  0.10825259380E+04 0.  0.
        1    1    3    3  502    0  0.47365539485E+03  0.25275782123E+03  0.23604909917E+01  0.53688129154E+03  0.50400001928E-02 0. -1.
       -1    1    3    3    0  502 -0.47365539485E+03 -0.25275782123E+03 -0.13623221168E+03  0.55389093221E+03  0.50400001928E-02 0.  1.
</event>
<event>
 5   0  0.4641021E-03  0.1106588E+04  0.7818609E-02  0.9198794E-01
        1   -1    0    0  501    0  0.00000000000E+00  0.00000000000E+00  0.15314159634E+04  0.15314159634E+04  0.50400001928E-02 0.  1.
       -1   -1    0    0    0  501  0.00000000000E+00  0.00000000000E+00 -0.19990278997E+03  0.19990279004E+03  0.50400001928E-02 0. -1.
    10030    2    1    2    0    0  0.00000000000E+00  0.00000000000E+00  0.13315131735E+04  0.17313187535E+04  0.11065881325E+04 0.  0.
        1    1    3    3  502    0 -0.36667432509E+03  0.36917346997E+03  0.37140709879E+03  0.63928267978E+03  0.50400001928E-02 0. -1.
       -1    1    3    3    0  502  0.36667432509E+03 -0.36917346997E+03  0.96010607468E+03  0.10920360737E+04  0.50400001928E-02 0.  1.
</event>
<event>
 5   0  0.7952121E-03  0.1094506E+04  0.7818609E-02  0.9210563E-01
       -2   -1    0    0    0  501  0.00000000000E+00  0.00000000000E+00  0.19175575395E+03  0.19175575397E+03  0.25500000920E-02 0. -1.
        2   -1    0    0  501    0  0.00000000000E+00  0.00000000000E+00 -0.15618087294E+04  0.15618087294E+04  0.25500000920E-02 0.  1.
    10030    2    1    2    0    0  0.00000000000E+00  0.00000000000E+00 -0.13700529755E+04  0.17535644834E+04  0.10945059350E+04 0.  0.
        3    1    3    3  502    0 -0.48061635694E+03  0.19630921068E+03 -0.40772735351E+03  0.66012952801E+03  0.10100000352E+00 0. -1.
       -3    1    3    3    0  502  0.48061635694E+03 -0.19630921068E+03 -0.96232562197E+03  0.10934349554E+04  0.10100000352E+00 0.  1.
</event>
<event>
 5   0  0.7537480E-03  0.9799559E+03  0.7818609E-02  0.9330806E-01
        2   -1    0    0  501    0  0.00000000000E+00  0.00000000000E+00  0.49494377396E+03  0.49494377396E+03  0.25500000920E-02 0. -1.
       -2   -1    0    0    0  501  0.00000000000E+00  0.00000000000E+00 -0.48506198613E+03  0.48506198614E+03  0.25500000920E-02 0.  1.
    10030    2    1    2    0    0  0.00000000000E+00  0.00000000000E+00  0.98817878262E+01  0.98000576010E+03  0.97995593783E+03 0.  0.
        1    1    3    3  502    0 -0.34704774044E+03  0.15457248992E+03 -0.30449949926E+03  0.48688266950E+03  0.50400001928E-02 0.  1.
       -1    1    3    3    0  502  0.34704774044E+03 -0.15457248992E+03  0.31438128708E+03  0.49312309060E+03  0.50400001928E-02 0. -1.
</event>
<event>
 5   0  0.7537480E-03  0.1103775E+04  0.7818609E-02  0.9201520E-01
       -2   -1    0    0    0  501  0.00000000000E+00  0.00000000000E+00  0.23531965443E+03  0.23531965444E+03  0.25500000920E-02 0.  1.
        2   -1    0    0  501    0  0.00000000000E+00  0.00000000000E+00 -0.12943237795E+04  0.12943237795E+04  0.25500000920E-02 0. -1.
    10030    2    1    2    0    0  0.00000000000E+00  0.00000000000E+00 -0.10590041251E+04  0.15296434339E+04  0.11037750215E+04 0.  0.
        1    1    3    3  502    0 -0.37811051740E+03 -0.38863090911E+03 -0.38696850490E+03  0.66614275549E+03  0.50400001928E-02 0.  1.
       -1    1    3    3    0  502  0.37811051740E+03  0.38863090911E+03 -0.67203562015E+03  0.86350067843E+03  0.50400001928E-02 0. -1.
</event>
<event>
 5   0  0.7766551E-03  0.1086628E+04  0.7818609E-02  0.9218324E-01
       -2   -1    0    0    0  501  0.00000000000E+00  0.00000000000E+00  0.21282760590E+03  0.21282760591E+03  0.25500000920E-02 0.  1.
        2   -1    0    0  501    0  0.00000000000E+00  0.00000000000E+00 -0.13869925680E+04  0.13869925680E+04  0.25500000920E-02 0. -1.
    10030    2    1    2    0    0  0.00000000000E+00  0.00000000000E+00 -0.11741649622E+04  0.15998201740E+04  0.10866283774E+04 0.  0.
        5    1    3    3  502    0 -0.46149686232E+03 -0.13700636857E+01 -0.10091594502E+04  0.11096873961E+04  0.46999998093E+01 0. -1.
       -5    1    3    3    0  502  0.46149686232E+03  0.13700636857E+01 -0.16500551194E+03  0.49013277790E+03  0.46999998093E+01 0.  1.
</event>
<event>
 5   0  0.4504740E-03  0.1051280E+04  0.7818609E-02  0.9254024E-01
        1   -1    0    0  501    0  0.00000000000E+00  0.00000000000E+00  0.42194517655E+03  0.42194517658E+03  0.50400001928E-02 0. -1.
       -1   -1    0    0    0  501  0.00000000000E+00  0.00000000000E+00 -0.65481781198E+03  0.65481781200E+03  0.50400001928E-02 0.  1.
    10030    2    1    2    0    0  0.00000000000E+00  0.00000000000E+00 -0.23287263543E+03  0.10767629886E+04  0.10512796342E+04 0.  0.
        5    1    3    3  502    0 -0.12548503231E+03  0.11132787761E+03  0.39376978831E+03  0.42803869668E+03  0.46999998093E+01 0. -1.
       -5    1    3    3    0  502  0.12548503231E+03 -0.11132787761E+03 -0.62664242374E+03  0.64872429190E+03  0.46999998093E+01 0.  1.
</event>
<event>
 5   0  0.7952121E-03  0.1028803E+04  0.7818609E-02  0.9277506E-01
       -2   -1    0    0    0  501  0.00000000000E+00  0.00000000000E+00  0.36345648855E+03  0.36345648856E+03  0.25500000920E-02 0. -1.
        2   -1    0    0  501    0  0.00000000000E+00  0.00000000000E+00 -0.72803466369E+03  0.72803466370E+03  0.25500000920E-02 0.  1.
    10030    2    1    2    0    0  0.00000000000E+00  0.00000000000E+00 -0.36457817514E+03  0.10914911523E+04  0.10288030374E+04 0.  0.
        3    1    3    3  502    0  0.27153958154E+01  0.48446205482E+03 -0.36573559992E+03  0.60702009454E+03  0.10100000352E+00 0. -1.
       -3    1    3    3    0  502 -0.27153958154E+01 -0.48446205482E+03  0.11574247746E+01  0.48447105772E+03  0.10100000352E+00 0.  1.
</event>
<event>
 5   0  0.4598561E-03  0.1115149E+04  0.7818609E-02  0.9190551E-01
       -1   -1    0    0    0  501  0.00000000000E+00  0.00000000000E+00  0.13009077221E+04  0.13009077221E+04  0.50400001928E-02 0.  1.
        1   -1    0    0  501    0  0.00000000000E+00  0.00000000000E+00 -0.23897869221E+03  0.23897869227E+03  0.50400001928E-02 0. -1.
    10030    2    1    2    0    0  0.00000000000E+00  0.00000000000E+00  0.10619290298E+04  0.15398864143E+04  0.11151488262E+04 0.  0.
        2    1    3    3  502    0 -0.31236503828E+03  0.46157520916E+03  0.50845849221E+03  0.75442271251E+03  0.25500000920E-02 0.  1.
       -2    1    3    3    0  502  0.31236503828E+03 -0.46157520916E+03  0.55347053764E+03  0.78546370182E+03  0.25500000920E-02 0. -1.
</event>
<event>
 5   0  0.4641021E-03  0.1096991E+04  0.7818609E-02  0.9208130E-01
        1   -1    0    0  501    0  0.00000000000E+00  0.00000000000E+00  0.35410359233E+03  0.35410359237E+03  0.50400001928E-02 0.  1.
       -1   -1    0    0    0  501  0.00000000000E+00  0.00000000000E+00 -0.84960227314E+03  0.84960227316E+03  0.50400001928E-02 0. -1.
    10030    2    1    2    0    0  0.00000000000E+00  0.00000000000E+00 -0.49549868081E+03  0.12037058655E+04  0.10969908240E+04 0.  0.
        1    1    3    3  502    0 -0.10668501063E+03 -0.53612243624E+03 -0.29728831922E+03  0.62224537194E+03  0.50400001928E-02 0. -1.
       -1    1    3    3    0  502  0.10668501063E+03  0.53612243624E+03 -0.19821036160E+03  0.58146049359E+03  0.50400001928E-02 0.  1.
</event>
<event>
 5   0  0.4298101E-03  0.1118185E+04  0.7818609E-02  0.9187647E-01
       -1   -1    0    0    0  501  0.00000000000E+00  0.00000000000E+00  0.59667676601E+03  0.59667676603E+03  0.50400001928E-02 0. -1.
        1   -1    0    0  501    0  0.00000000000E+00  0.00000000000E+00 -0.52387563454E+03  0.52387563456E+03  0.50400001928E-02 0.  1.
    10030    2    1    2    0    0  0.00000000000E+00  0.00000000000E+00  0.72801131476E+02  0.11205524006E+04  0.11181849926E+04 0.  0.
        3    1    3    3  502    0  0.52341207416E+03 -0.67306781102E+02 -0.14863598944E+03  0.54825456653E+03  0.10100000352E+00 0. -1.
       -3    1    3    3    0  502 -0.52341207416E+03  0.67306781102E+02  0.22143712091E+03  0.57229783407E+03  0.10100000352E+00 0.  1.
</event>
<event>
 5   0  0.4298101E-03  0.1106613E+04  0.7818609E-02  0.9198770E-01
        1   -1    0    0  501    0  0.00000000000E+00  0.00000000000E+00  0.80153184164E+03  0.80153184165E+03  0.50400001928E-02 0.  1.
       -1   -1    0    0    0  501  0.00000000000E+00  0.00000000000E+00 -0.38195379730E+03  0.38195379734E+03  0.50400001928E-02 0. -1.
    10030    2    1    2    0    0  0.00000000000E+00  0.00000000000E+00  0.41957804433E+03  0.11834856390E+04  0.11066130861E+04 0.  0.
        3    1    3    3  502    0  0.19189482034E+03  0.17481684313E+03  0.73236714245E+03  0.77701106314E+03  0.10100000352E+00 0.  1.
       -3    1    3    3    0  502 -0.19189482034E+03 -0.17481684313E+03 -0.31278909811E+03  0.40647457585E+03  0.10100000352E+00 0. -1.
</event>
<event>
 5   0  0.7712816E-03  0.1095981E+04  0.7818609E-02  0.9209118E-01
       -2   -1    0    0    0  501  0.00000000000E+00  0.00000000000E+00  0.49285770944E+03  0.49285770945E+03  0.25500000920E-02 0. -1.
        2   -1    0    0  501    0  0.00000000000E+00  0.00000000000E+00 -0.60929041573E+03  0.60929041574E+03  0.25500000920E-02 0.  1.
    10030    2    1    2    0    0  0.00000000000E+00  0.00000000000E+00 -0.11643270629E+03  0.11021481252E+04  0.10959808004E+04 0.  0.
        2    1    3    3  502    0  0.42712713330E+00 -0.25484056403E+03  0.42964199034E+03  0.49953592001E+03  0.25500000920E-02 0.  1.
       -2    1    3    3    0  502 -0.42712713330E+00  0.25484056403E+03 -0.54607469663E+03  0.60261220517E+03  0.25500000920E-02 0. -1.
</event>
<event>
 5   0  0.4504740E-03  0.1090943E+04  0.7818609E-02  0.9214065E-01
        1   -1    0    0  501    0  0.00000000000E+00  0.00000000000E+00  0.14582100673E+04  0.14582100674E+04  0.50400001928E-02 0.  1.
       -1   -1    0    0    0  501  0.00000000000E+00  0.00000000000E+00 -0.20404405122E+03  0.20404405128E+03  0.50400001928E-02 0. -1.
    10030    2    1    2    0    0  0.00000000000E+00  0.00000000000E+00  0.12541660161E+04  0.16622541186E+04  0.10909428761E+04 0.  0.
        5    1    3    3  502    0  0.25736070873E+03  0.16762887861E+03 -0.59730957227E+02  0.31292787123E+03  0.46999998093E+01 0. -1.
       -5    1    3    3    0  502 -0.25736070873E+03 -0.16762887861E+03  0.13138969734E+04  0.13493262474E+04  0.46999998093E+01 0.  1.
</event>
<event>
 5   0  0.7766551E-03  0.1092131E+04  0.7818609E-02  0.9212896E-01
       -2   -1    0    0    0  501  0.00000000000E+00  0.00000000000E+00  0.24814511193E+03  0.24814511195E+03  0.25500000920E-02 0.  1.
        2   -1    0    0  501    0  0.00000000000E+00  0.00000000000E+00 -0.12016649575E+04  0.12016649575E+04  0.25500000920E-02 0. -1.
    10030    2    1    2    0    0  0.00000000000E+00  0.00000000000E+00 -0.95351984560E+03  0.14498100695E+04  0.10921305515E+04 0.  0.
        5    1    3    3  502    0 -0.86358941078E+02  0.48261252456E+03 -0.79589329441E+03  0.93479459864E+03  0.46999998093E+01 0. -1.
       -5    1    3    3    0  502  0.86358941078E+02 -0.48261252456E+03 -0.15762655119E+03  0.51501547084E+03  0.46999998093E+01 0.  1.
</event>
<event>
 5   0  0.4598561E-03  0.8641341E+03  0.7818609E-02  0.9471561E-01
       -1   -1    0    0    0  501  0.00000000000E+00  0.00000000000E+00  0.46817934504E+03  0.46817934506E+03  0.50400001928E-02 0.  1.
        1   -1    0    0  501    0  0.00000000000E+00  0.00000000000E+00 -0.39874021150E+03  0.39874021153E+03  0.50400001928E-02 0. -1.
    10030    2    1    2    0    0  0.00000000000E+00  0.00000000000E+00  0.69439133539E+02  0.86691955659E+03  0.86413408933E+03 0.  0.
        2    1    3    3  502    0 -0.24613365365E+01  0.36862537067E+03 -0.19137594305E+03  0.41534982083E+03  0.25500000920E-02 0. -1.
       -2    1    3    3    0  502  0.24613365365E+01 -0.36862537067E+03  0.26081507659E+03  0.45156973576E+03  0.25500000920E-02 0.  1.
</event>
<event>
 5   0  0.2992375E-03  0.1104341E+04  0.7818609E-02  0.9200971E-01
       -4   -1    0    0    0  501  0.00000000000E+00  0.00000000000E+00  0.59124975993E+03  0.59125112390E+03  0.12699999809E+01 0.  1.
        4   -1    0    0  501    0  0.00000000000E+00  0.00000000000E+00 -0.51567140147E+03  0.51567296535E+03  0.12699999809E+01 0. -1.
    10030    2    1    2    0    0  0.00000000000E+00  0.00000000000E+00  0.75578358457E+02  0.11069240893E+04  0.11043409125E+04 0.  0.
        4    1    3    3  502    0  0.56645372059E+02 -0.24935389749E+03 -0.45274756929E+03  0.51996926714E+03  0.12699999809E+01 0. -1.
       -4    1    3    3    0  502 -0.56645372059E+02  0.24935389749E+03  0.52832592775E+03  0.58695482211E+03  0.12699999809E+01 0.  1.
</event>
<event>
 5   0  0.4641021E-03  0.1080951E+04  0.7818609E-02  0.9223960E-01
        1   -1    0    0  501    0  0.00000000000E+00  0.00000000000E+00  0.43002142582E+03  0.43002142585E+03  0.50400001928E-02 0. -1.
       -1   -1    0    0    0  501  0.00000000000E+00  0.00000000000E+00 -0.67930039446E+03  0.67930039447E+03  0.50400001928E-02 0.  1.
    10030    2    1    2    0    0  0.00000000000E+00  0.00000000000E+00 -0.24927896864E+03  0.11093218203E+04  0.10809509225E+04 0.  0.
        1    1    3    3  502    0 -0.18293865334E+03  0.36291063621E+03 -0.49028144764E+03  0.63682539105E+03  0.50400001928E-02 0.  1.
       -1    1    3    3    0  502  0.18293865334E+03 -0.36291063621E+03  0.24100247900E+03  0.47249642927E+03  0.50400001928E-02 0. -1.
</event>
<event>
 5   0  0.4598561E-03  0.8689568E+03  0.7818609E-02  0.9465241E-01
       -1   -1    0    0    0  501  0.00000000000E+00  0.00000000000E+00  0.10407502607E+03  0.10407502620E+03  0.50400001928E-02 0.  1.
        1   -1    0    0  501    0  0.00000000000E+00  0.00000000000E+00 -0.18138018379E+04  0.18138018379E+04  0.50400001928E-02 0. -1.
    10030    2    1    2    0    0  0.00000000000E+00  0.00000000000E+00 -0.17097268118E+04  0.19178768641E+04  0.86895678534E+03 0.  0.
        2    1    3    3  502    0  0.38328074683E+03 -0.11072941015E+03 -0.12346283794E+04  0.12974869435E+04  0.25500000920E-02 0.  1.
       -2    1    3    3    0  502 -0.38328074683E+03  0.11072941015E+03 -0.47509843240E+03  0.62038992064E+03  0.25500000920E-02 0. -1.
</event>
<event>
 5   0  0.7537480E-03  0.1106664E+04  0.7818609E-02  0.9198721E-01
        2   -1    0    0  501    0  0.00000000000E+00  0.00000000000E+00  0.42440348266E+03  0.42440348267E+03  0.25500000920E-02 0. -1.
       -2   -1    0    0    0  501  0.00000000000E+00  0.00000000000E+00 -0.72142767275E+03  0.72142767276E+03  0.25500000920E-02 0.  1.
    10030    2    1    2    0    0  0.00000000000E+00  0.00000000000E+00 -0.29702419010E+03  0.11458311554E+04  0.11066642071E+04 0.  0.
        1    1    3    3  502    0  0.34539878926E+03 -0.20887811394E+02 -0.59558059232E+03  0.68880539070E+03  0.50400001928E-02 0.  1.
       -1    1    3    3    0  502 -0.34539878926E+03  0.20887811394E+02  0.29855640222E+03  0.45702576472E+03  0.50400001928E-02 0. -1.
</event>
<event>
 5   0  0.7537480E-03  0.1081091E+04  0.7818609E-02  0.9223821E-01
        2   -1    0    0  501    0  0.00000000000E+00  0.00000000000E+00  0.14275936549E+04  0.14275936549E+04  0.25500000920E-02 0. -1.
       -2   -1    0    0    0  501  0.00000000000E+00  0.00000000000E+00 -0.20467262877E+03  0.20467262879E+03  0.25500000920E-02 0.  1.
    10030    2    1    2    0    0  0.00000000000E+00  0.00000000000E+00  0.12229210262E+04  0.16322662837E+04  0.10810908309E+04 0.  0.
        1    1    3    3  502    0 -0.38618182857E+03  0.76337977454E+02  0.52158779992E+02  0.39709498847E+03  0.50400001928E-02 0.  1.
       -1    1    3    3    0  502  0.38618182857E+03 -0.76337977454E+02  0.11707622462E+04  0.12351712953E+04  0.50400001928E-02 0. -1.
</event>
<event>
 5   0  0.2992375E-03  0.1112111E+04  0.7818609E-02  0.9193468E-01
       -3   -1    0    0    0  501  0.00000000000E+00  0.00000000000E+00  0.13200010439E+03  0.13200014303E+03  0.10100000352E+00 0. -1.
        3   -1    0    0  501    0  0.00000000000E+00  0.00000000000E+00 -0.23424037009E+04  0.23424037031E+04  0.10100000352E+00 0.  1.
    10030    2    1    2    0    0  0.00000000000E+00  0.00000000000E+00 -0.22104035965E+04  0.24744038461E+04  0.11121107563E+04 0.  0.
        2    1    3    3  502    0  0.44443434761E+01  0.35337093898E+03 -0.20603994211E+04  0.20904871555E+04  0.25500000920E-02 0.  1.
       -2    1    3    3    0  502 -0.44443434761E+01 -0.35337093898E+03 -0.15000417541E+03  0.38391669064E+03  0.25500000920E-02 0. -1.
</event>
<event>
 5   0  0.4428114E-03  0.1103208E+04  0.7818609E-02  0.9202071E-01
        1   -1    0    0  501    0  0.00000000000E+00  0.00000000000E+00  0.96727412154E+03  0.96727412155E+03  0.50400001928E-02 0.  1.
       -1   -1    0    0    0  501  0.00000000000E+00  0.00000000000E+00 -0.31456124674E+03  0.31456124678E+03  0.50400001928E-02 0. -1.
    10030    2    1    2    0    0  0.00000000000E+00  0.00000000000E+00  0.65271287480E+03  0.12818353683E+04  0.11032079652E+04 0.  0.
        4    1    3    3  502    0 -0.12274568745E+03  0.50297152316E+03  0.54748253151E+03  0.75351548896E+03  0.12699999809E+01 0.  1.
       -4    1    3    3    0  502  0.12274568745E+03 -0.50297152316E+03  0.10523034329E+03  0.52831987937E+03  0.12699999809E+01 0. -1.
</event>
<event>
 5   0  0.7766551E-03  0.9724613E+03  0.7818609E-02  0.9339275E-01
        2   -1    0    0  501    0  0.00000000000E+00  0.00000000000E+00  0.21229728799E+04  0.21229728799E+04  0.25500000920E-02 0. -1.
       -2   -1    0    0    0  501  0.00000000000E+00  0.00000000000E+00 -0.11136281722E+03  0.11136281725E+03  0.25500000920E-02 0.  1.
    10030    2    1    2    0    0  0.00000000000E+00  0.00000000000E+00  0.20116100627E+04  0.22343356972E+04  0.97246129142E+03 0.  0.
        5    1    3    3  502    0  0.83556660696E+02  0.37777658142E+03  0.32927219581E+03  0.50807394142E+03  0.46999998093E+01 0.  1.
       -5    1    3    3    0  502 -0.83556660696E+02 -0.37777658142E+03  0.16823378669E+04  0.17262617557E+04  0.46999998093E+01 0. -1.
</event>
<event>
 5   0  0.4504740E-03  0.1111069E+04  0.7818609E-02  0.9194470E-01
       -1   -1    0    0    0  501  0.00000000000E+00  0.00000000000E+00  0.38546711319E+03  0.38546711322E+03  0.50400001928E-02 0.  1.
        1   -1    0    0  501    0  0.00000000000E+00  0.00000000000E+00 -0.80063501498E+03  0.80063501499E+03  0.50400001928E-02 0. -1.
    10030    2    1    2    0    0  0.00000000000E+00  0.00000000000E+00 -0.41516790179E+03  0.11861021282E+04  0.11110687971E+04 0.  0.
        5    1    3    3  502    0 -0.54755526751E+03 -0.29217769023E+02 -0.11254399596E+03  0.55978450321E+03  0.46999998093E+01 0.  1.
       -5    1    3    3    0  502  0.54755526751E+03  0.29217769023E+02 -0.30262390583E+03  0.62631762500E+03  0.46999998093E+01 0. -1.
</event>
<event>
 5   0  0.4598561E-03  0.1123659E+04  0.7818609E-02  0.9182434E-01
        1   -1    0    0  501    0  0.00000000000E+00  0.00000000000E+00  0.57675932101E+03  0.57675932103E+03  0.50400001928E-02 0.  1.
       -1   -1    0    0    0  501  0.00000000000E+00  0.00000000000E+00 -0.54728648032E+03  0.54728648035E+03  0.50400001928E-02 0. -1.
    10030    2    1    2    0    0  0.00000000000E+00  0.00000000000E+00  0.29472840689E+02  0.11240458014E+04  0.11236593413E+04 0.  0.
        2    1    3    3  502    0 -0.19280391037E+03 -0.32200196817E+03  0.43296389180E+03  0.57298895885E+03  0.25500000920E-02 0.  1.
       -2    1    3    3    0  502  0.19280391037E+03  0.32200196817E+03 -0.40349105112E+03  0.55105684252E+03  0.25500000920E-02 0. -1.
</event>
<event>
 5   0  0.7766551E-03  0.1101330E+04  0.7818609E-02  0.9203896E-01
       -2   -1    0    0    0  501  0.00000000000E+00  0.00000000000E+00  0.26447270464E+03  0.26447270465E+03  0.25500000920E-02 0. -1.
        2   -1    0    0  501    0  0.00000000000E+00  0.00000000000E+00 -0.11465534200E+04  0.11465534200E+04  0.25500000920E-02 0.  1.
    10030    2    1    2    0    0  0.00000000000E+00  0.00000000000E+00 -0.88208071531E+03  0.14110261246E+04  0.11013302575E+04 0.  0.
        5    1    3    3  502    0 -0.38134391578E+03  0.20115232376E+03 -0.21945633842E+01  0.43117553916E+03  0.46999998093E+01 0. -1.
       -5    1    3    3    0  502  0.38134391578E+03 -0.20115232376E+03 -0.87988615193E+03  0.97985058545E+03  0.46999998093E+01 0.  1.
</event>
<event>
 5   0  0.7537480E-03  0.9324261E+03  0.7818609E-02  0.9385931E-01
        2   -1    0    0  501    0  0.00000000000E+00  0.00000000000E+00  0.20149739794E+04  0.20149739794E+04  0.25500000920E-02 0.  1.
       -2   -1    0    0    0  501  0.00000000000E+00  0.00000000000E+00 -0.10786968959E+03  0.10786968962E+03  0.25500000920E-02 0. -1.
    10030    2    1    2    0    0  0.00000000000E+00  0.00000000000E+00  0.19071042898E+04  0.21228436690E+04  0.93242612088E+03 0.  0.
        1    1    3    3  502    0 -0.12810245702E+02  0.32191541920E+03  0.18633527450E+03  0.37217532705E+03  0.50400001928E-02 0. -1.
       -1    1    3    3    0  502  0.12810245702E+02 -0.32191541920E+03  0.17207690153E+04  0.17506683420E+04  0.50400001928E-02 0.  1.
</event>
<event>
 5   0  0.4598561E-03  0.1077379E+04  0.7818609E-02  0.9227525E-01
        1   -1    0    0  501    0  0.00000000000E+00  0.00000000000E+00  0.70072547522E+03  0.70072547524E+03  0.50400001928E-02 0. -1.
       -1   -1    0    0    0  501  0.00000000000E+00  0.00000000000E+00 -0.41412246971E+03  0.41412246974E+03  0.50400001928E-02 0.  1.
    10030    2    1    2    0    0  0.00000000000E+00  0.00000000000E+00  0.28660300550E+03  0.11148479450E+04  0.10773786046E+04 0.  0.
        2    1    3    3  502    0  0.17981202872E+03  0.28356962358E+03  0.57919017739E+03  0.66948141026E+03  0.25500000920E-02 0. -1.
       -2    1    3    3    0  502 -0.17981202872E+03 -0.28356962358E+03 -0.29258717189E+03  0.44536653472E+03  0.25500000920E-02 0.  1.
</event>
<event>
 5   0  0.4504740E-03  0.1129235E+04  0.7818609E-02  0.9177157E-01
       -1   -1    0    0    0  501  0.00000000000E+00  0.00000000000E+00  0.44921016973E+03  0.44921016976E+03  0.50400001928E-02 0. -1.
        1   -1    0    0  501    0  0.00000000000E+00  0.00000000000E+00 -0.70967460460E+03  0.70967460461E+03  0.50400001928E-02 0.  1.
    10030    2    1    2    0    0  0.00000000000E+00  0.00000000000E+00 -0.26046443486E+03  0.11588847744E+04  0.11292352272E+04 0.  0.
        5    1    3    3  502    0  0.27887997931E+03  0.13629578154E+03  0.35376529021E+03  0.47066182497E+03  0.46999998093E+01 0. -1.
       -5    1    3    3    0  502 -0.27887997931E+03 -0.13629578154E+03 -0.61422972507E+03  0.68822294941E+03  0.46999998093E+01 0.  1.
</event>
<event>
 5   0  0.4298101E-03  0.1115271E+04  0.7818609E-02  0.9190434E-01
        1   -1    0    0  501    0  0.00000000000E+00  0.00000000000E+00  0.15262296243E+04  0.15262296243E+04  0.50400001928E-02 0. -1.
       -1   -1    0    0    0  501  0.00000000000E+00  0.00000000000E+00 -0.20374222263E+03  0.20374222269E+03  0.50400001928E-02 0.  1.
    10030    2    1    2    0    0  0.00000000000E+00  0.00000000000E+00  0.13224874016E+04  0.17299718470E+04  0.11152711167E+04 0.  0.
        3    1    3    3  502    0  0.75458905107E+02  0.52946660797E+03  0.41633376953E+03  0.67776305090E+03  0.10100000352E+00 0.  1.
       -3    1    3    3    0  502 -0.75458905107E+02 -0.52946660797E+03  0.90615363212E+03  0.10522087961E+04  0.10100000352E+00 0. -1.
</event>
<event>
 5   0  0.4298101E-03  0.1216091E+04  0.7818609E-02  0.9098887E-01
       -1   -1    0    0    0  501  0.00000000000E+00  0.00000000000E+00  0.36748893761E+03  0.36748893764E+03  0.50400001928E-02 0.  1.
        1   -1    0    0  501    0  0.00000000000E+00  0.00000000000E+00 -0.10060697824E+04  0.10060697824E+04  0.50400001928E-02 0. -1.
    10030    2    1    2    0    0  0.00000000000E+00  0.00000000000E+00 -0.63858084482E+03  0.13735587201E+04  0.12160913050E+04 0.  0.
        3    1    3    3  502    0  0.10523662331E+03 -0.44316594532E+03  0.13566795300E+03  0.47526477426E+03  0.10100000352E+00 0.  1.
       -3    1    3    3    0  502 -0.10523662331E+03  0.44316594532E+03 -0.77424879782E+03  0.89829394582E+03  0.10100000352E+00 0. -1.
</event>
<event>
 5   0  0.4504740E-03  0.1101294E+04  0.7818609E-02  0.9203931E-01
       -1   -1    0    0    0  501  0.00000000000E+00  0.00000000000E+00  0.59314783979E+03  0.59314783981E+03  0.50400001928E-02 0. -1.
        1   -1    0    0  501    0  0.00000000000E+00  0.00000000000E+00 -0.51119173747E+03  0.51119173749E+03  0.50400001928E-02 0.  1.
    10030    2    1    2    0    0  0.00000000000E+00  0.00000000000E+00  0.81956102323E+02  0.11043395773E+04  0.11012942837E+04 0.  0.
        5    1    3    3  502    0  0.10687154508E+03  0.48618935073E+03  0.27697660382E+03  0.56968389566E+03  0.46999998093E+01 0. -1.
       -5    1    3    3    0  502 -0.10687154508E+03 -0.48618935073E+03 -0.19502050150E+03  0.53465568164E+03  0.46999998093E+01 0.  1.
</event>
<event>
 5   0  0.4428114E-03  0.1097918E+04  0.7818609E-02  0.9207223E-01
       -1   -1    0    0    0  501  0.00000000000E+00  0.00000000000E+00  0.35042698955E+03  0.35042698958E+03  0.50400001928E-02 0.  1.
        1   -1    0    0  501    0  0.00000000000E+00  0.00000000000E+00 -0.85996846104E+03  0.85996846106E+03  0.50400001928E-02 0. -1.
    10030    2    1    2    0    0  0.00000000000E+00  0.00000000000E+00 -0.50954147150E+03  0.12103954506E+04  0.10979183193E+04 0.  0.
        4    1    3    3  502    0  0.80558938378E+02 -0.54199222453E+03 -0.21805362887E+03  0.58974088544E+03  0.12699999809E+01 0.  1.
       -4    1    3    3    0  502 -0.80558938378E+02  0.54199222453E+03 -0.29148784263E+03  0.62065456520E+03  0.12699999809E+01 0. -1.
</event>
<event>
 5   0  0.4504740E-03  0.1071096E+04  0.7818609E-02  0.9233831E-01
        1   -1    0    0  501    0  0.00000000000E+00  0.00000000000E+00  0.41926959237E+03  0.41926959240E+03  0.50400001928E-02 0. -1.
       -1   -1    0    0    0  501  0.00000000000E+00  0.00000000000E+00 -0.68407468057E+03  0.68407468059E+03  0.50400001928E-02 0.  1.
    10030    2    1    2    0    0  0.00000000000E+00  0.00000000000E+00 -0.26480508820E+03  0.11033442730E+04  0.10710960975E+04 0.  0.
        5    1    3    3  502    0  0.37214818007E+03  0.27931156315E+03 -0.40548873306E+03  0.61721343138E+03  0.46999998093E+01 0.  1.
       -5    1    3    3    0  502 -0.37214818007E+03 -0.27931156315E+03  0.14068364486E+03  0.48613084161E+03  0.46999998093E+01 0. -1.
</event>
<event>
 5   0  0.7738497E-03  0.1091701E+04  0.7818609E-02  0.9213319E-01
        2   -1    0    0  501    0  0.00000000000E+00  0.00000000000E+00  0.31065113172E+03  0.31065113173E+03  0.25500000920E-02 0.  1.
       -2   -1    0    0    0  501  0.00000000000E+00  0.00000000000E+00 -0.95912289758E+03  0.95912289759E+03  0.25500000920E-02 0. -1.
    10030    2    1    2    0    0  0.00000000000E+00  0.00000000000E+00 -0.64847176587E+03  0.12697740293E+04  0.10917007165E+04 0.  0.
        4    1    3    3  502    0 -0.22295568182E+03 -0.44976244548E+03 -0.74896071280E+02  0.50754953237E+03  0.12699999809E+01 0.  1.
       -4    1    3    3    0  502  0.22295568182E+03  0.44976244548E+03 -0.57357569459E+03  0.76222449694E+03  0.12699999809E+01 0. -1.
</event>
<event>
 5   0  0.4298101E-03  0.1112711E+04  0.7818609E-02  0.9192890E-01
       -1   -1    0    0    0  501  0.00000000000E+00  0.00000000000E+00  0.49354225488E+03  0.49354225490E+03  0.50400001928E-02 0.  1.
        1   -1    0    0  501    0  0.00000000000E+00  0.00000000000E+00 -0.62716324640E+03  0.62716324643E+03  0.50400001928E-02 0. -1.
    10030    2    1    2    0    0  0.00000000000E+00  0.00000000000E+00 -0.13362099153E+03  0.11207055013E+04  0.11127112165E+04 0.  0.
        3    1    3    3  502    0  0.17161230102E+03  0.92202196655E+02 -0.59168750564E+03  0.62293349682E+03  0.10100000352E+00 0. -1.
       -3    1    3    3    0  502 -0.17161230102E+03 -0.92202196655E+02  0.45806651411E+03  0.49777200451E+03  0.10100000352E+00 0.  1.
</event>
<event>
 5   0  0.7952121E-03  0.1087413E+04  0.7818609E-02  0.9217548E-01
        2   -1    0    0  501    0  0.00000000000E+00  0.00000000000E+00  0.89467481792E+03  0.89467481792E+03  0.25500000920E-02 0. -1.
       -2   -1    0    0    0  501  0.00000000000E+00  0.00000000000E+00 -0.33041809518E+03  0.33041809519E+03  0.25500000920E-02 0.  1.
    10030    2    1    2    0    0  0.00000000000E+00  0.00000000000E+00  0.56425672274E+03  0.12250929131E+04  0.10874129835E+04 0.  0.
        3    1    3    3  502    0 -0.38672425790E+03 -0.10688799050E+03  0.69551381072E+03  0.80294468381E+03  0.10100000352E+00 0. -1.
       -3    1    3    3    0  502  0.38672425790E+03  0.10688799050E+03 -0.13125708798E+03  0.42214822930E+03  0.10100000352E+00 0.  1.
</event>
<event>
 5   0  0.7952121E-03  0.1085587E+04  0.7818609E-02  0.9219355E-01
        2   -1    0    0  501    0  0.00000000000E+00  0.00000000000E+00  0.90708586802E+03  0.90708586802E+03  0.25500000920E-02 0.  1.
       -2   -1    0    0    0  501  0.00000000000E+00  0.00000000000E+00 -0.32480346572E+03  0.32480346573E+03  0.25500000920E-02 0. -1.
    10030    2    1    2    0    0  0.00000000000E+00  0.00000000000E+00  0.58228240229E+03  0.12318893338E+04  0.10855867237E+04 0.  0.
        3    1    3    3  502    0 -0.36188568527E+03 -0.27350568378E+03 -0.47122561667E+02  0.45605608677E+03  0.10100000352E+00 0. -1.
       -3    1    3    3    0  502  0.36188568527E+03  0.27350568378E+03  0.62940496396E+03  0.77583324698E+03  0.10100000352E+00 0.  1.
</event>
<event>
 5   0  0.2992375E-03  0.1098571E+04  0.7818609E-02  0.9206586E-01
       -4   -1    0    0    0  501  0.00000000000E+00  0.00000000000E+00  0.56446517808E+03  0.56446660677E+03  0.12699999809E+01 0.  1.
        4   -1    0    0  501    0  0.00000000000E+00  0.00000000000E+00 -0.53451107014E+03  0.53451257890E+03  0.12699999809E+01 0. -1.
    10030    2    1    2    0    0  0.00000000000E+00  0.00000000000E+00  0.29954107942E+02  0.10989791857E+04  0.10985708907E+04 0.  0.
        4    1    3    3  502    0 -0.63506904543E+02  0.36078041908E+03 -0.39446377443E+03  0.53832975020E+03  0.12699999809E+01 0. -1.
       -4    1    3    3    0  502  0.63506904543E+02 -0.36078041908E+03  0.42441788237E+03  0.56064943547E+03  0.12699999809E+01 0.  1.
</event>
<event>
 5   0  0.7766551E-03  0.1097612E+04  0.7818609E-02  0.9207523E-01
       -2   -1    0    0    0  501  0.00000000000E+00  0.00000000000E+00  0.46937347634E+03  0.46937347635E+03  0.25500000920E-02 0.  1.
        2   -1    0    0  501    0  0.00000000000E+00  0.00000000000E+00 -0.64168057112E+03  0.64168057112E+03  0.25500000920E-02 0. -1.
    10030    2    1    2    0    0  0.00000000000E+00  0.00000000000E+00 -0.17230709477E+03  0.11110540475E+04  0.10976116624E+04 0.  0.
        5    1    3    3  502    0  0.24435554118E+03 -0.47080745885E+03  0.56269476911E+02  0.53343944159E+03  0.46999998093E+01 0. -1.
       -5    1    3    3    0  502 -0.24435554118E+03  0.47080745885E+03 -0.22857657168E+03  0.57761460589E+03  0.46999998093E+01 0.  1.
</event>
<event>
 5   0  0.4504740E-03  0.1084517E+04  0.7818609E-02  0.9220415E-01
       -1   -1    0    0    0  501  0.00000000000E+00  0.00000000000E+00  0.14758435655E+04  0.14758435655E+04  0.50400001928E-02 0.  1.
        1   -1    0    0  501    0  0.00000000000E+00  0.00000000000E+00 -0.19923809621E+03  0.19923809628E+03  0.50400001928E-02 0. -1.
    10030    2    1    2    0    0  0.00000000000E+00  0.00000000000E+00  0.12766054693E+04  0.16750816618E+04  0.10845169659E+04 0.  0.
        5    1    3    3  502    0  0.18794207544E+03 -0.53607998632E+02 -0.14291498467E+03  0.24216280490E+03  0.46999998093E+01 0. -1.
       -5    1    3    3    0  502 -0.18794207544E+03  0.53607998632E+02  0.14195204539E+04  0.14329188569E+04  0.46999998093E+01 0.  1.
</event>
<event>
 5   0  0.4598561E-03  0.1153313E+04  0.7818609E-02  0.9154732E-01
       -1   -1    0    0    0  501  0.00000000000E+00  0.00000000000E+00  0.75864098566E+03  0.75864098568E+03  0.50400001928E-02 0. -1.
        1   -1    0    0  501    0  0.00000000000E+00  0.00000000000E+00 -0.43832723609E+03  0.43832723612E+03  0.50400001928E-02 0.  1.
    10030    2    1    2    0    0  0.00000000000E+00  0.00000000000E+00  0.32031374957E+03  0.11969682218E+04  0.11533134985E+04 0.  0.
        2    1    3    3  502    0  0.29743587211E+03 -0.40617665474E+03  0.45202286753E+03  0.67658868277E+03  0.25500000920E-02 0. -1.
       -2    1    3    3    0  502 -0.29743587211E+03  0.40617665474E+03 -0.13170911796E+03  0.52037953902E+03  0.25500000920E-02 0.  1.
</event>
<event>
 5   0  0.7766551E-03  0.1097652E+04  0.7818609E-02  0.9207484E-01
        2   -1    0    0  501    0  0.00000000000E+00  0.00000000000E+00  0.10180625836E+04  0.10180625836E+04  0.25500000920E-02 0.  1.
       -2   -1    0    0    0  501  0.00000000000E+00  0.00000000000E+00 -0.29586574792E+03  0.29586574793E+03  0.25500000920E-02 0. -1.
    10030    2    1    2    0    0  0.00000000000E+00  0.00000000000E+00  0.72219683572E+03  0.13139283316E+04  0.10976517622E+04 0.  0.
        5    1    3    3  502    0  0.34894280251E+03 -0.40776826548E+03  0.22382122961E+03  0.58151016377E+03  0.46999998093E+01 0.  1.
       -5    1    3    3    0  502 -0.34894280251E+03  0.40776826548E+03  0.49837560611E+03  0.73241816779E+03  0.46999998093E+01 0. -1.
</event>
<event>
 5   0  0.7537480E-03  0.1155359E+04  0.7818609E-02  0.9152854E-01
        2   -1    0    0  501    0  0.00000000000E+00  0.00000000000E+00  0.32119661553E+03  0.32119661554E+03  0.25500000920E-02 0.  1.
       -2   -1    0    0    0  501  0.00000000000E+00  0.00000000000E+00 -0.10389703412E+04  0.10389703412E+04  0.25500000920E-02 0. -1.
    10030    2    1    2    0    0  0.00000000000E+00  0.00000000000E+00 -0.71777372570E+03  0.13601669568E+04  0.11553592640E+04 0.  0.
        1    1    3    3  502    0  0.28695080079E+03  0.17133338036E+03 -0.91360087067E+03  0.97281161599E+03  0.50400001928E-02 0. -1.
       -1    1    3    3    0  502 -0.28695080079E+03 -0.17133338036E+03  0.19582714497E+03  0.38735534078E+03  0.50400001928E-02 0.  1.
</event>
<event>
 5   0  0.4598561E-03  0.1095541E+04  0.7818609E-02  0.9209549E-01
        1   -1    0    0  501    0  0.00000000000E+00  0.00000000000E+00  0.48629369433E+03  0.48629369436E+03  0.50400001928E-02 0.  1.
       -1   -1    0    0    0  501  0.00000000000E+00  0.00000000000E+00 -0.61701873741E+03  0.61701873743E+03  0.50400001928E-02 0. -1.
    10030    2    1    2    0    0  0.00000000000E+00  0.00000000000E+00 -0.13072504308E+03  0.11033124318E+04  0.10955406361E+04 0.  0.
        2    1    3    3  502    0 -0.29540903713E+03  0.31350469617E+03 -0.40614240814E+03  0.59203323339E+03  0.25500000920E-02 0. -1.
       -2    1    3    3    0  502  0.29540903713E+03 -0.31350469617E+03  0.27541736506E+03  0.51127919840E+03  0.25500000920E-02 0.  1.
</event>
<event>
 5   0  0.7537480E-03  0.1106252E+04  0.7818609E-02  0.9199120E-01
        2   -1    0    0  501    0  0.00000000000E+00  0.00000000000E+00  0.11401618806E+04  0.11401618806E+04  0.25500000920E-02 0. -1.
       -2   -1    0    0    0  501  0.00000000000E+00  0.00000000000E+00 -0.26833750914E+03  0.26833750916E+03  0.25500000920E-02 0.  1.
    10030    2    1    2    0    0  0.00000000000E+00  0.00000000000E+00  0.87182437144E+03  0.14084993897E+04  0.11062516876E+04 0.  0.
        1    1    3    3  502    0 -0.48666255872E+03  0.15795904860E+03  0.70345973798E+03  0.86985464882E+03  0.50400001928E-02 0. -1.
       -1    1    3    3    0  502  0.48666255872E+03 -0.15795904860E+03  0.16836463346E+03  0.53864474092E+03  0.50400001928E-02 0.  1.
</event>
<event>
 5   0  0.4428114E-03  0.1092781E+04  0.7818609E-02  0.9212256E-01
       -1   -1    0    0    0  501  0.00000000000E+00  0.00000000000E+00  0.54229766998E+03  0.54229767000E+03  0.50400001928E-02 0.  1.
        1   -1    0    0  501    0  0.00000000000E+00  0.00000000000E+00 -0.55051463633E+03  0.55051463635E+03  0.50400001928E-02 0. -1.
    10030    2    1    2    0    0  0.00000000000E+00  0.00000000000E+00 -0.82169663560E+01  0.10928123064E+04  0.10927814138E+04 0.  0.
        4    1    3    3  502    0  0.13552662954E+03  0.35984710662E+03 -0.39229954942E+03  0.54932500110E+03  0.12699999809E+01 0. -1.
       -4    1    3    3    0  502 -0.13552662954E+03 -0.35984710662E+03  0.38408258307E+03  0.54348730525E+03  0.12699999809E+01 0.  1.
</event>
<event>
 5   0  0.2992375E-03  0.1087167E+04  0.7818609E-02  0.9217790E-01
       -3   -1    0    0    0  501  0.00000000000E+00  0.00000000000E+00  0.40574467169E+03  0.40574468426E+03  0.10100000352E+00 0.  1.
        3   -1    0    0  501    0  0.00000000000E+00  0.00000000000E+00 -0.72824913604E+03  0.72824914304E+03  0.10100000352E+00 0. -1.
    10030    2    1    2    0    0  0.00000000000E+00  0.00000000000E+00 -0.32250446434E+03  0.11339938273E+04  0.10871673610E+04 0.  0.
        5    1    3    3  502    0  0.37729659252E+03  0.69909372389E+02  0.24032518709E+03  0.45278949261E+03  0.46999998093E+01 0.  1.
       -5    1    3    3    0  502 -0.37729659252E+03 -0.69909372389E+02 -0.56282965143E+03  0.68120433469E+03  0.46999998093E+01 0. -1.
</event>
<event>
 5   0  0.7952121E-03  0.1230744E+04  0.7818609E-02  0.9086364E-01
       -2   -1    0    0    0  501  0.00000000000E+00  0.00000000000E+00  0.36557851959E+03  0.36557851960E+03  0.25500000920E-02 0.  1.
        2   -1    0    0  501    0  0.00000000000E+00  0.00000000000E+00 -0.10358448615E+04  0.10358448616E+04  0.25500000920E-02 0. -1.
    10030    2    1    2    0    0  0.00000000000E+00  0.00000000000E+00 -0.67026634196E+03  0.14014233811E+04  0.12307438905E+04 0.  0.
        3    1    3    3  502    0 -0.27984029143E+03 -0.47059079462E+03 -0.15254614648E+02  0.54772164295E+03  0.10100000352E+00 0.  1.
       -3    1    3    3    0  502  0.27984029143E+03  0.47059079462E+03 -0.65501172731E+03  0.85370173820E+03  0.10100000352E+00 0. -1.
</event>
<event>
 5   0  0.4428114E-03  0.1139939E+04  0.7818609E-02  0.9167115E-01
       -1   -1    0    0    0  501  0.00000000000E+00  0.00000000000E+00  0.43958287227E+03  0.43958287229E+03  0.50400001928E-02 0.  1.
        1   -1    0    0  501    0  0.00000000000E+00  0.00000000000E+00 -0.73903128545E+03  0.73903128547E+03  0.50400001928E-02 0. -1.
    10030    2    1    2    0    0  0.00000000000E+00  0.00000000000E+00 -0.29944841318E+03  0.11786141578E+04  0.11399394636E+04 0.  0.
        4    1    3    3  502    0  0.32741133440E+02 -0.46927847217E+03  0.18301658686E+03  0.50476821436E+03  0.12699999809E+01 0. -1.
       -4    1    3    3    0  502 -0.32741133440E+02  0.46927847217E+03 -0.48246500004E+03  0.67384594340E+03  0.12699999809E+01 0.  1.
</event>
<event>
 5   0  0.7952121E-03  0.1080332E+04  0.7818609E-02  0.9224576E-01
       -2   -1    0    0    0  501  0.00000000000E+00  0.00000000000E+00  0.24218655673E+03  0.24218655674E+03  0.25500000920E-02 0.  1.
        2   -1    0    0  501    0  0.00000000000E+00  0.00000000000E+00 -0.12047718277E+04  0.12047718277E+04  0.25500000920E-02 0. -1.
    10030    2    1    2    0    0  0.00000000000E+00  0.00000000000E+00 -0.96258527101E+03  0.14469583845E+04  0.10803324315E+04 0.  0.
        3    1    3    3  502    0  0.63365997115E+02 -0.14578878529E+03 -0.11727339235E+04  0.11834586960E+04  0.10100000352E+00 0. -1.
       -3    1    3    3    0  502 -0.63365997115E+02  0.14578878529E+03  0.21014865249E+03  0.26349968852E+03  0.10100000352E+00 0.  1.
</event>
<event>
 5   0  0.7738497E-03  0.1101109E+04  0.7818609E-02  0.9204112E-01
        2   -1    0    0  501    0  0.00000000000E+00  0.00000000000E+00  0.99028157972E+03  0.99028157972E+03  0.25500000920E-02 0.  1.
       -2   -1    0    0    0  501  0.00000000000E+00  0.00000000000E+00 -0.30608476053E+03  0.30608476054E+03  0.25500000920E-02 0. -1.
    10030    2    1    2    0    0  0.00000000000E+00  0.00000000000E+00  0.68419681918E+03  0.12963663403E+04  0.11011087143E+04 0.  0.
        4    1    3    3  502    0 -0.33620555661E+03  0.43547227472E+03  0.36674393992E+03  0.66119059939E+03  0.12699999809E+01 0.  1.
       -4    1    3    3    0  502  0.33620555661E+03 -0.43547227472E+03  0.31745287926E+03  0.63517574088E+03  0.12699999809E+01 0. -1.
</event>
<event>
 5   0  0.7712816E-03  0.1087739E+04  0.7818609E-02  0.9217225E-01
       -2   -1    0    0    0  501  0.00000000000E+00  0.00000000000E+00  0.21777157580E+03  0.21777157581E+03  0.25500000920E-02 0.  1.
        2   -1    0    0  501    0  0.00000000000E+00  0.00000000000E+00 -0.13582768588E+04  0.13582768588E+04  0.25500000920E-02 0. -1.
    10030    2    1    2    0    0  0.00000000000E+00  0.00000000000E+00 -0.11405052830E+04  0.15760484346E+04  0.10877391083E+04 0.  0.
        2    1    3    3  502    0 -0.34103169228E+03 -0.16451318172E+03 -0.45664069305E+01  0.37866615135E+03  0.25500000920E-02 0.  1.
       -2    1    3    3    0  502  0.34103169228E+03  0.16451318172E+03 -0.11359388761E+04  0.11973822833E+04  0.25500000920E-02 0. -1.
</event>
<event>
 5   0  0.7712816E-03  0.1078771E+04  0.7818609E-02  0.9226134E-01
       -2   -1    0    0    0  501  0.00000000000E+00  0.00000000000E+00  0.24597730070E+03  0.24597730072E+03  0.25500000920E-02 0. -1.
        2   -1    0    0  501    0  0.00000000000E+00  0.00000000000E+00 -0.11827782324E+04  0.11827782324E+04  0.25500000920E-02 0.  1.
    10030    2    1    2    0    0  0.00000000000E+00  0.00000000000E+00 -0.93680093166E+03  0.14287555331E+04  0.10787707763E+04 0.  0.
        2    1    3    3  502    0  0.37643023723E+03 -0.38314907428E+03 -0.53373739701E+03  0.75721763423E+03  0.25500000920E-02 0.  1.
       -2    1    3    3    0  502 -0.37643023723E+03  0.38314907428E+03 -0.40306353466E+03  0.67153789886E+03  0.25500000920E-02 0. -1.
</event>
<event>
 5   0  0.4598561E-03  0.1112477E+04  0.7818609E-02  0.9193116E-01
       -1   -1    0    0    0  501  0.00000000000E+00  0.00000000000E+00  0.49026839896E+03  0.49026839899E+03  0.50400001928E-02 0. -1.
        1   -1    0    0  501    0  0.00000000000E+00  0.00000000000E+00 -0.63108507311E+03  0.63108507313E+03  0.50400001928E-02 0.  1.
    10030    2    1    2    0    0  0.00000000000E+00  0.00000000000E+00 -0.14081667414E+03  0.11213534721E+04  0.11124766396E+04 0.  0.
        2    1    3    3  502    0  0.21555015574E+03 -0.46002605562E+03 -0.29874453162E+03  0.58935060590E+03  0.25500000920E-02 0. -1.
       -2    1    3    3    0  502 -0.21555015574E+03  0.46002605562E+03  0.15792785748E+03  0.53200286622E+03  0.25500000920E-02 0.  1.
</event>
<event>
 5   0  0.7712816E-03  0.1095212E+04  0.7818609E-02  0.9209871E-01
       -2   -1    0    0    0  501  0.00000000000E+00  0.00000000000E+00  0.52785859577E+03  0.52785859578E+03  0.25500000920E-02 0. -1.
        2   -1    0    0  501    0  0.00000000000E+00  0.00000000000E+00 -0.56809266466E+03  0.56809266467E+03  0.25500000920E-02 0.  1.
    10030    2    1    2    0    0  0.00000000000E+00  0.00000000000E+00 -0.40234068896E+02  0.10959512604E+04  0.10952124839E+04 0.  0.
        2    1    3    3  502    0 -0.40486309203E+03  0.27793711743E+03  0.22234670184E+03  0.53907441078E+03  0.25500000920E-02 0. -1.
       -2    1    3    3    0  502  0.40486309203E+03 -0.27793711743E+03 -0.26258077073E+03  0.55687684967E+03  0.25500000920E-02 0.  1.
</event>
<event>
 5   0  0.7766551E-03  0.1114799E+04  0.7818609E-02  0.9190887E-01
        2   -1    0    0  501    0  0.00000000000E+00  0.00000000000E+00  0.16168685947E+04  0.16168685947E+04  0.25500000920E-02 0.  1.
       -2   -1    0    0    0  501  0.00000000000E+00  0.00000000000E+00 -0.19215790629E+03  0.19215790631E+03  0.25500000920E-02 0. -1.
    10030    2    1    2    0    0  0.00000000000E+00  0.00000000000E+00  0.14247106885E+04  0.18090265010E+04  0.11147987871E+04 0.  0.
        5    1    3    3  502    0 -0.47852023190E+03 -0.28263196949E+03  0.64332597498E+03  0.85014871793E+03  0.46999998093E+01 0. -1.
       -5    1    3    3    0  502  0.47852023190E+03  0.28263196949E+03  0.78138471347E+03  0.95887778312E+03  0.46999998093E+01 0.  1.
</event>
<event>
 5   0  0.7766551E-03  0.1104607E+04  0.7818609E-02  0.9200714E-01
        2   -1    0    0  501    0  0.00000000000E+00  0.00000000000E+00  0.73362682605E+03  0.73362682605E+03  0.25500000920E-02 0.  1.
       -2   -1    0    0    0  501  0.00000000000E+00  0.00000000000E+00 -0.41579581148E+03  0.41579581149E+03  0.25500000920E-02 0. -1.
    10030    2    1    2    0    0  0.00000000000E+00  0.00000000000E+00  0.31783101457E+03  0.11494226375E+04  0.11046066476E+04 0.  0.
        5    1    3    3  502    0 -0.45720277082E+00 -0.55137729354E+03  0.19181704481E+03  0.58380904202E+03  0.46999998093E+01 0.  1.
       -5    1    3    3    0  502  0.45720277082E+00  0.55137729354E+03  0.12601396976E+03  0.56561359552E+03  0.46999998093E+01 0. -1.
</event>
<event>
 5   0  0.7952121E-03  0.1090588E+04  0.7818609E-02  0.9214414E-01
       -2   -1    0    0    0  501  0.00000000000E+00  0.00000000000E+00  0.25934747566E+03  0.25934747567E+03  0.25500000920E-02 0.  1.
        2   -1    0    0  501    0  0.00000000000E+00  0.00000000000E+00 -0.11465145158E+04  0.11465145158E+04  0.25500000920E-02 0. -1.
    10030    2    1    2    0    0  0.00000000000E+00  0.00000000000E+00 -0.88716704013E+03  0.14058619915E+04  0.10905881816E+04 0.  0.
        3    1    3    3  502    0  0.18746709114E+03  0.48451669030E+03 -0.65714155123E+03  0.83769646173E+03  0.10100000352E+00 0. -1.
       -3    1    3    3    0  502 -0.18746709114E+03 -0.48451669030E+03 -0.23002548890E+03  0.56816552974E+03  0.10100000352E+00 0.  1.
</event>
<event>
 5   0  0.4504740E-03  0.1094697E+04  0.7818609E-02  0.9210376E-01
       -1   -1    0    0    0  501  0.00000000000E+00  0.00000000000E+00  0.65632519244E+03  0.65632519246E+03  0.50400001928E-02 0. -1.
        1   -1    0    0  501    0  0.00000000000E+00  0.00000000000E+00 -0.45646602609E+03  0.45646602612E+03  0.50400001928E-02 0.  1.
    10030    2    1    2    0    0  0.00000000000E+00  0.00000000000E+00  0.19985916634E+03  0.11127912186E+04  0.10946965834E+04 0.  0.
        5    1    3    3  502    0 -0.11766422345E+03 -0.10197043578E+03  0.63331719792E+03  0.65219291811E+03  0.46999998093E+01 0. -1.
       -5    1    3    3    0  502  0.11766422345E+03  0.10197043578E+03 -0.43345803158E+03  0.46059830046E+03  0.46999998093E+01 0.  1.
</event>
<event>
 5   0  0.4641021E-03  0.1098299E+04  0.7818609E-02  0.9206851E-01
        1   -1    0    0  501    0  0.00000000000E+00  0.00000000000E+00  0.56774107517E+03  0.56774107519E+03  0.50400001928E-02 0.  1.
       -1   -1    0    0    0  501  0.00000000000E+00  0.00000000000E+00 -0.53116719846E+03  0.53116719848E+03  0.50400001928E-02 0. -1.
    10030    2    1    2    0    0  0.00000000000E+00  0.00000000000E+00  0.36573876705E+02  0.10989082737E+04  0.10982994790E+04 0.  0.
        1    1    3    3  502    0 -0.54482387799E+03  0.59314296368E+02  0.53151519365E+02  0.55061450019E+03  0.50400001928E-02 0.  1.
       -1    1    3    3    0  502  0.54482387799E+03 -0.59314296368E+02 -0.16577642660E+02  0.54829377348E+03  0.50400001928E-02 0. -1.
</event>
<event>
 5   0  0.7952121E-03  0.1106569E+04  0.7818609E-02  0.9198813E-01
       -2   -1    0    0    0  501  0.00000000000E+00  0.00000000000E+00  0.35478741942E+03  0.35478741943E+03  0.25500000920E-02 0. -1.
        2   -1    0    0  501    0  0.00000000000E+00  0.00000000000E+00 -0.86283734845E+03  0.86283734845E+03  0.25500000920E-02 0.  1.
    10030    2    1    2    0    0  0.00000000000E+00  0.00000000000E+00 -0.50804992903E+03  0.12176247679E+04  0.11065691777E+04 0.  0.
        3    1    3    3  502    0  0.35068956606E+03  0.29969174095E+03 -0.59017650144E+03  0.74907050695E+03  0.10100000352E+00 0.  1.
       -3    1    3    3    0  502 -0.35068956606E+03 -0.29969174095E+03  0.82126572407E+02  0.46855426093E+03  0.10100000352E+00 0. -1.
</event>
<event>
 5   0  0.2992375E-03  0.1091773E+04  0.7818609E-02  0.9213248E-01
        4   -1    0    0  501    0  0.00000000000E+00  0.00000000000E+00  0.34947916993E+03  0.34948147750E+03  0.12699999809E+01 0.  1.
       -4   -1    0    0    0  501  0.00000000000E+00  0.00000000000E+00 -0.85266892904E+03  0.85266987484E+03  0.12699999809E+01 0. -1.
    10030    2    1    2    0    0  0.00000000000E+00  0.00000000000E+00 -0.50318975911E+03  0.12021513523E+04  0.10917728428E+04 0.  0.
        5    1    3    3  502    0 -0.50180579671E+03  0.53938579136E+02 -0.48059055664E+03  0.69692740014E+03  0.46999998093E+01 0. -1.
       -5    1    3    3    0  502  0.50180579671E+03 -0.53938579136E+02 -0.22599202463E+02  0.50522395220E+03  0.46999998093E+01 0.  1.
</event>
<event>
 5   0  0.7738497E-03  0.1144611E+04  0.7818609E-02  0.9162770E-01
       -2   -1    0    0    0  501  0.00000000000E+00  0.00000000000E+00  0.48676604172E+03  0.48676604173E+03  0.25500000920E-02 0.  1.
        2   -1    0    0  501    0  0.00000000000E+00  0.00000000000E+00 -0.67287627901E+03  0.67287627902E+03  0.25500000920E-02 0. -1.
    10030    2    1    2    0    0  0.00000000000E+00  0.00000000000E+00 -0.18611023729E+03  0.11596423207E+04  0.11446105415E+04 0.  0.
        4    1    3    3  502    0 -0.81355101064E+02  0.19797773268E+03  0.44468633514E+03  0.49351938631E+03  0.12699999809E+01 0.  1.
       -4    1    3    3    0  502  0.81355101064E+02 -0.19797773268E+03 -0.63079657242E+03  0.66612293444E+03  0.12699999809E+01 0. -1.
</event>
<event>
 5   0  0.2992375E-03  0.1098569E+04  0.7818609E-02  0.9206588E-01
       -3   -1    0    0    0  501  0.00000000000E+00  0.00000000000E+00  0.67676544593E+03  0.67676545346E+03  0.10100000352E+00 0. -1.
        3   -1    0    0  501    0  0.00000000000E+00  0.00000000000E+00 -0.44581655001E+03  0.44581656145E+03  0.10100000352E+00 0.  1.
    10030    2    1    2    0    0  0.00000000000E+00  0.00000000000E+00  0.23094889592E+03  0.11225820149E+04  0.10985686085E+04 0.  0.
        3    1    3    3  502    0 -0.55678366647E+02  0.30570430302E+03  0.57831900491E+03  0.65651205856E+03  0.10100000352E+00 0. -1.
       -3    1    3    3    0  502  0.55678366647E+02 -0.30570430302E+03 -0.34737010899E+03  0.46606995636E+03  0.10100000352E+00 0.  1.
</event>
<event>
 5   0  0.4428114E-03  0.1098334E+04  0.7818609E-02  0.9206817E-01
        1   -1    0    0  501    0  0.00000000000E+00  0.00000000000E+00  0.11950867994E+04  0.11950867994E+04  0.50400001928E-02 0. -1.
       -1   -1    0    0    0  501  0.00000000000E+00  0.00000000000E+00 -0.25235353906E+03  0.25235353911E+03  0.50400001928E-02 0.  1.
    10030    2    1    2    0    0  0.00000000000E+00  0.00000000000E+00  0.94273326035E+03  0.14474403385E+04  0.10983339808E+04 0.  0.
        4    1    3    3  502    0  0.13499610933E+03  0.10243792728E+03 -0.21703263859E+03  0.27535841660E+03  0.12699999809E+01 0.  1.
       -4    1    3    3    0  502 -0.13499610933E+03 -0.10243792728E+03  0.11597658989E+04  0.11720819219E+04  0.12699999809E+01 0. -1.
</event>
<event>
 5   0  0.7738497E-03  0.1062828E+04  0.7818609E-02  0.9242200E-01
        2   -1    0    0  501    0  0.00000000000E+00  0.00000000000E+00  0.44800955028E+03  0.44800955028E+03  0.25500000920E-02 0. -1.
       -2   -1    0    0    0  501  0.00000000000E+00  0.00000000000E+00 -0.63034510449E+03  0.63034510449E+03  0.25500000920E-02 0.  1.
    10030    2    1    2    0    0  0.00000000000E+00  0.00000000000E+00 -0.18233555421E+03  0.10783546548E+04  0.10628275999E+04 0.  0.
        4    1    3    3  502    0 -0.46850004569E+03  0.87974703148E+02  0.14714051653E+03  0.49888253699E+03  0.12699999809E+01 0. -1.
       -4    1    3    3    0  502  0.46850004569E+03 -0.87974703148E+02 -0.32947607074E+03  0.57947211779E+03  0.12699999809E+01 0.  1.
</event>
<event>
 5   0  0.7537480E-03  0.1122273E+04  0.7818609E-02  0.9183751E-01
       -2   -1    0    0    0  501  0.00000000000E+00  0.00000000000E+00  0.24230015244E+03  0.24230015245E+03  0.25500000920E-02 0. -1.
        2   -1    0    0  501    0  0.00000000000E+00  0.00000000000E+00 -0.12995204059E+04  0.12995204059E+04  0.25500000920E-02 0.  1.
    10030    2    1    2    0    0  0.00000000000E+00  0.00000000000E+00 -0.10572202534E+04  0.15418205583E+04  0.11222726807E+04 0.  0.
        1    1    3    3  502    0  0.26989624006E+03  0.82144056219E+02  0.13778241922E+03  0.31396754839E+03  0.50400001928E-02 0. -1.
       -1    1    3    3    0  502 -0.26989624006E+03 -0.82144056219E+02 -0.11950026726E+04  0.12278530099E+04  0.50400001928E-02 0.  1.
</event>
<event>
 5   0  0.7712816E-03  0.1106609E+04  0.7818609E-02  0.9198775E-01
        2   -1    0    0  501    0  0.00000000000E+00  0.00000000000E+00  0.10397563527E+04  0.10397563527E+04  0.25500000920E-02 0.  1.
       -2   -1    0    0    0  501  0.00000000000E+00  0.00000000000E+00 -0.29443975824E+03  0.29443975825E+03  0.25500000920E-02 0. -1.
    10030    2    1    2    0    0  0.00000000000E+00  0.00000000000E+00  0.74531659446E+03  0.13341961110E+04  0.11066085290E+04 0.  0.
        2    1    3    3  502    0 -0.15678287095E+03  0.34171266214E+03 -0.11678295139E+03  0.39368346401E+03  0.25500000920E-02 0. -1.
       -2    1    3    3    0  502  0.15678287095E+03 -0.34171266214E+03  0.86209954586E+03  0.94051264694E+03  0.25500000920E-02 0.  1.
</event>
<event>
 5   0  0.4298101E-03  0.1111182E+04  0.7818609E-02  0.9194361E-01
        1   -1    0    0  501    0  0.00000000000E+00  0.00000000000E+00  0.99664884712E+03  0.99664884713E+03  0.50400001928E-02 0.  1.
       -1   -1    0    0    0  501  0.00000000000E+00  0.00000000000E+00 -0.30971914744E+03  0.30971914748E+03  0.50400001928E-02 0. -1.
    10030    2    1    2    0    0  0.00000000000E+00  0.00000000000E+00  0.68692969968E+03  0.13063679946E+04  0.11111817696E+04 0.  0.
        3    1    3    3  502    0  0.21843360383E+03 -0.18143968624E+03 -0.21796202537E+03  0.35796795070E+03  0.10100000352E+00 0. -1.
       -3    1    3    3    0  502 -0.21843360383E+03  0.18143968624E+03  0.90489172505E+03  0.94840004391E+03  0.10100000352E+00 0.  1.
</event>
<event>
 5   0  0.2992375E-03  0.1111758E+04  0.7818609E-02  0.9193807E-01
       -3   -1    0    0    0  501  0.00000000000E+00  0.00000000000E+00  0.25041892450E+03  0.25041894487E+03  0.10100000352E+00 0.  1.
        3   -1    0    0  501    0  0.00000000000E+00  0.00000000000E+00 -0.12339375660E+04  0.12339375701E+04  0.10100000352E+00 0. -1.
    10030    2    1    2    0    0  0.00000000000E+00  0.00000000000E+00 -0.98351864145E+03  0.14843565150E+04  0.11117577728E+04 0.  0.
        1    1    3    3  502    0  0.50980013221E+02  0.90611828605E+02 -0.12208406027E+04  0.12252596633E+04  0.50400001928E-02 0. -1.
       -1    1    3    3    0  502 -0.50980013221E+02 -0.90611828605E+02  0.23732196125E+03  0.25909685167E+03  0.50400001928E-02 0.  1.
</event>
<event>
 5   0  0.4641021E-03  0.1056719E+04  0.7818609E-02  0.9248434E-01
       -1   -1    0    0    0  501  0.00000000000E+00  0.00000000000E+00  0.22144357325E+03  0.22144357331E+03  0.50400001928E-02 0. -1.
        1   -1    0    0  501    0  0.00000000000E+00  0.00000000000E+00 -0.12606541777E+04  0.12606541777E+04  0.50400001928E-02 0.  1.
    10030    2    1    2    0    0  0.00000000000E+00  0.00000000000E+00 -0.10392106044E+04  0.14820977510E+04  0.10567190086E+04 0.  0.
        1    1    3    3  502    0 -0.30820445973E+03  0.38927930622E+03 -0.26623145330E+03  0.56338934495E+03  0.50400001928E-02 0. -1.
       -1    1    3    3    0  502  0.30820445973E+03 -0.38927930622E+03 -0.77297915114E+03  0.91870840606E+03  0.50400001928E-02 0.  1.
</event>
<event>
 5   0  0.4598561E-03  0.1107911E+04  0.7818609E-02  0.9197515E-01
       -1   -1    0    0    0  501  0.00000000000E+00  0.00000000000E+00  0.27731445230E+03  0.27731445235E+03  0.50400001928E-02 0.  1.
        1   -1    0    0  501    0  0.00000000000E+00  0.00000000000E+00 -0.11065667822E+04  0.11065667822E+04  0.50400001928E-02 0. -1.
    10030    2    1    2    0    0  0.00000000000E+00  0.00000000000E+00 -0.82925232987E+03  0.13838812345E+04  0.11079114787E+04 0.  0.
        2    1    3    3  502    0 -0.30153162247E+03 -0.32720935001E+03 -0.82678743764E+03  0.93891679351E+03  0.25500000920E-02 0. -1.
       -2    1    3    3    0  502  0.30153162247E+03  0.32720935001E+03 -0.24648922285E+01  0.44496444103E+03  0.25500000920E-02 0.  1.
</event>
<event>
 5   0  0.7712816E-03  0.1104644E+04  0.7818609E-02  0.9200677E-01
       -2   -1    0    0    0  501  0.00000000000E+00  0.00000000000E+00  0.33367439874E+03  0.33367439875E+03  0.25500000920E-02 0. -1.
        2   -1    0    0  501    0  0.00000000000E+00  0.00000000000E+00 -0.91424368899E+03  0.91424368900E+03  0.25500000920E-02 0.  1.
    10030    2    1    2    0    0  0.00000000000E+00  0.00000000000E+00 -0.58056929025E+03  0.12479180877E+04  0.11046442201E+04 0.  0.
        2    1    3    3  502    0 -0.42535148949E+03 -0.66987062788E+02  0.10048191131E+03  0.44216260663E+03  0.25500000920E-02 0. -1.
       -2    1    3    3    0  502  0.42535148949E+03  0.66987062788E+02 -0.68105120157E+03  0.80575548112E+03  0.25500000920E-02 0.  1.
</event>
<event>
 5   0  0.7766551E-03  0.1109209E+04  0.7818609E-02  0.9196263E-01
       -2   -1    0    0    0  501  0.00000000000E+00  0.00000000000E+00  0.21472544404E+03  0.21472544405E+03  0.25500000920E-02 0.  1.
        2   -1    0    0  501    0  0.00000000000E+00  0.00000000000E+00 -0.14324612811E+04  0.14324612811E+04  0.25500000920E-02 0. -1.
    10030    2    1    2    0    0  0.00000000000E+00  0.00000000000E+00 -0.12177358370E+04  0.16471867251E+04  0.11092085190E+04 0.  0.
        5    1    3    3  502    0 -0.41220041708E+03 -0.10914731709E+03 -0.11354534360E+04  0.12128886660E+04  0.46999998093E+01 0. -1.
       -5    1    3    3    0  502  0.41220041708E+03  0.10914731709E+03 -0.82282401017E+02  0.43429805915E+03  0.46999998093E+01 0.  1.
</event>
<event>
 5   0  0.4641021E-03  0.1114925E+04  0.7818609E-02  0.9190766E-01
       -1   -1    0    0    0  501  0.00000000000E+00  0.00000000000E+00  0.50386274328E+03  0.50386274330E+03  0.50400001928E-02 0. -1.
        1   -1    0    0  501    0  0.00000000000E+00  0.00000000000E+00 -0.61676412433E+03  0.61676412435E+03  0.50400001928E-02 0.  1.
    10030    2    1    2    0    0  0.00000000000E+00  0.00000000000E+00 -0.11290138105E+03  0.11206268677E+04  0.11149250444E+04 0.  0.
        1    1    3    3  502    0  0.53221801377E+03 -0.36086246613E+02 -0.21916196717E+03  0.57670633710E+03  0.50400001928E-02 0. -1.
       -1    1    3    3    0  502 -0.53221801377E+03  0.36086246613E+02  0.10626058612E+03  0.54392053055E+03  0.50400001928E-02 0.  1.
</event>
<event>
 5   0  0.7537480E-03  0.1102730E+04  0.7818609E-02  0.9202535E-01
        2   -1    0    0  501    0  0.00000000000E+00  0.00000000000E+00  0.38689904987E+03  0.38689904987E+03  0.25500000920E-02 0. -1.
       -2   -1    0    0    0  501  0.00000000000E+00  0.00000000000E+00 -0.78574366184E+03  0.78574366184E+03  0.25500000920E-02 0.  1.
    10030    2    1    2    0    0  0.00000000000E+00  0.00000000000E+00 -0.39884461197E+03  0.11726427117E+04  0.11027302049E+04 0.  0.
        1    1    3    3  502    0 -0.29359468857E+03  0.28447050563E+03 -0.59285448052E+03  0.72013730971E+03  0.50400001928E-02 0.  1.
       -1    1    3    3    0  502  0.29359468857E+03 -0.28447050563E+03  0.19400986855E+03  0.45250540201E+03  0.50400001928E-02 0. -1.
</event>
<event>
 5   0  0.4641021E-03  0.1091554E+04  0.7818609E-02  0.9213463E-01
       -1   -1    0    0    0  501  0.00000000000E+00  0.00000000000E+00  0.25523030587E+03  0.25523030592E+03  0.50400001928E-02 0.  1.
        1   -1    0    0  501    0  0.00000000000E+00  0.00000000000E+00 -0.11670745513E+04  0.11670745513E+04  0.50400001928E-02 0. -1.
    10030    2    1    2    0    0  0.00000000000E+00  0.00000000000E+00 -0.91184424540E+03  0.14223048572E+04  0.10915544782E+04 0.  0.
        1    1    3    3  502    0 -0.53418592930E+03  0.71881783134E+02 -0.34420331165E+03  0.63952913740E+03  0.50400001928E-02 0.  1.
       -1    1    3    3    0  502  0.53418592930E+03 -0.71881783134E+02 -0.56764093375E+03  0.78277571980E+03  0.50400001928E-02 0. -1.
</event>
<event>
 5   0  0.7766551E-03  0.1104048E+04  0.7818609E-02  0.9201255E-01
       -2   -1    0    0    0  501  0.00000000000E+00  0.00000000000E+00  0.31466981764E+03  0.31466981765E+03  0.25500000920E-02 0.  1.
        2   -1    0    0  501    0  0.00000000000E+00  0.00000000000E+00 -0.96841429921E+03  0.96841429922E+03  0.25500000920E-02 0. -1.
    10030    2    1    2    0    0  0.00000000000E+00  0.00000000000E+00 -0.65374448158E+03  0.12830841169E+04  0.11040484608E+04 0.  0.
        5    1    3    3  502    0  0.20540034839E+03 -0.51198360470E+03 -0.30385829557E+03  0.62981621795E+03  0.46999998093E+01 0. -1.
       -5    1    3    3    0  502 -0.20540034839E+03  0.51198360470E+03 -0.34988618600E+03  0.65326789892E+03  0.46999998093E+01 0.  1.
</event>
<event>
 5   0  0.7537480E-03  0.1158998E+04  0.7818609E-02  0.9149522E-01
        2   -1    0    0  501    0  0.00000000000E+00  0.00000000000E+00  0.64451235288E+03  0.64451235288E+03  0.25500000920E-02 0.  1.
       -2   -1    0    0    0  501  0.00000000000E+00  0.00000000000E+00 -0.52104401130E+03  0.52104401130E+03  0.25500000920E-02 0. -1.
    10030    2    1    2    0    0  0.00000000000E+00  0.00000000000E+00  0.12346834158E+03  0.11655563642E+04  0.11589983636E+04 0.  0.
        1    1    3    3  502    0 -0.55355567635E+03 -0.16909157335E+03  0.90239833500E+02  0.58579781032E+03  0.50400001928E-02 0. -1.
       -1    1    3    3    0  502  0.55355567635E+03  0.16909157335E+03  0.33228508080E+02  0.57975855386E+03  0.50400001928E-02 0.  1.
</event>
<event>
 5   0  0.7766551E-03  0.1066240E+04  0.7818609E-02  0.9238736E-01
       -2   -1    0    0    0  501  0.00000000000E+00  0.00000000000E+00  0.52609053581E+03  0.52609053581E+03  0.25500000920E-02 0. -1.
        2   -1    0    0  501    0  0.00000000000E+00  0.00000000000E+00 -0.54024302686E+03  0.54024302686E+03  0.25500000920E-02 0.  1.
    10030    2    1    2    0    0  0.00000000000E+00  0.00000000000E+00 -0.14152491050E+02  0.10663335627E+04  0.10662396419E+04 0.  0.
        5    1    3    3  502    0 -0.21615701158E+03 -0.23717575659E+03  0.41865886853E+03  0.52751638019E+03  0.46999998093E+01 0. -1.
       -5    1    3    3    0  502  0.21615701158E+03  0.23717575659E+03 -0.43281135958E+03  0.53881718249E+03  0.46999998093E+01 0.  1.
</event>
<event>
 5   0  0.7766551E-03  0.1102672E+04  0.7818609E-02  0.9202591E-01
        2   -1    0    0  501    0  0.00000000000E+00  0.00000000000E+00  0.11334115377E+04  0.11334115377E+04  0.25500000920E-02 0. -1.
       -2   -1    0    0    0  501  0.00000000000E+00  0.00000000000E+00 -0.26819171728E+03  0.26819171729E+03  0.25500000920E-02 0.  1.
    10030    2    1    2    0    0  0.00000000000E+00  0.00000000000E+00  0.86521982037E+03  0.14016032549E+04  0.11026723660E+04 0.  0.
        5    1    3    3  502    0  0.34245835541E+03 -0.40277797401E+03  0.63133105951E+03  0.82347362935E+03  0.46999998093E+01 0. -1.
       -5    1    3    3    0  502 -0.34245835541E+03  0.40277797401E+03  0.23388876086E+03  0.57812962560E+03  0.46999998093E+01 0.  1.
</event>
<event>
 5   0  0.2992375E-03  0.1099419E+04  0.7818609E-02  0.9205758E-01
       -4   -1    0    0    0  501  0.00000000000E+00  0.00000000000E+00  0.78647849677E+03  0.78647952216E+03  0.12699999809E+01 0. -1.
        4   -1    0    0  501    0  0.00000000000E+00  0.00000000000E+00 -0.38421731191E+03  0.38421941084E+03  0.12699999809E+01 0.  1.
    10030    2    1    2    0    0  0.00000000000E+00  0.00000000000E+00  0.40226118486E+03  0.11706989330E+04  0.10994189060E+04 0.  0.
        4    1    3    3  502    0 -0.27215706806E+03 -0.36618075238E+03 -0.12537797807E+03  0.47315860279E+03  0.12699999809E+01 0.  1.
       -4    1    3    3    0  502  0.27215706806E+03  0.36618075238E+03  0.52763916293E+03  0.69754033021E+03  0.12699999809E+01 0. -1.
</event>
<event>
 5   0  0.7537480E-03  0.1103945E+04  0.7818609E-02  0.9201356E-01
       -2   -1    0    0    0  501  0.00000000000E+00  0.00000000000E+00  0.12869813482E+03  0.12869813485E+03  0.25500000920E-02 0.  1.
        2   -1    0    0  501    0  0.00000000000E+00  0.00000000000E+00 -0.23673494196E+04  0.23673494196E+04  0.25500000920E-02 0. -1.
    10030    2    1    2    0    0  0.00000000000E+00  0.00000000000E+00 -0.22386512848E+04  0.24960475545E+04  0.11039446631E+04 0.  0.
        1    1    3    3  502    0  0.46693378674E+03 -0.86958545065E+02 -0.17551706289E+04  0.18182994491E+04  0.50400001928E-02 0. -1.
       -1    1    3    3    0  502 -0.46693378674E+03  0.86958545065E+02 -0.48348065587E+03  0.67774810541E+03  0.50400001928E-02 0.  1.
</event>
<event>
 5   0  0.4598561E-03  0.1080384E+04  0.7818609E-02  0.9224524E-01
       -1   -1    0    0    0  501  0.00000000000E+00  0.00000000000E+00  0.38292941149E+03  0.38292941153E+03  0.50400001928E-02 0. -1.
        1   -1    0    0  501    0  0.00000000000E+00  0.00000000000E+00 -0.76204008850E+03  0.76204008851E+03  0.50400001928E-02 0.  1.
    10030    2    1    2    0    0  0.00000000000E+00  0.00000000000E+00 -0.37911067700E+03  0.11449695000E+04  0.10803843069E+04 0.  0.
        2    1    3    3  502    0 -0.35681856738E+03  0.19805385576E+03  0.18552699507E+03  0.44829129560E+03  0.25500000920E-02 0. -1.
       -2    1    3    3    0  502  0.35681856738E+03 -0.19805385576E+03 -0.56463767207E+03  0.69667820444E+03  0.25500000920E-02 0.  1.
</event>
<event>
 5   0  0.7738497E-03  0.1108122E+04  0.7818609E-02  0.9197311E-01
       -2   -1    0    0    0  501  0.00000000000E+00  0.00000000000E+00  0.38557591919E+03  0.38557591920E+03  0.25500000920E-02 0. -1.
        2   -1    0    0  501    0  0.00000000000E+00  0.00000000000E+00 -0.79616944882E+03  0.79616944882E+03  0.25500000920E-02 0.  1.
    10030    2    1    2    0    0  0.00000000000E+00  0.00000000000E+00 -0.41059352963E+03  0.11817453680E+04  0.11081223165E+04 0.  0.
        4    1    3    3  502    0  0.41580164379E+03 -0.27308527112E+03 -0.46546336969E+03  0.68126671261E+03  0.12699999809E+01 0.  1.
       -4    1    3    3    0  502 -0.41580164379E+03  0.27308527112E+03  0.54869840065E+02  0.50047865542E+03  0.12699999809E+01 0. -1.
</event>
<event>
 5   0  0.4298101E-03  0.1094280E+04  0.7818609E-02  0.9210785E-01
        1   -1    0    0  501    0  0.00000000000E+00  0.00000000000E+00  0.78227398826E+03  0.78227398827E+03  0.50400001928E-02 0. -1.
       -1   -1    0    0    0  501  0.00000000000E+00  0.00000000000E+00 -0.38268197828E+03  0.38268197831E+03  0.50400001928E-02 0.  1.
    10030    2    1    2    0    0  0.00000000000E+00  0.00000000000E+00  0.39959200998E+03  0.11649559666E+04  0.10942799594E+04 0.  0.
        3    1    3    3  502    0  0.15951501974E+03 -0.42431173464E+03 -0.12638590653E+03  0.47059419594E+03  0.10100000352E+00 0.  1.
       -3    1    3    3    0  502 -0.15951501974E+03  0.42431173464E+03  0.52597791651E+03  0.69436177065E+03  0.10100000352E+00 0. -1.
</event>
<event>
 5   0  0.7952121E-03  0.1129818E+04  0.7818609E-02  0.9176607E-01
        2   -1    0    0  501    0  0.00000000000E+00  0.00000000000E+00  0.69131328984E+03  0.69131328985E+03  0.25500000920E-02 0.  1.
       -2   -1    0    0    0  501  0.00000000000E+00  0.00000000000E+00 -0.46161741339E+03  0.46161741340E+03  0.25500000920E-02 0. -1.
    10030    2    1    2    0    0  0.00000000000E+00  0.00000000000E+00  0.22969587645E+03  0.11529307032E+04  0.11298181317E+04 0.  0.
        3    1    3    3  502    0 -0.36323730022E+03 -0.34095237848E+03 -0.15693171259E+03  0.52231928290E+03  0.10100000352E+00 0. -1.
       -3    1    3    3    0  502  0.36323730022E+03  0.34095237848E+03  0.38662758904E+03  0.63061142035E+03  0.10100000352E+00 0.  1.
</event>
<event>
 5   0  0.4428114E-03  0.1082434E+04  0.7818609E-02  0.9222484E-01
       -1   -1    0    0    0  501  0.00000000000E+00  0.00000000000E+00  0.32877677929E+03  0.32877677933E+03  0.50400001928E-02 0.  1.
        1   -1    0    0  501    0  0.00000000000E+00  0.00000000000E+00 -0.89092553222E+03  0.89092553223E+03  0.50400001928E-02 0. -1.
    10030    2    1    2    0    0  0.00000000000E+00  0.00000000000E+00 -0.56214875292E+03  0.12197023116E+04  0.10824336046E+04 0.  0.
        4    1    3    3  502    0 -0.12962872123E+03  0.24626305793E+03  0.24197279944E+03  0.36878387660E+03  0.12699999809E+01 0.  1.
       -4    1    3    3    0  502  0.12962872123E+03 -0.24626305793E+03 -0.80412155237E+03  0.85091843496E+03  0.12699999809E+01 0. -1.
</event>
<event>
 5   0  0.7537480E-03  0.1120135E+04  0.7818609E-02  0.9185786E-01
        2   -1    0    0  501    0  0.00000000000E+00  0.00000000000E+00  0.96491225749E+03  0.96491225749E+03  0.25500000920E-02 0. -1.
       -2   -1    0    0    0  501  0.00000000000E+00  0.00000000000E+00 -0.32508226745E+03  0.32508226746E+03  0.25500000920E-02 0.  1.
    10030    2    1    2    0    0  0.00000000000E+00  0.00000000000E+00  0.63982999004E+03  0.12899945250E+04  0.11201354642E+04 0.  0.
        1    1    3    3  502    0  0.69541963929E+02 -0.37201751468E+02 -0.31865523995E+03  0.32827003676E+03  0.50400001928E-02 0.  1.
       -1    1    3    3    0  502 -0.69541963929E+02  0.37201751468E+02  0.95848522999E+03  0.96172448819E+03  0.50400001928E-02 0. -1.
</event>
<event>
 5   0  0.4504740E-03  0.1084478E+04  0.7818609E-02  0.9220454E-01
       -1   -1    0    0    0  501  0.00000000000E+00  0.00000000000E+00  0.89411440699E+03  0.89411440700E+03  0.50400001928E-02 0. -1.
        1   -1    0    0  501    0  0.00000000000E+00  0.00000000000E+00 -0.32884309345E+03  0.32884309349E+03  0.50400001928E-02 0.  1.
    10030    2    1    2    0    0  0.00000000000E+00  0.00000000000E+00  0.56527131354E+03  0.12229575005E+04  0.10844783954E+04 0.  0.
        5    1    3    3  502    0  0.36888331616E+03  0.33716233370E+03  0.51984777812E+03  0.72112214126E+03  0.46999998093E+01 0. -1.
       -5    1    3    3    0  502 -0.36888331616E+03 -0.33716233370E+03  0.45423535423E+02  0.50183535923E+03  0.46999998093E+01 0.  1.
</event>
<event>
 5   0  0.4428114E-03  0.1024265E+04  0.7818609E-02  0.9282325E-01
       -1   -1    0    0    0  501  0.00000000000E+00  0.00000000000E+00  0.14758674374E+03  0.14758674383E+03  0.50400001928E-02 0. -1.
        1   -1    0    0  501    0  0.00000000000E+00  0.00000000000E+00 -0.17771217244E+04  0.17771217244E+04  0.50400001928E-02 0.  1.
    10030    2    1    2    0    0  0.00000000000E+00  0.00000000000E+00 -0.16295349806E+04  0.19247084682E+04  0.10242648264E+04 0.  0.
        4    1    3    3  502    0 -0.24765483134E+03  0.20378482563E+03 -0.64493699227E+02  0.32714250837E+03  0.12699999809E+01 0. -1.
       -4    1    3    3    0  502  0.24765483134E+03 -0.20378482563E+03 -0.15650412814E+04  0.15975659598E+04  0.12699999809E+01 0.  1.
</event>
<event>
 5   0  0.7952121E-03  0.1086041E+04  0.7818609E-02  0.9218905E-01
        2   -1    0    0  501    0  0.00000000000E+00  0.00000000000E+00  0.18705346225E+04  0.18705346225E+04  0.25500000920E-02 0.  1.
       -2   -1    0    0    0  501  0.00000000000E+00  0.00000000000E+00 -0.15764022384E+03  0.15764022386E+03  0.25500000920E-02 0. -1.
    10030    2    1    2    0    0  0.00000000000E+00  0.00000000000E+00  0.17128943987E+04  0.20281748464E+04  0.10860414294E+04 0.  0.
        3    1    3    3  502    0  0.14802644117E+03 -0.46918106830E+03  0.12856813894E+04  0.13765970171E+04  0.10100000352E+00 0.  1.
       -3    1    3    3    0  502 -0.14802644117E+03  0.46918106830E+03  0.42721300923E+03  0.65157782926E+03  0.10100000352E+00 0. -1.
</event>
<event>
 5   0  0.4504740E-03  0.1095738E+04  0.7818609E-02  0.9209356E-01
       -1   -1    0    0    0  501  0.00000000000E+00  0.00000000000E+00  0.55345060664E+03  0.55345060666E+03  0.50400001928E-02 0.  1.
        1   -1    0    0  501    0  0.00000000000E+00  0.00000000000E+00 -0.54234382391E+03  0.54234382394E+03  0.50400001928E-02 0. -1.
    10030    2    1    2    0    0  0.00000000000E+00  0.00000000000E+00  0.11106782725E+02  0.10957944306E+04  0.10957381409E+04 0.  0.
        5    1    3    3  502    0 -0.23593029201E+03 -0.46279482162E+03  0.17962059556E+03  0.54966153036E+03  0.46999998093E+01 0.  1.
       -5    1    3    3    0  502  0.23593029201E+03  0.46279482162E+03 -0.16851381283E+03  0.54613290024E+03  0.46999998093E+01 0. -1.
</event>
<event>
 5   0  0.4298101E-03  0.1091828E+04  0.7818609E-02  0.9213194E-01
       -1   -1    0    0    0  501  0.00000000000E+00  0.00000000000E+00  0.31228200335E+03  0.31228200339E+03  0.50400001928E-02 0. -1.
        1   -1    0    0  501    0  0.00000000000E+00  0.00000000000E+00 -0.95433657778E+03  0.95433657779E+03  0.50400001928E-02 0.  1.
    10030    2    1    2    0    0  0.00000000000E+00  0.00000000000E+00 -0.64205457443E+03  0.12666185812E+04  0.10918280788E+04 0.  0.
        3    1    3    3  502    0  0.31301995928E+03 -0.93383423287E+02 -0.82845242040E+03  0.89052534030E+03  0.10100000352E+00 0.  1.
       -3    1    3    3    0  502 -0.31301995928E+03  0.93383423287E+02  0.18639784596E+03  0.37609324088E+03  0.10100000352E+00 0. -1.
</event>
<event>
 5   0  0.4598561E-03  0.1112057E+04  0.7818609E-02  0.9193519E-01
       -1   -1    0    0    0  501  0.00000000000E+00  0.00000000000E+00  0.51837434406E+03  0.51837434409E+03  0.50400001928E-02 0.  1.
        1   -1    0    0  501    0  0.00000000000E+00  0.00000000000E+00 -0.59641775260E+03  0.59641775262E+03  0.50400001928E-02 0. -1.
    10030    2    1    2    0    0  0.00000000000E+00  0.00000000000E+00 -0.78043408539E+02  0.11147920967E+04  0.11120569434E+04 0.  0.
        2    1    3    3  502    0  0.53576191676E+03 -0.10589971277E+03 -0.14373953559E+03  0.56472704444E+03  0.25500000920E-02 0. -1.
       -2    1    3    3    0  502 -0.53576191676E+03  0.10589971277E+03  0.65696127055E+02  0.55006505228E+03  0.25500000920E-02 0.  1.
</event>
<event>
 5   0  0.7712816E-03  0.1065280E+04  0.7818609E-02  0.9239709E-01
        2   -1    0    0  501    0  0.00000000000E+00  0.00000000000E+00  0.67182883268E+03  0.67182883268E+03  0.25500000920E-02 0. -1.
       -2   -1    0    0    0  501  0.00000000000E+00  0.00000000000E+00 -0.42228795050E+03  0.42228795051E+03  0.25500000920E-02 0.  1.
    10030    2    1    2    0    0  0.00000000000E+00  0.00000000000E+00  0.24954088218E+03  0.10941167832E+04  0.10652797207E+04 0.  0.
        2    1    3    3  502    0  0.15471033391E+01 -0.72761013130E+02 -0.41715731142E+03  0.42345812194E+03  0.25500000920E-02 0.  1.
       -2    1    3    3    0  502 -0.15471033391E+01  0.72761013130E+02  0.66669819360E+03  0.67065866125E+03  0.25500000920E-02 0. -1.
</event>
<event>
 5   0  0.4598561E-03  0.1096733E+04  0.7818609E-02  0.9208382E-01
       -1   -1    0    0    0  501  0.00000000000E+00  0.00000000000E+00  0.34265587140E+03  0.34265587144E+03  0.50400001928E-02 0. -1.
        1   -1    0    0  501    0  0.00000000000E+00  0.00000000000E+00 -0.87757447622E+03  0.87757447624E+03  0.50400001928E-02 0.  1.
    10030    2    1    2    0    0  0.00000000000E+00  0.00000000000E+00 -0.53491860482E+03  0.12202303477E+04  0.10967334168E+04 0.  0.
        2    1    3    3  502    0 -0.32850447044E+03  0.20025107669E+03 -0.70221628279E+03  0.80070181006E+03  0.25500000920E-02 0.  1.
       -2    1    3    3    0  502  0.32850447044E+03 -0.20025107669E+03  0.16729767797E+03  0.41952853762E+03  0.25500000920E-02 0. -1.
</event>
<event>
 5   0  0.4598561E-03  0.1084330E+04  0.7818609E-02  0.9220601E-01
       -1   -1    0    0    0  501  0.00000000000E+00  0.00000000000E+00  0.44767827220E+03  0.44767827223E+03  0.50400001928E-02 0.  1.
        1   -1    0    0  501    0  0.00000000000E+00  0.00000000000E+00 -0.65659366082E+03  0.65659366084E+03  0.50400001928E-02 0. -1.
    10030    2    1    2    0    0  0.00000000000E+00  0.00000000000E+00 -0.20891538862E+03  0.11042719331E+04  0.10843296835E+04 0.  0.
        2    1    3    3  502    0  0.41035407527E+03  0.30388357020E+03 -0.29003705202E+03  0.58724541963E+03  0.25500000920E-02 0. -1.
       -2    1    3    3    0  502 -0.41035407527E+03 -0.30388357020E+03  0.81121663394E+02  0.51702651344E+03  0.25500000920E-02 0.  1.
</event>
<event>
 5   0  0.4298101E-03  0.1201666E+04  0.7818609E-02  0.9111400E-01
       -1   -1    0    0    0  501  0.00000000000E+00  0.00000000000E+00  0.73881868385E+03  0.73881868387E+03  0.50400001928E-02 0. -1.
        1   -1    0    0  501    0  0.00000000000E+00  0.00000000000E+00 -0.48861796929E+03  0.48861796932E+03  0.50400001928E-02 0.  1.
    10030    2    1    2    0    0  0.00000000000E+00  0.00000000000E+00  0.25020071456E+03  0.12274366532E+04  0.12016656523E+04 0.  0.
        3    1    3    3  502    0  0.55413256466E+03  0.18437630826E+03  0.26934703277E+03  0.64312157212E+03  0.10100000352E+00 0. -1.
       -3    1    3    3    0  502 -0.55413256466E+03 -0.18437630826E+03 -0.19146318215E+02  0.58431508107E+03  0.10100000352E+00 0.  1.
</event>
<event>
 5   0  0.7537480E-03  0.1126288E+04  0.7818609E-02  0.9179942E-01
        2   -1    0    0  501    0  0.00000000000E+00  0.00000000000E+00  0.11306156537E+04  0.11306156537E+04  0.25500000920E-02 0.  1.
       -2   -1    0    0    0  501  0.00000000000E+00  0.00000000000E+00 -0.28049414393E+03  0.28049414394E+03  0.25500000920E-02 0. -1.
    10030    2    1    2    0    0  0.00000000000E+00  0.00000000000E+00  0.85012150979E+03  0.14111097977E+04  0.11262878316E+04 0.  0.
        1    1    3    3  502    0 -0.25748721000E+03  0.28945632494E+03 -0.87010067782E+02  0.39705840790E+03  0.50400001928E-02 0. -1.
       -1    1    3    3    0  502  0.25748721000E+03 -0.28945632494E+03  0.93713157757E+03  0.10140513898E+04  0.50400001928E-02 0.  1.
</event>
<event>
 5   0  0.7738497E-03  0.1128603E+04  0.7818609E-02  0.9177754E-01
       -2   -1    0    0    0  501  0.00000000000E+00  0.00000000000E+00  0.30731024189E+03  0.30731024190E+03  0.25500000920E-02 0. -1.
        2   -1    0    0  501    0  0.00000000000E+00  0.00000000000E+00 -0.10362037522E+04  0.10362037522E+04  0.25500000920E-02 0.  1.
    10030    2    1    2    0    0  0.00000000000E+00  0.00000000000E+00 -0.72889351030E+03  0.13435139941E+04  0.11286027215E+04 0.  0.
        4    1    3    3  502    0  0.37877137477E+03  0.22231086873E+03  0.57346867823E+02  0.44292228760E+03  0.12699999809E+01 0. -1.
       -4    1    3    3    0  502 -0.37877137477E+03 -0.22231086873E+03 -0.78624037812E+03  0.90059170649E+03  0.12699999809E+01 0.  1.
</event>
<event>
 5   0  0.4641021E-03  0.1090777E+04  0.7818609E-02  0.9214228E-01
        1   -1    0    0  501    0  0.00000000000E+00  0.00000000000E+00  0.65147604446E+03  0.65147604448E+03  0.50400001928E-02 0. -1.
       -1   -1    0    0    0  501  0.00000000000E+00  0.00000000000E+00 -0.45657677673E+03  0.45657677676E+03  0.50400001928E-02 0.  1.
    10030    2    1    2    0    0  0.00000000000E+00  0.00000000000E+00  0.19489926773E+03  0.11080528212E+04  0.10907773971E+04 0.  0.
        1    1    3    3  502    0 -0.26483795335E+03  0.45582537376E+01  0.58174850857E+03  0.63921142548E+03  0.50400001928E-02 0. -1.
       -1    1    3    3    0  502  0.26483795335E+03 -0.45582537376E+01 -0.38684924084E+03  0.46884139576E+03  0.50400001928E-02 0.  1.
</event>
<event>
 5   0  0.7537480E-03  0.1094424E+04  0.7818609E-02  0.9210644E-01
       -2   -1    0    0    0  501  0.00000000000E+00  0.00000000000E+00  0.48177523141E+03  0.48177523141E+03  0.25500000920E-02 0.  1.
        2   -1    0    0  501    0  0.00000000000E+00  0.00000000000E+00 -0.62153687045E+03  0.62153687046E+03  0.25500000920E-02 0. -1.
    10030    2    1    2    0    0  0.00000000000E+00  0.00000000000E+00 -0.13976163904E+03  0.11033121019E+04  0.10944241766E+04 0.  0.
        1    1    3    3  502    0  0.34926011541E+03  0.41236924665E+03 -0.15666151950E+03  0.56264896296E+03  0.50400001928E-02 0. -1.
       -1    1    3    3    0  502 -0.34926011541E+03 -0.41236924665E+03  0.16899880453E+02  0.54066313892E+03  0.50400001928E-02 0.  1.
</event>
<event>
 5   0  0.7738497E-03  0.1260411E+04  0.7818609E-02  0.9061563E-01
        2   -1    0    0  501    0  0.00000000000E+00  0.00000000000E+00  0.16054023411E+04  0.16054023411E+04  0.25500000920E-02 0.  1.
       -2   -1    0    0    0  501  0.00000000000E+00  0.00000000000E+00 -0.24738891747E+03  0.24738891748E+03  0.25500000920E-02 0. -1.
    10030    2    1    2    0    0  0.00000000000E+00  0.00000000000E+00  0.13580134236E+04  0.18527912586E+04  0.12604106431E+04 0.  0.
        4    1    3    3  502    0  0.27041893935E+03 -0.44946648931E+03  0.16553889919E+03  0.55004660514E+03  0.12699999809E+01 0. -1.
       -4    1    3    3    0  502 -0.27041893935E+03  0.44946648931E+03  0.11924745244E+04  0.13027446535E+04  0.12699999809E+01 0.  1.
</event>
<event>
 5   0  0.7766551E-03  0.1096510E+04  0.7818609E-02  0.9208600E-01
       -2   -1    0    0    0  501  0.00000000000E+00  0.00000000000E+00  0.13974552079E+04  0.13974552079E+04  0.25500000920E-02 0.  1.
        2   -1    0    0  501    0  0.00000000000E+00  0.00000000000E+00 -0.21509370428E+03  0.21509370430E+03  0.25500000920E-02 0. -1.
    10030    2    1    2    0    0  0.00000000000E+00  0.00000000000E+00  0.11823615036E+04  0.16125489122E+04  0.10965104965E+04 0.  0.
        5    1    3    3  502    0  0.43993659012E+02  0.21176763484E+03 -0.14966781483E+03  0.26306561538E+03  0.46999998093E+01 0. -1.
       -5    1    3    3    0  502 -0.43993659012E+02 -0.21176763484E+03  0.13320293184E+04  0.13494832968E+04  0.46999998093E+01 0.  1.
</event>
<event>
 5   0  0.7537480E-03  0.1099912E+04  0.7818609E-02  0.9205278E-01
       -2   -1    0    0    0  501  0.00000000000E+00  0.00000000000E+00  0.46907594736E+03  0.46907594737E+03  0.25500000920E-02 0.  1.
        2   -1    0    0  501    0  0.00000000000E+00  0.00000000000E+00 -0.64478151643E+03  0.64478151643E+03  0.25500000920E-02 0. -1.
    10030    2    1    2    0    0  0.00000000000E+00  0.00000000000E+00 -0.17570556906E+03  0.11138574638E+04  0.10999118159E+04 0.  0.
        1    1    3    3  502    0  0.48875142093E+03  0.22974419023E+02  0.16641982162E+03  0.51681847147E+03  0.50400001928E-02 0.  1.
       -1    1    3    3    0  502 -0.48875142093E+03 -0.22974419023E+02 -0.34212539068E+03  0.59703899234E+03  0.50400001928E-02 0. -1.
</event>
<event>
 5   0  0.7766551E-03  0.1101272E+04  0.7818609E-02  0.9203953E-01
        2   -1    0    0  501    0  0.00000000000E+00  0.00000000000E+00  0.27655002563E+03  0.27655002565E+03  0.25500000920E-02 0. -1.
       -2   -1    0    0    0  501  0.00000000000E+00  0.00000000000E+00 -0.10963667333E+04  0.10963667333E+04  0.25500000920E-02 0.  1.
    10030    2    1    2    0    0  0.00000000000E+00  0.00000000000E+00 -0.81981670763E+03  0.13729167589E+04  0.11012724426E+04 0.  0.
        5    1    3    3  502    0  0.89281760883E+02  0.53745461052E+03 -0.31056974584E+03  0.62713981553E+03  0.46999998093E+01 0. -1.
       -5    1    3    3    0  502 -0.89281760883E+02 -0.53745461052E+03 -0.50924696179E+03  0.74577694338E+03  0.46999998093E+01 0.  1.
</event>
<event>
 5   0  0.7537480E-03  0.1111684E+04  0.7818609E-02  0.9193878E-01
        2   -1    0    0  501    0  0.00000000000E+00  0.00000000000E+00  0.46828335591E+03  0.46828335592E+03  0.25500000920E-02 0.  1.
       -2   -1    0    0    0  501  0.00000000000E+00  0.00000000000E+00 -0.65977234553E+03  0.65977234554E+03  0.25500000920E-02 0. -1.
    10030    2    1    2    0    0  0.00000000000E+00  0.00000000000E+00 -0.19148898962E+03  0.11280557015E+04  0.11116841424E+04 0.  0.
        1    1    3    3  502    0 -0.52809255072E+03  0.17205642661E+03 -0.11786581913E+03  0.56778297562E+03  0.50400001928E-02 0.  1.
       -1    1    3    3    0  502  0.52809255072E+03 -0.17205642661E+03 -0.73623170491E+02  0.56027272584E+03  0.50400001928E-02 0. -1.
</event>
<event>
 5   0  0.4428114E-03  0.1473753E+04  0.7818609E-02  0.8902097E-01
       -1   -1    0    0    0  501  0.00000000000E+00  0.00000000000E+00  0.65156890394E+03  0.65156890396E+03  0.50400001928E-02 0.  1.
        1   -1    0    0  501    0  0.00000000000E+00  0.00000000000E+00 -0.83335263492E+03  0.83335263493E+03  0.50400001928E-02 0. -1.
    10030    2    1    2    0    0  0.00000000000E+00  0.00000000000E+00 -0.18178373097E+03  0.14849215389E+04  0.14737525748E+04 0.  0.
        4    1    3    3  502    0  0.43326306128E+03  0.49493344158E+03 -0.42553700244E+03  0.78342794512E+03  0.12699999809E+01 0. -1.
       -4    1    3    3    0  502 -0.43326306128E+03 -0.49493344158E+03  0.24375327146E+03  0.70149359377E+03  0.12699999809E+01 0.  1.
</event>
<event>
 5   0  0.4298101E-03  0.1102240E+04  0.7818609E-02  0.9203011E-01
        1   -1    0    0  501    0  0.00000000000E+00  0.00000000000E+00  0.14735666620E+04  0.14735666620E+04  0.50400001928E-02 0.  1.
       -1   -1    0    0    0  501  0.00000000000E+00  0.00000000000E+00 -0.20612123912E+03  0.20612123919E+03  0.50400001928E-02 0. -1.
    10030    2    1    2    0    0  0.00000000000E+00  0.00000000000E+00  0.12674454228E+04  0.16796879012E+04  0.11022402394E+04 0.  0.
        3    1    3    3  502    0  0.40662602686E+03  0.19630304560E+03  0.11152651347E+04  0.12032023697E+04  0.10100000352E+00 0.  1.
       -3    1    3    3    0  502 -0.40662602686E+03 -0.19630304560E+03  0.15218028812E+03  0.47648553149E+03  0.10100000352E+00 0. -1.
</event>
<event>
 5   0  0.7537480E-03  0.9842575E+03  0.7818609E-02  0.9325981E-01
       -2   -1    0    0    0  501  0.00000000000E+00  0.00000000000E+00  0.46500358464E+03  0.46500358465E+03  0.25500000920E-02 0.  1.
        2   -1    0    0  501    0  0.00000000000E+00  0.00000000000E+00 -0.52083616374E+03  0.52083616374E+03  0.25500000920E-02 0. -1.
    10030    2    1    2    0    0  0.00000000000E+00  0.00000000000E+00 -0.55832579099E+02  0.98583974839E+03  0.98425745241E+03 0.  0.
        1    1    3    3  502    0  0.25709943531E+03 -0.21921674105E+03 -0.38631072670E+03  0.51321737771E+03  0.50400001928E-02 0. -1.
       -1    1    3    3    0  502 -0.25709943531E+03  0.21921674105E+03  0.33047814760E+03  0.47262237068E+03  0.50400001928E-02 0.  1.
</event>
<event>
 5   0  0.4598561E-03  0.1106031E+04  0.7818609E-02  0.9199333E-01
        1   -1    0    0  501    0  0.00000000000E+00  0.00000000000E+00  0.13134988057E+04  0.13134988057E+04  0.50400001928E-02 0. -1.
       -1   -1    0    0    0  501  0.00000000000E+00  0.00000000000E+00 -0.23283341581E+03  0.23283341586E+03  0.50400001928E-02 0.  1.
    10030    2    1    2    0    0  0.00000000000E+00  0.00000000000E+00  0.10806653898E+04  0.15463322215E+04  0.11060314889E+04 0.  0.
        2    1    3    3  502    0 -0.34947620873E+03 -0.97058125268E+02  0.11239790282E+04  0.11810515467E+04  0.25500000920E-02 0. -1.
       -2    1    3    3    0  502  0.34947620873E+03  0.97058125268E+02 -0.43313638320E+02  0.36528067485E+03  0.25500000920E-02 0.  1.
</event>
<event>
 5   0  0.7712816E-03  0.7145227E+03  0.7818609E-02  0.9692714E-01
        2   -1    0    0  501    0  0.00000000000E+00  0.00000000000E+00  0.64363791871E+03  0.64363791871E+03  0.25500000920E-02 0.  1.
       -2   -1    0    0    0  501  0.00000000000E+00  0.00000000000E+00 -0.19830352229E+03  0.19830352230E+03  0.25500000920E-02 0. -1.
    10030    2    1    2    0    0  0.00000000000E+00  0.00000000000E+00  0.44533439642E+03  0.84194144102E+03  0.71452268366E+03 0.  0.
        2    1    3    3  502    0  0.33775965195E+02  0.18667385117E+03 -0.13405218405E+03  0.23228846418E+03  0.25500000920E-02 0. -1.
       -2    1    3    3    0  502 -0.33775965195E+02 -0.18667385117E+03  0.57938658047E+03  0.60965297684E+03  0.25500000920E-02 0.  1.
</event>
<event>
 5   0  0.4428114E-03  0.1143731E+04  0.7818609E-02  0.9163587E-01
        1   -1    0    0  501    0  0.00000000000E+00  0.00000000000E+00  0.69871256412E+03  0.69871256414E+03  0.50400001928E-02 0. -1.
       -1   -1    0    0    0  501  0.00000000000E+00  0.00000000000E+00 -0.46804659163E+03  0.46804659166E+03  0.50400001928E-02 0.  1.
    10030    2    1    2    0    0  0.00000000000E+00  0.00000000000E+00  0.23066597249E+03  0.11667591558E+04  0.11437307973E+04 0.  0.
        4    1    3    3  502    0 -0.29420519174E+03  0.26584684552E+03  0.53569420267E+03  0.66648415719E+03  0.12699999809E+01 0. -1.
       -4    1    3    3    0  502  0.29420519174E+03 -0.26584684552E+03 -0.30502823018E+03  0.50027499860E+03  0.12699999809E+01 0.  1.
</event>
<event>
 5   0  0.7766551E-03  0.1097770E+04  0.7818609E-02  0.9207368E-01
        2   -1    0    0  501    0  0.00000000000E+00  0.00000000000E+00  0.19599888579E+03  0.19599888581E+03  0.25500000920E-02 0.  1.
       -2   -1    0    0    0  501  0.00000000000E+00  0.00000000000E+00 -0.15371237072E+04  0.15371237072E+04  0.25500000920E-02 0. -1.
    10030    2    1    2    0    0  0.00000000000E+00  0.00000000000E+00 -0.13411248214E+04  0.17331225930E+04  0.10977696187E+04 0.  0.
        5    1    3    3  502    0  0.15218179787E+03  0.47808893759E+03 -0.10219014630E+04  0.11384344609E+04  0.46999998093E+01 0. -1.
       -5    1    3    3    0  502 -0.15218179787E+03 -0.47808893759E+03 -0.31922335845E+03  0.59468813208E+03  0.46999998093E+01 0.  1.
</event>
<event>
 5   0  0.4428114E-03  0.1106134E+04  0.7818609E-02  0.9199233E-01
       -1   -1    0    0    0  501  0.00000000000E+00  0.00000000000E+00  0.47620432177E+03  0.47620432180E+03  0.50400001928E-02 0. -1.
        1   -1    0    0  501    0  0.00000000000E+00  0.00000000000E+00 -0.64233630391E+03  0.64233630393E+03  0.50400001928E-02 0.  1.
    10030    2    1    2    0    0  0.00000000000E+00  0.00000000000E+00 -0.16613198213E+03  0.11185406257E+04  0.11061343932E+04 0.  0.
        4    1    3    3  502    0 -0.26489480059E+03 -0.20371564130E+03  0.36257213183E+03  0.49308161755E+03  0.12699999809E+01 0. -1.
       -4    1    3    3    0  502  0.26489480059E+03  0.20371564130E+03 -0.52870411396E+03  0.62545900818E+03  0.12699999809E+01 0.  1.
</event>
<event>
 5   0  0.7537480E-03  0.1098462E+04  0.7818609E-02  0.9206692E-01
        2   -1    0    0  501    0  0.00000000000E+00  0.00000000000E+00  0.23283771251E+04  0.23283771251E+04  0.25500000920E-02 0. -1.
       -2   -1    0    0    0  501  0.00000000000E+00  0.00000000000E+00 -0.12955587895E+03  0.12955587897E+03  0.25500000920E-02 0.  1.
    10030    2    1    2    0    0  0.00000000000E+00  0.00000000000E+00  0.21988212461E+04  0.24579330041E+04  0.10984624618E+04 0.  0.
        1    1    3    3  502    0  0.93841345297E+02  0.50621270978E+03  0.67134517873E+03  0.84602710043E+03  0.50400001928E-02 0.  1.
       -1    1    3    3    0  502 -0.93841345297E+02 -0.50621270978E+03  0.15274760674E+04  0.16119059036E+04  0.50400001928E-02 0. -1.
</event>
<event>
 5   0  0.4598561E-03  0.1056016E+04  0.7818609E-02  0.9249155E-01
       -1   -1    0    0    0  501  0.00000000000E+00  0.00000000000E+00  0.61798651420E+03  0.61798651422E+03  0.50400001928E-02 0.  1.
        1   -1    0    0  501    0  0.00000000000E+00  0.00000000000E+00 -0.45113001483E+03  0.45113001486E+03  0.50400001928E-02 0. -1.
    10030    2    1    2    0    0  0.00000000000E+00  0.00000000000E+00  0.16685649937E+03  0.10691165291E+04  0.10560156539E+04 0.  0.
        2    1    3    3  502    0  0.47212955667E+03  0.19811371058E+03  0.21401254594E+03  0.55493849247E+03  0.25500000920E-02 0. -1.
       -2    1    3    3    0  502 -0.47212955667E+03 -0.19811371058E+03 -0.47156046567E+02  0.51417803661E+03  0.25500000920E-02 0.  1.
</event>
<event>
 5   0  0.4598561E-03  0.1107373E+04  0.7818609E-02  0.9198036E-01
        1   -1    0    0  501    0  0.00000000000E+00  0.00000000000E+00  0.21854959834E+04  0.21854959834E+04  0.50400001928E-02 0.  1.
       -1   -1    0    0    0  501  0.00000000000E+00  0.00000000000E+00 -0.14027409886E+03  0.14027409895E+03  0.50400001928E-02 0. -1.
    10030    2    1    2    0    0  0.00000000000E+00  0.00000000000E+00  0.20452218845E+04  0.23257700824E+04  0.11073725295E+04 0.  0.
        2    1    3    3  502    0 -0.89812984440E+02 -0.49880246099E+03  0.14908238888E+04  0.15746193618E+04  0.25500000920E-02 0.  1.
       -2    1    3    3    0  502  0.89812984440E+02  0.49880246099E+03  0.55439799578E+03  0.75115072056E+03  0.25500000920E-02 0. -1.
</event>
<event>
 5   0  0.4298101E-03  0.1064916E+04  0.7818609E-02  0.9240078E-01
        1   -1    0    0  501    0  0.00000000000E+00  0.00000000000E+00  0.91696433859E+03  0.91696433860E+03  0.50400001928E-02 0. -1.
       -1   -1    0    0    0  501  0.00000000000E+00  0.00000000000E+00 -0.30918489078E+03  0.30918489082E+03  0.50400001928E-02 0.  1.
    10030    2    1    2    0    0  0.00000000000E+00  0.00000000000E+00  0.60777944781E+03  0.12261492294E+04  0.10649159946E+04 0.  0.
        3    1    3    3  502    0  0.27844486610E+02 -0.44990772299E+03  0.63020526553E+03  0.77482318082E+03  0.10100000352E+00 0. -1.
       -3    1    3    3    0  502 -0.27844486610E+02  0.44990772299E+03 -0.22425817723E+02  0.45132604860E+03  0.10100000352E+00 0.  1.
</event>
<event>
 5   0  0.4504740E-03  0.1136298E+04  0.7818609E-02  0.9170518E-01
       -1   -1    0    0    0  501  0.00000000000E+00  0.00000000000E+00  0.28796349330E+03  0.28796349335E+03  0.50400001928E-02 0.  1.
        1   -1    0    0  501    0  0.00000000000E+00  0.00000000000E+00 -0.11209528787E+04  0.11209528787E+04  0.50400001928E-02 0. -1.
    10030    2    1    2    0    0  0.00000000000E+00  0.00000000000E+00 -0.83298938537E+03  0.14089163720E+04  0.11362983883E+04 0.  0.
        5    1    3    3  502    0  0.84178803703E+02 -0.51660553242E+03 -0.69041286448E+03  0.86640600215E+03  0.46999998093E+01 0. -1.
       -5    1    3    3    0  502 -0.84178803703E+02  0.51660553242E+03 -0.14257652089E+03  0.54251036988E+03  0.46999998093E+01 0.  1.
</event>
<event>
 5   0  0.4428114E-03  0.1014302E+04  0.7818609E-02  0.9292996E-01
       -1   -1    0    0    0  501  0.00000000000E+00  0.00000000000E+00  0.10255828035E+03  0.10255828047E+03  0.50400001928E-02 0.  1.
        1   -1    0    0  501    0  0.00000000000E+00  0.00000000000E+00 -0.25078655412E+04  0.25078655412E+04  0.50400001928E-02 0. -1.
    10030    2    1    2    0    0  0.00000000000E+00  0.00000000000E+00 -0.24053072609E+04  0.26104238217E+04  0.10143024745E+04 0.  0.
        4    1    3    3  502    0 -0.48460272815E+03 -0.10783626762E+03 -0.93603534165E+03  0.10595434104E+04  0.12699999809E+01 0.  1.
       -4    1    3    3    0  502  0.48460272815E+03  0.10783626762E+03 -0.14692719192E+04  0.15508804113E+04  0.12699999809E+01 0. -1.
</event>
<event>
 5   0  0.7738497E-03  0.1083847E+04  0.7818609E-02  0.9221081E-01
        2   -1    0    0  501    0  0.00000000000E+00  0.00000000000E+00  0.12031046521E+04  0.12031046521E+04  0.25500000920E-02 0. -1.
       -2   -1    0    0    0  501  0.00000000000E+00  0.00000000000E+00 -0.24410248846E+03  0.24410248847E+03  0.25500000920E-02 0.  1.
    10030    2    1    2    0    0  0.00000000000E+00  0.00000000000E+00  0.95900216364E+03  0.14472071406E+04  0.10838465564E+04 0.  0.
        4    1    3    3  502    0 -0.22428966530E+03 -0.37665036477E+02 -0.17729407518E+03  0.28837356142E+03  0.12699999809E+01 0.  1.
       -4    1    3    3    0  502  0.22428966530E+03  0.37665036477E+02  0.11362962388E+04  0.11588335792E+04  0.12699999809E+01 0. -1.
</event>
<event>
 5   0  0.7537480E-03  0.1095333E+04  0.7818609E-02  0.9209753E-01
        2   -1    0    0  501    0  0.00000000000E+00  0.00000000000E+00  0.27843931938E+03  0.27843931939E+03  0.25500000920E-02 0.  1.
       -2   -1    0    0    0  501  0.00000000000E+00  0.00000000000E+00 -0.10772133150E+04  0.10772133151E+04  0.25500000920E-02 0. -1.
    10030    2    1    2    0    0  0.00000000000E+00  0.00000000000E+00 -0.79877399567E+03  0.13556526344E+04  0.10953329033E+04 0.  0.
        1    1    3    3  502    0 -0.47322452940E+03  0.39134939449E+02 -0.61648964287E+02  0.47882522233E+03  0.50400001928E-02 0.  1.
       -1    1    3    3    0  502  0.47322452940E+03 -0.39134939449E+02 -0.73712503138E+03  0.87682741211E+03  0.50400001928E-02 0. -1.
</event>
<event>
 5   0  0.7766551E-03  0.1100089E+04  0.7818609E-02  0.9205105E-01
       -2   -1    0    0    0  501  0.00000000000E+00  0.00000000000E+00  0.40484465593E+03  0.40484465593E+03  0.25500000920E-02 0.  1.
        2   -1    0    0  501    0  0.00000000000E+00  0.00000000000E+00 -0.74732173927E+03  0.74732173928E+03  0.25500000920E-02 0. -1.
    10030    2    1    2    0    0  0.00000000000E+00  0.00000000000E+00 -0.34247708335E+03  0.11521663952E+04  0.11000894735E+04 0.  0.
        5    1    3    3  502    0 -0.61907946368E+01 -0.42875021314E+03 -0.53201909543E+03  0.68332384643E+03  0.46999998093E+01 0. -1.
       -5    1    3    3    0  502  0.61907946368E+01  0.42875021314E+03  0.18954201208E+03  0.46884254878E+03  0.46999998093E+01 0.  1.
</event>
<event>
 5   0  0.7712816E-03  0.1034976E+04  0.7818609E-02  0.9270995E-01
       -2   -1    0    0    0  501  0.00000000000E+00  0.00000000000E+00  0.55012883950E+03  0.55012883951E+03  0.25500000920E-02 0.  1.
        2   -1    0    0  501    0  0.00000000000E+00  0.00000000000E+00 -0.48678345009E+03  0.48678345009E+03  0.25500000920E-02 0. -1.
    10030    2    1    2    0    0  0.00000000000E+00  0.00000000000E+00  0.63345389417E+02  0.10369122896E+04  0.10349755833E+04 0.  0.
        2    1    3    3  502    0  0.47642563251E+03 -0.85149959347E+02  0.21521407526E+03  0.52966876166E+03  0.25500000920E-02 0.  1.
       -2    1    3    3    0  502 -0.47642563251E+03  0.85149959347E+02 -0.15186868584E+03  0.50724352794E+03  0.25500000920E-02 0. -1.
</event>
<event>
 5   0  0.4598561E-03  0.1090775E+04  0.7818609E-02  0.9214230E-01
       -1   -1    0    0    0  501  0.00000000000E+00  0.00000000000E+00  0.52836418480E+03  0.52836418483E+03  0.50400001928E-02 0. -1.
        1   -1    0    0  501    0  0.00000000000E+00  0.00000000000E+00 -0.56295957360E+03  0.56295957362E+03  0.50400001928E-02 0.  1.
    10030    2    1    2    0    0  0.00000000000E+00  0.00000000000E+00 -0.34595388800E+02  0.10913237585E+04  0.10907752770E+04 0.  0.
        2    1    3    3  502    0  0.70313350293E+02  0.46362235668E+03 -0.29593013501E+03  0.55449463627E+03  0.25500000920E-02 0.  1.
       -2    1    3    3    0  502 -0.70313350293E+02 -0.46362235668E+03  0.26133474621E+03  0.53682912218E+03  0.25500000920E-02 0. -1.
</event>
<event>
 5   0  0.4641021E-03  0.1100686E+04  0.7818609E-02  0.9204524E-01
       -1   -1    0    0    0  501  0.00000000000E+00  0.00000000000E+00  0.17785986626E+03  0.17785986634E+03  0.50400001928E-02 0.  1.
        1   -1    0    0  501    0  0.00000000000E+00  0.00000000000E+00 -0.17028984240E+04  0.17028984240E+04  0.50400001928E-02 0. -1.
    10030    2    1    2    0    0  0.00000000000E+00  0.00000000000E+00 -0.15250385578E+04  0.18807582904E+04  0.11006857609E+04 0.  0.
        1    1    3    3  502    0 -0.46528184415E+03 -0.27992331777E+03 -0.91566655207E+03  0.10645607042E+04  0.50400001928E-02 0. -1.
       -1    1    3    3    0  502  0.46528184415E+03  0.27992331777E+03 -0.60937200570E+03  0.81619758618E+03  0.50400001928E-02 0.  1.
</event>
<event>
 5   0  0.7766551E-03  0.1140438E+04  0.7818609E-02  0.9166650E-01
       -2   -1    0    0    0  501  0.00000000000E+00  0.00000000000E+00  0.19926558591E+03  0.19926558593E+03  0.25500000920E-02 0.  1.
        2   -1    0    0  501    0  0.00000000000E+00  0.00000000000E+00 -0.16317418098E+04  0.16317418098E+04  0.25500000920E-02 0. -1.
    10030    2    1    2    0    0  0.00000000000E+00  0.00000000000E+00 -0.14324762238E+04  0.18310073957E+04  0.11404384908E+04 0.  0.
        5    1    3    3  502    0 -0.49642777855E+03  0.20700954908E+03 -0.41231177827E+03  0.67772899099E+03  0.46999998093E+01 0.  1.
       -5    1    3    3    0  502  0.49642777855E+03 -0.20700954908E+03 -0.10201644456E+04  0.11532784047E+04  0.46999998093E+01 0. -1.
</event>
<event>
 5   0  0.7537480E-03  0.1075030E+04  0.7818609E-02  0.9229876E-01
       -2   -1    0    0    0  501  0.00000000000E+00  0.00000000000E+00  0.14981286090E+03  0.14981286093E+03  0.25500000920E-02 0.  1.
        2   -1    0    0  501    0  0.00000000000E+00  0.00000000000E+00 -0.19285569736E+04  0.19285569736E+04  0.25500000920E-02 0. -1.
    10030    2    1    2    0    0  0.00000000000E+00  0.00000000000E+00 -0.17787441127E+04  0.20783698345E+04  0.10750304882E+04 0.  0.
        1    1    3    3  502    0  0.42978243832E+03 -0.25419603495E+03 -0.50467654593E+03  0.70994857877E+03  0.50400001928E-02 0.  1.
       -1    1    3    3    0  502 -0.42978243832E+03  0.25419603495E+03 -0.12740675667E+04  0.13684212557E+04  0.50400001928E-02 0. -1.
</event>
<event>
 5   0  0.4504740E-03  0.1100894E+04  0.7818609E-02  0.9204321E-01
        1   -1    0    0  501    0  0.00000000000E+00  0.00000000000E+00  0.60174792152E+03  0.60174792154E+03  0.50400001928E-02 0.  1.
       -1   -1    0    0    0  501  0.00000000000E+00  0.00000000000E+00 -0.50351944066E+03  0.50351944069E+03  0.50400001928E-02 0. -1.
    10030    2    1    2    0    0  0.00000000000E+00  0.00000000000E+00  0.98228480858E+02  0.11052673622E+04  0.11008937767E+04 0.  0.
        5    1    3    3  502    0  0.10606581642E+03  0.30310627304E+02 -0.49228778163E+03  0.50451763247E+03  0.46999998093E+01 0. -1.
       -5    1    3    3    0  502 -0.10606581642E+03 -0.30310627304E+02  0.59051626248E+03  0.60074972975E+03  0.46999998093E+01 0.  1.
</event>
<event>
 5   0  0.4298101E-03  0.1081377E+04  0.7818609E-02  0.9223535E-01
        1   -1    0    0  501    0  0.00000000000E+00  0.00000000000E+00  0.11586675637E+04  0.11586675638E+04  0.50400001928E-02 0.  1.
       -1   -1    0    0    0  501  0.00000000000E+00  0.00000000000E+00 -0.25231076160E+03  0.25231076165E+03  0.50400001928E-02 0. -1.
    10030    2    1    2    0    0  0.00000000000E+00  0.00000000000E+00  0.90635680214E+03  0.14109783254E+04  0.10813774466E+04 0.  0.
        3    1    3    3  502    0  0.37484327617E+02 -0.52577725681E+03  0.29607362274E+03  0.60457125211E+03  0.10100000352E+00 0. -1.
       -3    1    3    3    0  502 -0.37484327617E+02  0.52577725681E+03  0.61028317940E+03  0.80640707329E+03  0.10100000352E+00 0.  1.
</event>
<event>
 5   0  0.7766551E-03  0.1093843E+04  0.7818609E-02  0.9211214E-01
       -2   -1    0    0    0  501  0.00000000000E+00  0.00000000000E+00  0.24875084986E+03  0.24875084987E+03  0.25500000920E-02 0.  1.
        2   -1    0    0  501    0  0.00000000000E+00  0.00000000000E+00 -0.12025010794E+04  0.12025010794E+04  0.25500000920E-02 0. -1.
    10030    2    1    2    0    0  0.00000000000E+00  0.00000000000E+00 -0.95375022956E+03  0.14512519293E+04  0.10938430701E+04 0.  0.
        5    1    3    3  502    0 -0.22833616496E+03  0.25190769159E+03 -0.10452215561E+04  0.10991383356E+04  0.46999998093E+01 0. -1.
       -5    1    3    3    0  502  0.22833616496E+03 -0.25190769159E+03  0.91471326573E+02  0.35211359373E+03  0.46999998093E+01 0.  1.
</event>
<event>
 5   0  0.4298101E-03  0.1088899E+04  0.7818609E-02  0.9216080E-01
       -1   -1    0    0    0  501  0.00000000000E+00  0.00000000000E+00  0.22112107781E+03  0.22112107787E+03  0.50400001928E-02 0.  1.
        1   -1    0    0  501    0  0.00000000000E+00  0.00000000000E+00 -0.13405563670E+04  0.13405563670E+04  0.50400001928E-02 0. -1.
    10030    2    1    2    0    0  0.00000000000E+00  0.00000000000E+00 -0.11194352892E+04  0.15616774449E+04  0.10888990197E+04 0.  0.
        3    1    3    3  502    0 -0.47043052899E+03 -0.13662698496E+03 -0.90047791003E+03  0.10251011132E+04  0.10100000352E+00 0. -1.
       -3    1    3    3    0  502  0.47043052899E+03  0.13662698496E+03 -0.21895737917E+03  0.53657633169E+03  0.10100000352E+00 0.  1.
</event>
<event>
 5   0  0.7766551E-03  0.1108122E+04  0.7818609E-02  0.9197312E-01
       -2   -1    0    0    0  501  0.00000000000E+00  0.00000000000E+00  0.24193655600E+03  0.24193655601E+03  0.25500000920E-02 0.  1.
        2   -1    0    0  501    0  0.00000000000E+00  0.00000000000E+00 -0.12688592726E+04  0.12688592726E+04  0.25500000920E-02 0. -1.
    10030    2    1    2    0    0  0.00000000000E+00  0.00000000000E+00 -0.10269227166E+04  0.15107958286E+04  0.11081217306E+04 0.  0.
        5    1    3    3  502    0 -0.37210028067E+03  0.36267353038E+03 -0.25131319874E+03  0.57720977328E+03  0.46999998093E+01 0.  1.
       -5    1    3    3    0  502  0.37210028067E+03 -0.36267353038E+03 -0.77560951788E+03  0.93358605535E+03  0.46999998093E+01 0. -1.
</event>
<event>
 5   0  0.4598561E-03  0.1099955E+04  0.7818609E-02  0.9205235E-01
        1   -1    0    0  501    0  0.00000000000E+00  0.00000000000E+00  0.45062585002E+03  0.45062585005E+03  0.50400001928E-02 0.  1.
       -1   -1    0    0    0  501  0.00000000000E+00  0.00000000000E+00 -0.67123402763E+03  0.67123402765E+03  0.50400001928E-02 0. -1.
    10030    2    1    2    0    0  0.00000000000E+00  0.00000000000E+00 -0.22060817761E+03  0.11218598777E+04  0.10999552796E+04 0.  0.
        2    1    3    3  502    0  0.12277729354E+03  0.53522170183E+03 -0.14155526755E+03  0.56707532806E+03  0.25500000920E-02 0.  1.
       -2    1    3    3    0  502 -0.12277729354E+03 -0.53522170183E+03 -0.79052910059E+02  0.55478454963E+03  0.25500000920E-02 0. -1.
</event>
<event>
 5   0  0.7537480E-03  0.7768541E+03  0.7818609E-02  0.9594138E-01
        2   -1    0    0  501    0  0.00000000000E+00  0.00000000000E+00  0.78963997386E+03  0.78963997386E+03  0.25500000920E-02 0. -1.
       -2   -1    0    0    0  501  0.00000000000E+00  0.00000000000E+00 -0.19106879142E+03  0.19106879143E+03  0.25500000920E-02 0.  1.
    10030    2    1    2    0    0  0.00000000000E+00  0.00000000000E+00  0.59857118245E+03  0.98070876530E+03  0.77685405443E+03 0.  0.
        1    1    3    3  502    0 -0.15038837298E+03  0.31989980164E+03  0.96029611696E+02  0.36629801004E+03  0.50400001928E-02 0.  1.
       -1    1    3    3    0  502  0.15038837298E+03 -0.31989980164E+03  0.50254157075E+03  0.61441075525E+03  0.50400001928E-02 0. -1.
</event>
<event>
 5   0  0.4598561E-03  0.1091342E+04  0.7818609E-02  0.9213672E-01
       -1   -1    0    0    0  501  0.00000000000E+00  0.00000000000E+00  0.66505101001E+03  0.66505101003E+03  0.50400001928E-02 0. -1.
        1   -1    0    0  501    0  0.00000000000E+00  0.00000000000E+00 -0.44772017685E+03  0.44772017688E+03  0.50400001928E-02 0.  1.
    10030    2    1    2    0    0  0.00000000000E+00  0.00000000000E+00  0.21733083316E+03  0.11127711869E+04  0.10913418453E+04 0.  0.
        2    1    3    3  502    0 -0.34943206347E+02  0.68315759368E+02  0.65952234363E+03  0.66397122859E+03  0.25500000920E-02 0. -1.
       -2    1    3    3    0  502  0.34943206347E+02 -0.68315759368E+02 -0.44219151047E+03  0.44879995831E+03  0.25500000920E-02 0.  1.
</event>
<event>
 5   0  0.7738497E-03  0.1185518E+04  0.7818609E-02  0.9125628E-01
       -2   -1    0    0    0  501  0.00000000000E+00  0.00000000000E+00  0.30383504542E+03  0.30383504543E+03  0.25500000920E-02 0.  1.
        2   -1    0    0  501    0  0.00000000000E+00  0.00000000000E+00 -0.11564280543E+04  0.11564280543E+04  0.25500000920E-02 0. -1.
    10030    2    1    2    0    0  0.00000000000E+00  0.00000000000E+00 -0.85259300891E+03  0.14602630998E+04  0.11855182334E+04 0.  0.
        4    1    3    3  502    0  0.95707677762E+02  0.28610339814E+02 -0.11459840300E+04  0.11503301791E+04  0.12699999809E+01 0. -1.
       -4    1    3    3    0  502 -0.95707677762E+02 -0.28610339814E+02  0.29339102109E+03  0.30993292062E+03  0.12699999809E+01 0.  1.
</event>
<event>
 5   0  0.4428114E-03  0.1072052E+04  0.7818609E-02  0.9232868E-01
       -1   -1    0    0    0  501  0.00000000000E+00  0.00000000000E+00  0.67905579296E+03  0.67905579298E+03  0.50400001928E-02 0.  1.
        1   -1    0    0  501    0  0.00000000000E+00  0.00000000000E+00 -0.42312281212E+03  0.42312281215E+03  0.50400001928E-02 0. -1.
    10030    2    1    2    0    0  0.00000000000E+00  0.00000000000E+00  0.25593298085E+03  0.11021786051E+04  0.10720522314E+04 0.  0.
        4    1    3    3  502    0 -0.11646143340E+03  0.18855113470E+03  0.62974704499E+03  0.66760598368E+03  0.12699999809E+01 0.  1.
       -4    1    3    3    0  502  0.11646143340E+03 -0.18855113470E+03 -0.37381406414E+03  0.43457262146E+03  0.12699999809E+01 0. -1.
</event>
<event>
 5   0  0.2992375E-03  0.9089119E+03  0.7818609E-02  0.9414509E-01
       -4   -1    0    0    0  501  0.00000000000E+00  0.00000000000E+00  0.54198033357E+03  0.54198182154E+03  0.12699999809E+01 0.  1.
        4   -1    0    0  501    0  0.00000000000E+00  0.00000000000E+00 -0.38106283403E+03  0.38106495034E+03  0.12699999809E+01 0. -1.
    10030    2    1    2    0    0  0.00000000000E+00  0.00000000000E+00  0.16091749954E+03  0.92304677188E+03  0.90891193271E+03 0.  0.
        1    1    3    3  502    0  0.26715200945E+03  0.28808956431E+03 -0.15148845577E+03  0.42108733711E+03  0.50400001928E-02 0. -1.
       -1    1    3    3    0  502 -0.26715200945E+03 -0.28808956431E+03  0.31240595531E+03  0.50195943477E+03  0.50400001928E-02 0.  1.
</event>
<event>
 5   0  0.4298101E-03  0.1090445E+04  0.7818609E-02  0.9214555E-01
       -1   -1    0    0    0  501  0.00000000000E+00  0.00000000000E+00  0.77250665117E+03  0.77250665119E+03  0.50400001928E-02 0.  1.
        1   -1    0    0  501    0  0.00000000000E+00  0.00000000000E+00 -0.38480939455E+03  0.38480939459E+03  0.50400001928E-02 0. -1.
    10030    2    1    2    0    0  0.00000000000E+00  0.00000000000E+00  0.38769725662E+03  0.11573160458E+04  0.10904454443E+04 0.  0.
        3    1    3    3  502    0 -0.28673777575E+03 -0.10826213950E+03  0.67242056536E+03  0.73897812539E+03  0.10100000352E+00 0.  1.
       -3    1    3    3    0  502  0.28673777575E+03  0.10826213950E+03 -0.28472330874E+03  0.41833792038E+03  0.10100000352E+00 0. -1.
</event>
<event>
 5   0  0.4598561E-03  0.1092082E+04  0.7818609E-02  0.9212943E-01
        1   -1    0    0  501    0  0.00000000000E+00  0.00000000000E+00  0.13965344705E+04  0.13965344705E+04  0.50400001928E-02 0.  1.
       -1   -1    0    0    0  501  0.00000000000E+00  0.00000000000E+00 -0.21350063109E+03  0.21350063115E+03  0.50400001928E-02 0. -1.
    10030    2    1    2    0    0  0.00000000000E+00  0.00000000000E+00  0.11830338394E+04  0.16100351017E+04  0.10920823977E+04 0.  0.
        2    1    3    3  502    0  0.50177050554E+02 -0.52028313319E+03  0.35865201803E+03  0.63391130699E+03  0.25500000920E-02 0. -1.
       -2    1    3    3    0  502 -0.50177050554E+02  0.52028313319E+03  0.82438182140E+03  0.97612379468E+03  0.25500000920E-02 0.  1.
</event>
<event>
 5   0  0.4298101E-03  0.1107161E+04  0.7818609E-02  0.9198241E-01
       -1   -1    0    0    0  501  0.00000000000E+00  0.00000000000E+00  0.45072552160E+03  0.45072552163E+03  0.50400001928E-02 0. -1.
        1   -1    0    0  501    0  0.00000000000E+00  0.00000000000E+00 -0.67990633159E+03  0.67990633161E+03  0.50400001928E-02 0.  1.
    10030    2    1    2    0    0  0.00000000000E+00  0.00000000000E+00 -0.22918080999E+03  0.11306318532E+04  0.11071605773E+04 0.  0.
        3    1    3    3  502    0 -0.15107487117E+03 -0.27670937802E+03 -0.57927482263E+03  0.65950817047E+03  0.10100000352E+00 0.  1.
       -3    1    3    3    0  502  0.15107487117E+03  0.27670937802E+03  0.35009401264E+03  0.47112368277E+03  0.10100000352E+00 0. -1.
</event>
<event>
 5   0  0.4504740E-03  0.9217006E+03  0.7818609E-02  0.9398854E-01
       -1   -1    0    0    0  501  0.00000000000E+00  0.00000000000E+00  0.56591996140E+03  0.56591996142E+03  0.50400001928E-02 0. -1.
        1   -1    0    0  501    0  0.00000000000E+00  0.00000000000E+00 -0.37528806179E+03  0.37528806182E+03  0.50400001928E-02 0.  1.
    10030    2    1    2    0    0  0.00000000000E+00  0.00000000000E+00  0.19063189961E+03  0.94120802325E+03  0.92170061402E+03 0.  0.
        5    1    3    3  502    0 -0.23191968194E+03 -0.26144782364E+03 -0.21140628430E+03  0.40848061202E+03  0.46999998093E+01 0.  1.
       -5    1    3    3    0  502  0.23191968194E+03  0.26144782364E+03  0.40203818391E+03  0.53272741123E+03  0.46999998093E+01 0. -1.
</event>
<event>
 5   0  0.4504740E-03  0.1113303E+04  0.7818609E-02  0.9192322E-01
       -1   -1    0    0    0  501  0.00000000000E+00  0.00000000000E+00  0.13478618420E+04  0.13478618420E+04  0.50400001928E-02 0. -1.
        1   -1    0    0  501    0  0.00000000000E+00  0.00000000000E+00 -0.22989053731E+03  0.22989053736E+03  0.50400001928E-02 0.  1.
    10030    2    1    2    0    0  0.00000000000E+00  0.00000000000E+00  0.11179713047E+04  0.15777523794E+04  0.11133026240E+04 0.  0.
        5    1    3    3  502    0  0.14191377917E+03  0.17631279303E+03 -0.16170797075E+03  0.27820366552E+03  0.46999998093E+01 0.  1.
       -5    1    3    3    0  502 -0.14191377917E+03 -0.17631279303E+03  0.12796792754E+04  0.12995487139E+04  0.46999998093E+01 0. -1.
</event>
<event>
 5   0  0.4504740E-03  0.1042161E+04  0.7818609E-02  0.9263475E-01
        1   -1    0    0  501    0  0.00000000000E+00  0.00000000000E+00  0.65396386421E+03  0.65396386423E+03  0.50400001928E-02 0.  1.
       -1   -1    0    0    0  501  0.00000000000E+00  0.00000000000E+00 -0.41519883334E+03  0.41519883337E+03  0.50400001928E-02 0. -1.
    10030    2    1    2    0    0  0.00000000000E+00  0.00000000000E+00  0.23876503088E+03  0.10691626976E+04  0.10421612802E+04 0.  0.
        5    1    3    3  502    0  0.11631604993E+03  0.11869190368E+03 -0.38726052244E+03  0.42143800696E+03  0.46999998093E+01 0. -1.
       -5    1    3    3    0  502 -0.11631604993E+03 -0.11869190368E+03  0.62602555331E+03  0.64772469064E+03  0.46999998093E+01 0.  1.
</event>
<event>
 5   0  0.7738497E-03  0.1055436E+04  0.7818609E-02  0.9249750E-01
       -2   -1    0    0    0  501  0.00000000000E+00  0.00000000000E+00  0.33887252553E+03  0.33887252554E+03  0.25500000920E-02 0. -1.
        2   -1    0    0  501    0  0.00000000000E+00  0.00000000000E+00 -0.82180181023E+03  0.82180181023E+03  0.25500000920E-02 0.  1.
    10030    2    1    2    0    0  0.00000000000E+00  0.00000000000E+00 -0.48292928470E+03  0.11606743358E+04  0.10554355592E+04 0.  0.
        4    1    3    3  502    0  0.22180931345E+02 -0.29141613830E+03  0.24174437036E+03  0.37928526583E+03  0.12699999809E+01 0. -1.
       -4    1    3    3    0  502 -0.22180931345E+02  0.29141613830E+03 -0.72467365506E+03  0.78138906993E+03  0.12699999809E+01 0.  1.
</event>
<event>
 5   0  0.4428114E-03  0.9859792E+03  0.7818609E-02  0.9324058E-01
        1   -1    0    0  501    0  0.00000000000E+00  0.00000000000E+00  0.98495465382E+03  0.98495465384E+03  0.50400001928E-02 0. -1.
       -1   -1    0    0    0  501  0.00000000000E+00  0.00000000000E+00 -0.24675121795E+03  0.24675121800E+03  0.50400001928E-02 0.  1.
    10030    2    1    2    0    0  0.00000000000E+00  0.00000000000E+00  0.73820343587E+03  0.12317058718E+04  0.98597922999E+03 0.  0.
        4    1    3    3  502    0  0.15324465531E+03 -0.41108642909E+03  0.64999917481E+03  0.78420438454E+03  0.12699999809E+01 0. -1.
       -4    1    3    3    0  502 -0.15324465531E+03  0.41108642909E+03  0.88204261061E+02  0.44750148730E+03  0.12699999809E+01 0.  1.
</event>
<event>
 5   0  0.7952121E-03  0.1066065E+04  0.7818609E-02  0.9238913E-01
        2   -1    0    0  501    0  0.00000000000E+00  0.00000000000E+00  0.13954179122E+04  0.13954179122E+04  0.25500000920E-02 0. -1.
       -2   -1    0    0    0  501  0.00000000000E+00  0.00000000000E+00 -0.20361188539E+03  0.20361188541E+03  0.25500000920E-02 0.  1.
    10030    2    1    2    0    0  0.00000000000E+00  0.00000000000E+00  0.11918060268E+04  0.15990297976E+04  0.10660650487E+04 0.  0.
        3    1    3    3  502    0 -0.32653211827E+03 -0.19302362341E+03  0.34192706361E+02  0.38085495248E+03  0.10100000352E+00 0.  1.
       -3    1    3    3    0  502  0.32653211827E+03  0.19302362341E+03  0.11576133205E+04  0.12181748452E+04  0.10100000352E+00 0. -1.
</event>
<event>
 5   0  0.7537480E-03  0.1122283E+04  0.7818609E-02  0.9183742E-01
        2   -1    0    0  501    0  0.00000000000E+00  0.00000000000E+00  0.51369306449E+03  0.51369306449E+03  0.25500000920E-02 0. -1.
       -2   -1    0    0    0  501  0.00000000000E+00  0.00000000000E+00 -0.61297235391E+03  0.61297235391E+03  0.25500000920E-02 0.  1.
    10030    2    1    2    0    0  0.00000000000E+00  0.00000000000E+00 -0.99279289420E+02  0.11266654184E+04  0.11222827575E+04 0.  0.
        1    1    3    3  502    0  0.43054295496E+03  0.18284223807E+00 -0.41092329783E+03  0.59516823355E+03  0.50400001928E-02 0.  1.
       -1    1    3    3    0  502 -0.43054295496E+03 -0.18284223807E+00  0.31164400841E+03  0.53149718485E+03  0.50400001928E-02 0. -1.
</event>
<event>
 5   0  0.4428114E-03  0.1050107E+04  0.7818609E-02  0.9255234E-01
       -1   -1    0    0    0  501  0.00000000000E+00  0.00000000000E+00  0.69164552885E+03  0.69164552887E+03  0.50400001928E-02 0.  1.
        1   -1    0    0  501    0  0.00000000000E+00  0.00000000000E+00 -0.39858702259E+03  0.39858702262E+03  0.50400001928E-02 0. -1.
    10030    2    1    2    0    0  0.00000000000E+00  0.00000000000E+00  0.29305850627E+03  0.10902325515E+04  0.10501065318E+04 0.  0.
        4    1    3    3  502    0 -0.21226900266E+03 -0.48022745442E+03  0.14826082259E+03  0.54558172796E+03  0.12699999809E+01 0.  1.
       -4    1    3    3    0  502  0.21226900266E+03  0.48022745442E+03  0.14479768368E+03  0.54465082353E+03  0.12699999809E+01 0. -1.
</event>
<event>
 5   0  0.7537480E-03  0.1155739E+04  0.7818609E-02  0.9152505E-01
        2   -1    0    0  501    0  0.00000000000E+00  0.00000000000E+00  0.11804512574E+04  0.11804512574E+04  0.25500000920E-02 0. -1.
       -2   -1    0    0    0  501  0.00000000000E+00  0.00000000000E+00 -0.28288608680E+03  0.28288608681E+03  0.25500000920E-02 0.  1.
    10030    2    1    2    0    0  0.00000000000E+00  0.00000000000E+00  0.89756517060E+03  0.14633373442E+04  0.11557391347E+04 0.  0.
        1    1    3    3  502    0 -0.11018643619E+02 -0.39293818829E+03  0.98508488851E+03  0.10606196622E+04  0.50400001928E-02 0. -1.
       -1    1    3    3    0  502  0.11018643619E+02  0.39293818829E+03 -0.87519717910E+02  0.40271768197E+03  0.50400001928E-02 0.  1.
</event>
<event>
 5   0  0.7952121E-03  0.1100822E+04  0.7818609E-02  0.9204391E-01
       -2   -1    0    0    0  501  0.00000000000E+00  0.00000000000E+00  0.13569567787E+03  0.13569567790E+03  0.25500000920E-02 0.  1.
        2   -1    0    0  501    0  0.00000000000E+00  0.00000000000E+00 -0.22325846321E+04  0.22325846321E+04  0.25500000920E-02 0. -1.
    10030    2    1    2    0    0  0.00000000000E+00  0.00000000000E+00 -0.20968889542E+04  0.23682803100E+04  0.11008216660E+04 0.  0.
        3    1    3    3  502    0  0.31789498135E+02  0.52791364884E+03 -0.72041316217E+03  0.89369934947E+03  0.10100000352E+00 0.  1.
       -3    1    3    3    0  502 -0.31789498135E+02 -0.52791364884E+03 -0.13764757921E+04  0.14745809605E+04  0.10100000352E+00 0. -1.
</event>
<event>
 5   0  0.4598561E-03  0.1048894E+04  0.7818609E-02  0.9256486E-01
       -1   -1    0    0    0  501  0.00000000000E+00  0.00000000000E+00  0.43894996233E+03  0.43894996235E+03  0.50400001928E-02 0.  1.
        1   -1    0    0  501    0  0.00000000000E+00  0.00000000000E+00 -0.62659713371E+03  0.62659713373E+03  0.50400001928E-02 0. -1.
    10030    2    1    2    0    0  0.00000000000E+00  0.00000000000E+00 -0.18764717138E+03  0.10655470961E+04  0.10488942526E+04 0.  0.
        2    1    3    3  502    0 -0.33465820770E+03 -0.22610910678E+03  0.24603737682E+03  0.47292265218E+03  0.25500000920E-02 0.  1.
       -2    1    3    3    0  502  0.33465820770E+03  0.22610910678E+03 -0.43368454820E+03  0.59262444390E+03  0.25500000920E-02 0. -1.
</event>
<event>
 5   0  0.7537480E-03  0.1096475E+04  0.7818609E-02  0.9208634E-01
       -2   -1    0    0    0  501  0.00000000000E+00  0.00000000000E+00  0.23403330284E+03  0.23403330286E+03  0.25500000920E-02 0.  1.
        2   -1    0    0  501    0  0.00000000000E+00  0.00000000000E+00 -0.12842804204E+04  0.12842804204E+04  0.25500000920E-02 0. -1.
    10030    2    1    2    0    0  0.00000000000E+00  0.00000000000E+00 -0.10502471175E+04  0.15183137232E+04  0.10964750587E+04 0.  0.
        1    1    3    3  502    0 -0.41286836053E+03 -0.28019079170E+03 -0.83966359715E+03  0.97673032065E+03  0.50400001928E-02 0. -1.
       -1    1    3    3    0  502  0.41286836053E+03  0.28019079170E+03 -0.21058352039E+03  0.54158340259E+03  0.50400001928E-02 0.  1.
</event>
<event>
 5   0  0.4428114E-03  0.1102358E+04  0.7818609E-02  0.9202897E-01
        1   -1    0    0  501    0  0.00000000000E+00  0.00000000000E+00  0.66507980928E+03  0.66507980930E+03  0.50400001928E-02 0.  1.
       -1   -1    0    0    0  501  0.00000000000E+00  0.00000000000E+00 -0.45678477390E+03  0.45678477393E+03  0.50400001928E-02 0. -1.
    10030    2    1    2    0    0  0.00000000000E+00  0.00000000000E+00  0.20829503538E+03  0.11218645832E+04  0.11023580731E+04 0.  0.
        4    1    3    3  502    0  0.52555179311E+02 -0.14551199169E+03 -0.43423244483E+03  0.46097203347E+03  0.12699999809E+01 0. -1.
       -4    1    3    3    0  502 -0.52555179311E+02  0.14551199169E+03  0.64252748021E+03  0.66089254976E+03  0.12699999809E+01 0.  1.
</event>
<event>
 5   0  0.2992375E-03  0.1112169E+04  0.7818609E-02  0.9193412E-01
        4   -1    0    0  501    0  0.00000000000E+00  0.00000000000E+00  0.21907411910E+03  0.21907780025E+03  0.12699999809E+01 0.  1.
       -4   -1    0    0    0  501  0.00000000000E+00  0.00000000000E+00 -0.14115149709E+04  0.14115155422E+04  0.12699999809E+01 0. -1.
    10030    2    1    2    0    0  0.00000000000E+00  0.00000000000E+00 -0.11924408518E+04  0.16305933425E+04  0.11121688107E+04 0.  0.
        5    1    3    3  502    0 -0.22964960071E+03 -0.60507954977E+02 -0.13333944724E+04  0.13543865995E+04  0.46999998093E+01 0. -1.
       -5    1    3    3    0  502  0.22964960071E+03  0.60507954977E+02  0.14095362063E+03  0.27620674302E+03  0.46999998093E+01 0.  1.
</event>
<event>
 5   0  0.4428114E-03  0.1070530E+04  0.7818609E-02  0.9234401E-01
        1   -1    0    0  501    0  0.00000000000E+00  0.00000000000E+00  0.70372886838E+03  0.70372886839E+03  0.50400001928E-02 0. -1.
       -1   -1    0    0    0  501  0.00000000000E+00  0.00000000000E+00 -0.40712955100E+03  0.40712955103E+03  0.50400001928E-02 0.  1.
    10030    2    1    2    0    0  0.00000000000E+00  0.00000000000E+00  0.29659931738E+03  0.11108584194E+04  0.10705303699E+04 0.  0.
        4    1    3    3  502    0  0.21081983218E+03  0.48610021481E+03  0.69485927179E+02  0.53438593493E+03  0.12699999809E+01 0.  1.
       -4    1    3    3    0  502 -0.21081983218E+03 -0.48610021481E+03  0.22711339020E+03  0.57647248450E+03  0.12699999809E+01 0. -1.
</event>
<event>
 5   0  0.7537480E-03  0.1109868E+04  0.7818609E-02  0.9195627E-01
        2   -1    0    0  501    0  0.00000000000E+00  0.00000000000E+00  0.25577665235E+04  0.25577665235E+04  0.25500000920E-02 0.  1.
       -2   -1    0    0    0  501  0.00000000000E+00  0.00000000000E+00 -0.12039875948E+03  0.12039875951E+03  0.25500000920E-02 0. -1.
    10030    2    1    2    0    0  0.00000000000E+00  0.00000000000E+00  0.24373677640E+04  0.26781652830E+04  0.11098683102E+04 0.  0.
        1    1    3    3  502    0  0.17944301987E+03  0.46705487725E+03  0.17978749768E+04  0.18661978694E+04  0.50400001928E-02 0. -1.
       -1    1    3    3    0  502 -0.17944301987E+03 -0.46705487725E+03  0.63949278724E+03  0.81196741357E+03  0.50400001928E-02 0.  1.
</event>
<event>
 5   0  0.4641021E-03  0.1097211E+04  0.7818609E-02  0.9207914E-01
       -1   -1    0    0    0  501  0.00000000000E+00  0.00000000000E+00  0.57662858748E+03  0.57662858750E+03  0.50400001928E-02 0. -1.
        1   -1    0    0  501    0  0.00000000000E+00  0.00000000000E+00 -0.52194469980E+03  0.52194469983E+03  0.50400001928E-02 0.  1.
    10030    2    1    2    0    0  0.00000000000E+00  0.00000000000E+00  0.54683887680E+02  0.10985732873E+04  0.10972114382E+04 0.  0.
        1    1    3    3  502    0  0.44638234339E+02  0.46337499740E+03 -0.26329282412E+03  0.53481966254E+03  0.50400001928E-02 0.  1.
       -1    1    3    3    0  502 -0.44638234339E+02 -0.46337499740E+03  0.31797671180E+03  0.56375362479E+03  0.50400001928E-02 0. -1.
</event>
<event>
 5   0  0.4598561E-03  0.1056253E+04  0.7818609E-02  0.9248912E-01
       -1   -1    0    0    0  501  0.00000000000E+00  0.00000000000E+00  0.11984346529E+03  0.11984346540E+03  0.50400001928E-02 0.  1.
        1   -1    0    0  501    0  0.00000000000E+00  0.00000000000E+00 -0.23273503986E+04  0.23273503986E+04  0.50400001928E-02 0. -1.
    10030    2    1    2    0    0  0.00000000000E+00  0.00000000000E+00 -0.22075069334E+04  0.24471938640E+04  0.10562532591E+04 0.  0.
        2    1    3    3  502    0 -0.71544884950E+02 -0.11386653131E+02 -0.23157836670E+04  0.23169165541E+04  0.25500000920E-02 0. -1.
       -2    1    3    3    0  502  0.71544884950E+02  0.11386653131E+02  0.10827673363E+03  0.13027730994E+03  0.25500000920E-02 0.  1.
</event>
<event>
 5   0  0.7712816E-03  0.1110834E+04  0.7818609E-02  0.9194696E-01
       -2   -1    0    0    0  501  0.00000000000E+00  0.00000000000E+00  0.39094720618E+03  0.39094720619E+03  0.25500000920E-02 0. -1.
        2   -1    0    0  501    0  0.00000000000E+00  0.00000000000E+00 -0.78907897051E+03  0.78907897051E+03  0.25500000920E-02 0.  1.
    10030    2    1    2    0    0  0.00000000000E+00  0.00000000000E+00 -0.39813176432E+03  0.11800261767E+04  0.11108343153E+04 0.  0.
        2    1    3    3  502    0 -0.24825100043E+03  0.20961236236E+02  0.32826181557E+03  0.41209677529E+03  0.25500000920E-02 0. -1.
       -2    1    3    3    0  502  0.24825100043E+03 -0.20961236236E+02 -0.72639357989E+03  0.76792940141E+03  0.25500000920E-02 0.  1.
</event>
<event>
 5   0  0.7712816E-03  0.1061249E+04  0.7818609E-02  0.9243807E-01
       -2   -1    0    0    0  501  0.00000000000E+00  0.00000000000E+00  0.18532397590E+03  0.18532397592E+03  0.25500000920E-02 0.  1.
        2   -1    0    0  501    0  0.00000000000E+00  0.00000000000E+00 -0.15192979886E+04  0.15192979886E+04  0.25500000920E-02 0. -1.
    10030    2    1    2    0    0  0.00000000000E+00  0.00000000000E+00 -0.13339740127E+04  0.17046219645E+04  0.10612489696E+04 0.  0.
        2    1    3    3  502    0 -0.47211239658E+03 -0.18635777926E+03 -0.91552920986E+03  0.10468109051E+04  0.25500000920E-02 0. -1.
       -2    1    3    3    0  502  0.47211239658E+03  0.18635777926E+03 -0.41844480285E+03  0.65781105945E+03  0.25500000920E-02 0.  1.
</event>
<event>
 5   0  0.7766551E-03  0.1102954E+04  0.7818609E-02  0.9202318E-01
       -2   -1    0    0    0  501  0.00000000000E+00  0.00000000000E+00  0.50303198657E+03  0.50303198657E+03  0.25500000920E-02 0.  1.
        2   -1    0    0  501    0  0.00000000000E+00  0.00000000000E+00 -0.60458736843E+03  0.60458736843E+03  0.25500000920E-02 0. -1.
    10030    2    1    2    0    0  0.00000000000E+00  0.00000000000E+00 -0.10155538186E+03  0.11076193550E+04  0.11029538250E+04 0.  0.
        5    1    3    3  502    0  0.10221897687E+03  0.24228704996E+03  0.43599215444E+03  0.50917873340E+03  0.46999998093E+01 0.  1.
       -5    1    3    3    0  502 -0.10221897687E+03 -0.24228704996E+03 -0.53754753630E+03  0.59844062161E+03  0.46999998093E+01 0. -1.
</event>
<event>
 5   0  0.7537480E-03  0.1136126E+04  0.7818609E-02  0.9170679E-01
       -2   -1    0    0    0  501  0.00000000000E+00  0.00000000000E+00  0.43807541876E+03  0.43807541877E+03  0.25500000920E-02 0. -1.
        2   -1    0    0  501    0  0.00000000000E+00  0.00000000000E+00 -0.73662123158E+03  0.73662123159E+03  0.25500000920E-02 0.  1.
    10030    2    1    2    0    0  0.00000000000E+00  0.00000000000E+00 -0.29854581282E+03  0.11746966504E+04  0.11361261453E+04 0.  0.
        1    1    3    3  502    0 -0.48453059394E+03  0.55871650871E+02  0.15182493601E+03  0.51082516486E+03  0.50400001928E-02 0. -1.
       -1    1    3    3    0  502  0.48453059394E+03 -0.55871650871E+02 -0.45037074883E+03  0.66387148550E+03  0.50400001928E-02 0.  1.
</event>
<event>
 5   0  0.4298101E-03  0.1042617E+04  0.7818609E-02  0.9263000E-01
       -1   -1    0    0    0  501  0.00000000000E+00  0.00000000000E+00  0.28099654540E+03  0.28099654545E+03  0.50400001928E-02 0. -1.
        1   -1    0    0  501    0  0.00000000000E+00  0.00000000000E+00 -0.96713834421E+03  0.96713834423E+03  0.50400001928E-02 0.  1.
    10030    2    1    2    0    0  0.00000000000E+00  0.00000000000E+00 -0.68614179881E+03  0.12481348897E+04  0.10426169645E+04 0.  0.
        3    1    3    3  502    0 -0.44448099267E+03  0.48245356423E+02 -0.66400455326E+03  0.80049548669E+03  0.10100000352E+00 0.  1.
       -3    1    3    3    0  502  0.44448099267E+03 -0.48245356423E+02 -0.22137245544E+02  0.44763940298E+03  0.10100000352E+00 0. -1.
</event>
<event>
 5   0  0.7738497E-03  0.1135717E+04  0.7818609E-02  0.9171062E-01
       -2   -1    0    0    0  501  0.00000000000E+00  0.00000000000E+00  0.22822042327E+03  0.22822042328E+03  0.25500000920E-02 0.  1.
        2   -1    0    0  501    0  0.00000000000E+00  0.00000000000E+00 -0.14129472414E+04  0.14129472414E+04  0.25500000920E-02 0. -1.
    10030    2    1    2    0    0  0.00000000000E+00  0.00000000000E+00 -0.11847268181E+04  0.16411676647E+04  0.11357172491E+04 0.  0.
        4    1    3    3  502    0  0.33774603200E+03  0.91821612297E+02 -0.12385416865E+04  0.12870472846E+04  0.12699999809E+01 0. -1.
       -4    1    3    3    0  502 -0.33774603200E+03 -0.91821612297E+02  0.53814868416E+02  0.35412038007E+03  0.12699999809E+01 0.  1.
</event>
<event>
 5   0  0.7766551E-03  0.1137098E+04  0.7818609E-02  0.9169770E-01
        2   -1    0    0  501    0  0.00000000000E+00  0.00000000000E+00  0.10913727100E+04  0.10913727100E+04  0.25500000920E-02 0. -1.
       -2   -1    0    0    0  501  0.00000000000E+00  0.00000000000E+00 -0.29618466838E+03  0.29618466840E+03  0.25500000920E-02 0.  1.
    10030    2    1    2    0    0  0.00000000000E+00  0.00000000000E+00  0.79518804160E+03  0.13875573784E+04  0.11370978220E+04 0.  0.
        5    1    3    3  502    0  0.49652311663E+03  0.15712190427E+03  0.67586535822E+03  0.85325176273E+03  0.46999998093E+01 0.  1.
       -5    1    3    3    0  502 -0.49652311663E+03 -0.15712190427E+03  0.11932268338E+03  0.53430561565E+03  0.46999998093E+01 0. -1.
</event>
<event>
 5   0  0.7537480E-03  0.1108062E+04  0.7818609E-02  0.9197370E-01
        2   -1    0    0  501    0  0.00000000000E+00  0.00000000000E+00  0.35148823300E+03  0.35148823301E+03  0.25500000920E-02 0. -1.
       -2   -1    0    0    0  501  0.00000000000E+00  0.00000000000E+00 -0.87328705143E+03  0.87328705144E+03  0.25500000920E-02 0.  1.
    10030    2    1    2    0    0  0.00000000000E+00  0.00000000000E+00 -0.52179881843E+03  0.12247752844E+04  0.11080615915E+04 0.  0.
        1    1    3    3  502    0 -0.68394307475E+02  0.19393487558E+03 -0.82954016560E+03  0.85464928692E+03  0.50400001928E-02 0.  1.
       -1    1    3    3    0  502  0.68394307475E+02 -0.19393487558E+03  0.30774134717E+03  0.37012599752E+03  0.50400001928E-02 0. -1.
</event>
<event>
 5   0  0.4641021E-03  0.1098981E+04  0.7818609E-02  0.9206185E-01
        1   -1    0    0  501    0  0.00000000000E+00  0.00000000000E+00  0.44221256926E+03  0.44221256929E+03  0.50400001928E-02 0.  1.
       -1   -1    0    0    0  501  0.00000000000E+00  0.00000000000E+00 -0.68279361581E+03  0.68279361583E+03  0.50400001928E-02 0. -1.
    10030    2    1    2    0    0  0.00000000000E+00  0.00000000000E+00 -0.24058104655E+03  0.11250061851E+04  0.10989811994E+04 0.  0.
        1    1    3    3  502    0  0.22337183745E+03  0.12311950355E+03 -0.61852620828E+03  0.66905011791E+03  0.50400001928E-02 0. -1.
       -1    1    3    3    0  502 -0.22337183745E+03 -0.12311950355E+03  0.37794516173E+03  0.45595606720E+03  0.50400001928E-02 0.  1.
</event>
<event>
 5   0  0.2992375E-03  0.1110524E+04  0.7818609E-02  0.9194995E-01
        4   -1    0    0  501    0  0.00000000000E+00  0.00000000000E+00  0.10371446620E+04  0.10371454395E+04  0.12699999809E+01 0. -1.
       -4   -1    0    0    0  501  0.00000000000E+00  0.00000000000E+00 -0.29727143812E+03  0.29727415095E+03  0.12699999809E+01 0.  1.
    10030    2    1    2    0    0  0.00000000000E+00  0.00000000000E+00  0.73987322386E+03  0.13344195905E+04  0.11105238656E+04 0.  0.
        1    1    3    3  502    0 -0.42017326244E+03 -0.73235710057E+02  0.79715475452E+03  0.90408226527E+03  0.50400001928E-02 0. -1.
       -1    1    3    3    0  502  0.42017326244E+03  0.73235710057E+02 -0.57281530663E+02  0.43033732522E+03  0.50400001928E-02 0.  1.
</event>
<event>
 5   0  0.4598561E-03  0.1101422E+04  0.7818609E-02  0.9203807E-01
        1   -1    0    0  501    0  0.00000000000E+00  0.00000000000E+00  0.95864239998E+03  0.95864239999E+03  0.50400001928E-02 0. -1.
       -1   -1    0    0    0  501  0.00000000000E+00  0.00000000000E+00 -0.31636662402E+03  0.31636662406E+03  0.50400001928E-02 0.  1.
    10030    2    1    2    0    0  0.00000000000E+00  0.00000000000E+00  0.64227577596E+03  0.12750090241E+04  0.11014217353E+04 0.  0.
        2    1    3    3  502    0  0.27836035117E+03  0.36081746569E+03 -0.36800595068E+02  0.45719581412E+03  0.25500000920E-02 0.  1.
       -2    1    3    3    0  502 -0.27836035117E+03 -0.36081746569E+03  0.67907637103E+03  0.81781320993E+03  0.25500000920E-02 0. -1.
</event>
<event>
 5   0  0.7712816E-03  0.1096346E+04  0.7818609E-02  0.9208761E-01
       -2   -1    0    0    0  501  0.00000000000E+00  0.00000000000E+00  0.20247132891E+03  0.20247132893E+03  0.25500000920E-02 0.  1.
        2   -1    0    0  501    0  0.00000000000E+00  0.00000000000E+00 -0.14841290169E+04  0.14841290169E+04  0.25500000920E-02 0. -1.
    10030    2    1    2    0    0  0.00000000000E+00  0.00000000000E+00 -0.12816576880E+04  0.16866003458E+04  0.10963458840E+04 0.  0.
        2    1    3    3  502    0  0.23954641584E+03 -0.18869912309E+03  0.59944459051E+02  0.31077834959E+03  0.25500000920E-02 0.  1.
       -2    1    3    3    0  502 -0.23954641584E+03  0.18869912309E+03 -0.13416021470E+04  0.13758219962E+04  0.25500000920E-02 0. -1.
</event>
<event>
 5   0  0.7738497E-03  0.1103960E+04  0.7818609E-02  0.9201341E-01
       -2   -1    0    0    0  501  0.00000000000E+00  0.00000000000E+00  0.36406693848E+03  0.36406693849E+03  0.25500000920E-02 0.  1.
        2   -1    0    0  501    0  0.00000000000E+00  0.00000000000E+00 -0.83688390397E+03  0.83688390397E+03  0.25500000920E-02 0. -1.
    10030    2    1    2    0    0  0.00000000000E+00  0.00000000000E+00 -0.47281696549E+03  0.12009508425E+04  0.11039597108E+04 0.  0.
        4    1    3    3  502    0 -0.10245627109E+03 -0.17119850075E+03 -0.79628418196E+03  0.82089970488E+03  0.12699999809E+01 0. -1.
       -4    1    3    3    0  502  0.10245627109E+03  0.17119850075E+03  0.32346721646E+03  0.38005113757E+03  0.12699999809E+01 0.  1.
</event>
<event>
 5   0  0.7766551E-03  0.1109446E+04  0.7818609E-02  0.9196034E-01
       -2   -1    0    0    0  501  0.00000000000E+00  0.00000000000E+00  0.52886146418E+03  0.52886146418E+03  0.25500000920E-02 0.  1.
        2   -1    0    0  501    0  0.00000000000E+00  0.00000000000E+00 -0.58184867539E+03  0.58184867540E+03  0.25500000920E-02 0. -1.
    10030    2    1    2    0    0  0.00000000000E+00  0.00000000000E+00 -0.52987211214E+02  0.11107101396E+04  0.11094455235E+04 0.  0.
        5    1    3    3  502    0  0.28896841141E+03 -0.27164384149E+03 -0.41475280268E+03  0.57387724884E+03  0.46999998093E+01 0. -1.
       -5    1    3    3    0  502 -0.28896841141E+03  0.27164384149E+03  0.36176559147E+03  0.53683289074E+03  0.46999998093E+01 0.  1.
</event>
<event>
 5   0  0.4428114E-03  0.1068739E+04  0.7818609E-02  0.9236208E-01
        1   -1    0    0  501    0  0.00000000000E+00  0.00000000000E+00  0.87198177385E+03  0.87198177386E+03  0.50400001928E-02 0.  1.
       -1   -1    0    0    0  501  0.00000000000E+00  0.00000000000E+00 -0.32747318350E+03  0.32747318354E+03  0.50400001928E-02 0. -1.
    10030    2    1    2    0    0  0.00000000000E+00  0.00000000000E+00  0.54450859034E+03  0.11994549574E+04  0.10687387847E+04 0.  0.
        4    1    3    3  502    0  0.41185631471E+03  0.32372911481E+03  0.15388997168E+03  0.54599441392E+03  0.12699999809E+01 0. -1.
       -4    1    3    3    0  502 -0.41185631471E+03 -0.32372911481E+03  0.39061861866E+03  0.65346054348E+03  0.12699999809E+01 0.  1.
</event>
<event>
 5   0  0.4428114E-03  0.1127040E+04  0.7818609E-02  0.9179231E-01
        1   -1    0    0  501    0  0.00000000000E+00  0.00000000000E+00  0.72558880459E+03  0.72558880461E+03  0.50400001928E-02 0. -1.
       -1   -1    0    0    0  501  0.00000000000E+00  0.00000000000E+00 -0.43765081466E+03  0.43765081469E+03  0.50400001928E-02 0.  1.
    10030    2    1    2    0    0  0.00000000000E+00  0.00000000000E+00  0.28793798993E+03  0.11632396193E+04  0.11270395405E+04 0.  0.
        4    1    3    3  502    0 -0.14726688664E+02  0.53975812297E+03 -0.22446369203E+02  0.54042683044E+03  0.12699999809E+01 0.  1.
       -4    1    3    3    0  502  0.14726688664E+02 -0.53975812297E+03  0.31038435913E+03  0.62281278886E+03  0.12699999809E+01 0. -1.
</event>
<event>
 5   0  0.7712816E-03  0.1107728E+04  0.7818609E-02  0.9197692E-01
       -2   -1    0    0    0  501  0.00000000000E+00  0.00000000000E+00  0.13721935001E+04  0.13721935001E+04  0.25500000920E-02 0. -1.
        2   -1    0    0  501    0  0.00000000000E+00  0.00000000000E+00 -0.22355828310E+03  0.22355828311E+03  0.25500000920E-02 0.  1.
    10030    2    1    2    0    0  0.00000000000E+00  0.00000000000E+00  0.11486352170E+04  0.15957517832E+04  0.11077278059E+04 0.  0.
        2    1    3    3  502    0 -0.53759617885E+03  0.11525907694E+03  0.67064073414E+03  0.86721006719E+03  0.25500000920E-02 0. -1.
       -2    1    3    3    0  502  0.53759617885E+03 -0.11525907694E+03  0.47799448286E+03  0.72854171602E+03  0.25500000920E-02 0.  1.
</event>
<event>
 5   0  0.7537480E-03  0.1087181E+04  0.7818609E-02  0.9217777E-01
       -2   -1    0    0    0  501  0.00000000000E+00  0.00000000000E+00  0.50277510013E+03  0.50277510014E+03  0.25500000920E-02 0. -1.
        2   -1    0    0  501    0  0.00000000000E+00  0.00000000000E+00 -0.58771892272E+03  0.58771892273E+03  0.25500000920E-02 0.  1.
    10030    2    1    2    0    0  0.00000000000E+00  0.00000000000E+00 -0.84943822592E+02  0.10904940229E+04  0.10871806478E+04 0.  0.
        1    1    3    3  502    0 -0.53846946430E+03  0.39732251488E+02  0.20667724369E+02  0.54032876163E+03  0.50400001928E-02 0. -1.
       -1    1    3    3    0  502  0.53846946430E+03 -0.39732251488E+02 -0.10561154696E+03  0.55016526123E+03  0.50400001928E-02 0.  1.
</event>
<event>
 5   0  0.7537480E-03  0.1062397E+04  0.7818609E-02  0.9242638E-01
        2   -1    0    0  501    0  0.00000000000E+00  0.00000000000E+00  0.15863573929E+04  0.15863573929E+04  0.25500000920E-02 0.  1.
       -2   -1    0    0    0  501  0.00000000000E+00  0.00000000000E+00 -0.17787407015E+03  0.17787407017E+03  0.25500000920E-02 0. -1.
    10030    2    1    2    0    0  0.00000000000E+00  0.00000000000E+00  0.14084833228E+04  0.17642314631E+04  0.10623969996E+04 0.  0.
        1    1    3    3  502    0  0.29297761442E+03 -0.30156887280E+03  0.16513720919E+03  0.45171890095E+03  0.50400001928E-02 0. -1.
       -1    1    3    3    0  502 -0.29297761442E+03  0.30156887280E+03  0.12433461136E+04  0.13125125621E+04  0.50400001928E-02 0.  1.
</event>
<event>
 5   0  0.4598561E-03  0.1071222E+04  0.7818609E-02  0.9233704E-01
       -1   -1    0    0    0  501  0.00000000000E+00  0.00000000000E+00  0.81739202219E+03  0.81739202221E+03  0.50400001928E-02 0.  1.
        1   -1    0    0  501    0  0.00000000000E+00  0.00000000000E+00 -0.35096868608E+03  0.35096868611E+03  0.50400001928E-02 0. -1.
    10030    2    1    2    0    0  0.00000000000E+00  0.00000000000E+00  0.46642333611E+03  0.11683607083E+04  0.10712217400E+04 0.  0.
        2    1    3    3  502    0 -0.51975609378E+03 -0.95576554542E+02  0.13814254839E+03  0.54622764346E+03  0.25500000920E-02 0.  1.
       -2    1    3    3    0  502  0.51975609378E+03  0.95576554542E+02  0.32828078773E+03  0.62213306486E+03  0.25500000920E-02 0. -1.
</event>
<event>
 5   0  0.7766551E-03  0.1096430E+04  0.7818609E-02  0.9208678E-01
        2   -1    0    0  501    0  0.00000000000E+00  0.00000000000E+00  0.34858091786E+03  0.34858091787E+03  0.25500000920E-02 0. -1.
       -2   -1    0    0    0  501  0.00000000000E+00  0.00000000000E+00 -0.86218055369E+03  0.86218055369E+03  0.25500000920E-02 0.  1.
    10030    2    1    2    0    0  0.00000000000E+00  0.00000000000E+00 -0.51359963583E+03  0.12107614716E+04  0.10964300046E+04 0.  0.
        5    1    3    3  502    0  0.52928523543E+03 -0.14124074443E+03 -0.27958621354E+03  0.61504662354E+03  0.46999998093E+01 0. -1.
       -5    1    3    3    0  502 -0.52928523543E+03  0.14124074443E+03 -0.23401342229E+03  0.59571484801E+03  0.46999998093E+01 0.  1.
</event>
<event>
 5   0  0.4428114E-03  0.1084413E+04  0.7818609E-02  0.9220519E-01
        1   -1    0    0  501    0  0.00000000000E+00  0.00000000000E+00  0.20491272065E+04  0.20491272065E+04  0.50400001928E-02 0.  1.
       -1   -1    0    0    0  501  0.00000000000E+00  0.00000000000E+00 -0.14346976140E+03  0.14346976149E+03  0.50400001928E-02 0. -1.
    10030    2    1    2    0    0  0.00000000000E+00  0.00000000000E+00  0.19056574451E+04  0.21925969680E+04  0.10844128209E+04 0.  0.
        4    1    3    3  502    0 -0.17365830888E+03  0.75589884799E+02 -0.74408871624E+02  0.20349283034E+03  0.12699999809E+01 0. -1.
       -4    1    3    3    0  502  0.17365830888E+03 -0.75589884799E+02  0.19800663167E+04  0.19891041377E+04  0.12699999809E+01 0.  1.
</event>
<event>
 5   0  0.4641021E-03  0.1114296E+04  0.7818609E-02  0.9191369E-01
        1   -1    0    0  501    0  0.00000000000E+00  0.00000000000E+00  0.93205295971E+03  0.93205295972E+03  0.50400001928E-02 0. -1.
       -1   -1    0    0    0  501  0.00000000000E+00  0.00000000000E+00 -0.33304316080E+03  0.33304316084E+03  0.50400001928E-02 0.  1.
    10030    2    1    2    0    0  0.00000000000E+00  0.00000000000E+00  0.59900979891E+03  0.12650961206E+04  0.11142959459E+04 0.  0.
        1    1    3    3  502    0 -0.43730687953E+03  0.37715807680E+02  0.68909772050E+03  0.81701619167E+03  0.50400001928E-02 0. -1.
       -1    1    3    3    0  502  0.43730687953E+03 -0.37715807680E+02 -0.90087921587E+02  0.44807992889E+03  0.50400001928E-02 0.  1.
</event>
<event>
 5   0  0.4641021E-03  0.1097318E+04  0.7818609E-02  0.9207810E-01
        1   -1    0    0  501    0  0.00000000000E+00  0.00000000000E+00  0.99388609711E+03  0.99388609712E+03  0.50400001928E-02 0. -1.
       -1   -1    0    0    0  501  0.00000000000E+00  0.00000000000E+00 -0.30287828997E+03  0.30287829002E+03  0.50400001928E-02 0.  1.
    10030    2    1    2    0    0  0.00000000000E+00  0.00000000000E+00  0.69100780714E+03  0.12967643871E+04  0.10973176779E+04 0.  0.
        1    1    3    3  502    0 -0.32615237928E+03 -0.41232326149E+03  0.53100863884E+03  0.74723224035E+03  0.50400001928E-02 0. -1.
       -1    1    3    3    0  502  0.32615237928E+03  0.41232326149E+03  0.15999916829E+03  0.54953214678E+03  0.50400001928E-02 0.  1.
</event>
<event>
 5   0  0.4598561E-03  0.7897370E+03  0.7818609E-02  0.9574992E-01
       -1   -1    0    0    0  501  0.00000000000E+00  0.00000000000E+00  0.33475880906E+03  0.33475880910E+03  0.50400001928E-02 0. -1.
        1   -1    0    0  501    0  0.00000000000E+00  0.00000000000E+00 -0.46577151846E+03  0.46577151848E+03  0.50400001928E-02 0.  1.
    10030    2    1    2    0    0  0.00000000000E+00  0.00000000000E+00 -0.13101270939E+03  0.80053032759E+03  0.78973696593E+03 0.  0.
        2    1    3    3  502    0 -0.29462627034E+03  0.32880909393E+02 -0.32990702751E+03  0.44353628959E+03  0.25500000920E-02 0.  1.
       -2    1    3    3    0  502  0.29462627034E+03 -0.32880909393E+02  0.19889431811E+03  0.35699403800E+03  0.25500000920E-02 0. -1.
</event>
<event>
 5   0  0.4641021E-03  0.9338161E+03  0.7818609E-02  0.9384270E-01
        1   -1    0    0  501    0  0.00000000000E+00  0.00000000000E+00  0.21950028107E+03  0.21950028113E+03  0.50400001928E-02 0. -1.
       -1   -1    0    0    0  501  0.00000000000E+00  0.00000000000E+00 -0.99317927438E+03  0.99317927439E+03  0.50400001928E-02 0.  1.
    10030    2    1    2    0    0  0.00000000000E+00  0.00000000000E+00 -0.77367899331E+03  0.12126795555E+04  0.93381610592E+03 0.  0.
        1    1    3    3  502    0 -0.14798923501E+03  0.36589664214E+02 -0.95995016803E+03  0.97197939398E+03  0.50400001928E-02 0.  1.
       -1    1    3    3    0  502  0.14798923501E+03 -0.36589664214E+02  0.18627117472E+03  0.24070016154E+03  0.50400001928E-02 0. -1.
</event>
<event>
 5   0  0.7952121E-03  0.1070343E+04  0.7818609E-02  0.9234589E-01
        2   -1    0    0  501    0  0.00000000000E+00  0.00000000000E+00  0.21103895813E+04  0.21103895813E+04  0.25500000920E-02 0. -1.
       -2   -1    0    0    0  501  0.00000000000E+00  0.00000000000E+00 -0.13571370036E+03  0.13571370039E+03  0.25500000920E-02 0.  1.
    10030    2    1    2    0    0  0.00000000000E+00  0.00000000000E+00  0.19746758809E+04  0.22461032817E+04  0.10703434576E+04 0.  0.
        3    1    3    3  502    0 -0.13453618163E+03 -0.29139960853E+03  0.88667675716E+02  0.33298000380E+03  0.10100000352E+00 0.  1.
       -3    1    3    3    0  502  0.13453618163E+03  0.29139960853E+03  0.18860082052E+04  0.19131232779E+04  0.10100000352E+00 0. -1.
</event>
<event>
 5   0  0.4298101E-03  0.1115378E+04  0.7818609E-02  0.9190332E-01
        1   -1    0    0  501    0  0.00000000000E+00  0.00000000000E+00  0.93793280150E+03  0.93793280152E+03  0.50400001928E-02 0. -1.
       -1   -1    0    0    0  501  0.00000000000E+00  0.00000000000E+00 -0.33159835552E+03  0.33159835556E+03  0.50400001928E-02 0.  1.
    10030    2    1    2    0    0  0.00000000000E+00  0.00000000000E+00  0.60633444598E+03  0.12695311571E+04  0.11153779173E+04 0.  0.
        3    1    3    3  502    0  0.59590531318E+02  0.29512164176E+03  0.83748142740E+03  0.88995672159E+03  0.10100000352E+00 0. -1.
       -3    1    3    3    0  502 -0.59590531318E+02 -0.29512164176E+03 -0.23114698142E+03  0.37957443549E+03  0.10100000352E+00 0.  1.
</event>
<event>
 5   0  0.7738497E-03  0.1108069E+04  0.7818609E-02  0.9197363E-01
        2   -1    0    0  501    0  0.00000000000E+00  0.00000000000E+00  0.47340370739E+03  0.47340370740E+03  0.25500000920E-02 0. -1.
       -2   -1    0    0    0  501  0.00000000000E+00  0.00000000000E+00 -0.64839834230E+03  0.64839834230E+03  0.25500000920E-02 0.  1.
    10030    2    1    2    0    0  0.00000000000E+00  0.00000000000E+00 -0.17499463490E+03  0.11218020497E+04  0.11080689132E+04 0.  0.
        4    1    3    3  502    0 -0.79649678532E+02 -0.54735408273E+03 -0.11970358296E+03  0.56592501609E+03  0.12699999809E+01 0. -1.
       -4    1    3    3    0  502  0.79649678532E+02  0.54735408273E+03 -0.55291051942E+02  0.55587703361E+03  0.12699999809E+01 0.  1.
</event>
<event>
 5   0  0.7952121E-03  0.1120902E+04  0.7818609E-02  0.9185055E-01
        2   -1    0    0  501    0  0.00000000000E+00  0.00000000000E+00  0.12650555136E+04  0.12650555136E+04  0.25500000920E-02 0. -1.
       -2   -1    0    0    0  501  0.00000000000E+00  0.00000000000E+00 -0.24829376672E+03  0.24829376673E+03  0.25500000920E-02 0.  1.
    10030    2    1    2    0    0  0.00000000000E+00  0.00000000000E+00  0.10167617469E+04  0.15133492804E+04  0.11209021342E+04 0.  0.
        3    1    3    3  502    0 -0.37458458758E+03  0.10422558273E+03  0.10533481335E+04  0.11228173876E+04  0.10100000352E+00 0. -1.
       -3    1    3    3    0  502  0.37458458758E+03 -0.10422558273E+03 -0.36586386621E+02  0.39053189273E+03  0.10100000352E+00 0.  1.
</event>
<event>
 5   0  0.7712816E-03  0.1091019E+04  0.7818609E-02  0.9213990E-01
       -2   -1    0    0    0  501  0.00000000000E+00  0.00000000000E+00  0.61110909237E+03  0.61110909238E+03  0.25500000920E-02 0. -1.
        2   -1    0    0  501    0  0.00000000000E+00  0.00000000000E+00 -0.48695189193E+03  0.48695189194E+03  0.25500000920E-02 0.  1.
    10030    2    1    2    0    0  0.00000000000E+00  0.00000000000E+00  0.12415720044E+03  0.10980609843E+04  0.10910192092E+04 0.  0.
        2    1    3    3  502    0  0.28382863187E+03 -0.12191777975E+03  0.51460052734E+03  0.60019691771E+03  0.25500000920E-02 0. -1.
       -2    1    3    3    0  502 -0.28382863187E+03  0.12191777975E+03 -0.39044332690E+03  0.49786406660E+03  0.25500000920E-02 0.  1.
</event>
<event>
 5   0  0.4504740E-03  0.1100640E+04  0.7818609E-02  0.9204568E-01
        1   -1    0    0  501    0  0.00000000000E+00  0.00000000000E+00  0.84630072426E+03  0.84630072428E+03  0.50400001928E-02 0. -1.
       -1   -1    0    0    0  501  0.00000000000E+00  0.00000000000E+00 -0.35785411111E+03  0.35785411115E+03  0.50400001928E-02 0.  1.
    10030    2    1    2    0    0  0.00000000000E+00  0.00000000000E+00  0.48844661315E+03  0.12041548354E+04  0.11006401654E+04 0.  0.
        5    1    3    3  502    0 -0.17885833503E+03 -0.24898907753E+03  0.74419823411E+03  0.80488444288E+03  0.46999998093E+01 0. -1.
       -5    1    3    3    0  502  0.17885833503E+03  0.24898907753E+03 -0.25575162096E+03  0.39927039255E+03  0.46999998093E+01 0.  1.
</event>
<event>
 5   0  0.4641021E-03  0.1100125E+04  0.7818609E-02  0.9205070E-01
       -1   -1    0    0    0  501  0.00000000000E+00  0.00000000000E+00  0.69957755388E+03  0.69957755390E+03  0.50400001928E-02 0. -1.
        1   -1    0    0  501    0  0.00000000000E+00  0.00000000000E+00 -0.43250211835E+03  0.43250211837E+03  0.50400001928E-02 0.  1.
    10030    2    1    2    0    0  0.00000000000E+00  0.00000000000E+00  0.26707543554E+03  0.11320796723E+04  0.11001250366E+04 0.  0.
        1    1    3    3  502    0 -0.35105252278E+03 -0.24537443001E+03 -0.22162834382E+03  0.48225056502E+03  0.50400001928E-02 0.  1.
       -1    1    3    3    0  502  0.35105252278E+03  0.24537443001E+03  0.48870377936E+03  0.64982910726E+03  0.50400001928E-02 0. -1.
</event>
<event>
 5   0  0.7738497E-03  0.1110784E+04  0.7818609E-02  0.9194745E-01
        2   -1    0    0  501    0  0.00000000000E+00  0.00000000000E+00  0.66321724680E+03  0.66321724680E+03  0.25500000920E-02 0.  1.
       -2   -1    0    0    0  501  0.00000000000E+00  0.00000000000E+00 -0.46509660604E+03  0.46509660604E+03  0.25500000920E-02 0. -1.
    10030    2    1    2    0    0  0.00000000000E+00  0.00000000000E+00  0.19812064076E+03  0.11283138528E+04  0.11107836703E+04 0.  0.
        4    1    3    3  502    0 -0.24053075553E+02  0.29668945578E+03  0.57534750651E+03  0.64778819822E+03  0.12699999809E+01 0.  1.
       -4    1    3    3    0  502  0.24053075553E+02 -0.29668945578E+03 -0.37722686574E+03  0.48052565462E+03  0.12699999809E+01 0. -1.
</event>
<event>
 5   0  0.7738497E-03  0.8234809E+03  0.7818609E-02  0.9526638E-01
        2   -1    0    0  501    0  0.00000000000E+00  0.00000000000E+00  0.45835262382E+03  0.45835262383E+03  0.25500000920E-02 0. -1.
       -2   -1    0    0    0  501  0.00000000000E+00  0.00000000000E+00 -0.36986847396E+03  0.36986847397E+03  0.25500000920E-02 0.  1.
    10030    2    1    2    0    0  0.00000000000E+00  0.00000000000E+00  0.88484149864E+02  0.82822109780E+03  0.82348086928E+03 0.  0.
        4    1    3    3  502    0  0.80707577542E+02  0.26048109023E+03  0.35450520644E+03  0.44725794094E+03  0.12699999809E+01 0. -1.
       -4    1    3    3    0  502 -0.80707577542E+02 -0.26048109023E+03 -0.26602105658E+03  0.38096315686E+03  0.12699999809E+01 0.  1.
</event>
<event>
 5   0  0.7766551E-03  0.1107020E+04  0.7818609E-02  0.9198377E-01
       -2   -1    0    0    0  501  0.00000000000E+00  0.00000000000E+00  0.73602225649E+03  0.73602225649E+03  0.25500000920E-02 0. -1.
        2   -1    0    0  501    0  0.00000000000E+00  0.00000000000E+00 -0.41625555613E+03  0.41625555614E+03  0.25500000920E-02 0.  1.
    10030    2    1    2    0    0  0.00000000000E+00  0.00000000000E+00  0.31976670036E+03  0.11522778126E+04  0.11070200607E+04 0.  0.
        5    1    3    3  502    0  0.42609860742E+03  0.31815534064E+03  0.86968907794E-01  0.53179407818E+03  0.46999998093E+01 0.  1.
       -5    1    3    3    0  502 -0.42609860742E+03 -0.31815534064E+03  0.31967973145E+03  0.62048373445E+03  0.46999998093E+01 0. -1.
</event>
<event>
 5   0  0.7952121E-03  0.1095026E+04  0.7818609E-02  0.9210053E-01
        2   -1    0    0  501    0  0.00000000000E+00  0.00000000000E+00  0.87390032197E+03  0.87390032197E+03  0.25500000920E-02 0.  1.
       -2   -1    0    0    0  501  0.00000000000E+00  0.00000000000E+00 -0.34302595644E+03  0.34302595644E+03  0.25500000920E-02 0. -1.
    10030    2    1    2    0    0  0.00000000000E+00  0.00000000000E+00  0.53087436553E+03  0.12169262784E+04  0.10950260157E+04 0.  0.
        3    1    3    3  502    0 -0.45055772875E+03  0.21146624391E+03  0.11894420032E+02  0.49785713481E+03  0.10100000352E+00 0. -1.
       -3    1    3    3    0  502  0.45055772875E+03 -0.21146624391E+03  0.51897994550E+03  0.71906914361E+03  0.10100000352E+00 0.  1.
</event>
<event>
 5   0  0.7738497E-03  0.1089778E+04  0.7818609E-02  0.9215213E-01
       -2   -1    0    0    0  501  0.00000000000E+00  0.00000000000E+00  0.83742757898E+03  0.83742757899E+03  0.25500000920E-02 0. -1.
        2   -1    0    0  501    0  0.00000000000E+00  0.00000000000E+00 -0.35454295795E+03  0.35454295795E+03  0.25500000920E-02 0.  1.
    10030    2    1    2    0    0  0.00000000000E+00  0.00000000000E+00  0.48288462104E+03  0.11919705369E+04  0.10897780525E+04 0.  0.
        4    1    3    3  502    0 -0.39873634225E+03 -0.26626437786E+03  0.52459039734E+03  0.71069268142E+03  0.12699999809E+01 0. -1.
       -4    1    3    3    0  502  0.39873634225E+03  0.26626437786E+03 -0.41705776297E+02  0.48127785553E+03  0.12699999809E+01 0.  1.
</event>
<event>
 5   0  0.4504740E-03  0.1116538E+04  0.7818609E-02  0.9189221E-01
       -1   -1    0    0    0  501  0.00000000000E+00  0.00000000000E+00  0.35937844703E+03  0.35937844707E+03  0.50400001928E-02 0.  1.
        1   -1    0    0  501    0  0.00000000000E+00  0.00000000000E+00 -0.86723143899E+03  0.86723143900E+03  0.50400001928E-02 0. -1.
    10030    2    1    2    0    0  0.00000000000E+00  0.00000000000E+00 -0.50785299195E+03  0.12266098861E+04  0.11165380205E+04 0.  0.
        5    1    3    3  502    0 -0.25248780220E+02 -0.33502389164E+02  0.35762258865E+03  0.36010542469E+03  0.46999998093E+01 0.  1.
       -5    1    3    3    0  502  0.25248780220E+02  0.33502389164E+02 -0.86547558060E+03  0.86650446138E+03  0.46999998093E+01 0. -1.
</event>
<event>
 5   0  0.4598561E-03  0.1096240E+04  0.7818609E-02  0.9208865E-01
       -1   -1    0    0    0  501  0.00000000000E+00  0.00000000000E+00  0.38712710666E+03  0.38712710669E+03  0.50400001928E-02 0. -1.
        1   -1    0    0  501    0  0.00000000000E+00  0.00000000000E+00 -0.77606385229E+03  0.77606385230E+03  0.50400001928E-02 0.  1.
    10030    2    1    2    0    0  0.00000000000E+00  0.00000000000E+00 -0.38893674563E+03  0.11631909590E+04  0.10962396704E+04 0.  0.
        2    1    3    3  502    0  0.42542763529E+03 -0.22410557724E+03 -0.47364038473E+03  0.67494236545E+03  0.25500000920E-02 0.  1.
       -2    1    3    3    0  502 -0.42542763529E+03  0.22410557724E+03  0.84703639103E+02  0.48824859355E+03  0.25500000920E-02 0. -1.
</event>
<event>
 5   0  0.2992375E-03  0.1099544E+04  0.7818609E-02  0.9205636E-01
        3   -1    0    0  501    0  0.00000000000E+00  0.00000000000E+00  0.60936194173E+03  0.60936195010E+03  0.10100000352E+00 0.  1.
       -3   -1    0    0    0  501  0.00000000000E+00  0.00000000000E+00 -0.49600972318E+03  0.49600973347E+03  0.10100000352E+00 0. -1.
    10030    2    1    2    0    0  0.00000000000E+00  0.00000000000E+00  0.11335221854E+03  0.11053716836E+04  0.10995443754E+04 0.  0.
        5    1    3    3  502    0  0.52068901735E+03 -0.16813326788E+03  0.11026452477E+03  0.55818115695E+03  0.46999998093E+01 0.  1.
       -5    1    3    3    0  502 -0.52068901735E+03  0.16813326788E+03  0.30876937769E+01  0.54719052661E+03  0.46999998093E+01 0. -1.
</event>
<event>
 5   0  0.7738497E-03  0.1081353E+04  0.7818609E-02  0.9223560E-01
       -2   -1    0    0    0  501  0.00000000000E+00  0.00000000000E+00  0.21248525935E+03  0.21248525936E+03  0.25500000920E-02 0. -1.
        2   -1    0    0  501    0  0.00000000000E+00  0.00000000000E+00 -0.13757704148E+04  0.13757704148E+04  0.25500000920E-02 0.  1.
    10030    2    1    2    0    0  0.00000000000E+00  0.00000000000E+00 -0.11632851555E+04  0.15882556742E+04  0.10813527332E+04 0.  0.
        4    1    3    3  502    0  0.47980794009E+03 -0.12837369920E+03 -0.89540187948E+03  0.10239343752E+04  0.12699999809E+01 0.  1.
       -4    1    3    3    0  502 -0.47980794009E+03  0.12837369920E+03 -0.26788327597E+03  0.56432129897E+03  0.12699999809E+01 0. -1.
</event>
<event>
 5   0  0.7952121E-03  0.1118232E+04  0.7818609E-02  0.9187602E-01
       -2   -1    0    0    0  501  0.00000000000E+00  0.00000000000E+00  0.13179586457E+03  0.13179586459E+03  0.25500000920E-02 0. -1.
        2   -1    0    0  501    0  0.00000000000E+00  0.00000000000E+00 -0.23719289992E+04  0.23719289992E+04  0.25500000920E-02 0.  1.
    10030    2    1    2    0    0  0.00000000000E+00  0.00000000000E+00 -0.22401331346E+04  0.25037248638E+04  0.11182315202E+04 0.  0.
        3    1    3    3  502    0  0.24349012475E+03 -0.46955813707E+03 -0.71433001506E+03  0.88884175507E+03  0.10100000352E+00 0. -1.
       -3    1    3    3    0  502 -0.24349012475E+03  0.46955813707E+03 -0.15258031196E+04  0.16148831087E+04  0.10100000352E+00 0.  1.
</event>
<event>
 5   0  0.2992375E-03  0.1110044E+04  0.7818609E-02  0.9195457E-01
       -3   -1    0    0    0  501  0.00000000000E+00  0.00000000000E+00  0.67032682004E+03  0.67032682765E+03  0.10100000352E+00 0. -1.
        3   -1    0    0  501    0  0.00000000000E+00  0.00000000000E+00 -0.45955118826E+03  0.45955119936E+03  0.10100000352E+00 0.  1.
    10030    2    1    2    0    0  0.00000000000E+00  0.00000000000E+00  0.21077563178E+03  0.11298780270E+04  0.11100441383E+04 0.  0.
        2    1    3    3  502    0 -0.26875702961E+03  0.16857900631E+03  0.56893716854E+03  0.65141286761E+03  0.25500000920E-02 0. -1.
       -2    1    3    3    0  502  0.26875702961E+03 -0.16857900631E+03 -0.35816153676E+03  0.47846515939E+03  0.25500000920E-02 0.  1.
</event>
<event>
 5   0  0.7712816E-03  0.1077876E+04  0.7818609E-02  0.9227027E-01
        2   -1    0    0  501    0  0.00000000000E+00  0.00000000000E+00  0.71057194967E+03  0.71057194967E+03  0.25500000920E-02 0. -1.
       -2   -1    0    0    0  501  0.00000000000E+00  0.00000000000E+00 -0.40876131471E+03  0.40876131472E+03  0.25500000920E-02 0.  1.
    10030    2    1    2    0    0  0.00000000000E+00  0.00000000000E+00  0.30181063496E+03  0.11193332644E+04  0.10778762904E+04 0.  0.
        2    1    3    3  502    0 -0.22598237554E+03 -0.57971484687E+02  0.65541562536E+03  0.69569991309E+03  0.25500000920E-02 0. -1.
       -2    1    3    3    0  502  0.22598237554E+03  0.57971484687E+02 -0.35360499040E+03  0.42363335130E+03  0.25500000920E-02 0.  1.
</event>
<event>
 5   0  0.7738497E-03  0.1102915E+04  0.7818609E-02  0.9202355E-01
       -2   -1    0    0    0  501  0.00000000000E+00  0.00000000000E+00  0.48572113834E+03  0.48572113835E+03  0.25500000920E-02 0. -1.
        2   -1    0    0  501    0  0.00000000000E+00  0.00000000000E+00 -0.62609072250E+03  0.62609072250E+03  0.25500000920E-02 0.  1.
    10030    2    1    2    0    0  0.00000000000E+00  0.00000000000E+00 -0.14036958416E+03  0.11118118608E+04  0.11029152251E+04 0.  0.
        4    1    3    3  502    0  0.49154762474E+03  0.24719648209E+03 -0.10761539283E+03  0.56063165610E+03  0.12699999809E+01 0.  1.
       -4    1    3    3    0  502 -0.49154762474E+03 -0.24719648209E+03 -0.32754191322E+02  0.55118020474E+03  0.12699999809E+01 0. -1.
</event>
<event>
 5   0  0.4641021E-03  0.1086330E+04  0.7818609E-02  0.9218619E-01
        1   -1    0    0  501    0  0.00000000000E+00  0.00000000000E+00  0.14137445303E+04  0.14137445303E+04  0.50400001928E-02 0.  1.
       -1   -1    0    0    0  501  0.00000000000E+00  0.00000000000E+00 -0.20868555520E+03  0.20868555526E+03  0.50400001928E-02 0. -1.
    10030    2    1    2    0    0  0.00000000000E+00  0.00000000000E+00  0.12050589750E+04  0.16224300855E+04  0.10863297147E+04 0.  0.
        1    1    3    3  502    0 -0.39108588812E+03 -0.10655781000E+03  0.11425175943E+04  0.12122908859E+04  0.50400001928E-02 0.  1.
       -1    1    3    3    0  502  0.39108588812E+03  0.10655781000E+03  0.62541380796E+02  0.41013919966E+03  0.50400001928E-02 0. -1.
</event>
<event>
 5   0  0.7712816E-03  0.1108116E+04  0.7818609E-02  0.9197317E-01
        2   -1    0    0  501    0  0.00000000000E+00  0.00000000000E+00  0.35558062682E+03  0.35558062683E+03  0.25500000920E-02 0.  1.
       -2   -1    0    0    0  501  0.00000000000E+00  0.00000000000E+00 -0.86332114388E+03  0.86332114388E+03  0.25500000920E-02 0. -1.
    10030    2    1    2    0    0  0.00000000000E+00  0.00000000000E+00 -0.50774051706E+03  0.12189017707E+04  0.11081160111E+04 0.  0.
        2    1    3    3  502    0  0.17114907972E+03 -0.50913927510E+03 -0.40334354961E+03  0.67171484126E+03  0.25500000920E-02 0. -1.
       -2    1    3    3    0  502 -0.17114907972E+03  0.50913927510E+03 -0.10439696745E+03  0.54718692945E+03  0.25500000920E-02 0.  1.
</event>
<event>
 5   0  0.4504740E-03  0.1021899E+04  0.7818609E-02  0.9284847E-01
       -1   -1    0    0    0  501  0.00000000000E+00  0.00000000000E+00  0.47248387990E+03  0.47248387993E+03  0.50400001928E-02 0. -1.
        1   -1    0    0  501    0  0.00000000000E+00  0.00000000000E+00 -0.55254712529E+03  0.55254712531E+03  0.50400001928E-02 0.  1.
    10030    2    1    2    0    0  0.00000000000E+00  0.00000000000E+00 -0.80063245386E+02  0.10250310052E+04  0.10218994268E+04 0.  0.
        5    1    3    3  502    0 -0.12511802839E+03 -0.29542233286E+03  0.35882828740E+03  0.48136130466E+03  0.46999998093E+01 0. -1.
       -5    1    3    3    0  502  0.12511802839E+03  0.29542233286E+03 -0.43889153279E+03  0.54366970058E+03  0.46999998093E+01 0.  1.
</event>
<event>
 5   0  0.2992375E-03  0.1118892E+04  0.7818609E-02  0.9186971E-01
        3   -1    0    0  501    0  0.00000000000E+00  0.00000000000E+00  0.13026042013E+04  0.13026042052E+04  0.10100000352E+00 0.  1.
       -3   -1    0    0    0  501  0.00000000000E+00  0.00000000000E+00 -0.24027247128E+03  0.24027249251E+03  0.10100000352E+00 0. -1.
    10030    2    1    2    0    0  0.00000000000E+00  0.00000000000E+00  0.10623317300E+04  0.15428766977E+04  0.11188922199E+04 0.  0.
        1    1    3    3  502    0 -0.33150794962E+03  0.12049326173E+03  0.11299525441E+04  0.11837266993E+04  0.50400001928E-02 0.  1.
       -1    1    3    3    0  502  0.33150794962E+03 -0.12049326173E+03 -0.67620814124E+02  0.35914999835E+03  0.50400001928E-02 0. -1.
</event>
<event>
 5   0  0.4298101E-03  0.1106559E+04  0.7818609E-02  0.9198822E-01
        1   -1    0    0  501    0  0.00000000000E+00  0.00000000000E+00  0.57316980419E+03  0.57316980421E+03  0.50400001928E-02 0.  1.
       -1   -1    0    0    0  501  0.00000000000E+00  0.00000000000E+00 -0.53407983105E+03  0.53407983107E+03  0.50400001928E-02 0. -1.
    10030    2    1    2    0    0  0.00000000000E+00  0.00000000000E+00  0.39089973142E+02  0.11072496353E+04  0.11065594104E+04 0.  0.
        3    1    3    3  502    0 -0.37553813540E+03  0.16941156805E+03  0.38908450030E+03  0.56667091782E+03  0.10100000352E+00 0.  1.
       -3    1    3    3    0  502  0.37553813540E+03 -0.16941156805E+03 -0.34999452716E+03  0.54057871746E+03  0.10100000352E+00 0. -1.
</event>
<event>
 5   0  0.7766551E-03  0.1069273E+04  0.7818609E-02  0.9235669E-01
       -2   -1    0    0    0  501  0.00000000000E+00  0.00000000000E+00  0.82606625310E+03  0.82606625310E+03  0.25500000920E-02 0.  1.
        2   -1    0    0  501    0  0.00000000000E+00  0.00000000000E+00 -0.34602113709E+03  0.34602113710E+03  0.25500000920E-02 0. -1.
    10030    2    1    2    0    0  0.00000000000E+00  0.00000000000E+00  0.48004511601E+03  0.11720873902E+04  0.10692733686E+04 0.  0.
        5    1    3    3  502    0 -0.45124722576E+03 -0.20070648364E+02  0.55350589161E+03  0.71443526770E+03  0.46999998093E+01 0.  1.
       -5    1    3    3    0  502  0.45124722576E+03  0.20070648364E+02 -0.73460775598E+02  0.45765212250E+03  0.46999998093E+01 0. -1.
</event>
<event>
 5   0  0.4504740E-03  0.1078764E+04  0.7818609E-02  0.9226140E-01
       -1   -1    0    0    0  501  0.00000000000E+00  0.00000000000E+00  0.11311128385E+04  0.11311128385E+04  0.50400001928E-02 0. -1.
        1   -1    0    0  501    0  0.00000000000E+00  0.00000000000E+00 -0.25720967322E+03  0.25720967327E+03  0.50400001928E-02 0.  1.
    10030    2    1    2    0    0  0.00000000000E+00  0.00000000000E+00  0.87390316524E+03  0.13883225117E+04  0.10787644110E+04 0.  0.
        5    1    3    3  502    0 -0.10288660937E+03  0.45951083893E+03  0.98466921662E+02  0.48109634185E+03  0.46999998093E+01 0. -1.
       -5    1    3    3    0  502  0.10288660937E+03 -0.45951083893E+03  0.77543624358E+03  0.90722616989E+03  0.46999998093E+01 0.  1.
</event>
<event>
 5   0  0.7952121E-03  0.1096372E+04  0.7818609E-02  0.9208735E-01
       -2   -1    0    0    0  501  0.00000000000E+00  0.00000000000E+00  0.47529124287E+03  0.47529124288E+03  0.25500000920E-02 0. -1.
        2   -1    0    0  501    0  0.00000000000E+00  0.00000000000E+00 -0.63226049687E+03  0.63226049688E+03  0.25500000920E-02 0.  1.
    10030    2    1    2    0    0  0.00000000000E+00  0.00000000000E+00 -0.15696925400E+03  0.11075517398E+04  0.10963719759E+04 0.  0.
        3    1    3    3  502    0 -0.23514389812E+03  0.48148011526E+03 -0.19538897110E+03  0.57034429465E+03  0.10100000352E+00 0.  1.
       -3    1    3    3    0  502  0.23514389812E+03 -0.48148011526E+03  0.38419717103E+02  0.53720744511E+03  0.10100000352E+00 0. -1.
</event>
<event>
 5   0  0.4641021E-03  0.1079950E+04  0.7818609E-02  0.9224957E-01
        1   -1    0    0  501    0  0.00000000000E+00  0.00000000000E+00  0.14366426145E+04  0.14366426145E+04  0.50400001928E-02 0.  1.
       -1   -1    0    0    0  501  0.00000000000E+00  0.00000000000E+00 -0.20295444224E+03  0.20295444231E+03  0.50400001928E-02 0. -1.
    10030    2    1    2    0    0  0.00000000000E+00  0.00000000000E+00  0.12336881723E+04  0.16395970568E+04  0.10799499999E+04 0.  0.
        1    1    3    3  502    0 -0.63263405436E+01  0.15301086833E+03 -0.16929359763E+03  0.22828199806E+03  0.50400001928E-02 0. -1.
       -1    1    3    3    0  502  0.63263405436E+01 -0.15301086833E+03  0.14029817699E+04  0.14113150588E+04  0.50400001928E-02 0.  1.
</event>
<event>
 5   0  0.4298101E-03  0.1109628E+04  0.7818609E-02  0.9195858E-01
       -1   -1    0    0    0  501  0.00000000000E+00  0.00000000000E+00  0.22707174283E+03  0.22707174289E+03  0.50400001928E-02 0. -1.
        1   -1    0    0  501    0  0.00000000000E+00  0.00000000000E+00 -0.13556007245E+04  0.13556007245E+04  0.50400001928E-02 0.  1.
    10030    2    1    2    0    0  0.00000000000E+00  0.00000000000E+00 -0.11285289817E+04  0.15826724674E+04  0.11096280803E+04 0.  0.
        3    1    3    3  502    0 -0.31698809878E+03 -0.45497127525E+03 -0.59049822032E+03  0.81004226709E+03  0.10100000352E+00 0. -1.
       -3    1    3    3    0  502  0.31698809878E+03  0.45497127525E+03 -0.53803076133E+03  0.77263020029E+03  0.10100000352E+00 0.  1.
</event>
<event>
 5   0  0.7952121E-03  0.1062863E+04  0.7818609E-02  0.9242164E-01
       -2   -1    0    0    0  501  0.00000000000E+00  0.00000000000E+00  0.79956888152E+03  0.79956888153E+03  0.25500000920E-02 0.  1.
        2   -1    0    0  501    0  0.00000000000E+00  0.00000000000E+00 -0.35321473664E+03  0.35321473665E+03  0.25500000920E-02 0. -1.
    10030    2    1    2    0    0  0.00000000000E+00  0.00000000000E+00  0.44635414488E+03  0.11527836182E+04  0.10628631369E+04 0.  0.
        3    1    3    3  502    0  0.24836742288E+03  0.38788454453E+03 -0.64352373139E+02  0.46506132366E+03  0.10100000352E+00 0. -1.
       -3    1    3    3    0  502 -0.24836742288E+03 -0.38788454453E+03  0.51070651802E+03  0.68772229452E+03  0.10100000352E+00 0.  1.
</event>
<event>
 5   0  0.7766551E-03  0.1122034E+04  0.7818609E-02  0.9183978E-01
        2   -1    0    0  501    0  0.00000000000E+00  0.00000000000E+00  0.97002920722E+03  0.97002920723E+03  0.25500000920E-02 0.  1.
       -2   -1    0    0    0  501  0.00000000000E+00  0.00000000000E+00 -0.32446463304E+03  0.32446463305E+03  0.25500000920E-02 0. -1.
    10030    2    1    2    0    0  0.00000000000E+00  0.00000000000E+00  0.64556457419E+03  0.12944938403E+04  0.11220341720E+04 0.  0.
        5    1    3    3  502    0  0.98767253274E+02 -0.23679102529E+03  0.89835520496E+03  0.93428535483E+03  0.46999998093E+01 0.  1.
       -5    1    3    3    0  502 -0.98767253274E+02  0.23679102529E+03 -0.25279063077E+03  0.36020848544E+03  0.46999998093E+01 0. -1.
</event>
<event>
 5   0  0.7766551E-03  0.1101722E+04  0.7818609E-02  0.9203515E-01
        2   -1    0    0  501    0  0.00000000000E+00  0.00000000000E+00  0.18636098135E+04  0.18636098135E+04  0.25500000920E-02 0. -1.
       -2   -1    0    0    0  501  0.00000000000E+00  0.00000000000E+00 -0.16282801348E+03  0.16282801350E+03  0.25500000920E-02 0.  1.
    10030    2    1    2    0    0  0.00000000000E+00  0.00000000000E+00  0.17007818000E+04  0.20264378270E+04  0.11017220772E+04 0.  0.
        5    1    3    3  502    0  0.28993536373E+03  0.17132905781E+03  0.16521594942E+04  0.16861403398E+04  0.46999998093E+01 0. -1.
       -5    1    3    3    0  502 -0.28993536373E+03 -0.17132905781E+03  0.48622305831E+02  0.34029748723E+03  0.46999998093E+01 0.  1.
</event>
<event>
 5   0  0.4428114E-03  0.1085507E+04  0.7818609E-02  0.9219434E-01
       -1   -1    0    0    0  501  0.00000000000E+00  0.00000000000E+00  0.44867406743E+03  0.44867406746E+03  0.50400001928E-02 0. -1.
        1   -1    0    0  501    0  0.00000000000E+00  0.00000000000E+00 -0.65656010256E+03  0.65656010258E+03  0.50400001928E-02 0.  1.
    10030    2    1    2    0    0  0.00000000000E+00  0.00000000000E+00 -0.20788603513E+03  0.11052341700E+04  0.10855072395E+04 0.  0.
        4    1    3    3  502    0  0.17028746118E+03 -0.43263842316E+03  0.18115643174E+03  0.49899207438E+03  0.12699999809E+01 0. -1.
       -4    1    3    3    0  502 -0.17028746118E+03  0.43263842316E+03 -0.38904246687E+03  0.60624209567E+03  0.12699999809E+01 0.  1.
</event>
<event>
 5   0  0.4504740E-03  0.1097178E+04  0.7818609E-02  0.9207947E-01
        1   -1    0    0  501    0  0.00000000000E+00  0.00000000000E+00  0.44766124774E+03  0.44766124777E+03  0.50400001928E-02 0.  1.
       -1   -1    0    0    0  501  0.00000000000E+00  0.00000000000E+00 -0.67227118276E+03  0.67227118278E+03  0.50400001928E-02 0. -1.
    10030    2    1    2    0    0  0.00000000000E+00  0.00000000000E+00 -0.22460993502E+03  0.11199324306E+04  0.10971777550E+04 0.  0.
        5    1    3    3  502    0 -0.89073908110E+02  0.38522845135E+03 -0.50044441125E+03  0.63781017520E+03  0.46999998093E+01 0. -1.
       -5    1    3    3    0  502  0.89073908110E+02 -0.38522845135E+03  0.27583447623E+03  0.48212225536E+03  0.46999998093E+01 0.  1.
</event>
<event>
 5   0  0.4428114E-03  0.1130064E+04  0.7818609E-02  0.9176375E-01
       -1   -1    0    0    0  501  0.00000000000E+00  0.00000000000E+00  0.33267041045E+03  0.33267041049E+03  0.50400001928E-02 0. -1.
        1   -1    0    0  501    0  0.00000000000E+00  0.00000000000E+00 -0.95969221380E+03  0.95969221381E+03  0.50400001928E-02 0.  1.
    10030    2    1    2    0    0  0.00000000000E+00  0.00000000000E+00 -0.62702180334E+03  0.12923626243E+04  0.11300640738E+04 0.  0.
        4    1    3    3  502    0 -0.89672461941E+01 -0.56495683926E+03 -0.31154731332E+03  0.64522862853E+03  0.12699999809E+01 0. -1.
       -4    1    3    3    0  502  0.89672461941E+01  0.56495683926E+03 -0.31547449002E+03  0.64713399577E+03  0.12699999809E+01 0.  1.
</event>
<event>
 5   0  0.4298101E-03  0.9474983E+03  0.7818609E-02  0.9368080E-01
        1   -1    0    0  501    0  0.00000000000E+00  0.00000000000E+00  0.21577327040E+04  0.21577327040E+04  0.50400001928E-02 0.  1.
       -1   -1    0    0    0  501  0.00000000000E+00  0.00000000000E+00 -0.10401577432E+03  0.10401577444E+03  0.50400001928E-02 0. -1.
    10030    2    1    2    0    0  0.00000000000E+00  0.00000000000E+00  0.20537169297E+04  0.22617484785E+04  0.94749825989E+03 0.  0.
        3    1    3    3  502    0  0.19610173313E+03 -0.84836133560E+02  0.17532071418E+02  0.21438386839E+03  0.10100000352E+00 0. -1.
       -3    1    3    3    0  502 -0.19610173313E+03  0.84836133560E+02  0.20361848583E+04  0.20473646101E+04  0.10100000352E+00 0.  1.
</event>
<event>
 5   0  0.2992375E-03  0.1101561E+04  0.7818609E-02  0.9203671E-01
       -3   -1    0    0    0  501  0.00000000000E+00  0.00000000000E+00  0.91753172332E+03  0.91753172888E+03  0.10100000352E+00 0. -1.
        3   -1    0    0  501    0  0.00000000000E+00  0.00000000000E+00 -0.33062542323E+03  0.33062543866E+03  0.10100000352E+00 0.  1.
    10030    2    1    2    0    0  0.00000000000E+00  0.00000000000E+00  0.58690630008E+03  0.12481571675E+04  0.11015613055E+04 0.  0.
        5    1    3    3  502    0  0.44752793317E+03  0.25200734228E+03  0.51878596159E+03  0.73003418788E+03  0.46999998093E+01 0. -1.
       -5    1    3    3    0  502 -0.44752793317E+03 -0.25200734228E+03  0.68120338494E+02  0.51812297966E+03  0.46999998093E+01 0.  1.
</event>
<event>
 5   0  0.4428114E-03  0.1122614E+04  0.7818609E-02  0.9183427E-01
        1   -1    0    0  501    0  0.00000000000E+00  0.00000000000E+00  0.62658895370E+03  0.62658895372E+03  0.50400001928E-02 0. -1.
       -1   -1    0    0    0  501  0.00000000000E+00  0.00000000000E+00 -0.50282615090E+03  0.50282615092E+03  0.50400001928E-02 0.  1.
    10030    2    1    2    0    0  0.00000000000E+00  0.00000000000E+00  0.12376280280E+03  0.11294151046E+04  0.11226135788E+04 0.  0.
        4    1    3    3  502    0  0.26908310828E+03  0.15026990676E+03  0.53384723995E+03  0.61642619391E+03  0.12699999809E+01 0. -1.
       -4    1    3    3    0  502 -0.26908310828E+03 -0.15026990676E+03 -0.41008443715E+03  0.51298891073E+03  0.12699999809E+01 0.  1.
</event>
<event>
 5   0  0.7952121E-03  0.1095879E+04  0.7818609E-02  0.9209217E-01
        2   -1    0    0  501    0  0.00000000000E+00  0.00000000000E+00  0.83078263798E+03  0.83078263799E+03  0.25500000920E-02 0.  1.
       -2   -1    0    0    0  501  0.00000000000E+00  0.00000000000E+00 -0.36139164071E+03  0.36139164072E+03  0.25500000920E-02 0. -1.
    10030    2    1    2    0    0  0.00000000000E+00  0.00000000000E+00  0.46939099727E+03  0.11921742787E+04  0.10958793741E+04 0.  0.
        3    1    3    3  502    0  0.46440093482E+03  0.29046207083E+03  0.21925511760E+03  0.59000784710E+03  0.10100000352E+00 0. -1.
       -3    1    3    3    0  502 -0.46440093482E+03 -0.29046207083E+03  0.25013587967E+03  0.60216643160E+03  0.10100000352E+00 0.  1.
</event>
<event>
 5   0  0.7766551E-03  0.1088940E+04  0.7818609E-02  0.9216040E-01
       -2   -1    0    0    0  501  0.00000000000E+00  0.00000000000E+00  0.40284980770E+03  0.40284980771E+03  0.25500000920E-02 0.  1.
        2   -1    0    0  501    0  0.00000000000E+00  0.00000000000E+00 -0.73587555829E+03  0.73587555829E+03  0.25500000920E-02 0. -1.
    10030    2    1    2    0    0  0.00000000000E+00  0.00000000000E+00 -0.33302575059E+03  0.11387253660E+04  0.10889395340E+04 0.  0.
        5    1    3    3  502    0  0.18929840821E+03  0.49829458561E+03 -0.50565936652E+02  0.53545343901E+03  0.46999998093E+01 0.  1.
       -5    1    3    3    0  502 -0.18929840821E+03 -0.49829458561E+03 -0.28245981394E+03  0.60327192699E+03  0.46999998093E+01 0. -1.
</event>
<event>
 5   0  0.7766551E-03  0.1108305E+04  0.7818609E-02  0.9197135E-01
        2   -1    0    0  501    0  0.00000000000E+00  0.00000000000E+00  0.47591446039E+03  0.47591446040E+03  0.25500000920E-02 0.  1.
       -2   -1    0    0    0  501  0.00000000000E+00  0.00000000000E+00 -0.64525271029E+03  0.64525271030E+03  0.25500000920E-02 0. -1.
    10030    2    1    2    0    0  0.00000000000E+00  0.00000000000E+00 -0.16933824990E+03  0.11211671707E+04  0.11083051844E+04 0.  0.
        5    1    3    3  502    0 -0.62025006894E+02  0.48858714606E+03  0.17224372735E+03  0.52178011881E+03  0.46999998093E+01 0. -1.
       -5    1    3    3    0  502  0.62025006894E+02 -0.48858714606E+03 -0.34158197726E+03  0.59938705188E+03  0.46999998093E+01 0.  1.
</event>
<event>
 5   0  0.4641021E-03  0.1108455E+04  0.7818609E-02  0.9196990E-01
       -1   -1    0    0    0  501  0.00000000000E+00  0.00000000000E+00  0.24012184700E+03  0.24012184705E+03  0.50400001928E-02 0. -1.
        1   -1    0    0  501    0  0.00000000000E+00  0.00000000000E+00 -0.12792187515E+04  0.12792187515E+04  0.50400001928E-02 0.  1.
    10030    2    1    2    0    0  0.00000000000E+00  0.00000000000E+00 -0.10390969045E+04  0.15193405986E+04  0.11084554468E+04 0.  0.
        1    1    3    3  502    0 -0.26775766437E+03  0.33193043437E+02 -0.11831236686E+04  0.12134980676E+04  0.50400001928E-02 0.  1.
       -1    1    3    3    0  502  0.26775766437E+03 -0.33193043437E+02  0.14402676404E+03  0.30584253097E+03  0.50400001928E-02 0. -1.
</event>
<event>
 5   0  0.7537480E-03  0.1088872E+04  0.7818609E-02  0.9216106E-01
       -2   -1    0    0    0  501  0.00000000000E+00  0.00000000000E+00  0.60438706972E+03  0.60438706972E+03  0.25500000920E-02 0.  1.
        2   -1    0    0  501    0  0.00000000000E+00  0.00000000000E+00 -0.49043182163E+03  0.49043182164E+03  0.25500000920E-02 0. -1.
    10030    2    1    2    0    0  0.00000000000E+00  0.00000000000E+00  0.11395524808E+03  0.10948188914E+04  0.10888721717E+04 0.  0.
        1    1    3    3  502    0  0.15791736882E+03 -0.34113905148E+03 -0.33899662870E+03  0.50619409531E+03  0.50400001928E-02 0. -1.
       -1    1    3    3    0  502 -0.15791736882E+03  0.34113905148E+03  0.45295187679E+03  0.58862479606E+03  0.50400001928E-02 0.  1.
</event>
<event>
 5   0  0.7537480E-03  0.1079443E+04  0.7818609E-02  0.9225463E-01
        2   -1    0    0  501    0  0.00000000000E+00  0.00000000000E+00  0.19898148745E+03  0.19898148746E+03  0.25500000920E-02 0. -1.
       -2   -1    0    0    0  501  0.00000000000E+00  0.00000000000E+00 -0.14639523090E+04  0.14639523090E+04  0.25500000920E-02 0.  1.
    10030    2    1    2    0    0  0.00000000000E+00  0.00000000000E+00 -0.12649708216E+04  0.16629337965E+04  0.10794432046E+04 0.  0.
        1    1    3    3  502    0 -0.43760385997E+03  0.91107837443E+02 -0.16648147748E+03  0.47698412832E+03  0.50400001928E-02 0. -1.
       -1    1    3    3    0  502  0.43760385997E+03 -0.91107837443E+02 -0.10984893441E+04  0.11859496681E+04  0.50400001928E-02 0.  1.
</event>
<event>
 5   0  0.4298101E-03  0.8359433E+03  0.7818609E-02  0.9509400E-01
       -1   -1    0    0    0  501  0.00000000000E+00  0.00000000000E+00  0.91541558083E+02  0.91541558222E+02  0.50400001928E-02 0. -1.
        1   -1    0    0  501    0  0.00000000000E+00  0.00000000000E+00 -0.19084263082E+04  0.19084263082E+04  0.50400001928E-02 0.  1.
    10030    2    1    2    0    0  0.00000000000E+00  0.00000000000E+00 -0.18168847501E+04  0.19999678664E+04  0.83594334230E+03 0.  0.
        3    1    3    3  502    0  0.18718775122E+03  0.77604384848E+02 -0.33836975381E+02  0.20544256097E+03  0.10100000352E+00 0. -1.
       -3    1    3    3    0  502 -0.18718775122E+03 -0.77604384848E+02 -0.17830477747E+04  0.17945253055E+04  0.10100000352E+00 0.  1.
</event>
<event>
 5   0  0.7738497E-03  0.1067346E+04  0.7818609E-02  0.9237616E-01
        2   -1    0    0  501    0  0.00000000000E+00  0.00000000000E+00  0.13400849324E+04  0.13400849324E+04  0.25500000920E-02 0. -1.
       -2   -1    0    0    0  501  0.00000000000E+00  0.00000000000E+00 -0.21252896040E+03  0.21252896041E+03  0.25500000920E-02 0.  1.
    10030    2    1    2    0    0  0.00000000000E+00  0.00000000000E+00  0.11275559720E+04  0.15526138928E+04  0.10673459749E+04 0.  0.
        4    1    3    3  502    0  0.37552395620E+03  0.20884282331E+02  0.11145329080E+04  0.11762821136E+04  0.12699999809E+01 0. -1.
       -4    1    3    3    0  502 -0.37552395620E+03 -0.20884282331E+02  0.13023064007E+02  0.37633177919E+03  0.12699999809E+01 0.  1.
</event>
<event>
 5   0  0.4598561E-03  0.1113094E+04  0.7818609E-02  0.9192523E-01
       -1   -1    0    0    0  501  0.00000000000E+00  0.00000000000E+00  0.60303828634E+03  0.60303828636E+03  0.50400001928E-02 0.  1.
        1   -1    0    0  501    0  0.00000000000E+00  0.00000000000E+00 -0.51363998515E+03  0.51363998517E+03  0.50400001928E-02 0. -1.
    10030    2    1    2    0    0  0.00000000000E+00  0.00000000000E+00  0.89398301193E+02  0.11166782715E+04  0.11130940238E+04 0.  0.
        2    1    3    3  502    0 -0.25145953132E+02 -0.41714933416E+03 -0.32404215103E+03  0.52881868500E+03  0.25500000920E-02 0. -1.
       -2    1    3    3    0  502  0.25145953132E+02  0.41714933416E+03  0.41344045222E+03  0.58785958654E+03  0.25500000920E-02 0.  1.
</event>
<event>
 5   0  0.7712816E-03  0.1086177E+04  0.7818609E-02  0.9218770E-01
       -2   -1    0    0    0  501  0.00000000000E+00  0.00000000000E+00  0.44954860738E+03  0.44954860738E+03  0.25500000920E-02 0. -1.
        2   -1    0    0  501    0  0.00000000000E+00  0.00000000000E+00 -0.65609195153E+03  0.65609195154E+03  0.25500000920E-02 0.  1.
    10030    2    1    2    0    0  0.00000000000E+00  0.00000000000E+00 -0.20654334415E+03  0.11056405589E+04  0.10861771920E+04 0.  0.
        2    1    3    3  502    0 -0.35287286393E+03  0.27833243616E+03  0.20708020692E+03  0.49484382913E+03  0.25500000920E-02 0. -1.
       -2    1    3    3    0  502  0.35287286393E+03 -0.27833243616E+03 -0.41362355108E+03  0.61079672980E+03  0.25500000920E-02 0.  1.
</event>
<event>
 5   0  0.4641021E-03  0.1064014E+04  0.7818609E-02  0.9240994E-01
        1   -1    0    0  501    0  0.00000000000E+00  0.00000000000E+00  0.95409416300E+03  0.95409416301E+03  0.50400001928E-02 0. -1.
       -1   -1    0    0    0  501  0.00000000000E+00  0.00000000000E+00 -0.29664919455E+03  0.29664919459E+03  0.50400001928E-02 0.  1.
    10030    2    1    2    0    0  0.00000000000E+00  0.00000000000E+00  0.65744496845E+03  0.12507433576E+04  0.10640136559E+04 0.  0.
        1    1    3    3  502    0  0.17670435083E+03 -0.23039907568E+03  0.85273925144E+03  0.90081762452E+03  0.50400001928E-02 0. -1.
       -1    1    3    3    0  502 -0.17670435083E+03  0.23039907568E+03 -0.19529428299E+03  0.34992573308E+03  0.50400001928E-02 0.  1.
</event>
<event>
 5   0  0.7712816E-03  0.1068472E+04  0.7818609E-02  0.9236478E-01
        2   -1    0    0  501    0  0.00000000000E+00  0.00000000000E+00  0.25685067036E+03  0.25685067037E+03  0.25500000920E-02 0.  1.
       -2   -1    0    0    0  501  0.00000000000E+00  0.00000000000E+00 -0.11111834821E+04  0.11111834821E+04  0.25500000920E-02 0. -1.
    10030    2    1    2    0    0  0.00000000000E+00  0.00000000000E+00 -0.85433281177E+03  0.13680341525E+04  0.10684722220E+04 0.  0.
        2    1    3    3  502    0 -0.21289638839E+03  0.24914928124E+03  0.11303218452E+03  0.34666483998E+03  0.25500000920E-02 0.  1.
       -2    1    3    3    0  502  0.21289638839E+03 -0.24914928124E+03 -0.96736499629E+03  0.10213693125E+04  0.25500000920E-02 0. -1.
</event>
<event>
 5   0  0.7766551E-03  0.1153015E+04  0.7818609E-02  0.9155007E-01
       -2   -1    0    0    0  501  0.00000000000E+00  0.00000000000E+00  0.54917622775E+03  0.54917622776E+03  0.25500000920E-02 0.  1.
        2   -1    0    0  501    0  0.00000000000E+00  0.00000000000E+00 -0.60519900125E+03  0.60519900126E+03  0.25500000920E-02 0. -1.
    10030    2    1    2    0    0  0.00000000000E+00  0.00000000000E+00 -0.56022773503E+02  0.11543752290E+04  0.11530150121E+04 0.  0.
        5    1    3    3  502    0 -0.55234422059E+03  0.74147151708E+02  0.11966474563E+03  0.57002077109E+03  0.46999998093E+01 0. -1.
       -5    1    3    3    0  502  0.55234422059E+03 -0.74147151708E+02 -0.17568751913E+03  0.58435445793E+03  0.46999998093E+01 0.  1.
</event>
<event>
 5   0  0.7766551E-03  0.1105080E+04  0.7818609E-02  0.9200255E-01
        2   -1    0    0  501    0  0.00000000000E+00  0.00000000000E+00  0.78536422782E+03  0.78536422782E+03  0.25500000920E-02 0. -1.
       -2   -1    0    0    0  501  0.00000000000E+00  0.00000000000E+00 -0.38873738546E+03  0.38873738547E+03  0.25500000920E-02 0.  1.
    10030    2    1    2    0    0  0.00000000000E+00  0.00000000000E+00  0.39662684235E+03  0.11741016133E+04  0.11050799728E+04 0.  0.
        5    1    3    3  502    0 -0.13946914429E+03  0.88044655029E+02  0.75857756218E+03  0.77631534271E+03  0.46999998093E+01 0. -1.
       -5    1    3    3    0  502  0.13946914429E+03 -0.88044655029E+02 -0.36195071982E+03  0.39778627059E+03  0.46999998093E+01 0.  1.
</event>
<event>
 5   0  0.7766551E-03  0.1114604E+04  0.7818609E-02  0.9191074E-01
       -2   -1    0    0    0  501  0.00000000000E+00  0.00000000000E+00  0.14928992665E+03  0.14928992667E+03  0.25500000920E-02 0. -1.
        2   -1    0    0  501    0  0.00000000000E+00  0.00000000000E+00 -0.20804167002E+04  0.20804167002E+04  0.25500000920E-02 0.  1.
    10030    2    1    2    0    0  0.00000000000E+00  0.00000000000E+00 -0.19311267736E+04  0.22297066269E+04  0.11146035288E+04 0.  0.
        5    1    3    3  502    0  0.45578860925E+03  0.32003143485E+03 -0.92556487681E+03  0.10802110011E+04  0.46999998093E+01 0. -1.
       -5    1    3    3    0  502 -0.45578860925E+03 -0.32003143485E+03 -0.10055618968E+04  0.11494956259E+04  0.46999998093E+01 0.  1.
</event>
<event>
 5   0  0.4641021E-03  0.8583240E+03  0.7818609E-02  0.9479232E-01
       -1   -1    0    0    0  501  0.00000000000E+00  0.00000000000E+00  0.25493204901E+03  0.25493204906E+03  0.50400001928E-02 0. -1.
        1   -1    0    0  501    0  0.00000000000E+00  0.00000000000E+00 -0.72246711826E+03  0.72246711827E+03  0.50400001928E-02 0.  1.
    10030    2    1    2    0    0  0.00000000000E+00  0.00000000000E+00 -0.46753506925E+03  0.97739916733E+03  0.85832400137E+03 0.  0.
        1    1    3    3  502    0  0.19721329730E+03  0.10820659690E+03  0.18241956648E+03  0.28961811150E+03  0.50400001928E-02 0. -1.
       -1    1    3    3    0  502 -0.19721329730E+03 -0.10820659690E+03 -0.64995463572E+03  0.68778105584E+03  0.50400001928E-02 0.  1.
</event>
<event>
 5   0  0.4298101E-03  0.9832490E+03  0.7818609E-02  0.9327110E-01
        1   -1    0    0  501    0  0.00000000000E+00  0.00000000000E+00  0.12092567506E+04  0.12092567506E+04  0.50400001928E-02 0.  1.
       -1   -1    0    0    0  501  0.00000000000E+00  0.00000000000E+00 -0.19987040083E+03  0.19987040090E+03  0.50400001928E-02 0. -1.
    10030    2    1    2    0    0  0.00000000000E+00  0.00000000000E+00  0.10093863498E+04  0.14091271515E+04  0.98324896442E+03 0.  0.
        3    1    3    3  502    0  0.31908808463E+03  0.15740409885E+03  0.99090657385E+03  0.10528480918E+04  0.10100000352E+00 0.  1.
       -3    1    3    3    0  502 -0.31908808463E+03 -0.15740409885E+03  0.18479775939E+02  0.35627905974E+03  0.10100000352E+00 0. -1.
</event>
<event>
 5   0  0.4298101E-03  0.7029557E+03  0.7818609E-02  0.9712191E-01
       -1   -1    0    0    0  501  0.00000000000E+00  0.00000000000E+00  0.21678021915E+03  0.21678021921E+03  0.50400001928E-02 0. -1.
        1   -1    0    0  501    0  0.00000000000E+00  0.00000000000E+00 -0.56987067249E+03  0.56987067251E+03  0.50400001928E-02 0.  1.
    10030    2    1    2    0    0  0.00000000000E+00  0.00000000000E+00 -0.35309045334E+03  0.78665089172E+03  0.70295572919E+03 0.  0.
        3    1    3    3  502    0 -0.91605836887E+02  0.20220927238E+03  0.12839954023E+03  0.25645013418E+03  0.10100000352E+00 0. -1.
       -3    1    3    3    0  502  0.91605836887E+02 -0.20220927238E+03 -0.48148999357E+03  0.53020075754E+03  0.10100000352E+00 0.  1.
</event>
<event>
 5   0  0.7537480E-03  0.1103118E+04  0.7818609E-02  0.9202159E-01
        2   -1    0    0  501    0  0.00000000000E+00  0.00000000000E+00  0.61678416613E+03  0.61678416614E+03  0.25500000920E-02 0.  1.
       -2   -1    0    0    0  501  0.00000000000E+00  0.00000000000E+00 -0.49323099553E+03  0.49323099554E+03  0.25500000920E-02 0. -1.
    10030    2    1    2    0    0  0.00000000000E+00  0.00000000000E+00  0.12355317060E+03  0.11100151617E+04  0.11031175246E+04 0.  0.
        1    1    3    3  502    0 -0.16999603318E+03  0.37784719038E+03  0.42812714384E+03  0.59578519778E+03  0.50400001928E-02 0.  1.
       -1    1    3    3    0  502  0.16999603318E+03 -0.37784719038E+03 -0.30457397324E+03  0.51422996390E+03  0.50400001928E-02 0. -1.
</event>
<event>
 5   0  0.4504740E-03  0.9889428E+03  0.7818609E-02  0.9320756E-01
       -1   -1    0    0    0  501  0.00000000000E+00  0.00000000000E+00  0.87155247118E+03  0.87155247120E+03  0.50400001928E-02 0.  1.
        1   -1    0    0  501    0  0.00000000000E+00  0.00000000000E+00 -0.28053613808E+03  0.28053613812E+03  0.50400001928E-02 0. -1.
    10030    2    1    2    0    0  0.00000000000E+00  0.00000000000E+00  0.59101633310E+03  0.11520886093E+04  0.98894279801E+03 0.  0.
        5    1    3    3  502    0 -0.25944365084E+02  0.30627634025E+03 -0.15568510004E+03  0.34458416541E+03  0.46999998093E+01 0. -1.
       -5    1    3    3    0  502  0.25944365084E+02 -0.30627634025E+03  0.74670143314E+03  0.80750444391E+03  0.46999998093E+01 0.  1.
</event>
<event>
 5   0  0.7537480E-03  0.1091322E+04  0.7818609E-02  0.9213691E-01
       -2   -1    0    0    0  501  0.00000000000E+00  0.00000000000E+00  0.27447756126E+03  0.27447756127E+03  0.25500000920E-02 0. -1.
        2   -1    0    0  501    0  0.00000000000E+00  0.00000000000E+00 -0.10847741981E+04  0.10847741981E+04  0.25500000920E-02 0.  1.
    10030    2    1    2    0    0  0.00000000000E+00  0.00000000000E+00 -0.81029663681E+03  0.13592517593E+04  0.10913224572E+04 0.  0.
        1    1    3    3  502    0  0.14864691314E+02 -0.32089114610E+03 -0.95452091673E+03  0.10071257455E+04  0.50400001928E-02 0.  1.
       -1    1    3    3    0  502 -0.14864691314E+02  0.32089114610E+03  0.14422427992E+03  0.35212601386E+03  0.50400001928E-02 0. -1.
</event>
<event>
 5   0  0.7952121E-03  0.1082908E+04  0.7818609E-02  0.9222013E-01
        2   -1    0    0  501    0  0.00000000000E+00  0.00000000000E+00  0.21848939869E+04  0.21848939869E+04  0.25500000920E-02 0. -1.
       -2   -1    0    0    0  501  0.00000000000E+00  0.00000000000E+00 -0.13418152898E+03  0.13418152901E+03  0.25500000920E-02 0.  1.
    10030    2    1    2    0    0  0.00000000000E+00  0.00000000000E+00  0.20507124579E+04  0.23190755159E+04  0.10829079663E+04 0.  0.
        3    1    3    3  502    0 -0.10485891860E+03 -0.43248664271E+03  0.16858783681E+04  0.17436243779E+04  0.10100000352E+00 0. -1.
       -3    1    3    3    0  502  0.10485891860E+03  0.43248664271E+03  0.36483408977E+03  0.57545113797E+03  0.10100000352E+00 0.  1.
</event>
<event>
 5   0  0.7712816E-03  0.1113729E+04  0.7818609E-02  0.9191913E-01
        2   -1    0    0  501    0  0.00000000000E+00  0.00000000000E+00  0.70311287286E+03  0.70311287286E+03  0.25500000920E-02 0.  1.
       -2   -1    0    0    0  501  0.00000000000E+00  0.00000000000E+00 -0.44103565453E+03  0.44103565453E+03  0.25500000920E-02 0. -1.
    10030    2    1    2    0    0  0.00000000000E+00  0.00000000000E+00  0.26207721833E+03  0.11441485274E+04  0.11137285955E+04 0.  0.
        2    1    3    3  502    0  0.43695901539E+03  0.22664143956E+03  0.39853166414E+03  0.63334588543E+03  0.25500000920E-02 0.  1.
       -2    1    3    3    0  502 -0.43695901539E+03 -0.22664143956E+03 -0.13645444581E+03  0.51080264197E+03  0.25500000920E-02 0. -1.
</event>
<event>
 5   0  0.4598561E-03  0.1076705E+04  0.7818609E-02  0.9228199E-01
       -1   -1    0    0    0  501  0.00000000000E+00  0.00000000000E+00  0.24473632834E+03  0.24473632839E+03  0.50400001928E-02 0. -1.
        1   -1    0    0  501    0  0.00000000000E+00  0.00000000000E+00 -0.11842277564E+04  0.11842277564E+04  0.50400001928E-02 0.  1.
    10030    2    1    2    0    0  0.00000000000E+00  0.00000000000E+00 -0.93949142802E+03  0.14289640848E+04  0.10767052578E+04 0.  0.
        2    1    3    3  502    0  0.53500155549E+03  0.56271739519E+02 -0.44221290507E+03  0.69638023124E+03  0.25500000920E-02 0.  1.
       -2    1    3    3    0  502 -0.53500155549E+03 -0.56271739519E+02 -0.49727852295E+03  0.73258385352E+03  0.25500000920E-02 0. -1.
</event>
<event>
 5   0  0.7766551E-03  0.1114024E+04  0.7818609E-02  0.9191630E-01
        2   -1    0    0  501    0  0.00000000000E+00  0.00000000000E+00  0.38815578608E+03  0.38815578609E+03  0.25500000920E-02 0. -1.
       -2   -1    0    0    0  501  0.00000000000E+00  0.00000000000E+00 -0.79932397724E+03  0.79932397725E+03  0.25500000920E-02 0.  1.
    10030    2    1    2    0    0  0.00000000000E+00  0.00000000000E+00 -0.41116819116E+03  0.11874797633E+04  0.11140237461E+04 0.  0.
        5    1    3    3  502    0 -0.46804659828E+03 -0.74680721500E+02 -0.51744199521E+03  0.70172155214E+03  0.46999998093E+01 0.  1.
       -5    1    3    3    0  502  0.46804659828E+03  0.74680721500E+02  0.10627380405E+03  0.48575821120E+03  0.46999998093E+01 0. -1.
</event>
<event>
 5   0  0.2992375E-03  0.1098498E+04  0.7818609E-02  0.9206657E-01
        3   -1    0    0  501    0  0.00000000000E+00  0.00000000000E+00  0.37376986511E+03  0.37376987875E+03  0.10100000352E+00 0.  1.
       -3   -1    0    0    0  501  0.00000000000E+00  0.00000000000E+00 -0.80711279760E+03  0.80711280392E+03  0.10100000352E+00 0. -1.
    10030    2    1    2    0    0  0.00000000000E+00  0.00000000000E+00 -0.43334293249E+03  0.11808826827E+04  0.10984979805E+04 0.  0.
        2    1    3    3  502    0  0.43411577848E+03  0.98612293993E+02  0.12915971914E+03  0.46353330701E+03  0.25500000920E-02 0.  1.
       -2    1    3    3    0  502 -0.43411577848E+03 -0.98612293993E+02 -0.56250265163E+03  0.71734937566E+03  0.25500000920E-02 0. -1.
</event>
<event>
 5   0  0.7766551E-03  0.1019594E+04  0.7818609E-02  0.9287311E-01
        2   -1    0    0  501    0  0.00000000000E+00  0.00000000000E+00  0.21260970519E+04  0.21260970519E+04  0.25500000920E-02 0.  1.
       -2   -1    0    0    0  501  0.00000000000E+00  0.00000000000E+00 -0.12223953877E+03  0.12223953879E+03  0.25500000920E-02 0. -1.
    10030    2    1    2    0    0  0.00000000000E+00  0.00000000000E+00  0.20038575132E+04  0.22483365907E+04  0.10195942782E+04 0.  0.
        5    1    3    3  502    0  0.33727117615E+03 -0.93049774082E+02  0.18436134516E+03  0.39550133034E+03  0.46999998093E+01 0. -1.
       -5    1    3    3    0  502 -0.33727117615E+03  0.93049774082E+02  0.18194961680E+04  0.18528352604E+04  0.46999998093E+01 0.  1.
</event>
<event>
 5   0  0.7537480E-03  0.1078438E+04  0.7818609E-02  0.9226466E-01
       -2   -1    0    0    0  501  0.00000000000E+00  0.00000000000E+00  0.13871924505E+04  0.13871924505E+04  0.25500000920E-02 0.  1.
        2   -1    0    0  501    0  0.00000000000E+00  0.00000000000E+00 -0.20960116352E+03  0.20960116353E+03  0.25500000920E-02 0. -1.
    10030    2    1    2    0    0  0.00000000000E+00  0.00000000000E+00  0.11775912870E+04  0.15967936141E+04  0.10784380403E+04 0.  0.
        1    1    3    3  502    0  0.17968344911E+03 -0.26556053138E+03 -0.53112894407E+02  0.32500694960E+03  0.50400001928E-02 0. -1.
       -1    1    3    3    0  502 -0.17968344911E+03  0.26556053138E+03  0.12307041814E+04  0.12717866644E+04  0.50400001928E-02 0.  1.
</event>
<event>
 5   0  0.7738497E-03  0.1114540E+04  0.7818609E-02  0.9191135E-01
        2   -1    0    0  501    0  0.00000000000E+00  0.00000000000E+00  0.99859394712E+03  0.99859394713E+03  0.25500000920E-02 0.  1.
       -2   -1    0    0    0  501  0.00000000000E+00  0.00000000000E+00 -0.31098719242E+03  0.31098719243E+03  0.25500000920E-02 0. -1.
    10030    2    1    2    0    0  0.00000000000E+00  0.00000000000E+00  0.68760675471E+03  0.13095811396E+04  0.11145401347E+04 0.  0.
        4    1    3    3  502    0 -0.33504025283E+03 -0.18805868439E+02 -0.17896153028E+03  0.38030839319E+03  0.12699999809E+01 0. -1.
       -4    1    3    3    0  502  0.33504025283E+03  0.18805868439E+02  0.86656828499E+03  0.92927274637E+03  0.12699999809E+01 0.  1.
</event>
<event>
 5   0  0.4598561E-03  0.1083717E+04  0.7818609E-02  0.9221209E-01
        1   -1    0    0  501    0  0.00000000000E+00  0.00000000000E+00  0.77144208512E+03  0.77144208514E+03  0.50400001928E-02 0.  1.
       -1   -1    0    0    0  501  0.00000000000E+00  0.00000000000E+00 -0.38060002310E+03  0.38060002314E+03  0.50400001928E-02 0. -1.
    10030    2    1    2    0    0  0.00000000000E+00  0.00000000000E+00  0.39084206202E+03  0.11520421083E+04  0.10837174456E+04 0.  0.
        2    1    3    3  502    0 -0.57454101144E+02  0.13358597904E+01  0.76819316143E+03  0.77033985456E+03  0.25500000920E-02 0.  1.
       -2    1    3    3    0  502  0.57454101144E+02 -0.13358597904E+01 -0.37735109941E+03  0.38170225371E+03  0.25500000920E-02 0. -1.
</event>
<event>
 5   0  0.4598561E-03  0.1003053E+04  0.7818609E-02  0.9305202E-01
       -1   -1    0    0    0  501  0.00000000000E+00  0.00000000000E+00  0.15714740856E+03  0.15714740864E+03  0.50400001928E-02 0. -1.
        1   -1    0    0  501    0  0.00000000000E+00  0.00000000000E+00 -0.16005924922E+04  0.16005924922E+04  0.50400001928E-02 0.  1.
    10030    2    1    2    0    0  0.00000000000E+00  0.00000000000E+00 -0.14434450836E+04  0.17577399008E+04  0.10030532636E+04 0.  0.
        2    1    3    3  502    0  0.38304533976E+03  0.13847440606E+03 -0.12345175193E+04  0.12999739993E+04  0.25500000920E-02 0.  1.
       -2    1    3    3    0  502 -0.38304533976E+03 -0.13847440606E+03 -0.20892756430E+03  0.45776590149E+03  0.25500000920E-02 0. -1.
</event>
<event>
 5   0  0.7766551E-03  0.1089245E+04  0.7818609E-02  0.9215738E-01
        2   -1    0    0  501    0  0.00000000000E+00  0.00000000000E+00  0.34278861918E+03  0.34278861919E+03  0.25500000920E-02 0. -1.
       -2   -1    0    0    0  501  0.00000000000E+00  0.00000000000E+00 -0.86529576986E+03  0.86529576987E+03  0.25500000920E-02 0.  1.
    10030    2    1    2    0    0  0.00000000000E+00  0.00000000000E+00 -0.52250715068E+03  0.12080843891E+04  0.10892447698E+04 0.  0.
        5    1    3    3  502    0 -0.45572598004E+03  0.20125166747E+03 -0.17243279432E+02  0.49850558996E+03  0.46999998093E+01 0. -1.
       -5    1    3    3    0  502  0.45572598004E+03 -0.20125166747E+03 -0.50526387125E+03  0.70957879910E+03  0.46999998093E+01 0.  1.
</event>
<event>
 5   0  0.7952121E-03  0.1078156E+04  0.7818609E-02  0.9226748E-01
       -2   -1    0    0    0  501  0.00000000000E+00  0.00000000000E+00  0.17963334615E+03  0.17963334616E+03  0.25500000920E-02 0. -1.
        2   -1    0    0  501    0  0.00000000000E+00  0.00000000000E+00 -0.16177687769E+04  0.16177687769E+04  0.25500000920E-02 0.  1.
    10030    2    1    2    0    0  0.00000000000E+00  0.00000000000E+00 -0.14381354308E+04  0.17974021231E+04  0.10781562386E+04 0.  0.
        3    1    3    3  502    0 -0.16687090817E+03  0.62287014390E+02  0.12916007102E+03  0.22001796813E+03  0.10100000352E+00 0. -1.
       -3    1    3    3    0  502  0.16687090817E+03 -0.62287014390E+02 -0.15672955018E+04  0.15773841549E+04  0.10100000352E+00 0.  1.
</event>
<event>
 5   0  0.4598561E-03  0.1149932E+04  0.7818609E-02  0.9157846E-01
        1   -1    0    0  501    0  0.00000000000E+00  0.00000000000E+00  0.10485887289E+04  0.10485887289E+04  0.50400001928E-02 0.  1.
       -1   -1    0    0    0  501  0.00000000000E+00  0.00000000000E+00 -0.31526770529E+03  0.31526770533E+03  0.50400001928E-02 0. -1.
    10030    2    1    2    0    0  0.00000000000E+00  0.00000000000E+00  0.73332102365E+03  0.13638564343E+04  0.11499324544E+04 0.  0.
        2    1    3    3  502    0  0.82656400012E+02 -0.73713497477E+01  0.10414487506E+04  0.10447496913E+04  0.25500000920E-02 0.  1.
       -2    1    3    3    0  502 -0.82656400012E+02  0.73713497477E+01 -0.30812772700E+03  0.31910674298E+03  0.25500000920E-02 0. -1.
</event>
<event>
 5   0  0.7738497E-03  0.1085402E+04  0.7818609E-02  0.9219538E-01
       -2   -1    0    0    0  501  0.00000000000E+00  0.00000000000E+00  0.22858479529E+03  0.22858479530E+03  0.25500000920E-02 0. -1.
        2   -1    0    0  501    0  0.00000000000E+00  0.00000000000E+00 -0.12884684741E+04  0.12884684741E+04  0.25500000920E-02 0.  1.
    10030    2    1    2    0    0  0.00000000000E+00  0.00000000000E+00 -0.10598836788E+04  0.15170532694E+04  0.10854018655E+04 0.  0.
        4    1    3    3  502    0 -0.50523371301E+03  0.19674704897E+03 -0.56278553101E+03  0.78147275887E+03  0.12699999809E+01 0.  1.
       -4    1    3    3    0  502  0.50523371301E+03 -0.19674704897E+03 -0.49709814782E+03  0.73558051055E+03  0.12699999809E+01 0. -1.
</event>
<event>
 5   0  0.4598561E-03  0.1182391E+04  0.7818609E-02  0.9128411E-01
       -1   -1    0    0    0  501  0.00000000000E+00  0.00000000000E+00  0.29052720749E+03  0.29052720753E+03  0.50400001928E-02 0. -1.
        1   -1    0    0  501    0  0.00000000000E+00  0.00000000000E+00 -0.12030277640E+04  0.12030277640E+04  0.50400001928E-02 0.  1.
    10030    2    1    2    0    0  0.00000000000E+00  0.00000000000E+00 -0.91250055651E+03  0.14935549715E+04  0.11823913004E+04 0.  0.
        2    1    3    3  502    0 -0.56448775684E+03  0.16995767438E+03 -0.51246122346E+03  0.78112005752E+03  0.25500000920E-02 0. -1.
       -2    1    3    3    0  502  0.56448775684E+03 -0.16995767438E+03 -0.40003933305E+03  0.71243491401E+03  0.25500000920E-02 0.  1.
</event>
<event>
 5   0  0.4298101E-03  0.1112680E+04  0.7818609E-02  0.9192921E-01
        1   -1    0    0  501    0  0.00000000000E+00  0.00000000000E+00  0.58129047160E+03  0.58129047162E+03  0.50400001928E-02 0. -1.
       -1   -1    0    0    0  501  0.00000000000E+00  0.00000000000E+00 -0.53246008984E+03  0.53246008986E+03  0.50400001928E-02 0.  1.
    10030    2    1    2    0    0  0.00000000000E+00  0.00000000000E+00  0.48830381763E+02  0.11137505615E+04  0.11126796066E+04 0.  0.
        3    1    3    3  502    0  0.51471112509E+03  0.41102348831E+02  0.23173050085E+03  0.56596464607E+03  0.10100000352E+00 0.  1.
       -3    1    3    3    0  502 -0.51471112509E+03 -0.41102348831E+02 -0.18290011909E+03  0.54778591542E+03  0.10100000352E+00 0. -1.
</event>
<event>
 5   0  0.7537480E-03  0.1098876E+04  0.7818609E-02  0.9206288E-01
        2   -1    0    0  501    0  0.00000000000E+00  0.00000000000E+00  0.90912342904E+03  0.90912342904E+03  0.25500000920E-02 0.  1.
       -2   -1    0    0    0  501  0.00000000000E+00  0.00000000000E+00 -0.33205859693E+03  0.33205859694E+03  0.25500000920E-02 0. -1.
    10030    2    1    2    0    0  0.00000000000E+00  0.00000000000E+00  0.57706483211E+03  0.12411820260E+04  0.10988762447E+04 0.  0.
        1    1    3    3  502    0  0.32812460864E+03 -0.40890597420E+03  0.10289383312E+03  0.53428175661E+03  0.50400001928E-02 0. -1.
       -1    1    3    3    0  502 -0.32812460864E+03  0.40890597420E+03  0.47417099898E+03  0.70690026937E+03  0.50400001928E-02 0.  1.
</event>
<event>
 5   0  0.4598561E-03  0.1037097E+04  0.7818609E-02  0.9268768E-01
        1   -1    0    0  501    0  0.00000000000E+00  0.00000000000E+00  0.55606062367E+03  0.55606062369E+03  0.50400001928E-02 0.  1.
       -1   -1    0    0    0  501  0.00000000000E+00  0.00000000000E+00 -0.48356724393E+03  0.48356724395E+03  0.50400001928E-02 0. -1.
    10030    2    1    2    0    0  0.00000000000E+00  0.00000000000E+00  0.72493379745E+02  0.10396278676E+04  0.10370973016E+04 0.  0.
        2    1    3    3  502    0 -0.12152154070E+03  0.33396786092E+03 -0.34228652023E+03  0.49341876628E+03  0.25500000920E-02 0. -1.
       -2    1    3    3    0  502  0.12152154070E+03 -0.33396786092E+03  0.41477989997E+03  0.54620910136E+03  0.25500000920E-02 0.  1.
</event>
<event>
 5   0  0.7537480E-03  0.1122179E+04  0.7818609E-02  0.9183840E-01
        2   -1    0    0  501    0  0.00000000000E+00  0.00000000000E+00  0.25823294461E+03  0.25823294463E+03  0.25500000920E-02 0.  1.
       -2   -1    0    0    0  501  0.00000000000E+00  0.00000000000E+00 -0.12191383746E+04  0.12191383746E+04  0.25500000920E-02 0. -1.
    10030    2    1    2    0    0  0.00000000000E+00  0.00000000000E+00 -0.96090542995E+03  0.14773713192E+04  0.11221794729E+04 0.  0.
        1    1    3    3  502    0  0.28850440804E+03 -0.39735722413E+03 -0.83784387579E+03  0.97113846451E+03  0.50400001928E-02 0. -1.
       -1    1    3    3    0  502 -0.28850440804E+03  0.39735722413E+03 -0.12306155416E+03  0.50623285468E+03  0.50400001928E-02 0.  1.
</event>
<event>
 5   0  0.7952121E-03  0.1100783E+04  0.7818609E-02  0.9204429E-01
       -2   -1    0    0    0  501  0.00000000000E+00  0.00000000000E+00  0.15576467012E+03  0.15576467014E+03  0.25500000920E-02 0.  1.
        2   -1    0    0  501    0  0.00000000000E+00  0.00000000000E+00 -0.19447985310E+04  0.19447985310E+04  0.25500000920E-02 0. -1.
    10030    2    1    2    0    0  0.00000000000E+00  0.00000000000E+00 -0.17890338609E+04  0.21005632012E+04  0.11007831787E+04 0.  0.
        3    1    3    3  502    0 -0.33790514561E+03  0.30577510390E+03 -0.30557515002E+03  0.54868432100E+03  0.10100000352E+00 0.  1.
       -3    1    3    3    0  502  0.33790514561E+03 -0.30577510390E+03 -0.14834587109E+04  0.15518788802E+04  0.10100000352E+00 0. -1.
</event>
<event>
 5   0  0.4641021E-03  0.1053834E+04  0.7818609E-02  0.9251395E-01
        1   -1    0    0  501    0  0.00000000000E+00  0.00000000000E+00  0.74719810032E+03  0.74719810033E+03  0.50400001928E-02 0.  1.
       -1   -1    0    0    0  501  0.00000000000E+00  0.00000000000E+00 -0.37157660190E+03  0.37157660193E+03  0.50400001928E-02 0. -1.
    10030    2    1    2    0    0  0.00000000000E+00  0.00000000000E+00  0.37562149842E+03  0.11187747023E+04  0.10538336322E+04 0.  0.
        1    1    3    3  502    0 -0.15171994603E+03 -0.24491836360E+03 -0.28055347321E+03  0.40213703909E+03  0.50400001928E-02 0. -1.
       -1    1    3    3    0  502  0.15171994603E+03  0.24491836360E+03  0.65617497164E+03  0.71663766317E+03  0.50400001928E-02 0.  1.
</event>
<event>
 5   0  0.4641021E-03  0.1088168E+04  0.7818609E-02  0.9216801E-01
       -1   -1    0    0    0  501  0.00000000000E+00  0.00000000000E+00  0.20625858415E+03  0.20625858421E+03  0.50400001928E-02 0.  1.
        1   -1    0    0  501    0  0.00000000000E+00  0.00000000000E+00 -0.14352245134E+04  0.14352245134E+04  0.50400001928E-02 0. -1.
    10030    2    1    2    0    0  0.00000000000E+00  0.00000000000E+00 -0.12289659293E+04  0.16414830976E+04  0.10881679579E+04 0.  0.
        1    1    3    3  502    0 -0.17699148391E+03  0.12111743615E+03  0.13980684764E+03  0.25601049468E+03  0.50400001928E-02 0.  1.
       -1    1    3    3    0  502  0.17699148391E+03 -0.12111743615E+03 -0.13687727769E+04  0.13854726030E+04  0.50400001928E-02 0. -1.
</event>
<event>
 5   0  0.7537480E-03  0.1103864E+04  0.7818609E-02  0.9201434E-01
        2   -1    0    0  501    0  0.00000000000E+00  0.00000000000E+00  0.15580732374E+04  0.15580732374E+04  0.25500000920E-02 0.  1.
       -2   -1    0    0    0  501  0.00000000000E+00  0.00000000000E+00 -0.19551627941E+03  0.19551627943E+03  0.25500000920E-02 0. -1.
    10030    2    1    2    0    0  0.00000000000E+00  0.00000000000E+00  0.13625569580E+04  0.17535895169E+04  0.11038635467E+04 0.  0.
        1    1    3    3  502    0 -0.80483750258E+02 -0.54568701893E+03  0.65044481065E+03  0.85283668332E+03  0.50400001928E-02 0. -1.
       -1    1    3    3    0  502  0.80483750258E+02  0.54568701893E+03  0.71211214735E+03  0.90075283353E+03  0.50400001928E-02 0.  1.
</event>
<event>
 5   0  0.4598561E-03  0.1054250E+04  0.7818609E-02  0.9250967E-01
       -1   -1    0    0    0  501  0.00000000000E+00  0.00000000000E+00  0.19825461365E+03  0.19825461371E+03  0.50400001928E-02 0. -1.
        1   -1    0    0  501    0  0.00000000000E+00  0.00000000000E+00 -0.14015351683E+04  0.14015351683E+04  0.50400001928E-02 0.  1.
    10030    2    1    2    0    0  0.00000000000E+00  0.00000000000E+00 -0.12032805546E+04  0.15997897820E+04  0.10542500906E+04 0.  0.
        2    1    3    3  502    0 -0.26603087812E+03  0.39057230882E+03 -0.95603188986E+03  0.10664502478E+04  0.25500000920E-02 0.  1.
       -2    1    3    3    0  502  0.26603087812E+03 -0.39057230882E+03 -0.24724866475E+03  0.53333953422E+03  0.25500000920E-02 0. -1.
</event>
<event>
 5   0  0.4641021E-03  0.1087388E+04  0.7818609E-02  0.9217573E-01
       -1   -1    0    0    0  501  0.00000000000E+00  0.00000000000E+00  0.49826979580E+03  0.49826979582E+03  0.50400001928E-02 0.  1.
        1   -1    0    0  501    0  0.00000000000E+00  0.00000000000E+00 -0.59325897040E+03  0.59325897042E+03  0.50400001928E-02 0. -1.
    10030    2    1    2    0    0  0.00000000000E+00  0.00000000000E+00 -0.94989174607E+02  0.10915287662E+04  0.10873877433E+04 0.  0.
        1    1    3    3  502    0  0.16965811256E+02 -0.40403183523E+03 -0.41229770016E+03  0.57751100095E+03  0.50400001928E-02 0. -1.
       -1    1    3    3    0  502 -0.16965811256E+02  0.40403183523E+03  0.31730852555E+03  0.51401776530E+03  0.50400001928E-02 0.  1.
</event>
<event>
 5   0  0.7952121E-03  0.1132875E+04  0.7818609E-02  0.9173729E-01
       -2   -1    0    0    0  501  0.00000000000E+00  0.00000000000E+00  0.20700525379E+03  0.20700525380E+03  0.25500000920E-02 0.  1.
        2   -1    0    0  501    0  0.00000000000E+00  0.00000000000E+00 -0.15499668469E+04  0.15499668470E+04  0.25500000920E-02 0. -1.
    10030    2    1    2    0    0  0.00000000000E+00  0.00000000000E+00 -0.13429615932E+04  0.17569721008E+04  0.11328747160E+04 0.  0.
        3    1    3    3  502    0  0.14663045821E+03  0.27061841209E+03 -0.14089587883E+04  0.14421857348E+04  0.10100000352E+00 0. -1.
       -3    1    3    3    0  502 -0.14663045821E+03 -0.27061841209E+03  0.65997195150E+02  0.31478636598E+03  0.10100000352E+00 0.  1.
</event>
<event>
 5   0  0.4428114E-03  0.1130474E+04  0.7818609E-02  0.9175988E-01
       -1   -1    0    0    0  501  0.00000000000E+00  0.00000000000E+00  0.22979227079E+03  0.22979227084E+03  0.50400001928E-02 0.  1.
        1   -1    0    0  501    0  0.00000000000E+00  0.00000000000E+00 -0.13903563475E+04  0.13903563475E+04  0.50400001928E-02 0. -1.
    10030    2    1    2    0    0  0.00000000000E+00  0.00000000000E+00 -0.11605640767E+04  0.16201486184E+04  0.11304744886E+04 0.  0.
        4    1    3    3  502    0 -0.24198624963E+03  0.50971138295E+03 -0.62842613582E+03  0.84456146017E+03  0.12699999809E+01 0. -1.
       -4    1    3    3    0  502  0.24198624963E+03 -0.50971138295E+03 -0.53213794091E+03  0.77558715821E+03  0.12699999809E+01 0.  1.
</event>
<event>
 5   0  0.4428114E-03  0.1089061E+04  0.7818609E-02  0.9215920E-01
       -1   -1    0    0    0  501  0.00000000000E+00  0.00000000000E+00  0.42743219617E+03  0.42743219620E+03  0.50400001928E-02 0.  1.
        1   -1    0    0  501    0  0.00000000000E+00  0.00000000000E+00 -0.69370848458E+03  0.69370848460E+03  0.50400001928E-02 0. -1.
    10030    2    1    2    0    0  0.00000000000E+00  0.00000000000E+00 -0.26627628840E+03  0.11211406808E+04  0.10890607717E+04 0.  0.
        4    1    3    3  502    0  0.24935016406E+03 -0.61825800161E+02 -0.62739927235E+03  0.67795972869E+03  0.12699999809E+01 0. -1.
       -4    1    3    3    0  502 -0.24935016406E+03  0.61825800161E+02  0.36112298395E+03  0.44318095211E+03  0.12699999809E+01 0.  1.
</event>
<event>
 5   0  0.4428114E-03  0.1110122E+04  0.7818609E-02  0.9195382E-01
        1   -1    0    0  501    0  0.00000000000E+00  0.00000000000E+00  0.23189152098E+04  0.23189152098E+04  0.50400001928E-02 0. -1.
       -1   -1    0    0    0  501  0.00000000000E+00  0.00000000000E+00 -0.13286077415E+03  0.13286077424E+03  0.50400001928E-02 0.  1.
    10030    2    1    2    0    0  0.00000000000E+00  0.00000000000E+00  0.21860544356E+04  0.24517759840E+04  0.11101222817E+04 0.  0.
        4    1    3    3  502    0 -0.16295064500E+03 -0.41942133812E+02  0.22612285052E+04  0.22674805448E+04  0.12699999809E+01 0. -1.
       -4    1    3    3    0  502  0.16295064500E+03  0.41942133812E+02 -0.75174069566E+02  0.18429543925E+03  0.12699999809E+01 0.  1.
</event>
<event>
 5   0  0.7712816E-03  0.1082270E+04  0.7818609E-02  0.9222647E-01
       -2   -1    0    0    0  501  0.00000000000E+00  0.00000000000E+00  0.47699340438E+03  0.47699340439E+03  0.25500000920E-02 0. -1.
        2   -1    0    0  501    0  0.00000000000E+00  0.00000000000E+00 -0.61390225466E+03  0.61390225466E+03  0.25500000920E-02 0.  1.
    10030    2    1    2    0    0  0.00000000000E+00  0.00000000000E+00 -0.13690885028E+03  0.10908956591E+04  0.10822704402E+04 0.  0.
        2    1    3    3  502    0  0.30625733595E+03 -0.24032900323E+03 -0.44731656980E+03  0.59299553054E+03  0.25500000920E-02 0.  1.
       -2    1    3    3    0  502 -0.30625733595E+03  0.24032900323E+03  0.31040771952E+03  0.49790012851E+03  0.25500000920E-02 0. -1.
</event>
<event>
 5   0  0.7738497E-03  0.1134066E+04  0.7818609E-02  0.9172611E-01
       -2   -1    0    0    0  501  0.00000000000E+00  0.00000000000E+00  0.21163729318E+03  0.21163729319E+03  0.25500000920E-02 0.  1.
        2   -1    0    0  501    0  0.00000000000E+00  0.00000000000E+00 -0.15192322078E+04  0.15192322078E+04  0.25500000920E-02 0. -1.
    10030    2    1    2    0    0  0.00000000000E+00  0.00000000000E+00 -0.13075949147E+04  0.17308695010E+04  0.11340655928E+04 0.  0.
        4    1    3    3  502    0  0.47734761188E+03 -0.22453587560E+02 -0.18795386173E+03  0.51351063592E+03  0.12699999809E+01 0.  1.
       -4    1    3    3    0  502 -0.47734761188E+03  0.22453587560E+02 -0.11196410529E+04  0.12173588651E+04  0.12699999809E+01 0. -1.
</event>
<event>
 5   0  0.7952121E-03  0.1036825E+04  0.7818609E-02  0.9269053E-01
       -2   -1    0    0    0  501  0.00000000000E+00  0.00000000000E+00  0.14945419054E+03  0.14945419057E+03  0.25500000920E-02 0. -1.
        2   -1    0    0  501    0  0.00000000000E+00  0.00000000000E+00 -0.17982201909E+04  0.17982201909E+04  0.25500000920E-02 0.  1.
    10030    2    1    2    0    0  0.00000000000E+00  0.00000000000E+00 -0.16487660004E+04  0.19476743815E+04  0.10368250442E+04 0.  0.
        3    1    3    3  502    0 -0.25818079948E+03  0.35341693521E+02 -0.16662462888E+04  0.16865002418E+04  0.10100000352E+00 0.  1.
       -3    1    3    3    0  502  0.25818079948E+03 -0.35341693521E+02  0.17480288468E+02  0.26117413962E+03  0.10100000352E+00 0. -1.
</event>
<event>
 5   0  0.4298101E-03  0.1096205E+04  0.7818609E-02  0.9208898E-01
       -1   -1    0    0    0  501  0.00000000000E+00  0.00000000000E+00  0.10010149101E+04  0.10010149101E+04  0.50400001928E-02 0. -1.
        1   -1    0    0  501    0  0.00000000000E+00  0.00000000000E+00 -0.30011193575E+03  0.30011193579E+03  0.50400001928E-02 0.  1.
    10030    2    1    2    0    0  0.00000000000E+00  0.00000000000E+00  0.70090297431E+03  0.13011268459E+04  0.10962053136E+04 0.  0.
        3    1    3    3  502    0  0.29808628222E+03 -0.42827993828E+03  0.54955069142E+03  0.75781601317E+03  0.10100000352E+00 0. -1.
       -3    1    3    3    0  502 -0.29808628222E+03  0.42827993828E+03  0.15135228289E+03  0.54331083269E+03  0.10100000352E+00 0.  1.
</event>
<event>
 5   0  0.7766551E-03  0.1124665E+04  0.7818609E-02  0.9181480E-01
        2   -1    0    0  501    0  0.00000000000E+00  0.00000000000E+00  0.13008469863E+04  0.13008469863E+04  0.25500000920E-02 0. -1.
       -2   -1    0    0    0  501  0.00000000000E+00  0.00000000000E+00 -0.24308610792E+03  0.24308610793E+03  0.25500000920E-02 0.  1.
    10030    2    1    2    0    0  0.00000000000E+00  0.00000000000E+00  0.10577608784E+04  0.15439330942E+04  0.11246649828E+04 0.  0.
        5    1    3    3  502    0  0.30037575297E+03 -0.43568154446E+03  0.26786277190E+03  0.59314126119E+03  0.46999998093E+01 0.  1.
       -5    1    3    3    0  502 -0.30037575297E+03  0.43568154446E+03  0.78989810650E+03  0.95079183305E+03  0.46999998093E+01 0. -1.
</event>
<event>
 5   0  0.2992375E-03  0.1190199E+04  0.7818609E-02  0.9121478E-01
       -3   -1    0    0    0  501  0.00000000000E+00  0.00000000000E+00  0.11900149978E+04  0.11900150021E+04  0.10100000352E+00 0.  1.
        3   -1    0    0  501    0  0.00000000000E+00  0.00000000000E+00 -0.29759594808E+03  0.29759596522E+03  0.10100000352E+00 0. -1.
    10030    2    1    2    0    0  0.00000000000E+00  0.00000000000E+00  0.89241904972E+03  0.14876109673E+04  0.11901994076E+04 0.  0.
        5    1    3    3  502    0  0.43296005983E+03  0.26309364727E+03  0.56035743215E+02  0.50973990933E+03  0.46999998093E+01 0. -1.
       -5    1    3    3    0  502 -0.43296005983E+03 -0.26309364727E+03  0.83638330651E+03  0.97787105799E+03  0.46999998093E+01 0.  1.
</event>
<event>
 5   0  0.7712816E-03  0.1072006E+04  0.7818609E-02  0.9232915E-01
        2   -1    0    0  501    0  0.00000000000E+00  0.00000000000E+00  0.11528999175E+04  0.11528999175E+04  0.25500000920E-02 0.  1.
       -2   -1    0    0    0  501  0.00000000000E+00  0.00000000000E+00 -0.24919690422E+03  0.24919690423E+03  0.25500000920E-02 0. -1.
    10030    2    1    2    0    0  0.00000000000E+00  0.00000000000E+00  0.90370301328E+03  0.14020968217E+04  0.10720057655E+04 0.  0.
        2    1    3    3  502    0 -0.38796480289E+03  0.30600319368E+02  0.93391511500E+03  0.10117561514E+04  0.25500000920E-02 0.  1.
       -2    1    3    3    0  502  0.38796480289E+03 -0.30600319368E+02 -0.30212101725E+02  0.39034067034E+03  0.25500000920E-02 0. -1.
</event>
<event>
 5   0  0.4298101E-03  0.1105600E+04  0.7818609E-02  0.9199750E-01
        1   -1    0    0  501    0  0.00000000000E+00  0.00000000000E+00  0.94320293686E+03  0.94320293687E+03  0.50400001928E-02 0.  1.
       -1   -1    0    0    0  501  0.00000000000E+00  0.00000000000E+00 -0.32398976687E+03  0.32398976691E+03  0.50400001928E-02 0. -1.
    10030    2    1    2    0    0  0.00000000000E+00  0.00000000000E+00  0.61921316999E+03  0.12671927038E+04  0.11056004697E+04 0.  0.
        3    1    3    3  502    0  0.37232994224E+03 -0.11825097544E+03 -0.13867921131E+03  0.41454169022E+03  0.10100000352E+00 0. -1.
       -3    1    3    3    0  502 -0.37232994224E+03  0.11825097544E+03  0.75789238130E+03  0.85265101356E+03  0.10100000352E+00 0.  1.
</event>
<event>
 5   0  0.7766551E-03  0.1012988E+04  0.7818609E-02  0.9294414E-01
        2   -1    0    0  501    0  0.00000000000E+00  0.00000000000E+00  0.10270761631E+04  0.10270761631E+04  0.25500000920E-02 0. -1.
       -2   -1    0    0    0  501  0.00000000000E+00  0.00000000000E+00 -0.24977317065E+03  0.24977317066E+03  0.25500000920E-02 0.  1.
    10030    2    1    2    0    0  0.00000000000E+00  0.00000000000E+00  0.77730299246E+03  0.12768493338E+04  0.10129877981E+04 0.  0.
        5    1    3    3  502    0 -0.32909299291E+03  0.78410512899E+02 -0.86439507931E+02  0.34920521909E+03  0.46999998093E+01 0.  1.
       -5    1    3    3    0  502  0.32909299291E+03 -0.78410512899E+02  0.86374250039E+03  0.92764411468E+03  0.46999998093E+01 0. -1.
</event>
<event>
 5   0  0.4504740E-03  0.1105796E+04  0.7818609E-02  0.9199561E-01
       -1   -1    0    0    0  501  0.00000000000E+00  0.00000000000E+00  0.26251774794E+03  0.26251774799E+03  0.50400001928E-02 0. -1.
        1   -1    0    0  501    0  0.00000000000E+00  0.00000000000E+00 -0.11644776912E+04  0.11644776912E+04  0.50400001928E-02 0.  1.
    10030    2    1    2    0    0  0.00000000000E+00  0.00000000000E+00 -0.90195994330E+03  0.14269954392E+04  0.11057957516E+04 0.  0.
        5    1    3    3  502    0  0.15589739882E+03 -0.28108372926E+03  0.12953316519E+03  0.34657321405E+03  0.46999998093E+01 0. -1.
       -5    1    3    3    0  502 -0.15589739882E+03  0.28108372926E+03 -0.10314931085E+04  0.10804222252E+04  0.46999998093E+01 0.  1.
</event>
<event>
 5   0  0.7766551E-03  0.1034818E+04  0.7818609E-02  0.9271160E-01
       -2   -1    0    0    0  501  0.00000000000E+00  0.00000000000E+00  0.15825081743E+03  0.15825081745E+03  0.25500000920E-02 0.  1.
        2   -1    0    0  501    0  0.00000000000E+00  0.00000000000E+00 -0.16916943485E+04  0.16916943485E+04  0.25500000920E-02 0. -1.
    10030    2    1    2    0    0  0.00000000000E+00  0.00000000000E+00 -0.15334435311E+04  0.18499451660E+04  0.10348178845E+04 0.  0.
        5    1    3    3  502    0  0.64866329987E+02  0.11170588499E+03 -0.16623655545E+04  0.16673833309E+04  0.46999998093E+01 0. -1.
       -5    1    3    3    0  502 -0.64866329987E+02 -0.11170588499E+03  0.12892202338E+03  0.18256183506E+03  0.46999998093E+01 0.  1.
</event>
<event>
 5   0  0.7537480E-03  0.1099704E+04  0.7818609E-02  0.9205480E-01
       -2   -1    0    0    0  501  0.00000000000E+00  0.00000000000E+00  0.17851631297E+03  0.17851631299E+03  0.25500000920E-02 0.  1.
        2   -1    0    0  501    0  0.00000000000E+00  0.00000000000E+00 -0.16936116697E+04  0.16936116697E+04  0.25500000920E-02 0. -1.
    10030    2    1    2    0    0  0.00000000000E+00  0.00000000000E+00 -0.15150953567E+04  0.18721279827E+04  0.10997041618E+04 0.  0.
        1    1    3    3  502    0  0.41634073910E+03 -0.80379070526E+02 -0.13534747559E+04  0.14183421029E+04  0.50400001928E-02 0. -1.
       -1    1    3    3    0  502 -0.41634073910E+03  0.80379070526E+02 -0.16162060077E+03  0.45378587972E+03  0.50400001928E-02 0.  1.
</event>
<event>
 5   0  0.7738497E-03  0.1074467E+04  0.7818609E-02  0.9230442E-01
       -2   -1    0    0    0  501  0.00000000000E+00  0.00000000000E+00  0.16046053743E+03  0.16046053745E+03  0.25500000920E-02 0.  1.
        2   -1    0    0  501    0  0.00000000000E+00  0.00000000000E+00 -0.17986956779E+04  0.17986956779E+04  0.25500000920E-02 0. -1.
    10030    2    1    2    0    0  0.00000000000E+00  0.00000000000E+00 -0.16382351405E+04  0.19591562154E+04  0.10744667052E+04 0.  0.
        4    1    3    3  502    0 -0.15786360413E+02  0.52681397649E+03 -0.62931226686E+03  0.82086400647E+03  0.12699999809E+01 0. -1.
       -4    1    3    3    0  502  0.15786360413E+02 -0.52681397649E+03 -0.10089228736E+04  0.11382922089E+04  0.12699999809E+01 0.  1.
</event>
<event>
 5   0  0.4298101E-03  0.1074463E+04  0.7818609E-02  0.9230446E-01
        1   -1    0    0  501    0  0.00000000000E+00  0.00000000000E+00  0.64429366138E+03  0.64429366140E+03  0.50400001928E-02 0. -1.
       -1   -1    0    0    0  501  0.00000000000E+00  0.00000000000E+00 -0.44795987730E+03  0.44795987733E+03  0.50400001928E-02 0.  1.
    10030    2    1    2    0    0  0.00000000000E+00  0.00000000000E+00  0.19633378408E+03  0.10922535387E+04  0.10744630464E+04 0.  0.
        3    1    3    3  502    0 -0.32955299702E+03  0.41285844645E+03  0.19756327230E+03  0.56399337887E+03  0.10100000352E+00 0.  1.
       -3    1    3    3    0  502  0.32955299702E+03 -0.41285844645E+03 -0.12294882242E+01  0.52826015986E+03  0.10100000352E+00 0. -1.
</event>
<event>
 5   0  0.4428114E-03  0.1092800E+04  0.7818609E-02  0.9212238E-01
        1   -1    0    0  501    0  0.00000000000E+00  0.00000000000E+00  0.40626285380E+03  0.40626285383E+03  0.50400001928E-02 0.  1.
       -1   -1    0    0    0  501  0.00000000000E+00  0.00000000000E+00 -0.73487676434E+03  0.73487676436E+03  0.50400001928E-02 0. -1.
    10030    2    1    2    0    0  0.00000000000E+00  0.00000000000E+00 -0.32861391054E+03  0.11411396182E+04  0.10928003139E+04 0.  0.
        4    1    3    3  502    0  0.36337974400E+03 -0.23803617119E+03 -0.51039693962E+03  0.67023332208E+03  0.12699999809E+01 0. -1.
       -4    1    3    3    0  502 -0.36337974400E+03  0.23803617119E+03  0.18178302908E+03  0.47090629610E+03  0.12699999809E+01 0.  1.
</event>
<event>
 5   0  0.7537480E-03  0.1091397E+04  0.7818609E-02  0.9213618E-01
       -2   -1    0    0    0  501  0.00000000000E+00  0.00000000000E+00  0.44027015127E+03  0.44027015127E+03  0.25500000920E-02 0.  1.
        2   -1    0    0  501    0  0.00000000000E+00  0.00000000000E+00 -0.67637257151E+03  0.67637257151E+03  0.25500000920E-02 0. -1.
    10030    2    1    2    0    0  0.00000000000E+00  0.00000000000E+00 -0.23610242024E+03  0.11166427228E+04  0.10913966362E+04 0.  0.
        1    1    3    3  502    0  0.15631991766E+02 -0.50496270256E+03  0.93009183544E+02  0.51369484949E+03  0.50400001928E-02 0.  1.
       -1    1    3    3    0  502 -0.15631991766E+02  0.50496270256E+03 -0.32911160379E+03  0.60294787330E+03  0.50400001928E-02 0. -1.
</event>
<event>
 5   0  0.4641021E-03  0.1095913E+04  0.7818609E-02  0.9209184E-01
        1   -1    0    0  501    0  0.00000000000E+00  0.00000000000E+00  0.10161198357E+04  0.10161198357E+04  0.50400001928E-02 0.  1.
       -1   -1    0    0    0  501  0.00000000000E+00  0.00000000000E+00 -0.29549314684E+03  0.29549314688E+03  0.50400001928E-02 0. -1.
    10030    2    1    2    0    0  0.00000000000E+00  0.00000000000E+00  0.72062668888E+03  0.13116129826E+04  0.10959132226E+04 0.  0.
        1    1    3    3  502    0  0.21533751031E+03 -0.32425669868E+03 -0.10126877068E+03  0.40220394568E+03  0.50400001928E-02 0. -1.
       -1    1    3    3    0  502 -0.21533751031E+03  0.32425669868E+03  0.82189545955E+03  0.90940903693E+03  0.50400001928E-02 0.  1.
</event>
<event>
 5   0  0.7738497E-03  0.1101952E+04  0.7818609E-02  0.9203291E-01
        2   -1    0    0  501    0  0.00000000000E+00  0.00000000000E+00  0.18397016326E+04  0.18397016326E+04  0.25500000920E-02 0. -1.
       -2   -1    0    0    0  501  0.00000000000E+00  0.00000000000E+00 -0.16501304117E+03  0.16501304119E+03  0.25500000920E-02 0.  1.
    10030    2    1    2    0    0  0.00000000000E+00  0.00000000000E+00  0.16746885914E+04  0.20047146738E+04  0.11019523788E+04 0.  0.
        4    1    3    3  502    0  0.11104480212E+03 -0.32120818224E+03  0.48399487037E+02  0.34329253948E+03  0.12699999809E+01 0.  1.
       -4    1    3    3    0  502 -0.11104480212E+03  0.32120818224E+03  0.16262891044E+04  0.16614221343E+04  0.12699999809E+01 0. -1.
</event>
<event>
 5   0  0.7766551E-03  0.1120685E+04  0.7818609E-02  0.9185262E-01
       -2   -1    0    0    0  501  0.00000000000E+00  0.00000000000E+00  0.10149379893E+04  0.10149379893E+04  0.25500000920E-02 0.  1.
        2   -1    0    0  501    0  0.00000000000E+00  0.00000000000E+00 -0.30936260804E+03  0.30936260805E+03  0.25500000920E-02 0. -1.
    10030    2    1    2    0    0  0.00000000000E+00  0.00000000000E+00  0.70557538128E+03  0.13243005974E+04  0.11206852607E+04 0.  0.
        5    1    3    3  502    0 -0.34856314068E+03 -0.18875129437E+03 -0.11519436248E+03  0.41281369323E+03  0.46999998093E+01 0. -1.
       -5    1    3    3    0  502  0.34856314068E+03  0.18875129437E+03  0.82076974377E+03  0.91148690416E+03  0.46999998093E+01 0.  1.
</event>
<event>
 5   0  0.7766551E-03  0.1161387E+04  0.7818609E-02  0.9147342E-01
        2   -1    0    0  501    0  0.00000000000E+00  0.00000000000E+00  0.52186589014E+03  0.52186589015E+03  0.25500000920E-02 0. -1.
       -2   -1    0    0    0  501  0.00000000000E+00  0.00000000000E+00 -0.64615249733E+03  0.64615249733E+03  0.25500000920E-02 0.  1.
    10030    2    1    2    0    0  0.00000000000E+00  0.00000000000E+00 -0.12428660719E+03  0.11680183875E+04  0.11613870125E+04 0.  0.
        5    1    3    3  502    0 -0.25853375853E+02 -0.30422299313E+02 -0.64475142918E+03  0.64600341235E+03  0.46999998093E+01 0.  1.
       -5    1    3    3    0  502  0.25853375853E+02  0.30422299313E+02  0.52046482199E+03  0.52201497513E+03  0.46999998093E+01 0. -1.
</event>
<event>
 5   0  0.4428114E-03  0.1175461E+04  0.7818609E-02  0.9134611E-01
        1   -1    0    0  501    0  0.00000000000E+00  0.00000000000E+00  0.10102710022E+04  0.10102710022E+04  0.50400001928E-02 0. -1.
       -1   -1    0    0    0  501  0.00000000000E+00  0.00000000000E+00 -0.34191534238E+03  0.34191534242E+03  0.50400001928E-02 0.  1.
    10030    2    1    2    0    0  0.00000000000E+00  0.00000000000E+00  0.66835565980E+03  0.13521863446E+04  0.11754610255E+04 0.  0.
        4    1    3    3  502    0  0.11776058253E+03  0.33664616130E+03  0.87155956516E+03  0.94170902153E+03  0.12699999809E+01 0. -1.
       -4    1    3    3    0  502 -0.11776058253E+03 -0.33664616130E+03 -0.20320390536E+03  0.41047732308E+03  0.12699999809E+01 0.  1.
</event>
<event>
 5   0  0.4428114E-03  0.1018559E+04  0.7818609E-02  0.9288420E-01
        1   -1    0    0  501    0  0.00000000000E+00  0.00000000000E+00  0.18434505930E+04  0.18434505930E+04  0.50400001928E-02 0.  1.
       -1   -1    0    0    0  501  0.00000000000E+00  0.00000000000E+00 -0.14069575852E+03  0.14069575861E+03  0.50400001928E-02 0. -1.
    10030    2    1    2    0    0  0.00000000000E+00  0.00000000000E+00  0.17027548345E+04  0.19841463516E+04  0.10185591383E+04 0.  0.
        4    1    3    3  502    0  0.26880779891E+02  0.77127586108E+02 -0.12785077686E+03  0.15171906574E+03  0.12699999809E+01 0. -1.
       -4    1    3    3    0  502 -0.26880779891E+02 -0.77127586108E+02  0.18306056113E+04  0.18324272859E+04  0.12699999809E+01 0.  1.
</event>
<event>
 5   0  0.2992375E-03  0.1176658E+04  0.7818609E-02  0.9133537E-01
        3   -1    0    0  501    0  0.00000000000E+00  0.00000000000E+00  0.11140951047E+04  0.11140951093E+04  0.10100000352E+00 0. -1.
       -3   -1    0    0    0  501  0.00000000000E+00  0.00000000000E+00 -0.31068346129E+03  0.31068347771E+03  0.10100000352E+00 0.  1.
    10030    2    1    2    0    0  0.00000000000E+00  0.00000000000E+00  0.80341164344E+03  0.14247785870E+04  0.11766578743E+04 0.  0.
        3    1    3    3  502    0  0.47487732561E+03  0.79117966991E+02  0.81119230043E+03  0.94329268287E+03  0.10100000352E+00 0.  1.
       -3    1    3    3    0  502 -0.47487732561E+03 -0.79117966991E+02 -0.77806569887E+01  0.48148590415E+03  0.10100000352E+00 0. -1.
</event>
<event>
 5   0  0.4641021E-03  0.1096400E+04  0.7818609E-02  0.9208708E-01
       -1   -1    0    0    0  501  0.00000000000E+00  0.00000000000E+00  0.81851272778E+03  0.81851272780E+03  0.50400001928E-02 0.  1.
        1   -1    0    0  501    0  0.00000000000E+00  0.00000000000E+00 -0.36715782480E+03  0.36715782483E+03  0.50400001928E-02 0. -1.
    10030    2    1    2    0    0  0.00000000000E+00  0.00000000000E+00  0.45135490298E+03  0.11856705526E+04  0.10964002056E+04 0.  0.
        1    1    3    3  502    0  0.27685114927E+03  0.33008397532E+03 -0.14092495358E+03  0.45327897831E+03  0.50400001928E-02 0. -1.
       -1    1    3    3    0  502 -0.27685114927E+03 -0.33008397532E+03  0.59227985657E+03  0.73239157432E+03  0.50400001928E-02 0.  1.
</event>
<event>
 5   0  0.7766551E-03  0.1111045E+04  0.7818609E-02  0.9194493E-01
        2   -1    0    0  501    0  0.00000000000E+00  0.00000000000E+00  0.49831866114E+03  0.49831866115E+03  0.25500000920E-02 0. -1.
       -2   -1    0    0    0  501  0.00000000000E+00  0.00000000000E+00 -0.61929322104E+03  0.61929322104E+03  0.25500000920E-02 0.  1.
    10030    2    1    2    0    0  0.00000000000E+00  0.00000000000E+00 -0.12097455990E+03  0.11176118822E+04  0.11110452174E+04 0.  0.
        5    1    3    3  502    0  0.32395731690E+03  0.12263856748E+03 -0.49732892921E+03  0.60609134232E+03  0.46999998093E+01 0.  1.
       -5    1    3    3    0  502 -0.32395731690E+03 -0.12263856748E+03  0.37635436931E+03  0.51152053987E+03  0.46999998093E+01 0. -1.
</event>
<event>
 5   0  0.7738497E-03  0.1072254E+04  0.7818609E-02  0.9232665E-01
        2   -1    0    0  501    0  0.00000000000E+00  0.00000000000E+00  0.64967475003E+03  0.64967475004E+03  0.25500000920E-02 0.  1.
       -2   -1    0    0    0  501  0.00000000000E+00  0.00000000000E+00 -0.44242506452E+03  0.44242506453E+03  0.25500000920E-02 0. -1.
    10030    2    1    2    0    0  0.00000000000E+00  0.00000000000E+00  0.20724968551E+03  0.10920998146E+04  0.10722544347E+04 0.  0.
        4    1    3    3  502    0  0.81353907875E+02  0.42673393904E+03 -0.21637228935E+03  0.48532349372E+03  0.12699999809E+01 0. -1.
       -4    1    3    3    0  502 -0.81353907875E+02 -0.42673393904E+03  0.42362197486E+03  0.60677632085E+03  0.12699999809E+01 0.  1.
</event>
<event>
 5   0  0.7537480E-03  0.1080045E+04  0.7818609E-02  0.9224862E-01
       -2   -1    0    0    0  501  0.00000000000E+00  0.00000000000E+00  0.84725864228E+03  0.84725864228E+03  0.25500000920E-02 0. -1.
        2   -1    0    0  501    0  0.00000000000E+00  0.00000000000E+00 -0.34419756317E+03  0.34419756318E+03  0.25500000920E-02 0.  1.
    10030    2    1    2    0    0  0.00000000000E+00  0.00000000000E+00  0.50306107911E+03  0.11914562055E+04  0.10800451103E+04 0.  0.
        1    1    3    3  502    0 -0.42687609938E+03 -0.31916243186E+03  0.15576241565E+03  0.55529252857E+03  0.50400001928E-02 0.  1.
       -1    1    3    3    0  502  0.42687609938E+03  0.31916243186E+03  0.34729866345E+03  0.63616367689E+03  0.50400001928E-02 0. -1.
</event>
<event>
 5   0  0.7537480E-03  0.1117380E+04  0.7818609E-02  0.9188416E-01
       -2   -1    0    0    0  501  0.00000000000E+00  0.00000000000E+00  0.61704317691E+03  0.61704317692E+03  0.25500000920E-02 0. -1.
        2   -1    0    0  501    0  0.00000000000E+00  0.00000000000E+00 -0.50585479132E+03  0.50585479133E+03  0.25500000920E-02 0.  1.
    10030    2    1    2    0    0  0.00000000000E+00  0.00000000000E+00  0.11118838559E+03  0.11228979682E+04  0.11173795192E+04 0.  0.
        1    1    3    3  502    0  0.35348212552E+03 -0.20906232529E+03 -0.32506086837E+03  0.52375684920E+03  0.50400001928E-02 0.  1.
       -1    1    3    3    0  502 -0.35348212552E+03  0.20906232529E+03  0.43624925396E+03  0.59914111904E+03  0.50400001928E-02 0. -1.
</event>
<event>
 5   0  0.4598561E-03  0.1124128E+04  0.7818609E-02  0.9181989E-01
       -1   -1    0    0    0  501  0.00000000000E+00  0.00000000000E+00  0.63777626853E+03  0.63777626855E+03  0.50400001928E-02 0. -1.
        1   -1    0    0  501    0  0.00000000000E+00  0.00000000000E+00 -0.49533955038E+03  0.49533955040E+03  0.50400001928E-02 0.  1.
    10030    2    1    2    0    0  0.00000000000E+00  0.00000000000E+00  0.14243671815E+03  0.11331158190E+04  0.11241277688E+04 0.  0.
        2    1    3    3  502    0 -0.54015366879E+03 -0.78061658313E+02  0.20666611850E+03  0.58358417812E+03  0.25500000920E-02 0.  1.
       -2    1    3    3    0  502  0.54015366879E+03  0.78061658313E+02 -0.64229400346E+02  0.54953164084E+03  0.25500000920E-02 0. -1.
</event>
<event>
 5   0  0.4504740E-03  0.1096564E+04  0.7818609E-02  0.9208547E-01
       -1   -1    0    0    0  501  0.00000000000E+00  0.00000000000E+00  0.48575078049E+03  0.48575078052E+03  0.50400001928E-02 0.  1.
        1   -1    0    0  501    0  0.00000000000E+00  0.00000000000E+00 -0.61886289654E+03  0.61886289656E+03  0.50400001928E-02 0. -1.
    10030    2    1    2    0    0  0.00000000000E+00  0.00000000000E+00 -0.13311211605E+03  0.11046136771E+04  0.10965639699E+04 0.  0.
        5    1    3    3  502    0 -0.54722838171E+03 -0.14412827857E+02 -0.35928693467E+02  0.54861607009E+03  0.46999998093E+01 0.  1.
       -5    1    3    3    0  502  0.54722838171E+03  0.14412827857E+02 -0.97183422585E+02  0.55599760699E+03  0.46999998093E+01 0. -1.
</event>
<event>
 5   0  0.7766551E-03  0.1061291E+04  0.7818609E-02  0.9243764E-01
       -2   -1    0    0    0  501  0.00000000000E+00  0.00000000000E+00  0.24592036365E+04  0.24592036365E+04  0.25500000920E-02 0. -1.
        2   -1    0    0  501    0  0.00000000000E+00  0.00000000000E+00 -0.11450227885E+03  0.11450227888E+03  0.25500000920E-02 0.  1.
    10030    2    1    2    0    0  0.00000000000E+00  0.00000000000E+00  0.23447013576E+04  0.25737059154E+04  0.10612905739E+04 0.  0.
        5    1    3    3  502    0  0.49977945037E+03 -0.66405620625E+01  0.16043861619E+04  0.16804465605E+04  0.46999998093E+01 0.  1.
       -5    1    3    3    0  502 -0.49977945037E+03  0.66405620625E+01  0.74031519573E+03  0.89325935489E+03  0.46999998093E+01 0. -1.
</event>
<event>
 5   0  0.4428114E-03  0.1137059E+04  0.7818609E-02  0.9169806E-01
       -1   -1    0    0    0  501  0.00000000000E+00  0.00000000000E+00  0.47565873722E+03  0.47565873725E+03  0.50400001928E-02 0. -1.
        1   -1    0    0  501    0  0.00000000000E+00  0.00000000000E+00 -0.67953326387E+03  0.67953326389E+03  0.50400001928E-02 0.  1.
    10030    2    1    2    0    0  0.00000000000E+00  0.00000000000E+00 -0.20387452664E+03  0.11551920011E+04  0.11370592495E+04 0.  0.
        4    1    3    3  502    0 -0.18018303387E+03 -0.51444540591E+03 -0.26608211647E+03  0.60656517124E+03  0.12699999809E+01 0.  1.
       -4    1    3    3    0  502  0.18018303387E+03  0.51444540591E+03  0.62207589828E+02  0.54862682990E+03  0.12699999809E+01 0. -1.
</event>
<event>
 5   0  0.7712816E-03  0.1146278E+04  0.7818609E-02  0.9161224E-01
        2   -1    0    0  501    0  0.00000000000E+00  0.00000000000E+00  0.71494460137E+03  0.71494460138E+03  0.25500000920E-02 0. -1.
       -2   -1    0    0    0  501  0.00000000000E+00  0.00000000000E+00 -0.45946014135E+03  0.45946014135E+03  0.25500000920E-02 0.  1.
    10030    2    1    2    0    0  0.00000000000E+00  0.00000000000E+00  0.25548446003E+03  0.11744047427E+04  0.11462784088E+04 0.  0.
        2    1    3    3  502    0 -0.49635498342E+03  0.35189005359E+02 -0.16363368957E+03  0.52381534918E+03  0.25500000920E-02 0.  1.
       -2    1    3    3    0  502  0.49635498342E+03 -0.35189005359E+02  0.41911814960E+03  0.65058939355E+03  0.25500000920E-02 0. -1.
</event>
<event>
 5   0  0.4641021E-03  0.8664762E+03  0.7818609E-02  0.9468486E-01
        1   -1    0    0  501    0  0.00000000000E+00  0.00000000000E+00  0.20334648768E+03  0.20334648774E+03  0.50400001928E-02 0.  1.
       -1   -1    0    0    0  501  0.00000000000E+00  0.00000000000E+00 -0.92303157904E+03  0.92303157906E+03  0.50400001928E-02 0. -1.
    10030    2    1    2    0    0  0.00000000000E+00  0.00000000000E+00 -0.71968509136E+03  0.11263780668E+04  0.86647615007E+03 0.  0.
        1    1    3    3  502    0 -0.34970871798E+03 -0.85279686419E+02 -0.46431463022E+02  0.36293896612E+03  0.50400001928E-02 0.  1.
       -1    1    3    3    0  502  0.34970871798E+03  0.85279686419E+02 -0.67325362834E+03  0.76343910068E+03  0.50400001928E-02 0. -1.
</event>
<event>
 5   0  0.7952121E-03  0.1085896E+04  0.7818609E-02  0.9219049E-01
        2   -1    0    0  501    0  0.00000000000E+00  0.00000000000E+00  0.84684992159E+03  0.84684992159E+03  0.25500000920E-02 0.  1.
       -2   -1    0    0    0  501  0.00000000000E+00  0.00000000000E+00 -0.34810455175E+03  0.34810455176E+03  0.25500000920E-02 0. -1.
    10030    2    1    2    0    0  0.00000000000E+00  0.00000000000E+00  0.49874536984E+03  0.11949544734E+04  0.10858955979E+04 0.  0.
        3    1    3    3  502    0 -0.18843444541E+03  0.50798528641E+03  0.28805582288E+03  0.61362265173E+03  0.10100000352E+00 0. -1.
       -3    1    3    3    0  502  0.18843444541E+03 -0.50798528641E+03  0.21068954696E+03  0.58133182162E+03  0.10100000352E+00 0.  1.
</event>
<event>
 5   0  0.7766551E-03  0.1090187E+04  0.7818609E-02  0.9214809E-01
       -2   -1    0    0    0  501  0.00000000000E+00  0.00000000000E+00  0.32325480872E+03  0.32325480873E+03  0.25500000920E-02 0.  1.
        2   -1    0    0  501    0  0.00000000000E+00  0.00000000000E+00 -0.91917297222E+03  0.91917297222E+03  0.25500000920E-02 0. -1.
    10030    2    1    2    0    0  0.00000000000E+00  0.00000000000E+00 -0.59591816350E+03  0.12424277809E+04  0.10901872928E+04 0.  0.
        5    1    3    3  502    0 -0.49019721474E+03  0.17697920153E+03 -0.47991045995E+03  0.70848506455E+03  0.46999998093E+01 0. -1.
       -5    1    3    3    0  502  0.49019721474E+03 -0.17697920153E+03 -0.11600770355E+03  0.53394271640E+03  0.46999998093E+01 0.  1.
</event>
<event>
 5   0  0.4641021E-03  0.1102297E+04  0.7818609E-02  0.9202956E-01
       -1   -1    0    0    0  501  0.00000000000E+00  0.00000000000E+00  0.49750567336E+03  0.49750567339E+03  0.50400001928E-02 0. -1.
        1   -1    0    0  501    0  0.00000000000E+00  0.00000000000E+00 -0.61057560048E+03  0.61057560050E+03  0.50400001928E-02 0.  1.
    10030    2    1    2    0    0  0.00000000000E+00  0.00000000000E+00 -0.11306992711E+03  0.11080812739E+04  0.11022972835E+04 0.  0.
        1    1    3    3  502    0 -0.39808765038E+03  0.35846939338E+03 -0.18679398794E+03  0.56733242225E+03  0.50400001928E-02 0.  1.
       -1    1    3    3    0  502  0.39808765038E+03 -0.35846939338E+03  0.73724060825E+02  0.54074885164E+03  0.50400001928E-02 0. -1.
</event>
<event>
 5   0  0.4428114E-03  0.1088249E+04  0.7818609E-02  0.9216721E-01
        1   -1    0    0  501    0  0.00000000000E+00  0.00000000000E+00  0.65004608978E+03  0.65004608980E+03  0.50400001928E-02 0.  1.
       -1   -1    0    0    0  501  0.00000000000E+00  0.00000000000E+00 -0.45546233653E+03  0.45546233656E+03  0.50400001928E-02 0. -1.
    10030    2    1    2    0    0  0.00000000000E+00  0.00000000000E+00  0.19458375325E+03  0.11055084264E+04  0.10882490725E+04 0.  0.
        4    1    3    3  502    0 -0.20941753626E+03 -0.34589637731E+03 -0.27258416311E+03  0.48765125572E+03  0.12699999809E+01 0. -1.
       -4    1    3    3    0  502  0.20941753626E+03  0.34589637731E+03  0.46716791637E+03  0.61785717064E+03  0.12699999809E+01 0.  1.
</event>
<event>
 5   0  0.4504740E-03  0.1090840E+04  0.7818609E-02  0.9214166E-01
        1   -1    0    0  501    0  0.00000000000E+00  0.00000000000E+00  0.10634169037E+04  0.10634169037E+04  0.50400001928E-02 0.  1.
       -1   -1    0    0    0  501  0.00000000000E+00  0.00000000000E+00 -0.27974240083E+03  0.27974240088E+03  0.50400001928E-02 0. -1.
    10030    2    1    2    0    0  0.00000000000E+00  0.00000000000E+00  0.78367450287E+03  0.13431593046E+04  0.10908396725E+04 0.  0.
        5    1    3    3  502    0 -0.31821938815E+03 -0.44178676240E+03  0.43119261484E+03  0.69454177953E+03  0.46999998093E+01 0.  1.
       -5    1    3    3    0  502  0.31821938815E+03  0.44178676240E+03  0.35248188803E+03  0.64861752506E+03  0.46999998093E+01 0. -1.
</event>
<event>
 5   0  0.4504740E-03  0.1101416E+04  0.7818609E-02  0.9203813E-01
       -1   -1    0    0    0  501  0.00000000000E+00  0.00000000000E+00  0.47821919254E+03  0.47821919257E+03  0.50400001928E-02 0. -1.
        1   -1    0    0  501    0  0.00000000000E+00  0.00000000000E+00 -0.63418437678E+03  0.63418437680E+03  0.50400001928E-02 0.  1.
    10030    2    1    2    0    0  0.00000000000E+00  0.00000000000E+00 -0.15596518424E+03  0.11124035694E+04  0.11014157083E+04 0.  0.
        5    1    3    3  502    0  0.14460727576E+03 -0.25931358471E+01 -0.61463933624E+03  0.63144405311E+03  0.46999998093E+01 0.  1.
       -5    1    3    3    0  502 -0.14460727576E+03  0.25931358471E+01  0.45867415200E+03  0.48095951625E+03  0.46999998093E+01 0. -1.
</event>
<event>
 5   0  0.7766551E-03  0.8366600E+03  0.7818609E-02  0.9508418E-01
        2   -1    0    0  501    0  0.00000000000E+00  0.00000000000E+00  0.91518259495E+03  0.91518259496E+03  0.25500000920E-02 0.  1.
       -2   -1    0    0    0  501  0.00000000000E+00  0.00000000000E+00 -0.19121866678E+03  0.19121866679E+03  0.25500000920E-02 0. -1.
    10030    2    1    2    0    0  0.00000000000E+00  0.00000000000E+00  0.72396392818E+03  0.11064012618E+04  0.83666001620E+03 0.  0.
        5    1    3    3  502    0 -0.12636436797E+03  0.32820421318E+03  0.62487886599E+02  0.35722931712E+03  0.46999998093E+01 0. -1.
       -5    1    3    3    0  502  0.12636436797E+03 -0.32820421318E+03  0.66147604158E+03  0.74917194463E+03  0.46999998093E+01 0.  1.
</event>
<event>
 5   0  0.7766551E-03  0.1123190E+04  0.7818609E-02  0.9182880E-01
        2   -1    0    0  501    0  0.00000000000E+00  0.00000000000E+00  0.90538833791E+03  0.90538833792E+03  0.25500000920E-02 0.  1.
       -2   -1    0    0    0  501  0.00000000000E+00  0.00000000000E+00 -0.34834643790E+03  0.34834643791E+03  0.25500000920E-02 0. -1.
    10030    2    1    2    0    0  0.00000000000E+00  0.00000000000E+00  0.55704190002E+03  0.12537347758E+04  0.11231897479E+04 0.  0.
        5    1    3    3  502    0  0.27382176097E+03  0.48157085745E+03  0.17574398528E+03  0.58120296445E+03  0.46999998093E+01 0. -1.
       -5    1    3    3    0  502 -0.27382176097E+03 -0.48157085745E+03  0.38129791474E+03  0.67253181137E+03  0.46999998093E+01 0.  1.
</event>
<event>
 5   0  0.7952121E-03  0.1100965E+04  0.7818609E-02  0.9204252E-01
       -2   -1    0    0    0  501  0.00000000000E+00  0.00000000000E+00  0.11797352780E+04  0.11797352780E+04  0.25500000920E-02 0. -1.
        2   -1    0    0  501    0  0.00000000000E+00  0.00000000000E+00 -0.25686360539E+03  0.25686360540E+03  0.25500000920E-02 0.  1.
    10030    2    1    2    0    0  0.00000000000E+00  0.00000000000E+00  0.92287167265E+03  0.14365988834E+04  0.11009651347E+04 0.  0.
        3    1    3    3  502    0  0.21417671397E+03  0.20263934844E+03  0.10680129249E+04  0.11079647956E+04  0.10100000352E+00 0. -1.
       -3    1    3    3    0  502 -0.21417671397E+03 -0.20263934844E+03 -0.14514125230E+03  0.32863408780E+03  0.10100000352E+00 0.  1.
</event>
<event>
 5   0  0.7766551E-03  0.1095635E+04  0.7818609E-02  0.9209457E-01
       -2   -1    0    0    0  501  0.00000000000E+00  0.00000000000E+00  0.48401960985E+03  0.48401960986E+03  0.25500000920E-02 0.  1.
        2   -1    0    0  501    0  0.00000000000E+00  0.00000000000E+00 -0.62002457890E+03  0.62002457891E+03  0.25500000920E-02 0. -1.
    10030    2    1    2    0    0  0.00000000000E+00  0.00000000000E+00 -0.13600496905E+03  0.11040441888E+04  0.10956350757E+04 0.  0.
        5    1    3    3  502    0 -0.20027224516E+03  0.21600303135E+03  0.39740345544E+03  0.49468967861E+03  0.46999998093E+01 0.  1.
       -5    1    3    3    0  502  0.20027224516E+03 -0.21600303135E+03 -0.53340842449E+03  0.60935451016E+03  0.46999998093E+01 0. -1.
</event>
<event>
 5   0  0.4598561E-03  0.1120038E+04  0.7818609E-02  0.9185879E-01
        1   -1    0    0  501    0  0.00000000000E+00  0.00000000000E+00  0.54009193458E+03  0.54009193460E+03  0.50400001928E-02 0. -1.
       -1   -1    0    0    0  501  0.00000000000E+00  0.00000000000E+00 -0.58068080164E+03  0.58068080166E+03  0.50400001928E-02 0.  1.
    10030    2    1    2    0    0  0.00000000000E+00  0.00000000000E+00 -0.40588867057E+02  0.11207727363E+04  0.11200375307E+04 0.  0.
        2    1    3    3  502    0  0.11064068456E+03 -0.50302533208E+02  0.52673552603E+03  0.54057563792E+03  0.25500000920E-02 0. -1.
       -2    1    3    3    0  502 -0.11064068456E+03  0.50302533208E+02 -0.56732439309E+03  0.58019709834E+03  0.25500000920E-02 0.  1.
</event>
<event>
 5   0  0.7952121E-03  0.1097830E+04  0.7818609E-02  0.9207310E-01
        2   -1    0    0  501    0  0.00000000000E+00  0.00000000000E+00  0.18930887177E+04  0.18930887177E+04  0.25500000920E-02 0. -1.
       -2   -1    0    0    0  501  0.00000000000E+00  0.00000000000E+00 -0.15916187113E+03  0.15916187115E+03  0.25500000920E-02 0.  1.
    10030    2    1    2    0    0  0.00000000000E+00  0.00000000000E+00  0.17339268466E+04  0.20522505889E+04  0.10978297547E+04 0.  0.
        3    1    3    3  502    0  0.38740660529E+03  0.10888990309E+03  0.16909296906E+03  0.43650123849E+03  0.10100000352E+00 0.  1.
       -3    1    3    3    0  502 -0.38740660529E+03 -0.10888990309E+03  0.15648338775E+04  0.16157493504E+04  0.10100000352E+00 0. -1.
</event>
<event>
 5   0  0.7738497E-03  0.1076627E+04  0.7818609E-02  0.9228277E-01
        2   -1    0    0  501    0  0.00000000000E+00  0.00000000000E+00  0.16983948460E+04  0.16983948460E+04  0.25500000920E-02 0.  1.
       -2   -1    0    0    0  501  0.00000000000E+00  0.00000000000E+00 -0.17062068313E+03  0.17062068315E+03  0.25500000920E-02 0. -1.
    10030    2    1    2    0    0  0.00000000000E+00  0.00000000000E+00  0.15277741629E+04  0.18690155292E+04  0.10766267485E+04 0.  0.
        4    1    3    3  502    0  0.48166579216E+03 -0.22887492468E+03  0.63638901526E+03  0.83028805732E+03  0.12699999809E+01 0. -1.
       -4    1    3    3    0  502 -0.48166579216E+03  0.22887492468E+03  0.89138514766E+03  0.10387274719E+04  0.12699999809E+01 0.  1.
</event>
<event>
 5   0  0.7952121E-03  0.1099320E+04  0.7818609E-02  0.9205855E-01
        2   -1    0    0  501    0  0.00000000000E+00  0.00000000000E+00  0.13150422827E+04  0.13150422827E+04  0.25500000920E-02 0. -1.
       -2   -1    0    0    0  501  0.00000000000E+00  0.00000000000E+00 -0.22974646168E+03  0.22974646169E+03  0.25500000920E-02 0.  1.
    10030    2    1    2    0    0  0.00000000000E+00  0.00000000000E+00  0.10852958210E+04  0.15447887444E+04  0.10993203563E+04 0.  0.
        3    1    3    3  502    0  0.25589536317E+03  0.79563281711E+02 -0.13173191538E+03  0.29860686599E+03  0.10100000352E+00 0.  1.
       -3    1    3    3    0  502 -0.25589536317E+03 -0.79563281711E+02  0.12170277364E+04  0.12461818784E+04  0.10100000352E+00 0. -1.
</event>
<event>
 5   0  0.4598561E-03  0.1079416E+04  0.7818609E-02  0.9225489E-01
       -1   -1    0    0    0  501  0.00000000000E+00  0.00000000000E+00  0.27349311218E+03  0.27349311223E+03  0.50400001928E-02 0.  1.
        1   -1    0    0  501    0  0.00000000000E+00  0.00000000000E+00 -0.10650542023E+04  0.10650542024E+04  0.50400001928E-02 0. -1.
    10030    2    1    2    0    0  0.00000000000E+00  0.00000000000E+00 -0.79156109016E+03  0.13385473146E+04  0.10794164877E+04 0.  0.
        2    1    3    3  502    0  0.41905462145E+03  0.12691677769E+02 -0.81725172439E+03  0.91851414549E+03  0.25500000920E-02 0. -1.
       -2    1    3    3    0  502 -0.41905462145E+03 -0.12691677769E+02  0.25690634226E+02  0.42003316909E+03  0.25500000920E-02 0.  1.
</event>
<event>
 5   0  0.7712816E-03  0.1030955E+04  0.7818609E-02  0.9275231E-01
        2   -1    0    0  501    0  0.00000000000E+00  0.00000000000E+00  0.42615346156E+03  0.42615346156E+03  0.25500000920E-02 0. -1.
       -2   -1    0    0    0  501  0.00000000000E+00  0.00000000000E+00 -0.62352390948E+03  0.62352390949E+03  0.25500000920E-02 0.  1.
    10030    2    1    2    0    0  0.00000000000E+00  0.00000000000E+00 -0.19737044793E+03  0.10496773711E+04  0.10309546496E+04 0.  0.
        2    1    3    3  502    0  0.25949923745E+03  0.40344560774E+03  0.93444291298E+02  0.48871264382E+03  0.25500000920E-02 0. -1.
       -2    1    3    3    0  502 -0.25949923745E+03 -0.40344560774E+03 -0.29081473923E+03  0.56096472723E+03  0.25500000920E-02 0.  1.
</event>
<event>
 5   0  0.4428114E-03  0.1113016E+04  0.7818609E-02  0.9192597E-01
        1   -1    0    0  501    0  0.00000000000E+00  0.00000000000E+00  0.11475659756E+04  0.11475659756E+04  0.50400001928E-02 0.  1.
       -1   -1    0    0    0  501  0.00000000000E+00  0.00000000000E+00 -0.26987676505E+03  0.26987676510E+03  0.50400001928E-02 0. -1.
    10030    2    1    2    0    0  0.00000000000E+00  0.00000000000E+00  0.87768921058E+03  0.14174427407E+04  0.11130164298E+04 0.  0.
        4    1    3    3  502    0 -0.17762757003E+03  0.45050698541E+03  0.89632852859E+02  0.49248731836E+03  0.12699999809E+01 0. -1.
       -4    1    3    3    0  502  0.17762757003E+03 -0.45050698541E+03  0.78805635772E+03  0.92495542237E+03  0.12699999809E+01 0.  1.
</event>
<event>
 5   0  0.4428114E-03  0.1038858E+04  0.7818609E-02  0.9266923E-01
        1   -1    0    0  501    0  0.00000000000E+00  0.00000000000E+00  0.52655469406E+03  0.52655469408E+03  0.50400001928E-02 0.  1.
       -1   -1    0    0    0  501  0.00000000000E+00  0.00000000000E+00 -0.51239985871E+03  0.51239985873E+03  0.50400001928E-02 0. -1.
    10030    2    1    2    0    0  0.00000000000E+00  0.00000000000E+00  0.14154835350E+02  0.10389545528E+04  0.10388581248E+04 0.  0.
        4    1    3    3  502    0 -0.28134000659E+03 -0.17855560239E+03  0.40557473438E+03  0.52490644931E+03  0.12699999809E+01 0.  1.
       -4    1    3    3    0  502  0.28134000659E+03  0.17855560239E+03 -0.39141989903E+03  0.51404810350E+03  0.12699999809E+01 0. -1.
</event>
<event>
 5   0  0.7738497E-03  0.1158456E+04  0.7818609E-02  0.9150018E-01
       -2   -1    0    0    0  501  0.00000000000E+00  0.00000000000E+00  0.39636783034E+03  0.39636783034E+03  0.25500000920E-02 0.  1.
        2   -1    0    0  501    0  0.00000000000E+00  0.00000000000E+00 -0.84644840520E+03  0.84644840521E+03  0.25500000920E-02 0. -1.
    10030    2    1    2    0    0  0.00000000000E+00  0.00000000000E+00 -0.45008057487E+03  0.12428162356E+04  0.11584557270E+04 0.  0.
        4    1    3    3  502    0 -0.18132276619E+03  0.46718625731E+03  0.86562861903E+02  0.50856237230E+03  0.12699999809E+01 0.  1.
       -4    1    3    3    0  502  0.18132276619E+03 -0.46718625731E+03 -0.53664343677E+03  0.73425386325E+03  0.12699999809E+01 0. -1.
</event>
<event>
 5   0  0.4298101E-03  0.1099022E+04  0.7818609E-02  0.9206145E-01
        1   -1    0    0  501    0  0.00000000000E+00  0.00000000000E+00  0.86376191441E+03  0.86376191442E+03  0.50400001928E-02 0.  1.
       -1   -1    0    0    0  501  0.00000000000E+00  0.00000000000E+00 -0.34959002950E+03  0.34959002954E+03  0.50400001928E-02 0. -1.
    10030    2    1    2    0    0  0.00000000000E+00  0.00000000000E+00  0.51417188491E+03  0.12133519440E+04  0.10990223895E+04 0.  0.
        3    1    3    3  502    0 -0.12792743262E+03  0.51667468061E+03  0.40783490509E+03  0.67055758411E+03  0.10100000352E+00 0.  1.
       -3    1    3    3    0  502  0.12792743262E+03 -0.51667468061E+03  0.10633697982E+03  0.54279435985E+03  0.10100000352E+00 0. -1.
</event>
<event>
 5   0  0.2992375E-03  0.1096765E+04  0.7818609E-02  0.9208351E-01
       -4   -1    0    0    0  501  0.00000000000E+00  0.00000000000E+00  0.85776819485E+03  0.85776913502E+03  0.12699999809E+01 0.  1.
        4   -1    0    0  501    0  0.00000000000E+00  0.00000000000E+00 -0.35058579487E+03  0.35058809516E+03  0.12699999809E+01 0. -1.
    10030    2    1    2    0    0  0.00000000000E+00  0.00000000000E+00  0.50718239998E+03  0.12083572302E+04  0.10967648831E+04 0.  0.
        3    1    3    3  502    0 -0.24631533066E+02 -0.29630265662E+03 -0.25407541738E+03  0.39109628566E+03  0.10100000352E+00 0. -1.
       -3    1    3    3    0  502  0.24631533066E+02  0.29630265662E+03  0.76125781736E+03  0.81726094452E+03  0.10100000352E+00 0.  1.
</event>
<event>
 5   0  0.7537480E-03  0.1117623E+04  0.7818609E-02  0.9188183E-01
        2   -1    0    0  501    0  0.00000000000E+00  0.00000000000E+00  0.40828750739E+03  0.40828750740E+03  0.25500000920E-02 0.  1.
       -2   -1    0    0    0  501  0.00000000000E+00  0.00000000000E+00 -0.76483001744E+03  0.76483001745E+03  0.25500000920E-02 0. -1.
    10030    2    1    2    0    0  0.00000000000E+00  0.00000000000E+00 -0.35654251005E+03  0.11731175248E+04  0.11176234454E+04 0.  0.
        1    1    3    3  502    0 -0.48679816165E+03  0.27185704354E+03 -0.13911144912E+03  0.57465702607E+03  0.50400001928E-02 0. -1.
       -1    1    3    3    0  502  0.48679816165E+03 -0.27185704354E+03 -0.21743106092E+03  0.59846049877E+03  0.50400001928E-02 0.  1.
</event>
<event>
 5   0  0.7952121E-03  0.1074499E+04  0.7818609E-02  0.9230409E-01
       -2   -1    0    0    0  501  0.00000000000E+00  0.00000000000E+00  0.61961143198E+03  0.61961143199E+03  0.25500000920E-02 0.  1.
        2   -1    0    0  501    0  0.00000000000E+00  0.00000000000E+00 -0.46583566078E+03  0.46583566078E+03  0.25500000920E-02 0. -1.
    10030    2    1    2    0    0  0.00000000000E+00  0.00000000000E+00  0.15377577120E+03  0.10854470928E+04  0.10744991407E+04 0.  0.
        3    1    3    3  502    0 -0.29371961087E+02  0.49855453040E+03 -0.12316460963E+03  0.51438202063E+03  0.10100000352E+00 0. -1.
       -3    1    3    3    0  502  0.29371961087E+02 -0.49855453040E+03  0.27694038083E+03  0.57106507214E+03  0.10100000352E+00 0.  1.
</event>
<event>
 5   0  0.7738497E-03  0.1101342E+04  0.7818609E-02  0.9203885E-01
       -2   -1    0    0    0  501  0.00000000000E+00  0.00000000000E+00  0.40130750629E+03  0.40130750630E+03  0.25500000920E-02 0. -1.
        2   -1    0    0  501    0  0.00000000000E+00  0.00000000000E+00 -0.75562668986E+03  0.75562668986E+03  0.25500000920E-02 0.  1.
    10030    2    1    2    0    0  0.00000000000E+00  0.00000000000E+00 -0.35431918357E+03  0.11569341962E+04  0.11013422040E+04 0.  0.
        4    1    3    3  502    0  0.45172219112E+03  0.28269917797E+03 -0.31354022737E+02  0.53381312350E+03  0.12699999809E+01 0. -1.
       -4    1    3    3    0  502 -0.45172219112E+03 -0.28269917797E+03 -0.32296516083E+03  0.62312107266E+03  0.12699999809E+01 0.  1.
</event>
<event>
 5   0  0.4641021E-03  0.1152813E+04  0.7818609E-02  0.9155192E-01
       -1   -1    0    0    0  501  0.00000000000E+00  0.00000000000E+00  0.76861625444E+03  0.76861625446E+03  0.50400001928E-02 0.  1.
        1   -1    0    0  501    0  0.00000000000E+00  0.00000000000E+00 -0.43226299032E+03  0.43226299035E+03  0.50400001928E-02 0. -1.
    10030    2    1    2    0    0  0.00000000000E+00  0.00000000000E+00  0.33635326412E+03  0.12008792448E+04  0.11528128392E+04 0.  0.
        1    1    3    3  502    0  0.53919105527E+03 -0.12044317449E+03  0.33937882513E+03  0.64839150159E+03  0.50400001928E-02 0.  1.
       -1    1    3    3    0  502 -0.53919105527E+03  0.12044317449E+03 -0.30255610043E+01  0.55248774322E+03  0.50400001928E-02 0. -1.
</event>
<event>
 5   0  0.7738497E-03  0.9833303E+03  0.7818609E-02  0.9327019E-01
       -2   -1    0    0    0  501  0.00000000000E+00  0.00000000000E+00  0.68595608960E+03  0.68595608961E+03  0.25500000920E-02 0.  1.
        2   -1    0    0  501    0  0.00000000000E+00  0.00000000000E+00 -0.35240540880E+03  0.35240540881E+03  0.25500000920E-02 0. -1.
    10030    2    1    2    0    0  0.00000000000E+00  0.00000000000E+00  0.33355068081E+03  0.10383614984E+04  0.98333033347E+03 0.  0.
        4    1    3    3  502    0 -0.17515492778E+03  0.45026912623E+03  0.26304480242E+03  0.55010518607E+03  0.12699999809E+01 0. -1.
       -4    1    3    3    0  502  0.17515492778E+03 -0.45026912623E+03  0.70505878385E+02  0.48825631235E+03  0.12699999809E+01 0.  1.
</event>
<event>
 5   0  0.4298101E-03  0.1104427E+04  0.7818609E-02  0.9200887E-01
        1   -1    0    0  501    0  0.00000000000E+00  0.00000000000E+00  0.36545962046E+03  0.36545962049E+03  0.50400001928E-02 0. -1.
       -1   -1    0    0    0  501  0.00000000000E+00  0.00000000000E+00 -0.83440131983E+03  0.83440131984E+03  0.50400001928E-02 0.  1.
    10030    2    1    2    0    0  0.00000000000E+00  0.00000000000E+00 -0.46894169937E+03  0.11998609403E+04  0.11044274348E+04 0.  0.
        3    1    3    3  502    0  0.18378744585E+03 -0.14507355077E+03 -0.77780163085E+03  0.81228046113E+03  0.10100000352E+00 0.  1.
       -3    1    3    3    0  502 -0.18378744585E+03  0.14507355077E+03  0.30885993148E+03  0.38758047920E+03  0.10100000352E+00 0. -1.
</event>
<event>
 5   0  0.7952121E-03  0.1093922E+04  0.7818609E-02  0.9211136E-01
        2   -1    0    0  501    0  0.00000000000E+00  0.00000000000E+00  0.69343767207E+03  0.69343767207E+03  0.25500000920E-02 0.  1.
       -2   -1    0    0    0  501  0.00000000000E+00  0.00000000000E+00 -0.43142488207E+03  0.43142488208E+03  0.25500000920E-02 0. -1.
    10030    2    1    2    0    0  0.00000000000E+00  0.00000000000E+00  0.26201279000E+03  0.11248625541E+04  0.10939218727E+04 0.  0.
        3    1    3    3  502    0  0.30063407166E+03  0.40060594865E+02  0.59905144259E+03  0.67145240887E+03  0.10100000352E+00 0.  1.
       -3    1    3    3    0  502 -0.30063407166E+03 -0.40060594865E+02 -0.33703865259E+03  0.45341014528E+03  0.10100000352E+00 0. -1.
</event>
<event>
 5   0  0.7952121E-03  0.1074595E+04  0.7818609E-02  0.9230313E-01
        2   -1    0    0  501    0  0.00000000000E+00  0.00000000000E+00  0.71429251352E+03  0.71429251352E+03  0.25500000920E-02 0.  1.
       -2   -1    0    0    0  501  0.00000000000E+00  0.00000000000E+00 -0.40416046520E+03  0.40416046521E+03  0.25500000920E-02 0. -1.
    10030    2    1    2    0    0  0.00000000000E+00  0.00000000000E+00  0.31013204831E+03  0.11184529787E+04  0.10745953556E+04 0.  0.
        3    1    3    3  502    0 -0.32536028689E+03 -0.13995675341E+03 -0.26545543217E+03  0.44262151527E+03  0.10100000352E+00 0. -1.
       -3    1    3    3    0  502  0.32536028689E+03  0.13995675341E+03  0.57558748048E+03  0.67583146346E+03  0.10100000352E+00 0.  1.
</event>
<event>
 5   0  0.4428114E-03  0.1077985E+04  0.7818609E-02  0.9226918E-01
       -1   -1    0    0    0  501  0.00000000000E+00  0.00000000000E+00  0.51643399582E+03  0.51643399585E+03  0.50400001928E-02 0. -1.
        1   -1    0    0  501    0  0.00000000000E+00  0.00000000000E+00 -0.56253684843E+03  0.56253684845E+03  0.50400001928E-02 0.  1.
    10030    2    1    2    0    0  0.00000000000E+00  0.00000000000E+00 -0.46102852604E+02  0.10789708443E+04  0.10779854405E+04 0.  0.
        4    1    3    3  502    0  0.20964103735E+03  0.39661387644E+03  0.27598514321E+03  0.52670802510E+03  0.12699999809E+01 0. -1.
       -4    1    3    3    0  502 -0.20964103735E+03 -0.39661387644E+03 -0.32208799582E+03  0.55226281920E+03  0.12699999809E+01 0.  1.
</event>
<event>
 5   0  0.4641021E-03  0.1046338E+04  0.7818609E-02  0.9259133E-01
        1   -1    0    0  501    0  0.00000000000E+00  0.00000000000E+00  0.81694547602E+03  0.81694547603E+03  0.50400001928E-02 0.  1.
       -1   -1    0    0    0  501  0.00000000000E+00  0.00000000000E+00 -0.33503582837E+03  0.33503582841E+03  0.50400001928E-02 0. -1.
    10030    2    1    2    0    0  0.00000000000E+00  0.00000000000E+00  0.48190964765E+03  0.11519813044E+04  0.10463383856E+04 0.  0.
        1    1    3    3  502    0  0.27448217477E+03 -0.46290709766E+02  0.72864938002E+03  0.78000846990E+03  0.50400001928E-02 0.  1.
       -1    1    3    3    0  502 -0.27448217477E+03  0.46290709766E+02 -0.24673973238E+03  0.37197283454E+03  0.50400001928E-02 0. -1.
</event>
<event>
 5   0  0.7537480E-03  0.1091582E+04  0.7818609E-02  0.9213436E-01
        2   -1    0    0  501    0  0.00000000000E+00  0.00000000000E+00  0.14855033505E+04  0.14855033505E+04  0.25500000920E-02 0.  1.
       -2   -1    0    0    0  501  0.00000000000E+00  0.00000000000E+00 -0.20052990078E+03  0.20052990080E+03  0.25500000920E-02 0. -1.
    10030    2    1    2    0    0  0.00000000000E+00  0.00000000000E+00  0.12849734497E+04  0.16860332513E+04  0.10915820436E+04 0.  0.
        1    1    3    3  502    0  0.23232802773E+03  0.48105506112E+03  0.81515886971E+03  0.97461493277E+03  0.50400001928E-02 0.  1.
       -1    1    3    3    0  502 -0.23232802773E+03 -0.48105506112E+03  0.46981457997E+03  0.71141831848E+03  0.50400001928E-02 0. -1.
</event>
<event>
 5   0  0.4428114E-03  0.1097447E+04  0.7818609E-02  0.9207684E-01
       -1   -1    0    0    0  501  0.00000000000E+00  0.00000000000E+00  0.63958862768E+03  0.63958862770E+03  0.50400001928E-02 0.  1.
        1   -1    0    0  501    0  0.00000000000E+00  0.00000000000E+00 -0.47076748355E+03  0.47076748358E+03  0.50400001928E-02 0. -1.
    10030    2    1    2    0    0  0.00000000000E+00  0.00000000000E+00  0.16882114413E+03  0.11103561113E+04  0.10974470899E+04 0.  0.
        4    1    3    3  502    0 -0.62313235558E+02  0.66823895166E+02 -0.46301530875E+03  0.47194614240E+03  0.12699999809E+01 0. -1.
       -4    1    3    3    0  502  0.62313235558E+02 -0.66823895166E+02  0.63183645288E+03  0.63840996889E+03  0.12699999809E+01 0.  1.
</event>
<event>
 5   0  0.7766551E-03  0.1082928E+04  0.7818609E-02  0.9221993E-01
       -2   -1    0    0    0  501  0.00000000000E+00  0.00000000000E+00  0.15129427176E+03  0.15129427178E+03  0.25500000920E-02 0. -1.
        2   -1    0    0  501    0  0.00000000000E+00  0.00000000000E+00 -0.19378334940E+04  0.19378334940E+04  0.25500000920E-02 0.  1.
    10030    2    1    2    0    0  0.00000000000E+00  0.00000000000E+00 -0.17865392223E+04  0.20891277658E+04  0.10829277119E+04 0.  0.
        5    1    3    3  502    0  0.46475827373E+03 -0.24026962113E+03 -0.11621853157E+04  0.12745299298E+04  0.46999998093E+01 0.  1.
       -5    1    3    3    0  502 -0.46475827373E+03  0.24026962113E+03 -0.62435390661E+03  0.81459783607E+03  0.46999998093E+01 0. -1.
</event>
<event>
 5   0  0.4598561E-03  0.1101292E+04  0.7818609E-02  0.9203933E-01
       -1   -1    0    0    0  501  0.00000000000E+00  0.00000000000E+00  0.36388656179E+03  0.36388656182E+03  0.50400001928E-02 0.  1.
        1   -1    0    0  501    0  0.00000000000E+00  0.00000000000E+00 -0.83325769281E+03  0.83325769283E+03  0.50400001928E-02 0. -1.
    10030    2    1    2    0    0  0.00000000000E+00  0.00000000000E+00 -0.46937113102E+03  0.11971442546E+04  0.11012924715E+04 0.  0.
        2    1    3    3  502    0 -0.32285063551E+02 -0.37024804294E+03 -0.67635573436E+03  0.77174025296E+03  0.25500000920E-02 0. -1.
       -2    1    3    3    0  502  0.32285063551E+02  0.37024804294E+03  0.20698460334E+03  0.42540400169E+03  0.25500000920E-02 0.  1.
</event>
<event>
 5   0  0.4504740E-03  0.1086205E+04  0.7818609E-02  0.9218742E-01
        1   -1    0    0  501    0  0.00000000000E+00  0.00000000000E+00  0.15446773496E+04  0.15446773496E+04  0.50400001928E-02 0.  1.
       -1   -1    0    0    0  501  0.00000000000E+00  0.00000000000E+00 -0.19095278502E+03  0.19095278509E+03  0.50400001928E-02 0. -1.
    10030    2    1    2    0    0  0.00000000000E+00  0.00000000000E+00  0.13537245646E+04  0.17356301347E+04  0.10862052144E+04 0.  0.
        5    1    3    3  502    0  0.13355969495E+03  0.41872703611E+03  0.11866044408E+04  0.12653942911E+04  0.46999998093E+01 0.  1.
       -5    1    3    3    0  502 -0.13355969495E+03 -0.41872703611E+03  0.16712012376E+03  0.47023584364E+03  0.46999998093E+01 0. -1.
</event>
<event>
 5   0  0.4641021E-03  0.1077909E+04  0.7818609E-02  0.9226994E-01
       -1   -1    0    0    0  501  0.00000000000E+00  0.00000000000E+00  0.31036507481E+03  0.31036507485E+03  0.50400001928E-02 0. -1.
        1   -1    0    0  501    0  0.00000000000E+00  0.00000000000E+00 -0.93590488659E+03  0.93590488661E+03  0.50400001928E-02 0.  1.
    10030    2    1    2    0    0  0.00000000000E+00  0.00000000000E+00 -0.62553981178E+03  0.12462699615E+04  0.10779094399E+04 0.  0.
        1    1    3    3  502    0  0.24042318209E+03 -0.48166338329E+03 -0.34268085269E+03  0.63814817097E+03  0.50400001928E-02 0.  1.
       -1    1    3    3    0  502 -0.24042318209E+03  0.48166338329E+03 -0.28285895909E+03  0.60812179048E+03  0.50400001928E-02 0. -1.
</event>
<event>
 5   0  0.7766551E-03  0.1112861E+04  0.7818609E-02  0.9192747E-01
        2   -1    0    0  501    0  0.00000000000E+00  0.00000000000E+00  0.11825939841E+04  0.11825939841E+04  0.25500000920E-02 0.  1.
       -2   -1    0    0    0  501  0.00000000000E+00  0.00000000000E+00 -0.26180994556E+03  0.26180994557E+03  0.25500000920E-02 0. -1.
    10030    2    1    2    0    0  0.00000000000E+00  0.00000000000E+00  0.92078403858E+03  0.14444039297E+04  0.11128609376E+04 0.  0.
        5    1    3    3  502    0 -0.16330101446E+02 -0.17536935299E+03 -0.22464849281E+03  0.28549976795E+03  0.46999998093E+01 0. -1.
       -5    1    3    3    0  502  0.16330101446E+02  0.17536935299E+03  0.11454325314E+04  0.11589041618E+04  0.46999998093E+01 0.  1.
</event>
<event>
 5   0  0.4598561E-03  0.1105457E+04  0.7818609E-02  0.9199889E-01
       -1   -1    0    0    0  501  0.00000000000E+00  0.00000000000E+00  0.59713937067E+03  0.59713937069E+03  0.50400001928E-02 0.  1.
        1   -1    0    0  501    0  0.00000000000E+00  0.00000000000E+00 -0.51162056745E+03  0.51162056747E+03  0.50400001928E-02 0. -1.
    10030    2    1    2    0    0  0.00000000000E+00  0.00000000000E+00  0.85518803216E+02  0.11087599382E+04  0.11054569801E+04 0.  0.
        2    1    3    3  502    0 -0.19689335704E+03 -0.51544171806E+03  0.75439340148E+02  0.55690057714E+03  0.25500000920E-02 0.  1.
       -2    1    3    3    0  502  0.19689335704E+03  0.51544171806E+03  0.10079463068E+02  0.55185936102E+03  0.25500000920E-02 0. -1.
</event>
<event>
 5   0  0.4298101E-03  0.1104589E+04  0.7818609E-02  0.9200730E-01
       -1   -1    0    0    0  501  0.00000000000E+00  0.00000000000E+00  0.40333925937E+03  0.40333925940E+03  0.50400001928E-02 0.  1.
        1   -1    0    0  501    0  0.00000000000E+00  0.00000000000E+00 -0.75625987578E+03  0.75625987580E+03  0.50400001928E-02 0. -1.
    10030    2    1    2    0    0  0.00000000000E+00  0.00000000000E+00 -0.35292061641E+03  0.11595991352E+04  0.11045891512E+04 0.  0.
        3    1    3    3  502    0  0.41743589159E+03 -0.11851926718E+03 -0.53513264546E+03  0.68896044787E+03  0.10100000352E+00 0. -1.
       -3    1    3    3    0  502 -0.41743589159E+03  0.11851926718E+03  0.18221202905E+03  0.47063868733E+03  0.10100000352E+00 0.  1.
</event>
<event>
 5   0  0.7952121E-03  0.1120164E+04  0.7818609E-02  0.9185758E-01
       -2   -1    0    0    0  501  0.00000000000E+00  0.00000000000E+00  0.29039474241E+03  0.29039474243E+03  0.25500000920E-02 0. -1.
        2   -1    0    0  501    0  0.00000000000E+00  0.00000000000E+00 -0.10802259802E+04  0.10802259802E+04  0.25500000920E-02 0.  1.
    10030    2    1    2    0    0  0.00000000000E+00  0.00000000000E+00 -0.78983123783E+03  0.13706207227E+04  0.11201641760E+04 0.  0.
        3    1    3    3  502    0  0.32300161809E+03  0.95153814167E+02  0.15271077674E+03  0.36973623730E+03  0.10100000352E+00 0. -1.
       -3    1    3    3    0  502 -0.32300161809E+03 -0.95153814167E+02 -0.94254201456E+03  0.10008844854E+04  0.10100000352E+00 0.  1.
</event>
<event>
 5   0  0.7766551E-03  0.1139018E+04  0.7818609E-02  0.9167975E-01
       -2   -1    0    0    0  501  0.00000000000E+00  0.00000000000E+00  0.23374491851E+03  0.23374491852E+03  0.25500000920E-02 0. -1.
        2   -1    0    0  501    0  0.00000000000E+00  0.00000000000E+00 -0.13875835349E+04  0.13875835349E+04  0.25500000920E-02 0.  1.
    10030    2    1    2    0    0  0.00000000000E+00  0.00000000000E+00 -0.11538386164E+04  0.16213284535E+04  0.11390181742E+04 0.  0.
        5    1    3    3  502    0  0.10906087612E+03 -0.54725913698E+03 -0.73878980558E+03  0.92586138516E+03  0.46999998093E+01 0.  1.
       -5    1    3    3    0  502 -0.10906087612E+03  0.54725913698E+03 -0.41504881085E+03  0.69546706830E+03  0.46999998093E+01 0. -1.
</event>
<event>
 5   0  0.7537480E-03  0.1151709E+04  0.7818609E-02  0.9156209E-01
       -2   -1    0    0    0  501  0.00000000000E+00  0.00000000000E+00  0.63728873844E+03  0.63728873845E+03  0.25500000920E-02 0.  1.
        2   -1    0    0  501    0  0.00000000000E+00  0.00000000000E+00 -0.52034230275E+03  0.52034230275E+03  0.25500000920E-02 0. -1.
    10030    2    1    2    0    0  0.00000000000E+00  0.00000000000E+00  0.11694643570E+03  0.11576310412E+04  0.11517087995E+04 0.  0.
        1    1    3    3  502    0  0.46531992255E+03  0.23471860956E+03  0.30466704886E+03  0.60368656328E+03  0.50400001928E-02 0.  1.
       -1    1    3    3    0  502 -0.46531992255E+03 -0.23471860956E+03 -0.18772061316E+03  0.55394447793E+03  0.50400001928E-02 0. -1.
</event>
<event>
 5   0  0.4428114E-03  0.1087512E+04  0.7818609E-02  0.9217449E-01
       -1   -1    0    0    0  501  0.00000000000E+00  0.00000000000E+00  0.43928175700E+03  0.43928175703E+03  0.50400001928E-02 0.  1.
        1   -1    0    0  501    0  0.00000000000E+00  0.00000000000E+00 -0.67307757106E+03  0.67307757108E+03  0.50400001928E-02 0. -1.
    10030    2    1    2    0    0  0.00000000000E+00  0.00000000000E+00 -0.23379581406E+03  0.11123593281E+04  0.10875122032E+04 0.  0.
        4    1    3    3  502    0  0.12995109137E+03 -0.52272142281E+03 -0.40737895050E+02  0.54017234380E+03  0.12699999809E+01 0. -1.
       -4    1    3    3    0  502 -0.12995109137E+03  0.52272142281E+03 -0.19305791901E+03  0.57218698431E+03  0.12699999809E+01 0.  1.
</event>
<event>
 5   0  0.4298101E-03  0.1038133E+04  0.7818609E-02  0.9267682E-01
        1   -1    0    0  501    0  0.00000000000E+00  0.00000000000E+00  0.31316745357E+03  0.31316745362E+03  0.50400001928E-02 0. -1.
       -1   -1    0    0    0  501  0.00000000000E+00  0.00000000000E+00 -0.86033884684E+03  0.86033884685E+03  0.50400001928E-02 0.  1.
    10030    2    1    2    0    0  0.00000000000E+00  0.00000000000E+00 -0.54717139326E+03  0.11735063005E+04  0.10381331820E+04 0.  0.
        3    1    3    3  502    0 -0.38082036680E+03 -0.35024723160E+03 -0.22653005802E+03  0.56481249314E+03  0.10100000352E+00 0.  1.
       -3    1    3    3    0  502  0.38082036680E+03  0.35024723160E+03 -0.32064133525E+03  0.60869380733E+03  0.10100000352E+00 0. -1.
</event>
<event>
 5   0  0.4641021E-03  0.1099549E+04  0.7818609E-02  0.9205632E-01
       -1   -1    0    0    0  501  0.00000000000E+00  0.00000000000E+00  0.72188102091E+03  0.72188102092E+03  0.50400001928E-02 0.  1.
        1   -1    0    0  501    0  0.00000000000E+00  0.00000000000E+00 -0.41870046165E+03  0.41870046168E+03  0.50400001928E-02 0. -1.
    10030    2    1    2    0    0  0.00000000000E+00  0.00000000000E+00  0.30318055926E+03  0.11405814826E+04  0.10995488470E+04 0.  0.
        1    1    3    3  502    0 -0.37970674272E+03  0.16855902800E+03  0.52511477313E+03  0.66957813687E+03  0.50400001928E-02 0.  1.
       -1    1    3    3    0  502  0.37970674272E+03 -0.16855902800E+03 -0.22193421387E+03  0.47100334574E+03  0.50400001928E-02 0. -1.
</event>
<event>
 5   0  0.7712816E-03  0.9968750E+03  0.7818609E-02  0.9311979E-01
       -2   -1    0    0    0  501  0.00000000000E+00  0.00000000000E+00  0.83170686768E+03  0.83170686768E+03  0.25500000920E-02 0.  1.
        2   -1    0    0  501    0  0.00000000000E+00  0.00000000000E+00 -0.29871092213E+03  0.29871092214E+03  0.25500000920E-02 0. -1.
    10030    2    1    2    0    0  0.00000000000E+00  0.00000000000E+00  0.53299594554E+03  0.11304177898E+04  0.99687496788E+03 0.  0.
        2    1    3    3  502    0  0.30811045074E+03  0.26398629102E+03 -0.61801227593E+02  0.41041467255E+03  0.25500000920E-02 0. -1.
       -2    1    3    3    0  502 -0.30811045074E+03 -0.26398629102E+03  0.59479717314E+03  0.72000311727E+03  0.25500000920E-02 0.  1.
</event>
<event>
 5   0  0.4641021E-03  0.1103683E+04  0.7818609E-02  0.9201610E-01
        1   -1    0    0  501    0  0.00000000000E+00  0.00000000000E+00  0.56183646934E+03  0.56183646937E+03  0.50400001928E-02 0. -1.
       -1   -1    0    0    0  501  0.00000000000E+00  0.00000000000E+00 -0.54202437686E+03  0.54202437688E+03  0.50400001928E-02 0.  1.
    10030    2    1    2    0    0  0.00000000000E+00  0.00000000000E+00  0.19812092486E+02  0.11038608462E+04  0.11036830382E+04 0.  0.
        1    1    3    3  502    0 -0.23485128068E+03  0.18528560173E+03 -0.45389615111E+03  0.54360610212E+03  0.50400001928E-02 0.  1.
       -1    1    3    3    0  502  0.23485128068E+03 -0.18528560173E+03  0.47370824359E+03  0.56025474413E+03  0.50400001928E-02 0. -1.
</event>
<event>
 5   0  0.2992375E-03  0.1084531E+04  0.7818609E-02  0.9220401E-01
       -4   -1    0    0    0  501  0.00000000000E+00  0.00000000000E+00  0.54179445630E+03  0.54179594478E+03  0.12699999809E+01 0. -1.
        4   -1    0    0  501    0  0.00000000000E+00  0.00000000000E+00 -0.54273418320E+03  0.54273566910E+03  0.12699999809E+01 0.  1.
    10030    2    1    2    0    0  0.00000000000E+00  0.00000000000E+00 -0.93972689405E+00  0.10845316139E+04  0.10845312068E+04 0.  0.
        1    1    3    3  502    0 -0.51923078742E+02  0.90326542208E+02  0.53169299402E+03  0.54180469752E+03  0.50400001928E-02 0. -1.
       -1    1    3    3    0  502  0.51923078742E+02 -0.90326542208E+02 -0.53263272092E+03  0.54272691637E+03  0.50400001928E-02 0.  1.
</event>
<event>
 5   0  0.4428114E-03  0.1112894E+04  0.7818609E-02  0.9192715E-01
        1   -1    0    0  501    0  0.00000000000E+00  0.00000000000E+00  0.49021918271E+03  0.49021918274E+03  0.50400001928E-02 0. -1.
       -1   -1    0    0    0  501  0.00000000000E+00  0.00000000000E+00 -0.63162183875E+03  0.63162183877E+03  0.50400001928E-02 0.  1.
    10030    2    1    2    0    0  0.00000000000E+00  0.00000000000E+00 -0.14140265604E+03  0.11218410215E+04  0.11128937804E+04 0.  0.
        4    1    3    3  502    0  0.34121608757E+03 -0.68788621860E+02  0.36692167329E+03  0.50576023979E+03  0.12699999809E+01 0. -1.
       -4    1    3    3    0  502 -0.34121608757E+03  0.68788621860E+02 -0.50832432933E+03  0.61608078172E+03  0.12699999809E+01 0.  1.
</event>
<event>
 5   0  0.7537480E-03  0.1110311E+04  0.7818609E-02  0.9195200E-01
       -2   -1    0    0    0  501  0.00000000000E+00  0.00000000000E+00  0.12609278154E+04  0.12609278154E+04  0.25500000920E-02 0. -1.
        2   -1    0    0  501    0  0.00000000000E+00  0.00000000000E+00 -0.24442142970E+03  0.24442142972E+03  0.25500000920E-02 0.  1.
    10030    2    1    2    0    0  0.00000000000E+00  0.00000000000E+00  0.10165063857E+04  0.15053492451E+04  0.11103112706E+04 0.  0.
        1    1    3    3  502    0  0.26712185367E+03  0.24784029948E+03 -0.59592960952E+02  0.36922922389E+03  0.50400001928E-02 0.  1.
       -1    1    3    3    0  502 -0.26712185367E+03 -0.24784029948E+03  0.10760993467E+04  0.11361200212E+04  0.50400001928E-02 0. -1.
</event>
<event>
 5   0  0.7952121E-03  0.1108430E+04  0.7818609E-02  0.9197014E-01
        2   -1    0    0  501    0  0.00000000000E+00  0.00000000000E+00  0.98091205568E+03  0.98091205568E+03  0.25500000920E-02 0.  1.
       -2   -1    0    0    0  501  0.00000000000E+00  0.00000000000E+00 -0.31313138250E+03  0.31313138251E+03  0.25500000920E-02 0. -1.
    10030    2    1    2    0    0  0.00000000000E+00  0.00000000000E+00  0.66778067318E+03  0.12940434382E+04  0.11084301478E+04 0.  0.
        3    1    3    3  502    0 -0.35652323681E+03 -0.40391950965E+03  0.18214553226E+03  0.56871503742E+03  0.10100000352E+00 0. -1.
       -3    1    3    3    0  502  0.35652323681E+03  0.40391950965E+03  0.48563514092E+03  0.72532840077E+03  0.10100000352E+00 0.  1.
</event>
<event>
 5   0  0.4598561E-03  0.1112629E+04  0.7818609E-02  0.9192969E-01
       -1   -1    0    0    0  501  0.00000000000E+00  0.00000000000E+00  0.12231165581E+03  0.12231165591E+03  0.50400001928E-02 0. -1.
        1   -1    0    0  501    0  0.00000000000E+00  0.00000000000E+00 -0.25303055509E+04  0.25303055509E+04  0.50400001928E-02 0.  1.
    10030    2    1    2    0    0  0.00000000000E+00  0.00000000000E+00 -0.24079938951E+04  0.26526172068E+04  0.11126290698E+04 0.  0.
        2    1    3    3  502    0  0.28027410794E+03  0.76779426302E+02 -0.73026275100E+02  0.29963559993E+03  0.25500000920E-02 0. -1.
       -2    1    3    3    0  502 -0.28027410794E+03 -0.76779426302E+02 -0.23349676200E+04  0.23529816069E+04  0.25500000920E-02 0.  1.
</event>
<event>
 5   0  0.2992375E-03  0.1120435E+04  0.7818609E-02  0.9185501E-01
        3   -1    0    0  501    0  0.00000000000E+00  0.00000000000E+00  0.89173165844E+03  0.89173166416E+03  0.10100000352E+00 0. -1.
       -3   -1    0    0    0  501  0.00000000000E+00  0.00000000000E+00 -0.35194828062E+03  0.35194829511E+03  0.10100000352E+00 0.  1.
    10030    2    1    2    0    0  0.00000000000E+00  0.00000000000E+00  0.53978337783E+03  0.12436799593E+04  0.11204346238E+04 0.  0.
        4    1    3    3  502    0 -0.11965354635E+03  0.41163570496E+03  0.67023159211E+03  0.79559595570E+03  0.12699999809E+01 0.  1.
       -4    1    3    3    0  502  0.11965354635E+03 -0.41163570496E+03 -0.13044821428E+03  0.44808400358E+03  0.12699999809E+01 0. -1.
</event>
<event>
 5   0  0.4504740E-03  0.1109478E+04  0.7818609E-02  0.9196002E-01
        1   -1    0    0  501    0  0.00000000000E+00  0.00000000000E+00  0.54854655601E+03  0.54854655603E+03  0.50400001928E-02 0.  1.
       -1   -1    0    0    0  501  0.00000000000E+00  0.00000000000E+00 -0.56100182817E+03  0.56100182820E+03  0.50400001928E-02 0. -1.
    10030    2    1    2    0    0  0.00000000000E+00  0.00000000000E+00 -0.12455272163E+02  0.11095483842E+04  0.11094784735E+04 0.  0.
        5    1    3    3  502    0  0.10578314478E+03 -0.10629821251E+03 -0.54032509296E+03  0.56076972082E+03  0.46999998093E+01 0. -1.
       -5    1    3    3    0  502 -0.10578314478E+03  0.10629821251E+03  0.52786982080E+03  0.54877866341E+03  0.46999998093E+01 0.  1.
</event>
<event>
 5   0  0.7766551E-03  0.1102547E+04  0.7818609E-02  0.9202713E-01
       -2   -1    0    0    0  501  0.00000000000E+00  0.00000000000E+00  0.75258890089E+03  0.75258890090E+03  0.25500000920E-02 0. -1.
        2   -1    0    0  501    0  0.00000000000E+00  0.00000000000E+00 -0.40380923067E+03  0.40380923068E+03  0.25500000920E-02 0.  1.
    10030    2    1    2    0    0  0.00000000000E+00  0.00000000000E+00  0.34877967022E+03  0.11563981316E+04  0.11025467701E+04 0.  0.
        5    1    3    3  502    0  0.15646646396E+03 -0.52012791254E+03  0.75634428086E+02  0.54841358157E+03  0.46999998093E+01 0.  1.
       -5    1    3    3    0  502 -0.15646646396E+03  0.52012791254E+03  0.27314524214E+03  0.60798455000E+03  0.46999998093E+01 0. -1.
</event>
<event>
 5   0  0.7537480E-03  0.1140595E+04  0.7818609E-02  0.9166505E-01
       -2   -1    0    0    0  501  0.00000000000E+00  0.00000000000E+00  0.23663918644E+03  0.23663918645E+03  0.25500000920E-02 0. -1.
        2   -1    0    0  501    0  0.00000000000E+00  0.00000000000E+00 -0.13744089652E+04  0.13744089652E+04  0.25500000920E-02 0.  1.
    10030    2    1    2    0    0  0.00000000000E+00  0.00000000000E+00 -0.11377697788E+04  0.16110481517E+04  0.11405946158E+04 0.  0.
        1    1    3    3  502    0  0.16219626064E+03 -0.17881864248E+03 -0.12986724657E+04  0.13209216128E+04  0.50400001928E-02 0.  1.
       -1    1    3    3    0  502 -0.16219626064E+03  0.17881864248E+03  0.16090268696E+03  0.29012653887E+03  0.50400001928E-02 0. -1.
</event>
<event>
 5   0  0.4504740E-03  0.1106365E+04  0.7818609E-02  0.9199010E-01
       -1   -1    0    0    0  501  0.00000000000E+00  0.00000000000E+00  0.38720775402E+03  0.38720775405E+03  0.50400001928E-02 0.  1.
        1   -1    0    0  501    0  0.00000000000E+00  0.00000000000E+00 -0.79030141540E+03  0.79030141541E+03  0.50400001928E-02 0. -1.
    10030    2    1    2    0    0  0.00000000000E+00  0.00000000000E+00 -0.40309366138E+03  0.11775091695E+04  0.11063649237E+04 0.  0.
        5    1    3    3  502    0 -0.63978229994E+00 -0.21868160800E+03  0.33922741920E+03  0.40363273768E+03  0.46999998093E+01 0.  1.
       -5    1    3    3    0  502  0.63978229994E+00  0.21868160800E+03 -0.74232108058E+03  0.77387643178E+03  0.46999998093E+01 0. -1.
</event>
<event>
 5   0  0.4428114E-03  0.1100955E+04  0.7818609E-02  0.9204262E-01
       -1   -1    0    0    0  501  0.00000000000E+00  0.00000000000E+00  0.35040166608E+03  0.35040166611E+03  0.50400001928E-02 0.  1.
        1   -1    0    0  501    0  0.00000000000E+00  0.00000000000E+00 -0.86479421650E+03  0.86479421652E+03  0.50400001928E-02 0. -1.
    10030    2    1    2    0    0  0.00000000000E+00  0.00000000000E+00 -0.51439255043E+03  0.12151958826E+04  0.11009547390E+04 0.  0.
        4    1    3    3  502    0 -0.15943708606E+03  0.20927036092E+03  0.27651681796E+03  0.38167713042E+03  0.12699999809E+01 0.  1.
       -4    1    3    3    0  502  0.15943708606E+03 -0.20927036092E+03 -0.79090936839E+03  0.83351875220E+03  0.12699999809E+01 0. -1.
</event>
<event>
 5   0  0.7738497E-03  0.1094261E+04  0.7818609E-02  0.9210803E-01
       -2   -1    0    0    0  501  0.00000000000E+00  0.00000000000E+00  0.27838241531E+03  0.27838241532E+03  0.25500000920E-02 0.  1.
        2   -1    0    0  501    0  0.00000000000E+00  0.00000000000E+00 -0.10753264450E+04  0.10753264450E+04  0.25500000920E-02 0. -1.
    10030    2    1    2    0    0  0.00000000000E+00  0.00000000000E+00 -0.79694402973E+03  0.13537088604E+04  0.10942613454E+04 0.  0.
        4    1    3    3  502    0 -0.24913168896E+03  0.58195833098E+01 -0.10010416281E+04  0.10315941160E+04  0.12699999809E+01 0. -1.
       -4    1    3    3    0  502  0.24913168896E+03 -0.58195833098E+01  0.20409759838E+03  0.32211474440E+03  0.12699999809E+01 0.  1.
</event>
<event>
 5   0  0.7537480E-03  0.1066016E+04  0.7818609E-02  0.9238963E-01
       -2   -1    0    0    0  501  0.00000000000E+00  0.00000000000E+00  0.77941463180E+03  0.77941463181E+03  0.25500000920E-02 0. -1.
        2   -1    0    0  501    0  0.00000000000E+00  0.00000000000E+00 -0.36450112384E+03  0.36450112385E+03  0.25500000920E-02 0.  1.
    10030    2    1    2    0    0  0.00000000000E+00  0.00000000000E+00  0.41491350797E+03  0.11439157557E+04  0.10660159647E+04 0.  0.
        1    1    3    3  502    0 -0.15752838595E+03  0.60512279394E+02 -0.33507884703E+03  0.37517297623E+03  0.50400001928E-02 0.  1.
       -1    1    3    3    0  502  0.15752838595E+03 -0.60512279394E+02  0.74999235500E+03  0.76874277943E+03  0.50400001928E-02 0. -1.
</event>
<event>
 5   0  0.7766551E-03  0.1132660E+04  0.7818609E-02  0.9173931E-01
       -2   -1    0    0    0  501  0.00000000000E+00  0.00000000000E+00  0.26998229246E+03  0.26998229247E+03  0.25500000920E-02 0. -1.
        2   -1    0    0  501    0  0.00000000000E+00  0.00000000000E+00 -0.11879655115E+04  0.11879655115E+04  0.25500000920E-02 0.  1.
    10030    2    1    2    0    0  0.00000000000E+00  0.00000000000E+00 -0.91798321900E+03  0.14579478039E+04  0.11326599704E+04 0.  0.
        5    1    3    3  502    0 -0.45815468853E+03 -0.27764597858E+03 -0.69533917538E+03  0.87778793958E+03  0.46999998093E+01 0.  1.
       -5    1    3    3    0  502  0.45815468853E+03  0.27764597858E+03 -0.22264404361E+03  0.58015986435E+03  0.46999998093E+01 0. -1.
</event>
<event>
 5   0  0.7766551E-03  0.1105711E+04  0.7818609E-02  0.9199643E-01
       -2   -1    0    0    0  501  0.00000000000E+00  0.00000000000E+00  0.26025711777E+03  0.26025711778E+03  0.25500000920E-02 0.  1.
        2   -1    0    0  501    0  0.00000000000E+00  0.00000000000E+00 -0.11744127750E+04  0.11744127750E+04  0.25500000920E-02 0. -1.
    10030    2    1    2    0    0  0.00000000000E+00  0.00000000000E+00 -0.91415565723E+03  0.14346698928E+04  0.11057111447E+04 0.  0.
        5    1    3    3  502    0 -0.33290154875E+03 -0.44003198135E+03 -0.50156569625E+03  0.74568211955E+03  0.46999998093E+01 0.  1.
       -5    1    3    3    0  502  0.33290154875E+03  0.44003198135E+03 -0.41258996099E+03  0.68898777324E+03  0.46999998093E+01 0. -1.
</event>
<event>
 5   0  0.7766551E-03  0.1098053E+04  0.7818609E-02  0.9207091E-01
        2   -1    0    0  501    0  0.00000000000E+00  0.00000000000E+00  0.73893910909E+03  0.73893910910E+03  0.25500000920E-02 0. -1.
       -2   -1    0    0    0  501  0.00000000000E+00  0.00000000000E+00 -0.40792298444E+03  0.40792298445E+03  0.25500000920E-02 0.  1.
    10030    2    1    2    0    0  0.00000000000E+00  0.00000000000E+00  0.33101612465E+03  0.11468620935E+04  0.10980532714E+04 0.  0.
        5    1    3    3  502    0 -0.44957865997E+03 -0.31139739665E+03  0.21580294444E+03  0.58794754101E+03  0.46999998093E+01 0. -1.
       -5    1    3    3    0  502  0.44957865997E+03  0.31139739665E+03  0.11521318021E+03  0.55891455254E+03  0.46999998093E+01 0.  1.
</event>
<event>
 5   0  0.4504740E-03  0.1119135E+04  0.7818609E-02  0.9186739E-01
       -1   -1    0    0    0  501  0.00000000000E+00  0.00000000000E+00  0.61963357434E+03  0.61963357436E+03  0.50400001928E-02 0.  1.
        1   -1    0    0  501    0  0.00000000000E+00  0.00000000000E+00 -0.50532436511E+03  0.50532436514E+03  0.50400001928E-02 0. -1.
    10030    2    1    2    0    0  0.00000000000E+00  0.00000000000E+00  0.11430920922E+03  0.11249579395E+04  0.11191352779E+04 0.  0.
        5    1    3    3  502    0  0.19239206201E+03  0.50673717793E+03 -0.82480259395E+02  0.54829039405E+03  0.46999998093E+01 0. -1.
       -5    1    3    3    0  502 -0.19239206201E+03 -0.50673717793E+03  0.19678946862E+03  0.57666754545E+03  0.46999998093E+01 0.  1.
</event>
<event>
 5   0  0.7537480E-03  0.1083159E+04  0.7818609E-02  0.9221763E-01
        2   -1    0    0  501    0  0.00000000000E+00  0.00000000000E+00  0.11760022964E+04  0.11760022964E+04  0.25500000920E-02 0.  1.
       -2   -1    0    0    0  501  0.00000000000E+00  0.00000000000E+00 -0.24941143103E+03  0.24941143104E+03  0.25500000920E-02 0. -1.
    10030    2    1    2    0    0  0.00000000000E+00  0.00000000000E+00  0.92659086532E+03  0.14254137274E+04  0.10831591123E+04 0.  0.
        1    1    3    3  502    0 -0.28685628877E+03 -0.18239648709E+03  0.10181225073E+04  0.10733724650E+04  0.50400001928E-02 0.  1.
       -1    1    3    3    0  502  0.28685628877E+03  0.18239648709E+03 -0.91531641927E+02  0.35204126236E+03  0.50400001928E-02 0. -1.
</event>
<event>
 5   0  0.4598561E-03  0.1094644E+04  0.7818609E-02  0.9210428E-01
        1   -1    0    0  501    0  0.00000000000E+00  0.00000000000E+00  0.14099433103E+04  0.14099433104E+04  0.50400001928E-02 0. -1.
       -1   -1    0    0    0  501  0.00000000000E+00  0.00000000000E+00 -0.21246347849E+03  0.21246347855E+03  0.50400001928E-02 0.  1.
    10030    2    1    2    0    0  0.00000000000E+00  0.00000000000E+00  0.11974798319E+04  0.16224067889E+04  0.10946441618E+04 0.  0.
        2    1    3    3  502    0  0.28704377631E+03  0.46062806386E+03  0.49405149330E+03  0.73393407114E+03  0.25500000920E-02 0. -1.
       -2    1    3    3    0  502 -0.28704377631E+03 -0.46062806386E+03  0.70342833855E+03  0.88847271776E+03  0.25500000920E-02 0.  1.
</event>
<event>
 5   0  0.4598561E-03  0.1105181E+04  0.7818609E-02  0.9200157E-01
       -1   -1    0    0    0  501  0.00000000000E+00  0.00000000000E+00  0.28796211887E+03  0.28796211892E+03  0.50400001928E-02 0.  1.
        1   -1    0    0  501    0  0.00000000000E+00  0.00000000000E+00 -0.10604048273E+04  0.10604048273E+04  0.50400001928E-02 0. -1.
    10030    2    1    2    0    0  0.00000000000E+00  0.00000000000E+00 -0.77244270846E+03  0.13483669463E+04  0.11051812901E+04 0.  0.
        2    1    3    3  502    0  0.16153325281E+03 -0.69146889226E+02 -0.10254137752E+04  0.10403594063E+04  0.25500000920E-02 0. -1.
       -2    1    3    3    0  502 -0.16153325281E+03  0.69146889226E+02  0.25297106671E+03  0.30800753992E+03  0.25500000920E-02 0.  1.
</event>
<event>
 5   0  0.4298101E-03  0.1091579E+04  0.7818609E-02  0.9213439E-01
       -1   -1    0    0    0  501  0.00000000000E+00  0.00000000000E+00  0.47391336523E+03  0.47391336526E+03  0.50400001928E-02 0.  1.
        1   -1    0    0  501    0  0.00000000000E+00  0.00000000000E+00 -0.62856664428E+03  0.62856664430E+03  0.50400001928E-02 0. -1.
    10030    2    1    2    0    0  0.00000000000E+00  0.00000000000E+00 -0.15465327905E+03  0.11024800096E+04  0.10915789182E+04 0.  0.
        3    1    3    3  502    0 -0.10724512312E+03 -0.15896795097E+03 -0.59342264126E+03  0.62363672697E+03  0.10100000352E+00 0. -1.
       -3    1    3    3    0  502  0.10724512312E+03  0.15896795097E+03  0.43876936221E+03  0.47884328259E+03  0.10100000352E+00 0.  1.
</event>
<event>
 5   0  0.7537480E-03  0.1104529E+04  0.7818609E-02  0.9200789E-01
       -2   -1    0    0    0  501  0.00000000000E+00  0.00000000000E+00  0.30717492347E+03  0.30717492348E+03  0.25500000920E-02 0. -1.
        2   -1    0    0  501    0  0.00000000000E+00  0.00000000000E+00 -0.99290648015E+03  0.99290648015E+03  0.25500000920E-02 0.  1.
    10030    2    1    2    0    0  0.00000000000E+00  0.00000000000E+00 -0.68573155668E+03  0.13000814036E+04  0.11045288083E+04 0.  0.
        1    1    3    3  502    0 -0.11127088595E+03 -0.48483592417E+03 -0.62523149707E+03  0.79897528647E+03  0.50400001928E-02 0.  1.
       -1    1    3    3    0  502  0.11127088595E+03  0.48483592417E+03 -0.60500059608E+02  0.50110611717E+03  0.50400001928E-02 0. -1.
</event>
<event>
 5   0  0.4428114E-03  0.1079450E+04  0.7818609E-02  0.9225456E-01
        1   -1    0    0  501    0  0.00000000000E+00  0.00000000000E+00  0.90745788228E+03  0.90745788229E+03  0.50400001928E-02 0. -1.
       -1   -1    0    0    0  501  0.00000000000E+00  0.00000000000E+00 -0.32100973821E+03  0.32100973825E+03  0.50400001928E-02 0.  1.
    10030    2    1    2    0    0  0.00000000000E+00  0.00000000000E+00  0.58644814407E+03  0.12284676205E+04  0.10794495213E+04 0.  0.
        4    1    3    3  502    0 -0.22148119409E+03 -0.43570185964E+03  0.32684723967E+02  0.48985705457E+03  0.12699999809E+01 0.  1.
       -4    1    3    3    0  502  0.22148119409E+03  0.43570185964E+03  0.55376342010E+03  0.73861056598E+03  0.12699999809E+01 0. -1.
</event>
<event>
 5   0  0.4428114E-03  0.1232064E+04  0.7818609E-02  0.9085245E-01
       -1   -1    0    0    0  501  0.00000000000E+00  0.00000000000E+00  0.61563136692E+03  0.61563136694E+03  0.50400001928E-02 0.  1.
        1   -1    0    0  501    0  0.00000000000E+00  0.00000000000E+00 -0.61643314006E+03  0.61643314009E+03  0.50400001928E-02 0. -1.
    10030    2    1    2    0    0  0.00000000000E+00  0.00000000000E+00 -0.80177314818E+00  0.12320645070E+04  0.12320642461E+04 0.  0.
        4    1    3    3  502    0 -0.57717945758E+03 -0.66119094151E+02 -0.20530603700E+03  0.61616559673E+03  0.12699999809E+01 0.  1.
       -4    1    3    3    0  502  0.57717945758E+03  0.66119094151E+02  0.20450426385E+03  0.61589891029E+03  0.12699999809E+01 0. -1.
</event>
<event>
 5   0  0.4504740E-03  0.1108654E+04  0.7818609E-02  0.9196798E-01
        1   -1    0    0  501    0  0.00000000000E+00  0.00000000000E+00  0.27852533130E+03  0.27852533134E+03  0.50400001928E-02 0. -1.
       -1   -1    0    0    0  501  0.00000000000E+00  0.00000000000E+00 -0.11032340044E+04  0.11032340044E+04  0.50400001928E-02 0.  1.
    10030    2    1    2    0    0  0.00000000000E+00  0.00000000000E+00 -0.82470867309E+03  0.13817593357E+04  0.11086543494E+04 0.  0.
        5    1    3    3  502    0 -0.44798750338E+03 -0.32486654066E+03 -0.37244317450E+03  0.66705852866E+03  0.46999998093E+01 0.  1.
       -5    1    3    3    0  502  0.44798750338E+03  0.32486654066E+03 -0.45226549859E+03  0.71470080708E+03  0.46999998093E+01 0. -1.
</event>
<event>
 5   0  0.7712816E-03  0.1097777E+04  0.7818609E-02  0.9207361E-01
       -2   -1    0    0    0  501  0.00000000000E+00  0.00000000000E+00  0.51597094964E+03  0.51597094965E+03  0.25500000920E-02 0.  1.
        2   -1    0    0  501    0  0.00000000000E+00  0.00000000000E+00 -0.58390658705E+03  0.58390658706E+03  0.25500000920E-02 0. -1.
    10030    2    1    2    0    0  0.00000000000E+00  0.00000000000E+00 -0.67935637405E+02  0.10998775367E+04  0.10977774569E+04 0.  0.
        2    1    3    3  502    0  0.19431172337E+03 -0.32781091616E+03  0.36183448820E+03  0.52549142662E+03  0.25500000920E-02 0.  1.
       -2    1    3    3    0  502 -0.19431172337E+03  0.32781091616E+03 -0.42977012561E+03  0.57438611009E+03  0.25500000920E-02 0. -1.
</event>
<event>
 5   0  0.7738497E-03  0.1184908E+04  0.7818609E-02  0.9126170E-01
       -2   -1    0    0    0  501  0.00000000000E+00  0.00000000000E+00  0.40362207088E+03  0.40362207088E+03  0.25500000920E-02 0.  1.
        2   -1    0    0  501    0  0.00000000000E+00  0.00000000000E+00 -0.86962950912E+03  0.86962950912E+03  0.25500000920E-02 0. -1.
    10030    2    1    2    0    0  0.00000000000E+00  0.00000000000E+00 -0.46600743824E+03  0.12732515800E+04  0.11849078671E+04 0.  0.
        4    1    3    3  502    0  0.25437498959E+03 -0.73296420536E+02 -0.80254050792E+03  0.84507507379E+03  0.12699999809E+01 0. -1.
       -4    1    3    3    0  502 -0.25437498959E+03  0.73296420536E+02  0.33653306968E+03  0.42817650622E+03  0.12699999809E+01 0.  1.
</event>
<event>
 5   0  0.7766551E-03  0.1062507E+04  0.7818609E-02  0.9242526E-01
        2   -1    0    0  501    0  0.00000000000E+00  0.00000000000E+00  0.61566017278E+03  0.61566017278E+03  0.25500000920E-02 0.  1.
       -2   -1    0    0    0  501  0.00000000000E+00  0.00000000000E+00 -0.45841869478E+03  0.45841869478E+03  0.25500000920E-02 0. -1.
    10030    2    1    2    0    0  0.00000000000E+00  0.00000000000E+00  0.15724147800E+03  0.10740788676E+04  0.10625067206E+04 0.  0.
        5    1    3    3  502    0 -0.37698041774E+03 -0.22857943135E+03  0.37823579292E+03  0.58090205443E+03  0.46999998093E+01 0.  1.
       -5    1    3    3    0  502  0.37698041774E+03  0.22857943135E+03 -0.22099431492E+03  0.49317681314E+03  0.46999998093E+01 0. -1.
</event>
<event>
 5   0  0.7952121E-03  0.1032490E+04  0.7818609E-02  0.9273611E-01
       -2   -1    0    0    0  501  0.00000000000E+00  0.00000000000E+00  0.35215694356E+03  0.35215694357E+03  0.25500000920E-02 0.  1.
        2   -1    0    0  501    0  0.00000000000E+00  0.00000000000E+00 -0.75679002329E+03  0.75679002330E+03  0.25500000920E-02 0. -1.
    10030    2    1    2    0    0  0.00000000000E+00  0.00000000000E+00 -0.40463307973E+03  0.11089469669E+04  0.10324899254E+04 0.  0.
        3    1    3    3  502    0 -0.42778414727E+03  0.84175348588E+02 -0.49923696903E+03  0.66281394630E+03  0.10100000352E+00 0.  1.
       -3    1    3    3    0  502  0.42778414727E+03 -0.84175348588E+02  0.94603889300E+02  0.44613302057E+03  0.10100000352E+00 0. -1.
</event>
<event>
 5   0  0.7766551E-03  0.1089747E+04  0.7818609E-02  0.9215243E-01
       -2   -1    0    0    0  501  0.00000000000E+00  0.00000000000E+00  0.22351701017E+03  0.22351701018E+03  0.25500000920E-02 0.  1.
        2   -1    0    0  501    0  0.00000000000E+00  0.00000000000E+00 -0.13282531382E+04  0.13282531382E+04  0.25500000920E-02 0. -1.
    10030    2    1    2    0    0  0.00000000000E+00  0.00000000000E+00 -0.11047361281E+04  0.15517701484E+04  0.10897470720E+04 0.  0.
        5    1    3    3  502    0 -0.38050097321E+03 -0.11562475158E+03 -0.10827190803E+04  0.11534525438E+04  0.46999998093E+01 0. -1.
       -5    1    3    3    0  502  0.38050097321E+03  0.11562475158E+03 -0.22017047740E+02  0.39831760466E+03  0.46999998093E+01 0.  1.
</event>
<event>
 5   0  0.7712816E-03  0.8237151E+03  0.7818609E-02  0.9526311E-01
       -2   -1    0    0    0  501  0.00000000000E+00  0.00000000000E+00  0.13419243041E+03  0.13419243044E+03  0.25500000920E-02 0.  1.
        2   -1    0    0  501    0  0.00000000000E+00  0.00000000000E+00 -0.12640551769E+04  0.12640551769E+04  0.25500000920E-02 0. -1.
    10030    2    1    2    0    0  0.00000000000E+00  0.00000000000E+00 -0.11298627465E+04  0.13982476073E+04  0.82371508759E+03 0.  0.
        2    1    3    3  502    0  0.92191294788E+02 -0.21446577422E+03  0.11045139406E+02  0.23370237110E+03  0.25500000920E-02 0.  1.
       -2    1    3    3    0  502 -0.92191294788E+02  0.21446577422E+03 -0.11409078859E+04  0.11645452362E+04  0.25500000920E-02 0. -1.
</event>
<event>
 5   0  0.4641021E-03  0.1086467E+04  0.7818609E-02  0.9218483E-01
        1   -1    0    0  501    0  0.00000000000E+00  0.00000000000E+00  0.53050874757E+03  0.53050874760E+03  0.50400001928E-02 0. -1.
       -1   -1    0    0    0  501  0.00000000000E+00  0.00000000000E+00 -0.55626369575E+03  0.55626369577E+03  0.50400001928E-02 0.  1.
    10030    2    1    2    0    0  0.00000000000E+00  0.00000000000E+00 -0.25754948177E+02  0.10867724434E+04  0.10864672228E+04 0.  0.
        1    1    3    3  502    0 -0.16391421982E+03 -0.99728038036E+02 -0.52124185713E+03  0.55543372843E+03  0.50400001928E-02 0.  1.
       -1    1    3    3    0  502  0.16391421982E+03  0.99728038036E+02  0.49548690895E+03  0.53133871494E+03  0.50400001928E-02 0. -1.
</event>
<event>
 5   0  0.4428114E-03  0.1110317E+04  0.7818609E-02  0.9195194E-01
        1   -1    0    0  501    0  0.00000000000E+00  0.00000000000E+00  0.18032772096E+04  0.18032772096E+04  0.50400001928E-02 0.  1.
       -1   -1    0    0    0  501  0.00000000000E+00  0.00000000000E+00 -0.17091168189E+03  0.17091168196E+03  0.50400001928E-02 0. -1.
    10030    2    1    2    0    0  0.00000000000E+00  0.00000000000E+00  0.16323655277E+04  0.19741888915E+04  0.11103173256E+04 0.  0.
        4    1    3    3  502    0 -0.42437818975E+03 -0.24709665118E+03  0.35579075088E+03  0.60641757418E+03  0.12699999809E+01 0. -1.
       -4    1    3    3    0  502  0.42437818975E+03  0.24709665118E+03  0.12765747768E+04  0.13677713174E+04  0.12699999809E+01 0.  1.
</event>
<event>
 5   0  0.7738497E-03  0.1081863E+04  0.7818609E-02  0.9223052E-01
       -2   -1    0    0    0  501  0.00000000000E+00  0.00000000000E+00  0.46944323140E+03  0.46944323141E+03  0.25500000920E-02 0.  1.
        2   -1    0    0  501    0  0.00000000000E+00  0.00000000000E+00 -0.62330630766E+03  0.62330630767E+03  0.25500000920E-02 0. -1.
    10030    2    1    2    0    0  0.00000000000E+00  0.00000000000E+00 -0.15386307626E+03  0.10927495391E+04  0.10818630731E+04 0.  0.
        4    1    3    3  502    0  0.44833745902E+03  0.26699637414E+03  0.67021970843E+02  0.52610559629E+03  0.12699999809E+01 0. -1.
       -4    1    3    3    0  502 -0.44833745902E+03 -0.26699637414E+03 -0.22088504710E+03  0.56664394279E+03  0.12699999809E+01 0.  1.
</event>
<event>
 5   0  0.7738497E-03  0.1101687E+04  0.7818609E-02  0.9203549E-01
        2   -1    0    0  501    0  0.00000000000E+00  0.00000000000E+00  0.20702393448E+04  0.20702393448E+04  0.25500000920E-02 0.  1.
       -2   -1    0    0    0  501  0.00000000000E+00  0.00000000000E+00 -0.14656693220E+03  0.14656693222E+03  0.25500000920E-02 0. -1.
    10030    2    1    2    0    0  0.00000000000E+00  0.00000000000E+00  0.19236724126E+04  0.22168062770E+04  0.11016871238E+04 0.  0.
        4    1    3    3  502    0  0.10902898921E+03  0.53219444651E+03  0.11452524396E+04  0.12675657824E+04  0.12699999809E+01 0. -1.
       -4    1    3    3    0  502 -0.10902898921E+03 -0.53219444651E+03  0.77841997301E+03  0.94924049464E+03  0.12699999809E+01 0.  1.
</event>
<event>
 5   0  0.4598561E-03  0.1073823E+04  0.7818609E-02  0.9231088E-01
        1   -1    0    0  501    0  0.00000000000E+00  0.00000000000E+00  0.10307494095E+04  0.10307494095E+04  0.50400001928E-02 0. -1.
       -1   -1    0    0    0  501  0.00000000000E+00  0.00000000000E+00 -0.27967417987E+03  0.27967417992E+03  0.50400001928E-02 0.  1.
    10030    2    1    2    0    0  0.00000000000E+00  0.00000000000E+00  0.75107522965E+03  0.13104235895E+04  0.10738230689E+04 0.  0.
        2    1    3    3  502    0  0.20976284877E+03  0.49366212799E+03  0.34637068382E+03  0.63849463580E+03  0.25500000920E-02 0.  1.
       -2    1    3    3    0  502 -0.20976284877E+03 -0.49366212799E+03  0.40470454583E+03  0.67192895365E+03  0.25500000920E-02 0. -1.
</event>
<event>
 5   0  0.2992375E-03  0.1108513E+04  0.7818609E-02  0.9196934E-01
       -4   -1    0    0    0  501  0.00000000000E+00  0.00000000000E+00  0.37951541651E+03  0.37951754145E+03  0.12699999809E+01 0.  1.
        4   -1    0    0  501    0  0.00000000000E+00  0.00000000000E+00 -0.80944909371E+03  0.80945009000E+03  0.12699999809E+01 0. -1.
    10030    2    1    2    0    0  0.00000000000E+00  0.00000000000E+00 -0.42993367720E+03  0.11889676315E+04  0.11085129958E+04 0.  0.
        5    1    3    3  502    0  0.23598205670E+03  0.41331960222E+03 -0.51958216997E+03  0.70463348346E+03  0.46999998093E+01 0. -1.
       -5    1    3    3    0  502 -0.23598205670E+03 -0.41331960222E+03  0.89648492769E+02  0.48433414800E+03  0.46999998093E+01 0.  1.
</event>
<event>
 5   0  0.7712816E-03  0.1103460E+04  0.7818609E-02  0.9201827E-01
       -2   -1    0    0    0  501  0.00000000000E+00  0.00000000000E+00  0.23450997926E+03  0.23450997928E+03  0.25500000920E-02 0.  1.
        2   -1    0    0  501    0  0.00000000000E+00  0.00000000000E+00 -0.12980502522E+04  0.12980502522E+04  0.25500000920E-02 0. -1.
    10030    2    1    2    0    0  0.00000000000E+00  0.00000000000E+00 -0.10635402729E+04  0.15325602314E+04  0.11034595375E+04 0.  0.
        2    1    3    3  502    0 -0.45239277874E+03 -0.14822293914E+03 -0.91910381295E+03  0.10350754006E+04  0.25500000920E-02 0. -1.
       -2    1    3    3    0  502  0.45239277874E+03  0.14822293914E+03 -0.14443645994E+03  0.49748483083E+03  0.25500000920E-02 0.  1.
</event>
<event>
 5   0  0.7952121E-03  0.1099718E+04  0.7818609E-02  0.9205467E-01
       -2   -1    0    0    0  501  0.00000000000E+00  0.00000000000E+00  0.71344865514E+03  0.71344865515E+03  0.25500000920E-02 0. -1.
        2   -1    0    0  501    0  0.00000000000E+00  0.00000000000E+00 -0.42377918318E+03  0.42377918319E+03  0.25500000920E-02 0.  1.
    10030    2    1    2    0    0  0.00000000000E+00  0.00000000000E+00  0.28966947196E+03  0.11372278383E+04  0.10997175789E+04 0.  0.
        3    1    3    3  502    0 -0.15605856932E+03  0.47833009170E+02 -0.39814871296E+03  0.43030765930E+03  0.10100000352E+00 0.  1.
       -3    1    3    3    0  502  0.15605856932E+03 -0.47833009170E+02  0.68781818492E+03  0.70692017903E+03  0.10100000352E+00 0. -1.
</event>
<event>
 5   0  0.2992375E-03  0.1168716E+04  0.7818609E-02  0.9140689E-01
       -3   -1    0    0    0  501  0.00000000000E+00  0.00000000000E+00  0.10929939085E+04  0.10929939131E+04  0.10100000352E+00 0. -1.
        3   -1    0    0  501    0  0.00000000000E+00  0.00000000000E+00 -0.31242089679E+03  0.31242091311E+03  0.10100000352E+00 0.  1.
    10030    2    1    2    0    0  0.00000000000E+00  0.00000000000E+00  0.78057301169E+03  0.14054148263E+04  0.11687157941E+04 0.  0.
        5    1    3    3  502    0 -0.41750479015E+03  0.40882231541E+03  0.39326296462E+03  0.70436055023E+03  0.46999998093E+01 0. -1.
       -5    1    3    3    0  502  0.41750479015E+03 -0.40882231541E+03  0.38731004708E+03  0.70105427603E+03  0.46999998093E+01 0.  1.
</event>
<event>
 5   0  0.7712816E-03  0.1119743E+04  0.7818609E-02  0.9186160E-01
       -2   -1    0    0    0  501  0.00000000000E+00  0.00000000000E+00  0.29979021409E+03  0.29979021410E+03  0.25500000920E-02 0. -1.
        2   -1    0    0  501    0  0.00000000000E+00  0.00000000000E+00 -0.10455845790E+04  0.10455845790E+04  0.25500000920E-02 0.  1.
    10030    2    1    2    0    0  0.00000000000E+00  0.00000000000E+00 -0.74579436492E+03  0.13453747931E+04  0.11197428719E+04 0.  0.
        2    1    3    3  502    0 -0.81446894053E+02 -0.45273668314E+03 -0.75634793872E+03  0.88524928987E+03  0.25500000920E-02 0.  1.
       -2    1    3    3    0  502  0.81446894053E+02  0.45273668314E+03  0.10553573802E+02  0.46012550325E+03  0.25500000920E-02 0. -1.
</event>
<event>
 5   0  0.7537480E-03  0.1137316E+04  0.7818609E-02  0.9169565E-01
        2   -1    0    0  501    0  0.00000000000E+00  0.00000000000E+00  0.12752820510E+04  0.12752820510E+04  0.25500000920E-02 0.  1.
       -2   -1    0    0    0  501  0.00000000000E+00  0.00000000000E+00 -0.25356897821E+03  0.25356897823E+03  0.25500000920E-02 0. -1.
    10030    2    1    2    0    0  0.00000000000E+00  0.00000000000E+00  0.10217130728E+04  0.15288510292E+04  0.11373160803E+04 0.  0.
        1    1    3    3  502    0 -0.93803497554E+02 -0.35521009996E+03 -0.72619319486E+02  0.37449549644E+03  0.50400001928E-02 0. -1.
       -1    1    3    3    0  502  0.93803497554E+02  0.35521009996E+03  0.10943323923E+04  0.11543555328E+04  0.50400001928E-02 0.  1.
</event>
<event>
 5   0  0.4298101E-03  0.1119598E+04  0.7818609E-02  0.9186299E-01
        1   -1    0    0  501    0  0.00000000000E+00  0.00000000000E+00  0.33678686910E+03  0.33678686913E+03  0.50400001928E-02 0. -1.
       -1   -1    0    0    0  501  0.00000000000E+00  0.00000000000E+00 -0.93048365278E+03  0.93048365279E+03  0.50400001928E-02 0.  1.
    10030    2    1    2    0    0  0.00000000000E+00  0.00000000000E+00 -0.59369678368E+03  0.12672705219E+04  0.11195975638E+04 0.  0.
        3    1    3    3  502    0 -0.31091673104E+03 -0.70266032008E+01 -0.82370548065E+03  0.88045971846E+03  0.10100000352E+00 0.  1.
       -3    1    3    3    0  502  0.31091673104E+03  0.70266032008E+01  0.23000869696E+03  0.38681080346E+03  0.10100000352E+00 0. -1.
</event>
<event>
 5   0  0.7766551E-03  0.1059960E+04  0.7818609E-02  0.9245121E-01
        2   -1    0    0  501    0  0.00000000000E+00  0.00000000000E+00  0.10862126865E+04  0.10862126865E+04  0.25500000920E-02 0.  1.
       -2   -1    0    0    0  501  0.00000000000E+00  0.00000000000E+00 -0.25858526675E+03  0.25858526677E+03  0.25500000920E-02 0. -1.
    10030    2    1    2    0    0  0.00000000000E+00  0.00000000000E+00  0.82762741979E+03  0.13447979533E+04  0.10599596168E+04 0.  0.
        5    1    3    3  502    0 -0.27985912386E+03 -0.42166946924E+03  0.21429581334E+03  0.54960991268E+03  0.46999998093E+01 0. -1.
       -5    1    3    3    0  502  0.27985912386E+03  0.42166946924E+03  0.61333160645E+03  0.79518804063E+03  0.46999998093E+01 0.  1.
</event>
<event>
 5   0  0.7738497E-03  0.1124821E+04  0.7818609E-02  0.9181332E-01
        2   -1    0    0  501    0  0.00000000000E+00  0.00000000000E+00  0.37955309741E+03  0.37955309742E+03  0.25500000920E-02 0. -1.
       -2   -1    0    0    0  501  0.00000000000E+00  0.00000000000E+00 -0.83336329432E+03  0.83336329432E+03  0.25500000920E-02 0.  1.
    10030    2    1    2    0    0  0.00000000000E+00  0.00000000000E+00 -0.45381019691E+03  0.12129163917E+04  0.11248210873E+04 0.  0.
        4    1    3    3  502    0  0.49778372979E+03 -0.21802963592E+03 -0.38308819939E+03  0.66489378490E+03  0.12699999809E+01 0.  1.
       -4    1    3    3    0  502 -0.49778372979E+03  0.21802963592E+03 -0.70721997517E+02  0.54802260684E+03  0.12699999809E+01 0. -1.
</event>
<event>
 5   0  0.7712816E-03  0.1094659E+04  0.7818609E-02  0.9210413E-01
        2   -1    0    0  501    0  0.00000000000E+00  0.00000000000E+00  0.84097471722E+03  0.84097471723E+03  0.25500000920E-02 0.  1.
       -2   -1    0    0    0  501  0.00000000000E+00  0.00000000000E+00 -0.35621720687E+03  0.35621720688E+03  0.25500000920E-02 0. -1.
    10030    2    1    2    0    0  0.00000000000E+00  0.00000000000E+00  0.48475751036E+03  0.11971919241E+04  0.10946591521E+04 0.  0.
        2    1    3    3  502    0 -0.15745509457E+03 -0.31671718688E+03  0.69919599517E+03  0.78356679546E+03  0.25500000920E-02 0.  1.
       -2    1    3    3    0  502  0.15745509457E+03  0.31671718688E+03 -0.21443848481E+03  0.41362512865E+03  0.25500000920E-02 0. -1.
</event>
<event>
 5   0  0.4298101E-03  0.1093938E+04  0.7818609E-02  0.9211120E-01
        1   -1    0    0  501    0  0.00000000000E+00  0.00000000000E+00  0.58601888816E+03  0.58601888818E+03  0.50400001928E-02 0.  1.
       -1   -1    0    0    0  501  0.00000000000E+00  0.00000000000E+00 -0.51052160965E+03  0.51052160967E+03  0.50400001928E-02 0. -1.
    10030    2    1    2    0    0  0.00000000000E+00  0.00000000000E+00  0.75497278510E+02  0.10965404979E+04  0.10939384006E+04 0.  0.
        3    1    3    3  502    0 -0.94819958416E+02  0.36516199148E+02  0.57647567986E+03  0.58536183424E+03  0.10100000352E+00 0.  1.
       -3    1    3    3    0  502  0.94819958416E+02 -0.36516199148E+02 -0.50097840135E+03  0.51117866361E+03  0.10100000352E+00 0. -1.
</event>
<event>
 5   0  0.4504740E-03  0.1099255E+04  0.7818609E-02  0.9205918E-01
       -1   -1    0    0    0  501  0.00000000000E+00  0.00000000000E+00  0.30125786186E+03  0.30125786190E+03  0.50400001928E-02 0. -1.
        1   -1    0    0  501    0  0.00000000000E+00  0.00000000000E+00 -0.10027642319E+04  0.10027642319E+04  0.50400001928E-02 0.  1.
    10030    2    1    2    0    0  0.00000000000E+00  0.00000000000E+00 -0.70150637003E+03  0.13040220938E+04  0.10992553998E+04 0.  0.
        5    1    3    3  502    0 -0.52412093783E+03  0.11246382597E+03 -0.49466801883E+03  0.72943087985E+03  0.46999998093E+01 0.  1.
       -5    1    3    3    0  502  0.52412093783E+03 -0.11246382597E+03 -0.20683835120E+03  0.57459121395E+03  0.46999998093E+01 0. -1.
</event>
<event>
 5   0  0.7537480E-03  0.1085236E+04  0.7818609E-02  0.9219702E-01
       -2   -1    0    0    0  501  0.00000000000E+00  0.00000000000E+00  0.10995755048E+04  0.10995755048E+04  0.25500000920E-02 0. -1.
        2   -1    0    0  501    0  0.00000000000E+00  0.00000000000E+00 -0.26777092177E+03  0.26777092178E+03  0.25500000920E-02 0.  1.
    10030    2    1    2    0    0  0.00000000000E+00  0.00000000000E+00  0.83180458306E+03  0.13673464266E+04  0.10852360969E+04 0.  0.
        1    1    3    3  502    0 -0.22705591657E+03 -0.40413247611E+03  0.60522071010E+02  0.46748301424E+03  0.50400001928E-02 0.  1.
       -1    1    3    3    0  502  0.22705591657E+03  0.40413247611E+03  0.77128251205E+03  0.89986341237E+03  0.50400001928E-02 0. -1.
</event>
<event>
 5   0  0.7766551E-03  0.1137739E+04  0.7818609E-02  0.9169170E-01
        2   -1    0    0  501    0  0.00000000000E+00  0.00000000000E+00  0.30643265341E+04  0.30643265341E+04  0.25500000920E-02 0.  1.
       -2   -1    0    0    0  501  0.00000000000E+00  0.00000000000E+00 -0.10560638934E+03  0.10560638937E+03  0.25500000920E-02 0. -1.
    10030    2    1    2    0    0  0.00000000000E+00  0.00000000000E+00  0.29587201448E+04  0.31699329235E+04  0.11377389174E+04 0.  0.
        5    1    3    3  502    0 -0.13699788267E+03 -0.19057735155E+03  0.35645292213E+02  0.23744646478E+03  0.46999998093E+01 0. -1.
       -5    1    3    3    0  502  0.13699788267E+03  0.19057735155E+03  0.29230748526E+04  0.29324864587E+04  0.46999998093E+01 0.  1.
</event>
<event>
 5   0  0.7766551E-03  0.1116489E+04  0.7818609E-02  0.9189268E-01
        2   -1    0    0  501    0  0.00000000000E+00  0.00000000000E+00  0.10024018403E+04  0.10024018403E+04  0.25500000920E-02 0. -1.
       -2   -1    0    0    0  501  0.00000000000E+00  0.00000000000E+00 -0.31089037261E+03  0.31089037262E+03  0.25500000920E-02 0.  1.
    10030    2    1    2    0    0  0.00000000000E+00  0.00000000000E+00  0.69151146773E+03  0.13132922130E+04  0.11164892864E+04 0.  0.
        5    1    3    3  502    0 -0.18286732679E+03  0.18772539203E+03 -0.23400753919E+03  0.35137287945E+03  0.46999998093E+01 0.  1.
       -5    1    3    3    0  502  0.18286732679E+03 -0.18772539203E+03  0.92551900692E+03  0.96191933352E+03  0.46999998093E+01 0. -1.
</event>
<event>
 5   0  0.4428114E-03  0.1094626E+04  0.7818609E-02  0.9210446E-01
        1   -1    0    0  501    0  0.00000000000E+00  0.00000000000E+00  0.11102332803E+04  0.11102332803E+04  0.50400001928E-02 0.  1.
       -1   -1    0    0    0  501  0.00000000000E+00  0.00000000000E+00 -0.26980950607E+03  0.26980950612E+03  0.50400001928E-02 0. -1.
    10030    2    1    2    0    0  0.00000000000E+00  0.00000000000E+00  0.84042377426E+03  0.13800427865E+04  0.10946259508E+04 0.  0.
        4    1    3    3  502    0 -0.16114507505E+03  0.27843843723E+03  0.97844406448E+03  0.10299757758E+04  0.12699999809E+01 0.  1.
       -4    1    3    3    0  502  0.16114507505E+03 -0.27843843723E+03 -0.13802029022E+03  0.35006701066E+03  0.12699999809E+01 0. -1.
</event>
<event>
 5   0  0.4428114E-03  0.1059020E+04  0.7818609E-02  0.9246081E-01
       -1   -1    0    0    0  501  0.00000000000E+00  0.00000000000E+00  0.42173981272E+03  0.42173981275E+03  0.50400001928E-02 0.  1.
        1   -1    0    0  501    0  0.00000000000E+00  0.00000000000E+00 -0.66481929506E+03  0.66481929508E+03  0.50400001928E-02 0. -1.
    10030    2    1    2    0    0  0.00000000000E+00  0.00000000000E+00 -0.24307948234E+03  0.10865591078E+04  0.10590198582E+04 0.  0.
        4    1    3    3  502    0 -0.43628792055E+03  0.60889918095E+02 -0.42299029642E+03  0.61071854034E+03  0.12699999809E+01 0. -1.
       -4    1    3    3    0  502  0.43628792055E+03 -0.60889918095E+02  0.17991081408E+03  0.47584056749E+03  0.12699999809E+01 0.  1.
</event>
<event>
 5   0  0.4598561E-03  0.1065282E+04  0.7818609E-02  0.9239707E-01
        1   -1    0    0  501    0  0.00000000000E+00  0.00000000000E+00  0.12956520146E+04  0.12956520146E+04  0.50400001928E-02 0. -1.
       -1   -1    0    0    0  501  0.00000000000E+00  0.00000000000E+00 -0.21896817304E+03  0.21896817310E+03  0.50400001928E-02 0.  1.
    10030    2    1    2    0    0  0.00000000000E+00  0.00000000000E+00  0.10766838416E+04  0.15146201877E+04  0.10652822247E+04 0.  0.
        2    1    3    3  502    0 -0.32736155560E+03 -0.30844708581E+03  0.13268873066E+03  0.46894721673E+03  0.25500000920E-02 0.  1.
       -2    1    3    3    0  502  0.32736155560E+03  0.30844708581E+03  0.94399511090E+03  0.10456729710E+04  0.25500000920E-02 0. -1.
</event>
<event>
 5   0  0.7537480E-03  0.1183710E+04  0.7818609E-02  0.9127236E-01
       -2   -1    0    0    0  501  0.00000000000E+00  0.00000000000E+00  0.63800415782E+03  0.63800415782E+03  0.25500000920E-02 0.  1.
        2   -1    0    0  501    0  0.00000000000E+00  0.00000000000E+00 -0.54904416874E+03  0.54904416874E+03  0.25500000920E-02 0. -1.
    10030    2    1    2    0    0  0.00000000000E+00  0.00000000000E+00  0.88959989081E+02  0.11870483266E+04  0.11837102052E+04 0.  0.
        1    1    3    3  502    0 -0.18232599554E+03 -0.17461962345E+03  0.58130042401E+03  0.63375465641E+03  0.50400001928E-02 0.  1.
       -1    1    3    3    0  502  0.18232599554E+03  0.17461962345E+03 -0.49234043493E+03  0.55329367015E+03  0.50400001928E-02 0. -1.
</event>
<event>
 5   0  0.7766551E-03  0.8491763E+03  0.7818609E-02  0.9491443E-01
        2   -1    0    0  501    0  0.00000000000E+00  0.00000000000E+00  0.28942466235E+04  0.28942466235E+04  0.25500000920E-02 0.  1.
       -2   -1    0    0    0  501  0.00000000000E+00  0.00000000000E+00 -0.62287400355E+02  0.62287400407E+02  0.25500000920E-02 0. -1.
    10030    2    1    2    0    0  0.00000000000E+00  0.00000000000E+00  0.28319592232E+04  0.29565340239E+04  0.84917630264E+03 0.  0.
        5    1    3    3  502    0 -0.21985046256E+03 -0.29732339646E+03  0.68967736975E+03  0.78256781963E+03  0.46999998093E+01 0. -1.
       -5    1    3    3    0  502  0.21985046256E+03  0.29732339646E+03  0.21422818534E+04  0.21739662043E+04  0.46999998093E+01 0.  1.
</event>
<event>
 5   0  0.7952121E-03  0.1114565E+04  0.7818609E-02  0.9191111E-01
        2   -1    0    0  501    0  0.00000000000E+00  0.00000000000E+00  0.10348177305E+04  0.10348177305E+04  0.25500000920E-02 0.  1.
       -2   -1    0    0    0  501  0.00000000000E+00  0.00000000000E+00 -0.30011442995E+03  0.30011442996E+03  0.25500000920E-02 0. -1.
    10030    2    1    2    0    0  0.00000000000E+00  0.00000000000E+00  0.73470330051E+03  0.13349321604E+04  0.11145649075E+04 0.  0.
        3    1    3    3  502    0  0.71655679153E+02  0.16959146958E+03  0.99734103775E+03  0.10141917761E+04  0.10100000352E+00 0.  1.
       -3    1    3    3    0  502 -0.71655679153E+02 -0.16959146958E+03 -0.26263773724E+03  0.32074038432E+03  0.10100000352E+00 0. -1.
</event>
<event>
 5   0  0.4428114E-03  0.1096950E+04  0.7818609E-02  0.9208169E-01
       -1   -1    0    0    0  501  0.00000000000E+00  0.00000000000E+00  0.35043691486E+03  0.35043691489E+03  0.50400001928E-02 0.  1.
        1   -1    0    0  501    0  0.00000000000E+00  0.00000000000E+00 -0.85842824579E+03  0.85842824580E+03  0.50400001928E-02 0. -1.
    10030    2    1    2    0    0  0.00000000000E+00  0.00000000000E+00 -0.50799133093E+03  0.12088651607E+04  0.10969502197E+04 0.  0.
        4    1    3    3  502    0 -0.50397321029E+03 -0.49070312789E+02 -0.21715726468E+02  0.50682351757E+03  0.12699999809E+01 0.  1.
       -4    1    3    3    0  502  0.50397321029E+03  0.49070312789E+02 -0.48627560446E+03  0.70204164313E+03  0.12699999809E+01 0. -1.
</event>
<event>
 5   0  0.7537480E-03  0.1097705E+04  0.7818609E-02  0.9207432E-01
        2   -1    0    0  501    0  0.00000000000E+00  0.00000000000E+00  0.11490868706E+04  0.11490868706E+04  0.25500000920E-02 0.  1.
       -2   -1    0    0    0  501  0.00000000000E+00  0.00000000000E+00 -0.26215520369E+03  0.26215520370E+03  0.25500000920E-02 0. -1.
    10030    2    1    2    0    0  0.00000000000E+00  0.00000000000E+00  0.88693166686E+03  0.14112420743E+04  0.10977050653E+04 0.  0.
        1    1    3    3  502    0 -0.51255388025E+03 -0.12423770688E+03  0.24809829633E+03  0.58283724370E+03  0.50400001928E-02 0.  1.
       -1    1    3    3    0  502  0.51255388025E+03  0.12423770688E+03  0.63883337053E+03  0.82840483057E+03  0.50400001928E-02 0. -1.
</event>
<event>
 5   0  0.4428114E-03  0.1108406E+04  0.7818609E-02  0.9197038E-01
        1   -1    0    0  501    0  0.00000000000E+00  0.00000000000E+00  0.42063494573E+03  0.42063494576E+03  0.50400001928E-02 0. -1.
       -1   -1    0    0    0  501  0.00000000000E+00  0.00000000000E+00 -0.73018348118E+03  0.73018348120E+03  0.50400001928E-02 0.  1.
    10030    2    1    2    0    0  0.00000000000E+00  0.00000000000E+00 -0.30954853545E+03  0.11508184270E+04  0.11084055016E+04 0.  0.
        4    1    3    3  502    0 -0.70705003671E+02  0.24771620643E+03 -0.66424030387E+03  0.71244600543E+03  0.12699999809E+01 0.  1.
       -4    1    3    3    0  502  0.70705003671E+02 -0.24771620643E+03  0.35469176842E+03  0.43837242153E+03  0.12699999809E+01 0. -1.
</event>
<event>
 5   0  0.7952121E-03  0.1083314E+04  0.7818609E-02  0.9221610E-01
       -2   -1    0    0    0  501  0.00000000000E+00  0.00000000000E+00  0.37720788279E+03  0.37720788280E+03  0.25500000920E-02 0.  1.
        2   -1    0    0  501    0  0.00000000000E+00  0.00000000000E+00 -0.77779935280E+03  0.77779935280E+03  0.25500000920E-02 0. -1.
    10030    2    1    2    0    0  0.00000000000E+00  0.00000000000E+00 -0.40059147000E+03  0.11550072356E+04  0.10833135227E+04 0.  0.
        3    1    3    3  502    0 -0.38237429428E+03  0.86444390482E+02 -0.59880938730E+03  0.71572021495E+03  0.10100000352E+00 0. -1.
       -3    1    3    3    0  502  0.38237429428E+03 -0.86444390482E+02  0.19821791729E+03  0.43928702065E+03  0.10100000352E+00 0.  1.
</event>
<event>
 5   0  0.7738497E-03  0.7012415E+03  0.7818609E-02  0.9715111E-01
        2   -1    0    0  501    0  0.00000000000E+00  0.00000000000E+00  0.32611553564E+03  0.32611553565E+03  0.25500000920E-02 0. -1.
       -2   -1    0    0    0  501  0.00000000000E+00  0.00000000000E+00 -0.37696734406E+03  0.37696734407E+03  0.25500000920E-02 0.  1.
    10030    2    1    2    0    0  0.00000000000E+00  0.00000000000E+00 -0.50851808424E+02  0.70308287972E+03  0.70124149145E+03 0.  0.
        4    1    3    3  502    0 -0.88946538946E+02 -0.10302059561E+03  0.29854572545E+03  0.32810957468E+03  0.12699999809E+01 0. -1.
       -4    1    3    3    0  502  0.88946538946E+02  0.10302059561E+03 -0.34939753388E+03  0.37497330504E+03  0.12699999809E+01 0.  1.
</event>
<event>
 5   0  0.4641021E-03  0.1046773E+04  0.7818609E-02  0.9258682E-01
       -1   -1    0    0    0  501  0.00000000000E+00  0.00000000000E+00  0.42306920946E+03  0.42306920949E+03  0.50400001928E-02 0.  1.
        1   -1    0    0  501    0  0.00000000000E+00  0.00000000000E+00 -0.64749093610E+03  0.64749093612E+03  0.50400001928E-02 0. -1.
    10030    2    1    2    0    0  0.00000000000E+00  0.00000000000E+00 -0.22442172664E+03  0.10705601456E+04  0.10467730957E+04 0.  0.
        1    1    3    3  502    0  0.12910451793E+03 -0.44279746791E+03 -0.36521038393E+03  0.58831641036E+03  0.50400001928E-02 0. -1.
       -1    1    3    3    0  502 -0.12910451793E+03  0.44279746791E+03  0.14078865728E+03  0.48224373525E+03  0.50400001928E-02 0.  1.
</event>
<event>
 5   0  0.7537480E-03  0.1074954E+04  0.7818609E-02  0.9229953E-01
       -2   -1    0    0    0  501  0.00000000000E+00  0.00000000000E+00  0.61116727579E+03  0.61116727579E+03  0.25500000920E-02 0.  1.
        2   -1    0    0  501    0  0.00000000000E+00  0.00000000000E+00 -0.47267193726E+03  0.47267193727E+03  0.25500000920E-02 0. -1.
    10030    2    1    2    0    0  0.00000000000E+00  0.00000000000E+00  0.13849533853E+03  0.10838392131E+04  0.10749541762E+04 0.  0.
        1    1    3    3  502    0  0.13797923565E+03 -0.48272672168E+03 -0.12421917855E+03  0.51719799076E+03  0.50400001928E-02 0. -1.
       -1    1    3    3    0  502 -0.13797923565E+03  0.48272672168E+03  0.26271451708E+03  0.56664122230E+03  0.50400001928E-02 0.  1.
</event>
<event>
 5   0  0.4504740E-03  0.1068343E+04  0.7818609E-02  0.9236608E-01
       -1   -1    0    0    0  501  0.00000000000E+00  0.00000000000E+00  0.16626829535E+03  0.16626829543E+03  0.50400001928E-02 0. -1.
        1   -1    0    0  501    0  0.00000000000E+00  0.00000000000E+00 -0.17161365780E+04  0.17161365781E+04  0.50400001928E-02 0.  1.
    10030    2    1    2    0    0  0.00000000000E+00  0.00000000000E+00 -0.15498682827E+04  0.18824048735E+04  0.10683428354E+04 0.  0.
        5    1    3    3  502    0  0.41249325426E+03  0.25400788006E+03 -0.11714644315E+04  0.12676835931E+04  0.46999998093E+01 0.  1.
       -5    1    3    3    0  502 -0.41249325426E+03 -0.25400788006E+03 -0.37840385116E+03  0.61472128035E+03  0.46999998093E+01 0. -1.
</event>
<event>
 5   0  0.4504740E-03  0.1081446E+04  0.7818609E-02  0.9223467E-01
        1   -1    0    0  501    0  0.00000000000E+00  0.00000000000E+00  0.47281235854E+03  0.47281235856E+03  0.50400001928E-02 0. -1.
       -1   -1    0    0    0  501  0.00000000000E+00  0.00000000000E+00 -0.61838813750E+03  0.61838813752E+03  0.50400001928E-02 0.  1.
    10030    2    1    2    0    0  0.00000000000E+00  0.00000000000E+00 -0.14557577897E+03  0.10912004961E+04  0.10814463534E+04 0.  0.
        5    1    3    3  502    0  0.52689128854E+03 -0.83475569371E+02  0.16194036905E+02  0.53372927356E+03  0.46999998093E+01 0. -1.
       -5    1    3    3    0  502 -0.52689128854E+03  0.83475569371E+02 -0.16176981587E+03  0.55747122253E+03  0.46999998093E+01 0.  1.
</event>
<event>
 5   0  0.4428114E-03  0.1099948E+04  0.7818609E-02  0.9205243E-01
        1   -1    0    0  501    0  0.00000000000E+00  0.00000000000E+00  0.11831034128E+04  0.11831034128E+04  0.50400001928E-02 0. -1.
       -1   -1    0    0    0  501  0.00000000000E+00  0.00000000000E+00 -0.25565931448E+03  0.25565931453E+03  0.50400001928E-02 0.  1.
    10030    2    1    2    0    0  0.00000000000E+00  0.00000000000E+00  0.92744409828E+03  0.14387627273E+04  0.10999480124E+04 0.  0.
        4    1    3    3  502    0  0.42001501187E+03  0.19329247093E+03  0.74168567451E+02  0.46827041207E+03  0.12699999809E+01 0.  1.
       -4    1    3    3    0  502 -0.42001501187E+03 -0.19329247093E+03  0.85327553083E+03  0.97049231524E+03  0.12699999809E+01 0. -1.
</event>
<event>
 5   0  0.4298101E-03  0.1094482E+04  0.7818609E-02  0.9210587E-01
       -1   -1    0    0    0  501  0.00000000000E+00  0.00000000000E+00  0.28656844647E+03  0.28656844652E+03  0.50400001928E-02 0.  1.
        1   -1    0    0  501    0  0.00000000000E+00  0.00000000000E+00 -0.10450303752E+04  0.10450303752E+04  0.50400001928E-02 0. -1.
    10030    2    1    2    0    0  0.00000000000E+00  0.00000000000E+00 -0.75846192875E+03  0.13315988218E+04  0.10944820349E+04 0.  0.
        3    1    3    3  502    0  0.22637212382E+03 -0.43664419326E+03 -0.87311031145E+02  0.49952549115E+03  0.10100000352E+00 0.  1.
       -3    1    3    3    0  502 -0.22637212382E+03  0.43664419326E+03 -0.67115089761E+03  0.83207333061E+03  0.10100000352E+00 0. -1.
</event>
<event>
 5   0  0.4298101E-03  0.1094842E+04  0.7818609E-02  0.9210234E-01
        1   -1    0    0  501    0  0.00000000000E+00  0.00000000000E+00  0.50668433496E+03  0.50668433499E+03  0.50400001928E-02 0. -1.
       -1   -1    0    0    0  501  0.00000000000E+00  0.00000000000E+00 -0.59143239841E+03  0.59143239843E+03  0.50400001928E-02 0.  1.
    10030    2    1    2    0    0  0.00000000000E+00  0.00000000000E+00 -0.84748063452E+02  0.10981167334E+04  0.10948415986E+04 0.  0.
        3    1    3    3  502    0 -0.16836887474E+03 -0.36745304622E+01 -0.56480447001E+03  0.58937736613E+03  0.10100000352E+00 0.  1.
       -3    1    3    3    0  502  0.16836887474E+03  0.36745304622E+01  0.48005640656E+03  0.50873936729E+03  0.10100000352E+00 0. -1.
</event>
<event>
 5   0  0.4428114E-03  0.9018193E+03  0.7818609E-02  0.9423310E-01
        1   -1    0    0  501    0  0.00000000000E+00  0.00000000000E+00  0.68778693079E+03  0.68778693081E+03  0.50400001928E-02 0. -1.
       -1   -1    0    0    0  501  0.00000000000E+00  0.00000000000E+00 -0.29561410303E+03  0.29561410307E+03  0.50400001928E-02 0.  1.
    10030    2    1    2    0    0  0.00000000000E+00  0.00000000000E+00  0.39217282776E+03  0.98340103388E+03  0.90181930929E+03 0.  0.
        4    1    3    3  502    0  0.49965348315E+01  0.27674290414E+03 -0.19207310507E+03  0.33690546292E+03  0.12699999809E+01 0.  1.
       -4    1    3    3    0  502 -0.49965348315E+01 -0.27674290414E+03  0.58424593283E+03  0.64649557096E+03  0.12699999809E+01 0. -1.
</event>
<event>
 5   0  0.4298101E-03  0.1091009E+04  0.7818609E-02  0.9214000E-01
        1   -1    0    0  501    0  0.00000000000E+00  0.00000000000E+00  0.15119768637E+03  0.15119768646E+03  0.50400001928E-02 0.  1.
       -1   -1    0    0    0  501  0.00000000000E+00  0.00000000000E+00 -0.19681180722E+04  0.19681180722E+04  0.50400001928E-02 0. -1.
    10030    2    1    2    0    0  0.00000000000E+00  0.00000000000E+00 -0.18169203858E+04  0.21193157587E+04  0.10910085226E+04 0.  0.
        3    1    3    3  502    0  0.27363416785E+03 -0.47130728681E+03 -0.95478340213E+03  0.10993714439E+04  0.10100000352E+00 0.  1.
       -3    1    3    3    0  502 -0.27363416785E+03  0.47130728681E+03 -0.86213698369E+03  0.10199443148E+04  0.10100000352E+00 0. -1.
</event>
<event>
 5   0  0.4641021E-03  0.1093851E+04  0.7818609E-02  0.9211205E-01
        1   -1    0    0  501    0  0.00000000000E+00  0.00000000000E+00  0.13489456948E+04  0.13489456948E+04  0.50400001928E-02 0.  1.
       -1   -1    0    0    0  501  0.00000000000E+00  0.00000000000E+00 -0.22174929314E+03  0.22174929320E+03  0.50400001928E-02 0. -1.
    10030    2    1    2    0    0  0.00000000000E+00  0.00000000000E+00  0.11271964017E+04  0.15706949880E+04  0.10938514604E+04 0.  0.
        1    1    3    3  502    0 -0.22600388585E+03  0.36962394303E+03  0.84272247248E+02  0.44136314681E+03  0.50400001928E-02 0. -1.
       -1    1    3    3    0  502  0.22600388585E+03 -0.36962394303E+03  0.10429241544E+04  0.11293318412E+04  0.50400001928E-02 0.  1.
</event>
<event>
 5   0  0.4504740E-03  0.1109014E+04  0.7818609E-02  0.9196450E-01
        1   -1    0    0  501    0  0.00000000000E+00  0.00000000000E+00  0.13640740655E+04  0.13640740655E+04  0.50400001928E-02 0. -1.
       -1   -1    0    0    0  501  0.00000000000E+00  0.00000000000E+00 -0.22541163358E+03  0.22541163363E+03  0.50400001928E-02 0.  1.
    10030    2    1    2    0    0  0.00000000000E+00  0.00000000000E+00  0.11386624319E+04  0.15894856992E+04  0.11090142713E+04 0.  0.
        5    1    3    3  502    0 -0.14545936220E+03  0.52868218646E+03  0.68745672278E+03  0.87936460927E+03  0.46999998093E+01 0.  1.
       -5    1    3    3    0  502  0.14545936220E+03 -0.52868218646E+03  0.45120570916E+03  0.71012108989E+03  0.46999998093E+01 0. -1.
</event>
<event>
 5   0  0.7952121E-03  0.1092366E+04  0.7818609E-02  0.9212664E-01
       -2   -1    0    0    0  501  0.00000000000E+00  0.00000000000E+00  0.34283683311E+03  0.34283683311E+03  0.25500000920E-02 0. -1.
        2   -1    0    0  501    0  0.00000000000E+00  0.00000000000E+00 -0.87013976530E+03  0.87013976530E+03  0.25500000920E-02 0.  1.
    10030    2    1    2    0    0  0.00000000000E+00  0.00000000000E+00 -0.52730293220E+03  0.12129765984E+04  0.10923661685E+04 0.  0.
        3    1    3    3  502    0 -0.71964868946E+02  0.34549684796E+03 -0.72653342394E+03  0.80771148352E+03  0.10100000352E+00 0.  1.
       -3    1    3    3    0  502  0.71964868946E+02 -0.34549684796E+03  0.19923049174E+03  0.40526511490E+03  0.10100000352E+00 0. -1.
</event>
<event>
 5   0  0.7712816E-03  0.1112681E+04  0.7818609E-02  0.9192919E-01
        2   -1    0    0  501    0  0.00000000000E+00  0.00000000000E+00  0.10955187223E+04  0.10955187223E+04  0.25500000920E-02 0. -1.
       -2   -1    0    0    0  501  0.00000000000E+00  0.00000000000E+00 -0.28252815892E+03  0.28252815893E+03  0.25500000920E-02 0.  1.
    10030    2    1    2    0    0  0.00000000000E+00  0.00000000000E+00  0.81299056343E+03  0.13780468813E+04  0.11126812440E+04 0.  0.
        2    1    3    3  502    0  0.53641872028E+03  0.27368983588E+02  0.58605861933E+03  0.79495837000E+03  0.25500000920E-02 0.  1.
       -2    1    3    3    0  502 -0.53641872028E+03 -0.27368983588E+02  0.22693194410E+03  0.58308851128E+03  0.25500000920E-02 0. -1.
</event>
<event>
 5   0  0.4504740E-03  0.1050904E+04  0.7818609E-02  0.9254412E-01
       -1   -1    0    0    0  501  0.00000000000E+00  0.00000000000E+00  0.12615586557E+03  0.12615586567E+03  0.50400001928E-02 0.  1.
        1   -1    0    0  501    0  0.00000000000E+00  0.00000000000E+00 -0.21885595317E+04  0.21885595317E+04  0.50400001928E-02 0. -1.
    10030    2    1    2    0    0  0.00000000000E+00  0.00000000000E+00 -0.20624036662E+04  0.23147153974E+04  0.10509036534E+04 0.  0.
        5    1    3    3  502    0 -0.10725916928E+03 -0.27295292977E+03 -0.70936734625E+02  0.30176471229E+03  0.46999998093E+01 0.  1.
       -5    1    3    3    0  502  0.10725916928E+03  0.27295292977E+03 -0.19914669315E+04  0.20129506851E+04  0.46999998093E+01 0. -1.
</event>
<event>
 5   0  0.7952121E-03  0.1129280E+04  0.7818609E-02  0.9177114E-01
        2   -1    0    0  501    0  0.00000000000E+00  0.00000000000E+00  0.39581112922E+03  0.39581112923E+03  0.25500000920E-02 0. -1.
       -2   -1    0    0    0  501  0.00000000000E+00  0.00000000000E+00 -0.80548102700E+03  0.80548102700E+03  0.25500000920E-02 0.  1.
    10030    2    1    2    0    0  0.00000000000E+00  0.00000000000E+00 -0.40966989777E+03  0.12012921562E+04  0.11292800448E+04 0.  0.
        3    1    3    3  502    0 -0.35142865838E+03 -0.37228422196E+03  0.48513226938E+02  0.51424817670E+03  0.10100000352E+00 0. -1.
       -3    1    3    3    0  502  0.35142865838E+03  0.37228422196E+03 -0.45818312471E+03  0.68704397954E+03  0.10100000352E+00 0.  1.
</event>
<event>
 5   0  0.7537480E-03  0.1093947E+04  0.7818609E-02  0.9211112E-01
        2   -1    0    0  501    0  0.00000000000E+00  0.00000000000E+00  0.68506839457E+03  0.68506839458E+03  0.25500000920E-02 0. -1.
       -2   -1    0    0    0  501  0.00000000000E+00  0.00000000000E+00 -0.43671520919E+03  0.43671520920E+03  0.25500000920E-02 0.  1.
    10030    2    1    2    0    0  0.00000000000E+00  0.00000000000E+00  0.24835318538E+03  0.11217836038E+04  0.10939465933E+04 0.  0.
        1    1    3    3  502    0  0.25248103898E+03  0.25394348097E+03  0.54815350876E+03  0.65475662330E+03  0.50400001928E-02 0. -1.
       -1    1    3    3    0  502 -0.25248103898E+03 -0.25394348097E+03 -0.29980032338E+03  0.46702698048E+03  0.50400001928E-02 0.  1.
</event>
<event>
 5   0  0.7738497E-03  0.9444558E+03  0.7818609E-02  0.9371654E-01
       -2   -1    0    0    0  501  0.00000000000E+00  0.00000000000E+00  0.15495757052E+03  0.15495757054E+03  0.25500000920E-02 0. -1.
        2   -1    0    0  501    0  0.00000000000E+00  0.00000000000E+00 -0.14390984145E+04  0.14390984145E+04  0.25500000920E-02 0.  1.
    10030    2    1    2    0    0  0.00000000000E+00  0.00000000000E+00 -0.12841408440E+04  0.15940559851E+04  0.94445580959E+03 0.  0.
        4    1    3    3  502    0 -0.41553390299E+03  0.13459836051E+03 -0.33914639225E+03  0.55299822013E+03  0.12699999809E+01 0. -1.
       -4    1    3    3    0  502  0.41553390299E+03 -0.13459836051E+03 -0.94499445175E+03  0.10410577649E+04  0.12699999809E+01 0.  1.
</event>
<event>
 5   0  0.7712816E-03  0.1061743E+04  0.7818609E-02  0.9243303E-01
       -2   -1    0    0    0  501  0.00000000000E+00  0.00000000000E+00  0.13190968437E+03  0.13190968439E+03  0.25500000920E-02 0. -1.
        2   -1    0    0  501    0  0.00000000000E+00  0.00000000000E+00 -0.21364969297E+04  0.21364969297E+04  0.25500000920E-02 0.  1.
    10030    2    1    2    0    0  0.00000000000E+00  0.00000000000E+00 -0.20045872453E+04  0.22684066141E+04  0.10617431623E+04 0.  0.
        2    1    3    3  502    0  0.60231383882E+02  0.29220554803E+03 -0.64150091610E+02  0.30516739040E+03  0.25500000920E-02 0.  1.
       -2    1    3    3    0  502 -0.60231383882E+02 -0.29220554803E+03 -0.19404371537E+04  0.19632392237E+04  0.25500000920E-02 0. -1.
</event>
<event>
 5   0  0.4504740E-03  0.1094903E+04  0.7818609E-02  0.9210175E-01
       -1   -1    0    0    0  501  0.00000000000E+00  0.00000000000E+00  0.51726048902E+03  0.51726048904E+03  0.50400001928E-02 0.  1.
        1   -1    0    0  501    0  0.00000000000E+00  0.00000000000E+00 -0.57940414790E+03  0.57940414792E+03  0.50400001928E-02 0. -1.
    10030    2    1    2    0    0  0.00000000000E+00  0.00000000000E+00 -0.62143658883E+02  0.10966646370E+04  0.10949025033E+04 0.  0.
        5    1    3    3  502    0 -0.12219087841E+03 -0.32246939154E+03 -0.45691918844E+03  0.57246340845E+03  0.46999998093E+01 0. -1.
       -5    1    3    3    0  502  0.12219087841E+03  0.32246939154E+03  0.39477552956E+03  0.52420122852E+03  0.46999998093E+01 0.  1.
</event>
<event>
 5   0  0.7712816E-03  0.1100399E+04  0.7818609E-02  0.9204803E-01
       -2   -1    0    0    0  501  0.00000000000E+00  0.00000000000E+00  0.60355246605E+03  0.60355246606E+03  0.25500000920E-02 0. -1.
        2   -1    0    0  501    0  0.00000000000E+00  0.00000000000E+00 -0.50156271000E+03  0.50156271000E+03  0.25500000920E-02 0.  1.
    10030    2    1    2    0    0  0.00000000000E+00  0.00000000000E+00  0.10198975606E+03  0.11051151761E+04  0.11003988559E+04 0.  0.
        2    1    3    3  502    0  0.32438746452E+03 -0.43204868981E+03 -0.53499684132E+02  0.54291391004E+03  0.25500000920E-02 0.  1.
       -2    1    3    3    0  502 -0.32438746452E+03  0.43204868981E+03  0.15548944019E+03  0.56220126603E+03  0.25500000920E-02 0. -1.
</event>
<event>
 5   0  0.4504740E-03  0.1108938E+04  0.7818609E-02  0.9196524E-01
        1   -1    0    0  501    0  0.00000000000E+00  0.00000000000E+00  0.16368707686E+04  0.16368707686E+04  0.50400001928E-02 0.  1.
       -1   -1    0    0    0  501  0.00000000000E+00  0.00000000000E+00 -0.18781919745E+03  0.18781919752E+03  0.50400001928E-02 0. -1.
    10030    2    1    2    0    0  0.00000000000E+00  0.00000000000E+00  0.14490515712E+04  0.18246899661E+04  0.11089377875E+04 0.  0.
        5    1    3    3  502    0 -0.37024892381E+03  0.37537263979E+03  0.44227282062E+03  0.68819780742E+03  0.46999998093E+01 0. -1.
       -5    1    3    3    0  502  0.37024892381E+03 -0.37537263979E+03  0.10067787505E+04  0.11364921587E+04  0.46999998093E+01 0.  1.
</event>
<event>
 5   0  0.4598561E-03  0.1083772E+04  0.7818609E-02  0.9221154E-01
        1   -1    0    0  501    0  0.00000000000E+00  0.00000000000E+00  0.11110110928E+04  0.11110110928E+04  0.50400001928E-02 0.  1.
       -1   -1    0    0    0  501  0.00000000000E+00  0.00000000000E+00 -0.26430036240E+03  0.26430036245E+03  0.50400001928E-02 0. -1.
    10030    2    1    2    0    0  0.00000000000E+00  0.00000000000E+00  0.84671073036E+03  0.13753114552E+04  0.10837723645E+04 0.  0.
        2    1    3    3  502    0  0.13461770780E+03  0.18776211269E+03  0.10453797728E+04  0.10706051595E+04  0.25500000920E-02 0.  1.
       -2    1    3    3    0  502 -0.13461770780E+03 -0.18776211269E+03 -0.19866904243E+03  0.30470629570E+03  0.25500000920E-02 0. -1.
</event>
<event>
 5   0  0.4598561E-03  0.1095283E+04  0.7818609E-02  0.9209802E-01
        1   -1    0    0  501    0  0.00000000000E+00  0.00000000000E+00  0.10472666502E+04  0.10472666502E+04  0.50400001928E-02 0. -1.
       -1   -1    0    0    0  501  0.00000000000E+00  0.00000000000E+00 -0.28637500512E+03  0.28637500517E+03  0.50400001928E-02 0.  1.
    10030    2    1    2    0    0  0.00000000000E+00  0.00000000000E+00  0.76089164508E+03  0.13336416554E+04  0.10952825980E+04 0.  0.
        2    1    3    3  502    0 -0.49484610665E+03  0.22368648969E+03  0.29432380130E+03  0.61768504511E+03  0.25500000920E-02 0. -1.
       -2    1    3    3    0  502  0.49484610665E+03 -0.22368648969E+03  0.46656784378E+03  0.71595661027E+03  0.25500000920E-02 0.  1.
</event>
<event>
 5   0  0.4428114E-03  0.1112671E+04  0.7818609E-02  0.9192930E-01
        1   -1    0    0  501    0  0.00000000000E+00  0.00000000000E+00  0.10560368120E+04  0.10560368120E+04  0.50400001928E-02 0.  1.
       -1   -1    0    0    0  501  0.00000000000E+00  0.00000000000E+00 -0.29308538423E+03  0.29308538427E+03  0.50400001928E-02 0. -1.
    10030    2    1    2    0    0  0.00000000000E+00  0.00000000000E+00  0.76295142775E+03  0.13491221963E+04  0.11126705799E+04 0.  0.
        4    1    3    3  502    0 -0.27065114154E+03  0.25013118557E+03  0.88680178406E+03  0.96033154042E+03  0.12699999809E+01 0.  1.
       -4    1    3    3    0  502  0.27065114154E+03 -0.25013118557E+03 -0.12385035631E+03  0.38879065584E+03  0.12699999809E+01 0. -1.
</event>
<event>
 5   0  0.7537480E-03  0.1129577E+04  0.7818609E-02  0.9176834E-01
       -2   -1    0    0    0  501  0.00000000000E+00  0.00000000000E+00  0.18214839133E+03  0.18214839135E+03  0.25500000920E-02 0.  1.
        2   -1    0    0  501    0  0.00000000000E+00  0.00000000000E+00 -0.17512430952E+04  0.17512430952E+04  0.25500000920E-02 0. -1.
    10030    2    1    2    0    0  0.00000000000E+00  0.00000000000E+00 -0.15690947039E+04  0.19333914866E+04  0.11295771114E+04 0.  0.
        1    1    3    3  502    0 -0.70077627924E+02 -0.54689892643E+03 -0.99401332139E+03  0.11366933592E+04  0.50400001928E-02 0. -1.
       -1    1    3    3    0  502  0.70077627924E+02  0.54689892643E+03 -0.57508138251E+03  0.79669812740E+03  0.50400001928E-02 0.  1.
</event>
<event>
 5   0  0.7738497E-03  0.1101892E+04  0.7818609E-02  0.9203349E-01
        2   -1    0    0  501    0  0.00000000000E+00  0.00000000000E+00  0.54638023412E+03  0.54638023413E+03  0.25500000920E-02 0. -1.
       -2   -1    0    0    0  501  0.00000000000E+00  0.00000000000E+00 -0.55555028008E+03  0.55555028008E+03  0.25500000920E-02 0.  1.
    10030    2    1    2    0    0  0.00000000000E+00  0.00000000000E+00 -0.91700459528E+01  0.11019305142E+04  0.11018923579E+04 0.  0.
        4    1    3    3  502    0 -0.66750448476E+02 -0.21985719290E+03 -0.50534907680E+03  0.55513251568E+03  0.12699999809E+01 0.  1.
       -4    1    3    3    0  502  0.66750448476E+02  0.21985719290E+03  0.49617903085E+03  0.54679799853E+03  0.12699999809E+01 0. -1.
</event>
<event>
 5   0  0.4298101E-03  0.1149338E+04  0.7818609E-02  0.9158394E-01
       -1   -1    0    0    0  501  0.00000000000E+00  0.00000000000E+00  0.29022555376E+03  0.29022555381E+03  0.50400001928E-02 0. -1.
        1   -1    0    0  501    0  0.00000000000E+00  0.00000000000E+00 -0.11378891956E+04  0.11378891956E+04  0.50400001928E-02 0.  1.
    10030    2    1    2    0    0  0.00000000000E+00  0.00000000000E+00 -0.84766364183E+03  0.14281147494E+04  0.11493381086E+04 0.  0.
        3    1    3    3  502    0  0.47397309205E+03  0.19145365983E+03 -0.97582653219E+02  0.52041078031E+03  0.10100000352E+00 0. -1.
       -3    1    3    3    0  502 -0.47397309205E+03 -0.19145365983E+03 -0.75008098861E+03  0.90770396911E+03  0.10100000352E+00 0.  1.
</event>
<event>
 5   0  0.7952121E-03  0.1105043E+04  0.7818609E-02  0.9200290E-01
        2   -1    0    0  501    0  0.00000000000E+00  0.00000000000E+00  0.31428577936E+03  0.31428577937E+03  0.25500000920E-02 0.  1.
       -2   -1    0    0    0  501  0.00000000000E+00  0.00000000000E+00 -0.97134615105E+03  0.97134615106E+03  0.25500000920E-02 0. -1.
    10030    2    1    2    0    0  0.00000000000E+00  0.00000000000E+00 -0.65706037170E+03  0.12856319304E+04  0.11050434962E+04 0.  0.
        3    1    3    3  502    0 -0.41328989254E+03  0.13066509330E+03 -0.72715865419E+03  0.84654688024E+03  0.10100000352E+00 0. -1.
       -3    1    3    3    0  502  0.41328989254E+03 -0.13066509330E+03  0.70098282496E+02  0.43908505018E+03  0.10100000352E+00 0.  1.
</event>
<event>
 5   0  0.4298101E-03  0.1120960E+04  0.7818609E-02  0.9185001E-01
       -1   -1    0    0    0  501  0.00000000000E+00  0.00000000000E+00  0.33000452206E+03  0.33000452210E+03  0.50400001928E-02 0.  1.
        1   -1    0    0  501    0  0.00000000000E+00  0.00000000000E+00 -0.95191912673E+03  0.95191912674E+03  0.50400001928E-02 0. -1.
    10030    2    1    2    0    0  0.00000000000E+00  0.00000000000E+00 -0.62191460467E+03  0.12819236488E+04  0.11209596183E+04 0.  0.
        3    1    3    3  502    0  0.23513500447E+03  0.30019402464E+03 -0.78071272106E+03  0.86885976186E+03  0.10100000352E+00 0. -1.
       -3    1    3    3    0  502 -0.23513500447E+03 -0.30019402464E+03  0.15879811639E+03  0.41306388698E+03  0.10100000352E+00 0.  1.
</event>
<event>
 5   0  0.4598561E-03  0.1113757E+04  0.7818609E-02  0.9191886E-01
       -1   -1    0    0    0  501  0.00000000000E+00  0.00000000000E+00  0.32197138133E+03  0.32197138137E+03  0.50400001928E-02 0. -1.
        1   -1    0    0  501    0  0.00000000000E+00  0.00000000000E+00 -0.96317198520E+03  0.96317198521E+03  0.50400001928E-02 0.  1.
    10030    2    1    2    0    0  0.00000000000E+00  0.00000000000E+00 -0.64120060387E+03  0.12851433666E+04  0.11137572708E+04 0.  0.
        2    1    3    3  502    0 -0.53925482535E+03  0.13607338226E+03 -0.35327943739E+03  0.65887638667E+03  0.25500000920E-02 0. -1.
       -2    1    3    3    0  502  0.53925482535E+03 -0.13607338226E+03 -0.28792116647E+03  0.62626697991E+03  0.25500000920E-02 0.  1.
</event>
<event>
 5   0  0.7712816E-03  0.1101949E+04  0.7818609E-02  0.9203294E-01
        2   -1    0    0  501    0  0.00000000000E+00  0.00000000000E+00  0.45840836489E+03  0.45840836490E+03  0.25500000920E-02 0. -1.
       -2   -1    0    0    0  501  0.00000000000E+00  0.00000000000E+00 -0.66223286984E+03  0.66223286984E+03  0.25500000920E-02 0.  1.
    10030    2    1    2    0    0  0.00000000000E+00  0.00000000000E+00 -0.20382450494E+03  0.11206412347E+04  0.11019493401E+04 0.  0.
        2    1    3    3  502    0 -0.21389092589E+02  0.54319602802E+03 -0.19317674745E+03  0.57691998917E+03  0.25500000920E-02 0.  1.
       -2    1    3    3    0  502  0.21389092589E+02 -0.54319602802E+03 -0.10647757492E+02  0.54372124557E+03  0.25500000920E-02 0. -1.
</event>
<event>
 5   0  0.4504740E-03  0.9367766E+03  0.7818609E-02  0.9380742E-01
       -1   -1    0    0    0  501  0.00000000000E+00  0.00000000000E+00  0.30319697267E+03  0.30319697271E+03  0.50400001928E-02 0. -1.
        1   -1    0    0  501    0  0.00000000000E+00  0.00000000000E+00 -0.72358105217E+03  0.72358105219E+03  0.50400001928E-02 0.  1.
    10030    2    1    2    0    0  0.00000000000E+00  0.00000000000E+00 -0.42038407950E+03  0.10267780249E+04  0.93677656788E+03 0.  0.
        5    1    3    3  502    0  0.14564983991E+03 -0.27641893878E+03  0.17224915545E+03  0.35680970718E+03  0.46999998093E+01 0. -1.
       -5    1    3    3    0  502 -0.14564983991E+03  0.27641893878E+03 -0.59263323495E+03  0.66996831772E+03  0.46999998093E+01 0.  1.
</event>
<event>
 5   0  0.4641021E-03  0.1099202E+04  0.7818609E-02  0.9205970E-01
        1   -1    0    0  501    0  0.00000000000E+00  0.00000000000E+00  0.58304949215E+03  0.58304949217E+03  0.50400001928E-02 0. -1.
       -1   -1    0    0    0  501  0.00000000000E+00  0.00000000000E+00 -0.51807153956E+03  0.51807153959E+03  0.50400001928E-02 0.  1.
    10030    2    1    2    0    0  0.00000000000E+00  0.00000000000E+00  0.64977952582E+02  0.11011210318E+04  0.10992021617E+04 0.  0.
        1    1    3    3  502    0 -0.33617698214E+03 -0.31228887515E+03  0.33554319744E+03  0.56844396578E+03  0.50400001928E-02 0. -1.
       -1    1    3    3    0  502  0.33617698214E+03  0.31228887515E+03 -0.27056524486E+03  0.53267706597E+03  0.50400001928E-02 0.  1.
</event>
<event>
 5   0  0.7738497E-03  0.1107925E+04  0.7818609E-02  0.9197502E-01
       -2   -1    0    0    0  501  0.00000000000E+00  0.00000000000E+00  0.49210412070E+03  0.49210412070E+03  0.25500000920E-02 0.  1.
        2   -1    0    0  501    0  0.00000000000E+00  0.00000000000E+00 -0.62359618840E+03  0.62359618840E+03  0.25500000920E-02 0. -1.
    10030    2    1    2    0    0  0.00000000000E+00  0.00000000000E+00 -0.13149206770E+03  0.11157003091E+04  0.11079246436E+04 0.  0.
        4    1    3    3  502    0  0.18314826561E+03  0.37178547814E+03  0.30439982980E+03  0.51422621310E+03  0.12699999809E+01 0.  1.
       -4    1    3    3    0  502 -0.18314826561E+03 -0.37178547814E+03 -0.43589189751E+03  0.60147409601E+03  0.12699999809E+01 0. -1.
</event>
<event>
 5   0  0.4641021E-03  0.1121121E+04  0.7818609E-02  0.9184847E-01
        1   -1    0    0  501    0  0.00000000000E+00  0.00000000000E+00  0.12664822436E+04  0.12664822436E+04  0.50400001928E-02 0.  1.
       -1   -1    0    0    0  501  0.00000000000E+00  0.00000000000E+00 -0.24811086186E+03  0.24811086191E+03  0.50400001928E-02 0. -1.
    10030    2    1    2    0    0  0.00000000000E+00  0.00000000000E+00  0.10183713817E+04  0.15145931055E+04  0.11211208695E+04 0.  0.
        1    1    3    3  502    0 -0.37107401858E+03 -0.27172266578E+02 -0.57243000430E+02  0.37644524232E+03  0.50400001928E-02 0. -1.
       -1    1    3    3    0  502  0.37107401858E+03  0.27172266578E+02  0.10756143822E+04  0.11381478632E+04  0.50400001928E-02 0.  1.
</event>
<event>
 5   0  0.7738497E-03  0.9637788E+03  0.7818609E-02  0.9349189E-01
       -2   -1    0    0    0  501  0.00000000000E+00  0.00000000000E+00  0.11850847447E+03  0.11850847450E+03  0.25500000920E-02 0. -1.
        2   -1    0    0  501    0  0.00000000000E+00  0.00000000000E+00 -0.19595002421E+04  0.19595002421E+04  0.25500000920E-02 0.  1.
    10030    2    1    2    0    0  0.00000000000E+00  0.00000000000E+00 -0.18409917676E+04  0.20780087166E+04  0.96377878052E+03 0.  0.
        4    1    3    3  502    0 -0.18758008317E+03 -0.71514759402E+02  0.24053359024E+02  0.20219007244E+03  0.12699999809E+01 0. -1.
       -4    1    3    3    0  502  0.18758008317E+03  0.71514759402E+02 -0.18650451267E+04  0.18758186442E+04  0.12699999809E+01 0.  1.
</event>
<event>
 5   0  0.7766551E-03  0.1095595E+04  0.7818609E-02  0.9209496E-01
       -2   -1    0    0    0  501  0.00000000000E+00  0.00000000000E+00  0.36682993001E+03  0.36682993002E+03  0.25500000920E-02 0. -1.
        2   -1    0    0  501    0  0.00000000000E+00  0.00000000000E+00 -0.81804077560E+03  0.81804077561E+03  0.25500000920E-02 0.  1.
    10030    2    1    2    0    0  0.00000000000E+00  0.00000000000E+00 -0.45121084560E+03  0.11848707056E+04  0.10955945244E+04 0.  0.
        5    1    3    3  502    0 -0.26514427242E+03 -0.47881044664E+03 -0.24975967934E+03  0.60163353998E+03  0.46999998093E+01 0.  1.
       -5    1    3    3    0  502  0.26514427242E+03  0.47881044664E+03 -0.20145116626E+03  0.58323716565E+03  0.46999998093E+01 0. -1.
</event>
<event>
 5   0  0.4428114E-03  0.1137255E+04  0.7818609E-02  0.9169623E-01
       -1   -1    0    0    0  501  0.00000000000E+00  0.00000000000E+00  0.19197485790E+03  0.19197485796E+03  0.50400001928E-02 0. -1.
        1   -1    0    0  501    0  0.00000000000E+00  0.00000000000E+00 -0.16842679205E+04  0.16842679205E+04  0.50400001928E-02 0.  1.
    10030    2    1    2    0    0  0.00000000000E+00  0.00000000000E+00 -0.14922930626E+04  0.18762427785E+04  0.11372547556E+04 0.  0.
        4    1    3    3  502    0  0.17570075438E+03 -0.53727130705E+03 -0.84790414276E+03  0.10190555729E+04  0.12699999809E+01 0.  1.
       -4    1    3    3    0  502 -0.17570075438E+03  0.53727130705E+03 -0.64438891986E+03  0.85718720558E+03  0.12699999809E+01 0. -1.
</event>
<event>
 5   0  0.7766551E-03  0.1096963E+04  0.7818609E-02  0.9208157E-01
       -2   -1    0    0    0  501  0.00000000000E+00  0.00000000000E+00  0.20933964771E+03  0.20933964772E+03  0.25500000920E-02 0. -1.
        2   -1    0    0  501    0  0.00000000000E+00  0.00000000000E+00 -0.14370506811E+04  0.14370506811E+04  0.25500000920E-02 0.  1.
    10030    2    1    2    0    0  0.00000000000E+00  0.00000000000E+00 -0.12277110334E+04  0.16463903288E+04  0.10969625032E+04 0.  0.
        5    1    3    3  502    0  0.64334417438E+02  0.10177964589E+03 -0.14169386048E+04  0.14220531331E+04  0.46999998093E+01 0.  1.
       -5    1    3    3    0  502 -0.64334417438E+02 -0.10177964589E+03  0.18922757144E+03  0.22433719570E+03  0.46999998093E+01 0. -1.
</event>
<event>
 5   0  0.2992375E-03  0.6879202E+03  0.7818609E-02  0.9738116E-01
       -4   -1    0    0    0  501  0.00000000000E+00  0.00000000000E+00  0.16745268113E+03  0.16745749704E+03  0.12699999809E+01 0. -1.
        4   -1    0    0  501    0  0.00000000000E+00  0.00000000000E+00 -0.70650372693E+03  0.70650486839E+03  0.12699999809E+01 0.  1.
    10030    2    1    2    0    0  0.00000000000E+00  0.00000000000E+00 -0.53905104580E+03  0.87396236544E+03  0.68792018885E+03 0.  0.
        3    1    3    3  502    0  0.29481339424E+02  0.15513130088E+03  0.11868462387E+03  0.19753713583E+03  0.10100000352E+00 0. -1.
       -3    1    3    3    0  502 -0.29481339424E+02 -0.15513130088E+03 -0.65773566967E+03  0.67642522961E+03  0.10100000352E+00 0.  1.
</event>
<event>
 5   0  0.7712816E-03  0.1157467E+04  0.7818609E-02  0.9150922E-01
        2   -1    0    0  501    0  0.00000000000E+00  0.00000000000E+00  0.12686504200E+04  0.12686504200E+04  0.25500000920E-02 0.  1.
       -2   -1    0    0    0  501  0.00000000000E+00  0.00000000000E+00 -0.26400693260E+03  0.26400693261E+03  0.25500000920E-02 0. -1.
    10030    2    1    2    0    0  0.00000000000E+00  0.00000000000E+00  0.10046434874E+04  0.15326573526E+04  0.11574670724E+04 0.  0.
        2    1    3    3  502    0 -0.36113602609E+03 -0.12581570010E+03  0.10775015153E+04  0.11433539851E+04  0.25500000920E-02 0.  1.
       -2    1    3    3    0  502  0.36113602609E+03  0.12581570010E+03 -0.72858027906E+02  0.38930336753E+03  0.25500000920E-02 0. -1.
</event>
<event>
 5   0  0.4504740E-03  0.1082847E+04  0.7818609E-02  0.9222074E-01
       -1   -1    0    0    0  501  0.00000000000E+00  0.00000000000E+00  0.18263573546E+03  0.18263573553E+03  0.50400001928E-02 0.  1.
        1   -1    0    0  501    0  0.00000000000E+00  0.00000000000E+00 -0.16050487740E+04  0.16050487740E+04  0.50400001928E-02 0. -1.
    10030    2    1    2    0    0  0.00000000000E+00  0.00000000000E+00 -0.14224130385E+04  0.17876845095E+04  0.10828467359E+04 0.  0.
        5    1    3    3  502    0 -0.53667038021E+03 -0.10083395337E+02 -0.59446473597E+03  0.80095392137E+03  0.46999998093E+01 0.  1.
       -5    1    3    3    0  502  0.53667038021E+03  0.10083395337E+02 -0.82794830254E+03  0.98673058812E+03  0.46999998093E+01 0. -1.
</event>
</LesHouchesEvents>
