<LesHouchesEvents version="3.0">
<header>
<!--
#*********************************************************************
#                                                                    *
#                        MadGraph5_aMC@NLO                           *
#                                                                    *
#                           Going Beyond                             *
#                                                                    *
#                   http://madgraph.hep.uiuc.edu                     *
#                   http://madgraph.phys.ucl.ac.be                   *
#                   http://amcatnlo.cern.ch                          *
#                                                                    *
#                     The MadGraph5_aMC@NLO team                     *
#                                                                    *
#....................................................................*
#                                                                    *
# This file contains all the information necessary to reproduce      *
# the events generated:                                              *
#                                                                    *
# 1. software version                                                *
# 2. proc_card          : code generation info including model       *
# 3. param_card         : model primary parameters in the LH format  *
# 4. run_card           : running parameters (collider and cuts)     *
# 5. pythia_card        : present only if pythia has been run        *
# 6. pgs_card           : present only if pgs has been run           *
# 7. delphes_cards      : present only if delphes has been run       *
#                                                                    *
#                                                                    *
#*********************************************************************
-->
<MGVersion>
#5.2.2.3
</MGVersion>
<MG5ProcCard>
#************************************************************
#*                     MadGraph5_aMC@NLO                    *
#*                                                          *
#*                *                       *                 *
#*                  *        * *        *                   *
#*                    * * * * 5 * * * *                     *
#*                  *        * *        *                   *
#*                *                       *                 *
#*                                                          *
#*                                                          *
#*         VERSION 2.2.3                 2015-02-10         *
#*                                                          *
#*    The MadGraph5_aMC@NLO Development Team - Find us at   *
#*    https://server06.fynu.ucl.ac.be/projects/madgraph     *
#*                                                          *
#************************************************************
#*                                                          *
#*               Command File for MadGraph5_aMC@NLO         *
#*                                                          *
#*     run as ./bin/mg5_aMC  filename                       *
#*                                                          *
#************************************************************
set group_subprocesses Auto
set ignore_six_quark_processes False
set loop_optimized_output True
set gauge unitary
set complex_mass_scheme False
import model sm
define p = g u c d s u~ c~ d~ s~
define j = g u c d s u~ c~ d~ s~
define l+ = e+ mu+
define l- = e- mu-
define vl = ve vm vt
define vl~ = ve~ vm~ vt~
import model Zprime_UFO
generate p p > zph, zph > j j
add process p p > zph, zph > b b~
output Dijet_signal
</MG5ProcCard>
<MGProcCard>
#*********************************************************************
#                        MadGraph/MadEvent                           *
#                   http://madgraph.hep.uiuc.edu                     *
#                                                                    *
#                          proc_card.dat                             *
#*********************************************************************
#                                                                    *
#            This Files is generated by MADGRAPH 5                   *
#                                                                    *
# WARNING: This Files is generated for MADEVENT (compatibility issue)*
#          This files is NOT a valid MG4 proc_card.dat               *
#          Running this in MG4 will NEVER reproduce the result of MG5*
#                                                                    *
#*********************************************************************
#*********************************************************************
# Process(es) requested : mg2 input                                  *
#*********************************************************************
# Begin PROCESS # This is TAG. Do not modify this line
p p > zph , zph > j j           #Process
# Be carefull the coupling are here in MG5 convention
          
end_coup           # End the couplings input

done               # this tells MG there are no more procs
# End PROCESS  # This is TAG. Do not modify this line
#*********************************************************************
# Model information                                                  *
#*********************************************************************
# Begin MODEL  # This is TAG. Do not modify this line
Zprime_UFO
# End   MODEL  # This is TAG. Do not modify this line
#*********************************************************************
# Start multiparticle definitions                                    *
#*********************************************************************
# Begin MULTIPARTICLES # This is TAG. Do not modify this line

# End  MULTIPARTICLES # This is TAG. Do not modify this line
</MGProcCard>
<MGRunCard>
#*********************************************************************
#                       MadGraph5_aMC@NLO                            *
#                                                                    *
#                     run_card.dat MadEvent                          *
#                                                                    *
#  This file is used to set the parameters of the run.               *
#                                                                    *
#  Some notation/conventions:                                        *
#                                                                    *
#   Lines starting with a '# ' are info or comments                  *
#                                                                    *
#   mind the format:   value    = variable     ! comment             *
#*********************************************************************
#
#*******************                                                 
# Running parameters
#*******************                                                 
#                                                                    
#*********************************************************************
# Tag name for the run (one word)                                    *
#*********************************************************************
  tag_1     = run_tag ! name of the run 
#*********************************************************************
# Run to generate the grid pack                                      *
#*********************************************************************
  .false.     = gridpack  !True = setting up the grid pack
#*********************************************************************
# Number of events and rnd seed                                      *
# Warning: Do not generate more than 1M events in a single run       *
# If you want to run Pythia, avoid more than 50k events in a run.    *
#*********************************************************************
  2000 = nevents ! Number of unweighted events requested 
 1389 = iseed   ! rnd seed (0=assigned automatically=default))
#*********************************************************************
# Collider type and energy                                           *
# lpp: 0=No PDF, 1=proton, -1=antiproton, 2=photon from proton,      *
#                                         3=photon from electron     *
#*********************************************************************
        1     = lpp1    ! beam 1 type 
        1     = lpp2    ! beam 2 type
     4000     = ebeam1  ! beam 1 total energy in GeV
     4000     = ebeam2  ! beam 2 total energy in GeV
#*********************************************************************
# Beam polarization from -100 (left-handed) to 100 (right-handed)    *
#*********************************************************************
        0     = polbeam1 ! beam polarization for beam 1
        0     = polbeam2 ! beam polarization for beam 2
#*********************************************************************
# PDF CHOICE: this automatically fixes also alpha_s and its evol.    *
#*********************************************************************
 'nn23lo1'    = pdlabel     ! PDF set                                     
 230000    = lhaid     ! if pdlabel=lhapdf, this is the lhapdf number
#*********************************************************************
# Renormalization and factorization scales                           *
#*********************************************************************
 F        = fixed_ren_scale  ! if .true. use fixed ren scale
 F        = fixed_fac_scale  ! if .true. use fixed fac scale
 91.1880  = scale            ! fixed ren scale
 91.1880  = dsqrt_q2fact1    ! fixed fact scale for pdf1
 91.1880  = dsqrt_q2fact2    ! fixed fact scale for pdf2
 1        = scalefact        ! scale factor for event-by-event scales
#*********************************************************************
# Matching - Warning! ickkw > 1 is still beta
#*********************************************************************
 0        = ickkw            ! 0 no matching, 1 MLM, 2 CKKW matching
 1        = highestmult      ! for ickkw=2, highest mult group
 1        = ktscheme         ! for ickkw=1, 1 Durham kT, 2 Pythia pTE
 1        = alpsfact         ! scale factor for QCD emission vx
 F        = chcluster        ! cluster only according to channel diag
 T        = pdfwgt           ! for ickkw=1, perform pdf reweighting
 5        = asrwgtflavor     ! highest quark flavor for a_s reweight
 T        = clusinfo         ! include clustering tag in output
 3.0      = lhe_version       ! Change the way clustering information pass to shower.        
#*********************************************************************
#**********************************************************
#
#**********************************************************
# Automatic ptj and mjj cuts if xqcut > 0
# (turn off for VBF and single top processes)
#**********************************************************
   T  = auto_ptj_mjj  ! Automatic setting of ptj and mjj
#**********************************************************
#                                                                    
#**********************************
# BW cutoff (M+/-bwcutoff*Gamma)
#**********************************
  15  = bwcutoff      ! (M+/-bwcutoff*Gamma)
#**********************************************************
# Apply pt/E/eta/dr/mij cuts on decay products or not
# (note that etmiss/ptll/ptheavy/ht/sorted cuts always apply)
#**********************************************************
   T  = cut_decays    ! Cut decay products 
#*************************************************************
# Number of helicities to sum per event (0 = all helicities)
# 0 gives more stable result, but longer run time (needed for
# long decay chains e.g.).
# Use >=2 if most helicities contribute, e.g. pure QCD.
#*************************************************************
   0  = nhel          ! Number of helicities used per event
#*******************                                                 
# Standard Cuts
#*******************                                                 
#                                                                    
#*********************************************************************
# Minimum and maximum pt's (for max, -1 means no cut)                *
#*********************************************************************
 20  = ptj       ! minimum pt for the jets 
  0  = ptb       ! minimum pt for the b 
 10  = pta       ! minimum pt for the photons 
 10  = ptl       ! minimum pt for the charged leptons 
  0  = misset    ! minimum missing Et (sum of neutrino's momenta)
  0  = ptheavy   ! minimum pt for one heavy final state
 1.0 = ptonium   ! minimum pt for the quarkonium states
 -1  = ptjmax    ! maximum pt for the jets
 -1  = ptbmax    ! maximum pt for the b
 -1  = ptamax    ! maximum pt for the photons
 -1  = ptlmax    ! maximum pt for the charged leptons
 -1  = missetmax ! maximum missing Et (sum of neutrino's momenta)
#*********************************************************************
# Minimum and maximum E's (in the center of mass frame)              *
#*********************************************************************
  0  = ej     ! minimum E for the jets 
  0  = eb     ! minimum E for the b 
  0  = ea     ! minimum E for the photons 
  0  = el     ! minimum E for the charged leptons 
 -1   = ejmax ! maximum E for the jets
 -1   = ebmax ! maximum E for the b
 -1   = eamax ! maximum E for the photons
 -1   = elmax ! maximum E for the charged leptons
#*********************************************************************
# Maximum and minimum absolute rapidity (for max, -1 means no cut)   *
#*********************************************************************
   5  = etaj    ! max rap for the jets 
  -1  = etab    ! max rap for the b
 2.5  = etaa    ! max rap for the photons 
 2.5  = etal    ! max rap for the charged leptons 
 0.6  = etaonium ! max rap for the quarkonium states
   0  = etajmin ! min rap for the jets
   0  = etabmin ! min rap for the b
   0  = etaamin ! min rap for the photons
   0  = etalmin ! main rap for the charged leptons
#*********************************************************************
# Minimum and maximum DeltaR distance                                *
#*********************************************************************
 0.4 = drjj    ! min distance between jets 
 0   = drbb    ! min distance between b's 
 0.4 = drll    ! min distance between leptons 
 0.4 = draa    ! min distance between gammas 
 0   = drbj    ! min distance between b and jet 
 0.4 = draj    ! min distance between gamma and jet 
 0.4 = drjl    ! min distance between jet and lepton 
 0   = drab    ! min distance between gamma and b 
 0   = drbl    ! min distance between b and lepton 
 0.4 = dral    ! min distance between gamma and lepton 
 -1  = drjjmax ! max distance between jets
 -1  = drbbmax ! max distance between b's
 -1  = drllmax ! max distance between leptons
 -1  = draamax ! max distance between gammas
 -1  = drbjmax ! max distance between b and jet
 -1  = drajmax ! max distance between gamma and jet
 -1  = drjlmax ! max distance between jet and lepton
 -1  = drabmax ! max distance between gamma and b
 -1  = drblmax ! max distance between b and lepton
 -1  = dralmax ! maxdistance between gamma and lepton
#*********************************************************************
# Minimum and maximum invariant mass for pairs                       *
# WARNING: for four lepton final state mmll cut require to have      *
#          different lepton masses for each flavor!                  *           
#*********************************************************************
 0   = mmjj    ! min invariant mass of a jet pair 
 0   = mmbb    ! min invariant mass of a b pair 
 0   = mmaa    ! min invariant mass of gamma gamma pair
 0   = mmll    ! min invariant mass of l+l- (same flavour) lepton pair
 -1  = mmjjmax ! max invariant mass of a jet pair
 -1  = mmbbmax ! max invariant mass of a b pair
 -1  = mmaamax ! max invariant mass of gamma gamma pair
 -1  = mmllmax ! max invariant mass of l+l- (same flavour) lepton pair
#*********************************************************************
# Minimum and maximum invariant mass for all letpons                 *
#*********************************************************************
 0   = mmnl    ! min invariant mass for all letpons (l+- and vl) 
 -1  = mmnlmax ! max invariant mass for all letpons (l+- and vl) 
#*********************************************************************
# Minimum and maximum pt for 4-momenta sum of leptons                *
#*********************************************************************
 0   = ptllmin  ! Minimum pt for 4-momenta sum of leptons(l and vl)
 -1  = ptllmax  ! Maximum pt for 4-momenta sum of leptons(l and vl)
#*********************************************************************
# Inclusive cuts                                                     *
#*********************************************************************
 0  = xptj ! minimum pt for at least one jet  
 0  = xptb ! minimum pt for at least one b 
 0  = xpta ! minimum pt for at least one photon 
 0  = xptl ! minimum pt for at least one charged lepton 
#*********************************************************************
# Control the pt's of the jets sorted by pt                          *
#*********************************************************************
 0   = ptj1min ! minimum pt for the leading jet in pt
 0   = ptj2min ! minimum pt for the second jet in pt
 0   = ptj3min ! minimum pt for the third jet in pt
 0   = ptj4min ! minimum pt for the fourth jet in pt
 -1  = ptj1max ! maximum pt for the leading jet in pt 
 -1  = ptj2max ! maximum pt for the second jet in pt
 -1  = ptj3max ! maximum pt for the third jet in pt
 -1  = ptj4max ! maximum pt for the fourth jet in pt
 0   = cutuse  ! reject event if fails any (0) / all (1) jet pt cuts
#*********************************************************************
# Control the pt's of leptons sorted by pt                           *
#*********************************************************************
 0   = ptl1min ! minimum pt for the leading lepton in pt
 0   = ptl2min ! minimum pt for the second lepton in pt
 0   = ptl3min ! minimum pt for the third lepton in pt
 0   = ptl4min ! minimum pt for the fourth lepton in pt
 -1  = ptl1max ! maximum pt for the leading lepton in pt 
 -1  = ptl2max ! maximum pt for the second lepton in pt
 -1  = ptl3max ! maximum pt for the third lepton in pt
 -1  = ptl4max ! maximum pt for the fourth lepton in pt
#*********************************************************************
# Control the Ht(k)=Sum of k leading jets                            *
#*********************************************************************
 0   = htjmin ! minimum jet HT=Sum(jet pt)
 -1  = htjmax ! maximum jet HT=Sum(jet pt)
 0   = ihtmin  !inclusive Ht for all partons (including b)
 -1  = ihtmax  !inclusive Ht for all partons (including b)
 0   = ht2min ! minimum Ht for the two leading jets
 0   = ht3min ! minimum Ht for the three leading jets
 0   = ht4min ! minimum Ht for the four leading jets
 -1  = ht2max ! maximum Ht for the two leading jets
 -1  = ht3max ! maximum Ht for the three leading jets
 -1  = ht4max ! maximum Ht for the four leading jets
#***********************************************************************
# Photon-isolation cuts, according to hep-ph/9801442                   *
# When ptgmin=0, all the other parameters are ignored                  *
# When ptgmin>0, pta and draj are not going to be used                 *
#***********************************************************************
   0 = ptgmin ! Min photon transverse momentum
 0.4 = R0gamma ! Radius of isolation code
 1.0 = xn ! n parameter of eq.(3.4) in hep-ph/9801442
 1.0 = epsgamma ! epsilon_gamma parameter of eq.(3.4) in hep-ph/9801442
 .true. = isoEM ! isolate photons from EM energy (photons and leptons)
#*********************************************************************
# WBF cuts                                                           *
#*********************************************************************
 0   = xetamin ! minimum rapidity for two jets in the WBF case  
 0   = deltaeta ! minimum rapidity for two jets in the WBF case 
#*********************************************************************
# KT DURHAM CUT                                                      *
#*********************************************************************
 -1    =  ktdurham        
 0.4  =  dparameter 
#*********************************************************************
# maximal pdg code for quark to be considered as a light jet         *
# (otherwise b cuts are applied)                                     *
#*********************************************************************
 4 = maxjetflavor    ! Maximum jet pdg code
#*********************************************************************
# Jet measure cuts                                                   *
#*********************************************************************
 0   = xqcut   ! minimum kt jet measure between partons
#*********************************************************************
#
#*********************************************************************
# Store info for systematics studies                                 *
# WARNING: If use_syst is T, matched Pythia output is                *
#          meaningful ONLY if plotted taking matchscale              *
#          reweighting into account!                                 *
#*********************************************************************
   F  = use_syst      ! Enable systematics studies
#
#**************************************
# Parameter of the systematics study
#  will be used by SysCalc (if installed)
#**************************************                                  
#
0.5 1 2 = sys_scalefact  # factorization/renormalization scale factor
0.5 1 2 = sys_alpsfact  # \alpha_s emission scale factors
30 50 = sys_matchscale # variation of merging scale
# PDF sets and number of members (0 or none for all members).
CT10nlo.LHgrid = sys_pdf # matching scales
# MSTW2008nlo68cl.LHgrid 1  = sys_pdf
</MGRunCard>
<slha>
######################################################################
## PARAM_CARD AUTOMATICALY GENERATED BY MG5 FOLLOWING UFO MODEL   ####
######################################################################
##                                                                  ##
##  Width set on Auto will be computed following the information    ##
##        present in the decay.py files of the model.               ##
##        See  arXiv:1402.1178 for more details.                    ##
##                                                                  ##
######################################################################

###################################
## INFORMATION FOR CKMBLOCK
###################################
Block ckmblock 
    1 2.277360e-01 # cabi 

###################################
## INFORMATION FOR FRBLOCK
###################################
Block frblock 
    1 6.000000e-01 # gz 

###################################
## INFORMATION FOR MASS
###################################
Block mass 
    1 5.040000e-03 # MD 
    2 2.550000e-03 # MU 
    3 1.010000e-01 # MS 
    4 1.270000e+00 # MC 
    5 4.700000e+00 # MB 
    6 1.720000e+02 # MT 
   11 5.110000e-04 # Me 
   13 1.056600e-01 # MM 
   15 1.777000e+00 # MTA 
   23 9.118760e+01 # MZ 
   25 1.200000e+02 # MH 
  10030 3.200000e+03 # MZph 
  10031 3.000000e+02 # MZpl 
## Dependent parameters, given by model restrictions.
## Those values should be edited following the 
## analytical expression. MG5 ignores those values 
## but they are important for interfacing the output of MG5
## to external program such as Pythia.
  12 0.000000 # ve : 0.0 
  14 0.000000 # vm : 0.0 
  16 0.000000 # vt : 0.0 
  21 0.000000 # g : 0.0 
  22 0.000000 # a : 0.0 
  24 79.824360 # w+ : cmath.sqrt(MZ__exp__2/2. + cmath.sqrt(MZ__exp__4/4. - (aEW*cmath.pi*MZ__exp__2)/(Gf*sqrt__2))) 

###################################
## INFORMATION FOR SMINPUTS
###################################
Block sminputs 
    1 1.279000e+02 # aEWM1 
    2 1.166370e-05 # Gf 
    3 1.184000e-01 # aS 

###################################
## INFORMATION FOR YUKAWA
###################################
Block yukawa 
    1 5.040000e-03 # ymdo 
    2 2.550000e-03 # ymup 
    3 1.010000e-01 # yms 
    4 1.270000e+00 # ymc 
    5 4.700000e+00 # ymb 
    6 1.720000e+02 # ymt 
   11 5.110000e-04 # yme 
   13 1.056600e-01 # ymm 
   15 1.777000e+00 # ymtau 

###################################
## INFORMATION FOR DECAY
###################################
DECAY   6 1.508336e+00 # WT 
DECAY  23 2.495200e+00 # WZ 
DECAY  24 2.085000e+00 # WW 
DECAY  25 5.753088e-03 # WH 
## Dependent parameters, given by model restrictions.
## Those values should be edited following the 
## analytical expression. MG5 ignores those values 
## but they are important for interfacing the output of MG5
## to external program such as Pythia.
DECAY  1 0.000000 # d : 0.0 
DECAY  2 0.000000 # u : 0.0 
DECAY  3 0.000000 # s : 0.0 
DECAY  4 0.000000 # c : 0.0 
DECAY  5 0.000000 # b : 0.0 
DECAY  11 0.000000 # e- : 0.0 
DECAY  12 0.000000 # ve : 0.0 
DECAY  13 0.000000 # mu- : 0.0 
DECAY  14 0.000000 # vm : 0.0 
DECAY  15 0.000000 # ta- : 0.0 
DECAY  16 0.000000 # vt : 0.0 
DECAY  21 0.000000 # g : 0.0 
DECAY  22 0.000000 # a : 0.0 
DECAY  10030 0.308725 # zph : (gz__exp__2*MZph*(5 + cmath.sqrt(1 - (4*MT__exp__2)/MZph__exp__2)))/(144.*cmath.pi) 
DECAY  10031 0.132629 # zpl : (5*gz__exp__2*MZpl)/(144.*cmath.pi) 
#===========================================================
# QUANTUM NUMBERS OF NEW STATE(S) (NON SM PDG CODE)
#===========================================================

Block QNUMBERS 10030  # zph 
        1 0  # 3 times electric charge
        2 3  # number of spin states (2S+1)
        3 1  # colour rep (1: singlet, 3: triplet, 8: octet)
        4 0  # Particle/Antiparticle distinction (0=own anti)
Block QNUMBERS 10031  # zpl 
        1 0  # 3 times electric charge
        2 3  # number of spin states (2S+1)
        3 1  # colour rep (1: singlet, 3: triplet, 8: octet)
        4 0  # Particle/Antiparticle distinction (0=own anti)
</slha>
## END BANNER##
<MGGenerationInfo>
#  Number of Events        :         3925
#  Integrated weight (pb)  :  0.22271E-03
#  Max wgt                 :  0.88390E-07
#  Average wgt             :  0.56741E-07
</MGGenerationInfo>
</header>
<init>
     2212     2212  0.40000000000E+04  0.40000000000E+04 0 0  247000  247000 2   1
  0.22270259578E-03  0.43122566299E-06  0.88389510000E-07   0
</init>
<event>
 5   0  0.8195618E-07  0.3197525E+04  0.7818609E-02  0.8189471E-01
       -2   -1    0    0    0  501  0.00000000000E+00  0.00000000000E+00  0.14704382637E+04  0.14704382637E+04  0.25500000920E-02 0.  1.
        2   -1    0    0  501    0  0.00000000000E+00  0.00000000000E+00 -0.17382850837E+04  0.17382850837E+04  0.25500000920E-02 0. -1.
    10030    2    1    2    0    0  0.00000000000E+00  0.00000000000E+00 -0.26784682007E+03  0.32087233474E+04  0.31975246052E+04 0.  0.
        1    1    3    3  502    0 -0.22449095874E+03  0.41306339571E+02 -0.17218492202E+04  0.17369131070E+04  0.50400001928E-02 0. -1.
       -1    1    3    3    0  502  0.22449095874E+03 -0.41306339571E+02  0.14540024001E+04  0.14718102404E+04  0.50400001928E-02 0.  1.
</event>
<event>
 5   0  0.8195618E-07  0.3238358E+04  0.7818609E-02  0.8178760E-01
        2   -1    0    0  501    0  0.00000000000E+00  0.00000000000E+00  0.28788439197E+04  0.28788439197E+04  0.25500000920E-02 0. -1.
       -2   -1    0    0    0  501  0.00000000000E+00  0.00000000000E+00 -0.91069200977E+03  0.91069200977E+03  0.25500000920E-02 0.  1.
    10030    2    1    2    0    0  0.00000000000E+00  0.00000000000E+00  0.19681519099E+04  0.37895359295E+04  0.32383577042E+04 0.  0.
        1    1    3    3  502    0 -0.40953915379E+03 -0.35721077047E+03 -0.80078797637E+03  0.96777230595E+03  0.50400001928E-02 0.  1.
       -1    1    3    3    0  502  0.40953915379E+03  0.35721077047E+03  0.27689398863E+04  0.28217636235E+04  0.50400001928E-02 0. -1.
</event>
<event>
 5   0  0.8488469E-07  0.3201382E+04  0.7818609E-02  0.8188452E-01
       -2   -1    0    0    0  501  0.00000000000E+00  0.00000000000E+00  0.14043699975E+04  0.14043699975E+04  0.25500000920E-02 0. -1.
        2   -1    0    0  501    0  0.00000000000E+00  0.00000000000E+00 -0.18244564193E+04  0.18244564194E+04  0.25500000920E-02 0.  1.
    10030    2    1    2    0    0  0.00000000000E+00  0.00000000000E+00 -0.42008642184E+03  0.32288264169E+04  0.32013821122E+04 0.  0.
        3    1    3    3  502    0  0.11634623050E+04 -0.61825683627E+03 -0.11268605943E+04  0.17336957230E+04  0.10100000352E+00 0. -1.
       -3    1    3    3    0  502 -0.11634623050E+04  0.61825683627E+03  0.70677417243E+03  0.14951306939E+04  0.10100000352E+00 0.  1.
</event>
<event>
 5   0  0.8195618E-07  0.3018516E+04  0.7818609E-02  0.8238463E-01
       -2   -1    0    0    0  501  0.00000000000E+00  0.00000000000E+00  0.11202349800E+04  0.11202349800E+04  0.25500000920E-02 0.  1.
        2   -1    0    0  501    0  0.00000000000E+00  0.00000000000E+00 -0.20333764466E+04  0.20333764467E+04  0.25500000920E-02 0. -1.
    10030    2    1    2    0    0  0.00000000000E+00  0.00000000000E+00 -0.91314146666E+03  0.31536114266E+04  0.30185158095E+04 0.  0.
        1    1    3    3  502    0 -0.93666180515E+03  0.44956579282E+03  0.68714550325E+03  0.12456378615E+04  0.50400001928E-02 0.  1.
       -1    1    3    3    0  502  0.93666180515E+03 -0.44956579282E+03 -0.16002869699E+04  0.19079735652E+04  0.50400001928E-02 0. -1.
</event>
<event>
 5   0  0.8488469E-07  0.3193473E+04  0.7818609E-02  0.8190543E-01
        2   -1    0    0  501    0  0.00000000000E+00  0.00000000000E+00  0.17814125970E+04  0.17814125970E+04  0.25500000920E-02 0.  1.
       -2   -1    0    0    0  501  0.00000000000E+00  0.00000000000E+00 -0.14312056423E+04  0.14312056423E+04  0.25500000920E-02 0. -1.
    10030    2    1    2    0    0  0.00000000000E+00  0.00000000000E+00  0.35020695462E+03  0.32126182393E+04  0.31934731939E+04 0.  0.
        3    1    3    3  502    0 -0.64673686551E+03  0.93616111523E+03 -0.95183620650E+03  0.14834616210E+04  0.10100000352E+00 0. -1.
       -3    1    3    3    0  502  0.64673686551E+03 -0.93616111523E+03  0.13020431611E+04  0.17291566183E+04  0.10100000352E+00 0.  1.
</event>
<event>
 5   0  0.3013888E-07  0.3258275E+04  0.7818609E-02  0.8173594E-01
        1   -1    0    0  501    0  0.00000000000E+00  0.00000000000E+00  0.11249032599E+04  0.11249032599E+04  0.50400001928E-02 0.  1.
       -1   -1    0    0    0  501  0.00000000000E+00  0.00000000000E+00 -0.23593929597E+04  0.23593929597E+04  0.50400001928E-02 0. -1.
    10030    2    1    2    0    0  0.00000000000E+00  0.00000000000E+00 -0.12344896999E+04  0.34842962196E+04  0.32582749004E+04 0.  0.
        1    1    3    3  502    0 -0.10359642769E+04 -0.12480054053E+04 -0.45384005016E+03  0.16842536228E+04  0.50400001928E-02 0. -1.
       -1    1    3    3    0  502  0.10359642769E+04  0.12480054053E+04 -0.78064964971E+03  0.18000425968E+04  0.50400001928E-02 0.  1.
</event>
<event>
 5   0  0.2997105E-07  0.3201887E+04  0.7818609E-02  0.8188319E-01
        1   -1    0    0  501    0  0.00000000000E+00  0.00000000000E+00  0.11211351902E+04  0.11211351902E+04  0.50400001928E-02 0.  1.
       -1   -1    0    0    0  501  0.00000000000E+00  0.00000000000E+00 -0.22860932377E+04  0.22860932377E+04  0.50400001928E-02 0. -1.
    10030    2    1    2    0    0  0.00000000000E+00  0.00000000000E+00 -0.11649580476E+04  0.34072284279E+04  0.32018866793E+04 0.  0.
        3    1    3    3  502    0  0.54227140927E+02  0.90106694556E+03 -0.19894513411E+04  0.21846690532E+04  0.10100000352E+00 0. -1.
       -3    1    3    3    0  502 -0.54227140927E+02 -0.90106694556E+03  0.82449329358E+03  0.12225593747E+04  0.10100000352E+00 0.  1.
</event>
<event>
 5   0  0.8195618E-07  0.3183657E+04  0.7818609E-02  0.8193147E-01
       -2   -1    0    0    0  501  0.00000000000E+00  0.00000000000E+00  0.19083158134E+04  0.19083158134E+04  0.25500000920E-02 0. -1.
        2   -1    0    0  501    0  0.00000000000E+00  0.00000000000E+00 -0.13278291902E+04  0.13278291902E+04  0.25500000920E-02 0.  1.
    10030    2    1    2    0    0  0.00000000000E+00  0.00000000000E+00  0.58048662327E+03  0.32361450036E+04  0.31836566656E+04 0.  0.
        1    1    3    3  502    0 -0.56960371628E+03 -0.95167432162E+03  0.14509025768E+04  0.18262668741E+04  0.50400001928E-02 0. -1.
       -1    1    3    3    0  502  0.56960371628E+03  0.95167432162E+03 -0.87041595351E+03  0.14098781295E+04  0.50400001928E-02 0.  1.
</event>
<event>
 5   0  0.2783875E-07  0.3204268E+04  0.7818609E-02  0.8187691E-01
        1   -1    0    0  501    0  0.00000000000E+00  0.00000000000E+00  0.19159983836E+04  0.19159983836E+04  0.50400001928E-02 0.  1.
       -1   -1    0    0    0  501  0.00000000000E+00  0.00000000000E+00 -0.13396847735E+04  0.13396847735E+04  0.50400001928E-02 0. -1.
    10030    2    1    2    0    0  0.00000000000E+00  0.00000000000E+00  0.57631361012E+03  0.32556831570E+04  0.32042683161E+04 0.  0.
        2    1    3    3  502    0  0.72829517907E+02  0.12395082008E+04  0.13168995454E+04  0.18099472731E+04  0.25500000920E-02 0.  1.
       -2    1    3    3    0  502 -0.72829517907E+02 -0.12395082008E+04 -0.74058593528E+03  0.14457358840E+04  0.25500000920E-02 0. -1.
</event>
<event>
 5   0  0.8195618E-07  0.3180554E+04  0.7818609E-02  0.8193972E-01
        2   -1    0    0  501    0  0.00000000000E+00  0.00000000000E+00  0.19390898539E+04  0.19390898539E+04  0.25500000920E-02 0.  1.
       -2   -1    0    0    0  501  0.00000000000E+00  0.00000000000E+00 -0.13042100932E+04  0.13042100933E+04  0.25500000920E-02 0. -1.
    10030    2    1    2    0    0  0.00000000000E+00  0.00000000000E+00  0.63487976063E+03  0.32432999471E+04  0.31805537626E+04 0.  0.
        1    1    3    3  502    0 -0.12639222858E+04  0.73430349669E+03  0.95611811929E+03  0.17466719864E+04  0.50400001928E-02 0.  1.
       -1    1    3    3    0  502  0.12639222858E+04 -0.73430349669E+03 -0.32123835866E+03  0.14966279608E+04  0.50400001928E-02 0. -1.
</event>
<event>
 5   0  0.2783875E-07  0.3214305E+04  0.7818609E-02  0.8185049E-01
        4   -1    0    0  501    0  0.00000000000E+00  0.00000000000E+00  0.17778442978E+04  0.17778447514E+04  0.12699999809E+01 0. -1.
       -4   -1    0    0    0  501  0.00000000000E+00  0.00000000000E+00 -0.14528482518E+04  0.14528488069E+04  0.12699999809E+01 0.  1.
    10030    2    1    2    0    0  0.00000000000E+00  0.00000000000E+00  0.32499604592E+03  0.32306935583E+04  0.32143052807E+04 0.  0.
        4    1    3    3  502    0 -0.39660100270E+03  0.71879330593E+03 -0.12262055110E+04  0.14756482440E+04  0.12699999809E+01 0.  1.
       -4    1    3    3    0  502  0.39660100270E+03 -0.71879330593E+03  0.15512015569E+04  0.17550453143E+04  0.12699999809E+01 0. -1.
</event>
<event>
 5   0  0.8802800E-07  0.3204548E+04  0.7818609E-02  0.8187617E-01
        2   -1    0    0  501    0  0.00000000000E+00  0.00000000000E+00  0.21391260035E+04  0.21391260035E+04  0.25500000920E-02 0. -1.
       -2   -1    0    0    0  501  0.00000000000E+00  0.00000000000E+00 -0.12001543683E+04  0.12001543683E+04  0.25500000920E-02 0.  1.
    10030    2    1    2    0    0  0.00000000000E+00  0.00000000000E+00  0.93897163516E+03  0.33392803717E+04  0.32045476544E+04 0.  0.
        5    1    3    3  502    0 -0.97525201592E+03 -0.58562737837E+03  0.16452808886E+04  0.20002617862E+04  0.46999998093E+01 0. -1.
       -5    1    3    3    0  502  0.97525201592E+03  0.58562737837E+03 -0.70630925349E+03  0.13390185855E+04  0.46999998093E+01 0.  1.
</event>
<event>
 5   0  0.3075756E-07  0.3191976E+04  0.7818609E-02  0.8190940E-01
        1   -1    0    0  501    0  0.00000000000E+00  0.00000000000E+00  0.19469091410E+04  0.19469091410E+04  0.50400001928E-02 0. -1.
       -1   -1    0    0    0  501  0.00000000000E+00  0.00000000000E+00 -0.13083184898E+04  0.13083184898E+04  0.50400001928E-02 0.  1.
    10030    2    1    2    0    0  0.00000000000E+00  0.00000000000E+00  0.63859065122E+03  0.32552276308E+04  0.31919757061E+04 0.  0.
        5    1    3    3  502    0  0.65404230087E+03  0.20289105460E+03  0.17894649455E+04  0.19160227015E+04  0.46999998093E+01 0. -1.
       -5    1    3    3    0  502 -0.65404230087E+03 -0.20289105460E+03 -0.11508742943E+04  0.13392049293E+04  0.46999998093E+01 0.  1.
</event>
<event>
 5   0  0.3013888E-07  0.3211709E+04  0.7818609E-02  0.8185732E-01
       -1   -1    0    0    0  501  0.00000000000E+00  0.00000000000E+00  0.12414127017E+04  0.12414127017E+04  0.50400001928E-02 0. -1.
        1   -1    0    0  501    0  0.00000000000E+00  0.00000000000E+00 -0.20772856353E+04  0.20772856353E+04  0.50400001928E-02 0.  1.
    10030    2    1    2    0    0  0.00000000000E+00  0.00000000000E+00 -0.83587293361E+03  0.33186983370E+04  0.32117090607E+04 0.  0.
        1    1    3    3  502    0 -0.70254935210E+03 -0.47682525591E+03  0.99049158566E+03  0.13046116273E+04  0.50400001928E-02 0. -1.
       -1    1    3    3    0  502  0.70254935210E+03  0.47682525591E+03 -0.18263645193E+04  0.20140867097E+04  0.50400001928E-02 0.  1.
</event>
<event>
 5   0  0.2997105E-07  0.3198242E+04  0.7818609E-02  0.8189282E-01
        1   -1    0    0  501    0  0.00000000000E+00  0.00000000000E+00  0.14742411575E+04  0.14742411575E+04  0.50400001928E-02 0.  1.
       -1   -1    0    0    0  501  0.00000000000E+00  0.00000000000E+00 -0.17345787011E+04  0.17345787011E+04  0.50400001928E-02 0. -1.
    10030    2    1    2    0    0  0.00000000000E+00  0.00000000000E+00 -0.26033754360E+03  0.32088198585E+04  0.31982415869E+04 0.  0.
        3    1    3    3  502    0  0.78480206192E+03  0.12407786903E+04 -0.76609581358E+03  0.16560038770E+04  0.10100000352E+00 0. -1.
       -3    1    3    3    0  502 -0.78480206192E+03 -0.12407786903E+04  0.50575826999E+03  0.15528159816E+04  0.10100000352E+00 0.  1.
</event>
<event>
 5   0  0.2997105E-07  0.3194022E+04  0.7818609E-02  0.8190398E-01
        1   -1    0    0  501    0  0.00000000000E+00  0.00000000000E+00  0.17444760876E+04  0.17444760876E+04  0.50400001928E-02 0.  1.
       -1   -1    0    0    0  501  0.00000000000E+00  0.00000000000E+00 -0.14620111475E+04  0.14620111475E+04  0.50400001928E-02 0. -1.
    10030    2    1    2    0    0  0.00000000000E+00  0.00000000000E+00  0.28246494017E+03  0.32064872351E+04  0.31940215945E+04 0.  0.
        3    1    3    3  502    0  0.12976239817E+04  0.90417798387E+03  0.36363184163E+03  0.16228351582E+04  0.10100000352E+00 0.  1.
       -3    1    3    3    0  502 -0.12976239817E+04 -0.90417798387E+03 -0.81166901460E+02  0.15836520768E+04  0.10100000352E+00 0. -1.
</event>
<event>
 5   0  0.8195618E-07  0.3202542E+04  0.7818609E-02  0.8188146E-01
        2   -1    0    0  501    0  0.00000000000E+00  0.00000000000E+00  0.22970941844E+04  0.22970941844E+04  0.25500000920E-02 0. -1.
       -2   -1    0    0    0  501  0.00000000000E+00  0.00000000000E+00 -0.11162230106E+04  0.11162230106E+04  0.25500000920E-02 0.  1.
    10030    2    1    2    0    0  0.00000000000E+00  0.00000000000E+00  0.11808711738E+04  0.34133171949E+04  0.32025423563E+04 0.  0.
        1    1    3    3  502    0  0.25000049771E+03 -0.21369143194E+03 -0.10798377849E+04  0.11288108428E+04  0.50400001928E-02 0.  1.
       -1    1    3    3    0  502 -0.25000049771E+03  0.21369143194E+03  0.22607089587E+04  0.22845063522E+04  0.50400001928E-02 0. -1.
</event>
<event>
 5   0  0.2891204E-07  0.3199179E+04  0.7818609E-02  0.8189034E-01
        1   -1    0    0  501    0  0.00000000000E+00  0.00000000000E+00  0.22130875487E+04  0.22130875487E+04  0.50400001928E-02 0. -1.
       -1   -1    0    0    0  501  0.00000000000E+00  0.00000000000E+00 -0.11561617704E+04  0.11561617704E+04  0.50400001928E-02 0.  1.
    10030    2    1    2    0    0  0.00000000000E+00  0.00000000000E+00  0.10569257783E+04  0.33692493191E+04  0.31991794063E+04 0.  0.
        4    1    3    3  502    0  0.11647627175E+04  0.45757008175E+03 -0.52081640831E+03  0.13554681522E+04  0.12699999809E+01 0.  1.
       -4    1    3    3    0  502 -0.11647627175E+04 -0.45757008175E+03  0.15777421866E+04  0.20137811669E+04  0.12699999809E+01 0. -1.
</event>
<event>
 5   0  0.3013888E-07  0.3186441E+04  0.7818609E-02  0.8192407E-01
        1   -1    0    0  501    0  0.00000000000E+00  0.00000000000E+00  0.13653476782E+04  0.13653476782E+04  0.50400001928E-02 0. -1.
       -1   -1    0    0    0  501  0.00000000000E+00  0.00000000000E+00 -0.18591250417E+04  0.18591250417E+04  0.50400001928E-02 0.  1.
    10030    2    1    2    0    0  0.00000000000E+00  0.00000000000E+00 -0.49377736352E+03  0.32244727199E+04  0.31864413123E+04 0.  0.
        1    1    3    3  502    0 -0.46141763915E+03  0.13129203435E+04  0.53805361855E+03  0.14920347725E+04  0.50400001928E-02 0. -1.
       -1    1    3    3    0  502  0.46141763915E+03 -0.13129203435E+04 -0.10318309821E+04  0.17324379474E+04  0.50400001928E-02 0.  1.
</event>
<event>
 5   0  0.8838951E-07  0.3214319E+04  0.7818609E-02  0.8185046E-01
       -2   -1    0    0    0  501  0.00000000000E+00  0.00000000000E+00  0.14446130721E+04  0.14446130721E+04  0.25500000920E-02 0.  1.
        2   -1    0    0  501    0  0.00000000000E+00  0.00000000000E+00 -0.17879955216E+04  0.17879955216E+04  0.25500000920E-02 0. -1.
    10030    2    1    2    0    0  0.00000000000E+00  0.00000000000E+00 -0.34338244949E+03  0.32326085938E+04  0.32143190280E+04 0.  0.
        2    1    3    3  502    0 -0.47720791313E+03  0.14242810958E+03 -0.17084397363E+04  0.17795447427E+04  0.25500000920E-02 0. -1.
       -2    1    3    3    0  502  0.47720791313E+03 -0.14242810958E+03  0.13650572868E+04  0.14530638510E+04  0.25500000920E-02 0.  1.
</event>
<event>
 5   0  0.2997105E-07  0.3232477E+04  0.7818609E-02  0.8180292E-01
       -1   -1    0    0    0  501  0.00000000000E+00  0.00000000000E+00  0.10303369589E+04  0.10303369589E+04  0.50400001928E-02 0. -1.
        1   -1    0    0  501    0  0.00000000000E+00  0.00000000000E+00 -0.25353135467E+04  0.25353135468E+04  0.50400001928E-02 0.  1.
    10030    2    1    2    0    0  0.00000000000E+00  0.00000000000E+00 -0.15049765878E+04  0.35656505057E+04  0.32324772232E+04 0.  0.
        3    1    3    3  502    0  0.38110533544E+03  0.15801105015E+03 -0.24762521553E+04  0.25103851329E+04  0.10100000352E+00 0.  1.
       -3    1    3    3    0  502 -0.38110533544E+03 -0.15801105015E+03  0.97127556749E+03  0.10552653727E+04  0.10100000352E+00 0. -1.
</event>
<event>
 5   0  0.8488469E-07  0.3142501E+04  0.7818609E-02  0.8204170E-01
       -2   -1    0    0    0  501  0.00000000000E+00  0.00000000000E+00  0.10178021270E+04  0.10178021270E+04  0.25500000920E-02 0. -1.
        2   -1    0    0  501    0  0.00000000000E+00  0.00000000000E+00 -0.24256460916E+04  0.24256460916E+04  0.25500000920E-02 0.  1.
    10030    2    1    2    0    0  0.00000000000E+00  0.00000000000E+00 -0.14078439646E+04  0.34434482186E+04  0.31425007566E+04 0.  0.
        3    1    3    3  502    0  0.67087141343E+03 -0.12404440569E+04 -0.14631372695E+04  0.20321271100E+04  0.10100000352E+00 0.  1.
       -3    1    3    3    0  502 -0.67087141343E+03  0.12404440569E+04  0.55293304864E+02  0.14113211086E+04  0.10100000352E+00 0. -1.
</event>
<event>
 5   0  0.3013888E-07  0.3216940E+04  0.7818609E-02  0.8184358E-01
        1   -1    0    0  501    0  0.00000000000E+00  0.00000000000E+00  0.13716058505E+04  0.13716058505E+04  0.50400001928E-02 0.  1.
       -1   -1    0    0    0  501  0.00000000000E+00  0.00000000000E+00 -0.18862390408E+04  0.18862390408E+04  0.50400001928E-02 0. -1.
    10030    2    1    2    0    0  0.00000000000E+00  0.00000000000E+00 -0.51463319034E+03  0.32578448913E+04  0.32169404743E+04 0.  0.
        1    1    3    3  502    0  0.11586195931E+04 -0.11156224362E+04 -0.27027469020E+03  0.16309694019E+04  0.50400001928E-02 0.  1.
       -1    1    3    3    0  502 -0.11586195931E+04  0.11156224362E+04 -0.24435850014E+03  0.16268754895E+04  0.50400001928E-02 0. -1.
</event>
<event>
 5   0  0.8838951E-07  0.3206765E+04  0.7818609E-02  0.8187033E-01
       -2   -1    0    0    0  501  0.00000000000E+00  0.00000000000E+00  0.10222658671E+04  0.10222658671E+04  0.25500000920E-02 0. -1.
        2   -1    0    0  501    0  0.00000000000E+00  0.00000000000E+00 -0.25148401630E+04  0.25148401630E+04  0.25500000920E-02 0.  1.
    10030    2    1    2    0    0  0.00000000000E+00  0.00000000000E+00 -0.14925742958E+04  0.35371060301E+04  0.32067648869E+04 0.  0.
        2    1    3    3  502    0  0.11114332183E+04 -0.25135175398E+03  0.49790744780E+03  0.12435326010E+04  0.25500000920E-02 0. -1.
       -2    1    3    3    0  502 -0.11114332183E+04  0.25135175398E+03 -0.19904817436E+04  0.22935734291E+04  0.25500000920E-02 0.  1.
</event>
<event>
 5   0  0.2783875E-07  0.3181858E+04  0.7818609E-02  0.8193625E-01
        1   -1    0    0  501    0  0.00000000000E+00  0.00000000000E+00  0.14813082958E+04  0.14813082958E+04  0.50400001928E-02 0. -1.
       -1   -1    0    0    0  501  0.00000000000E+00  0.00000000000E+00 -0.17086618571E+04  0.17086618571E+04  0.50400001928E-02 0.  1.
    10030    2    1    2    0    0  0.00000000000E+00  0.00000000000E+00 -0.22735356131E+03  0.31899701528E+04  0.31818579375E+04 0.  0.
        2    1    3    3  502    0  0.13641811180E+04  0.81348435403E+03 -0.20505776254E+03  0.16014979247E+04  0.25500000920E-02 0.  1.
       -2    1    3    3    0  502 -0.13641811180E+04 -0.81348435403E+03 -0.22295798769E+02  0.15884722281E+04  0.25500000920E-02 0. -1.
</event>
<event>
 5   0  0.8488469E-07  0.3176911E+04  0.7818609E-02  0.8194942E-01
       -2   -1    0    0    0  501  0.00000000000E+00  0.00000000000E+00  0.19495839420E+04  0.19495839420E+04  0.25500000920E-02 0. -1.
        2   -1    0    0  501    0  0.00000000000E+00  0.00000000000E+00 -0.12942199424E+04  0.12942199424E+04  0.25500000920E-02 0.  1.
    10030    2    1    2    0    0  0.00000000000E+00  0.00000000000E+00  0.65536399963E+03  0.32438038844E+04  0.31769107115E+04 0.  0.
        3    1    3    3  502    0  0.33856459329E+03 -0.13614691353E+04  0.10883284693E+04  0.17755796399E+04  0.10100000352E+00 0.  1.
       -3    1    3    3    0  502 -0.33856459329E+03  0.13614691353E+04 -0.43296446965E+03  0.14682242446E+04  0.10100000352E+00 0. -1.
</event>
<event>
 5   0  0.8802800E-07  0.3146312E+04  0.7818609E-02  0.8203142E-01
        2   -1    0    0  501    0  0.00000000000E+00  0.00000000000E+00  0.19325749417E+04  0.19325749417E+04  0.25500000920E-02 0. -1.
       -2   -1    0    0    0  501  0.00000000000E+00  0.00000000000E+00 -0.12805816616E+04  0.12805816616E+04  0.25500000920E-02 0.  1.
    10030    2    1    2    0    0  0.00000000000E+00  0.00000000000E+00  0.65199328011E+03  0.32131566033E+04  0.31463121460E+04 0.  0.
        5    1    3    3  502    0  0.15657370310E+03 -0.84227653032E+03  0.16734418624E+04  0.18799933071E+04  0.46999998093E+01 0. -1.
       -5    1    3    3    0  502 -0.15657370310E+03  0.84227653032E+03 -0.10214485823E+04  0.13331632962E+04  0.46999998093E+01 0.  1.
</event>
<event>
 5   0  0.2783875E-07  0.3203931E+04  0.7818609E-02  0.8187780E-01
       -1   -1    0    0    0  501  0.00000000000E+00  0.00000000000E+00  0.13507611186E+04  0.13507611186E+04  0.50400001928E-02 0. -1.
        1   -1    0    0  501    0  0.00000000000E+00  0.00000000000E+00 -0.18998870912E+04  0.18998870912E+04  0.50400001928E-02 0.  1.
    10030    2    1    2    0    0  0.00000000000E+00  0.00000000000E+00 -0.54912597261E+03  0.32506482099E+04  0.32039310933E+04 0.  0.
        2    1    3    3  502    0 -0.12343837979E+04  0.75738487300E+03  0.42022766691E+03  0.15079544086E+04  0.25500000920E-02 0. -1.
       -2    1    3    3    0  502  0.12343837979E+04 -0.75738487300E+03 -0.96935363953E+03  0.17426938012E+04  0.25500000920E-02 0.  1.
</event>
<event>
 5   0  0.8488469E-07  0.3203157E+04  0.7818609E-02  0.8187984E-01
        2   -1    0    0  501    0  0.00000000000E+00  0.00000000000E+00  0.15327954060E+04  0.15327954060E+04  0.25500000920E-02 0. -1.
       -2   -1    0    0    0  501  0.00000000000E+00  0.00000000000E+00 -0.16734485664E+04  0.16734485664E+04  0.25500000920E-02 0.  1.
    10030    2    1    2    0    0  0.00000000000E+00  0.00000000000E+00 -0.14065316036E+03  0.32062439724E+04  0.32031573641E+04 0.  0.
        3    1    3    3  502    0  0.84179914662E+03  0.11187312068E+04 -0.84880922658E+03  0.16372728635E+04  0.10100000352E+00 0.  1.
       -3    1    3    3    0  502 -0.84179914662E+03 -0.11187312068E+04  0.70815606622E+03  0.15689711089E+04  0.10100000352E+00 0. -1.
</event>
<event>
 5   0  0.8195618E-07  0.3197316E+04  0.7818609E-02  0.8189526E-01
       -2   -1    0    0    0  501  0.00000000000E+00  0.00000000000E+00  0.97737931542E+03  0.97737931542E+03  0.25500000920E-02 0.  1.
        2   -1    0    0  501    0  0.00000000000E+00  0.00000000000E+00 -0.26148571659E+04  0.26148571659E+04  0.25500000920E-02 0. -1.
    10030    2    1    2    0    0  0.00000000000E+00  0.00000000000E+00 -0.16374778505E+04  0.35922364813E+04  0.31973159410E+04 0.  0.
        1    1    3    3  502    0 -0.31645244139E+03  0.14358409135E+04 -0.15238973612E+04  0.21175562434E+04  0.50400001928E-02 0. -1.
       -1    1    3    3    0  502  0.31645244139E+03 -0.14358409135E+04 -0.11358048923E+03  0.14746802379E+04  0.50400001928E-02 0.  1.
</event>
<event>
 5   0  0.3075756E-07  0.3151873E+04  0.7818609E-02  0.8201644E-01
        1   -1    0    0  501    0  0.00000000000E+00  0.00000000000E+00  0.22103934659E+04  0.22103934660E+04  0.50400001928E-02 0. -1.
       -1   -1    0    0    0  501  0.00000000000E+00  0.00000000000E+00 -0.11235899275E+04  0.11235899276E+04  0.50400001928E-02 0.  1.
    10030    2    1    2    0    0  0.00000000000E+00  0.00000000000E+00  0.10868035384E+04  0.33339833935E+04  0.31518729887E+04 0.  0.
        5    1    3    3  502    0  0.71850115253E+03  0.10916999029E+04 -0.38810485973E+03  0.13633415039E+04  0.46999998093E+01 0.  1.
       -5    1    3    3    0  502 -0.71850115253E+03 -0.10916999029E+04  0.14749083981E+04  0.19706418896E+04  0.46999998093E+01 0. -1.
</event>
<event>
 5   0  0.8488469E-07  0.3194359E+04  0.7818609E-02  0.8190309E-01
       -2   -1    0    0    0  501  0.00000000000E+00  0.00000000000E+00  0.13570933345E+04  0.13570933345E+04  0.25500000920E-02 0.  1.
        2   -1    0    0  501    0  0.00000000000E+00  0.00000000000E+00 -0.18797395702E+04  0.18797395702E+04  0.25500000920E-02 0. -1.
    10030    2    1    2    0    0  0.00000000000E+00  0.00000000000E+00 -0.52264623574E+03  0.32368329047E+04  0.31943588035E+04 0.  0.
        3    1    3    3  502    0 -0.12607095517E+04  0.79553137514E+03 -0.84229059446E+03  0.17122243423E+04  0.10100000352E+00 0. -1.
       -3    1    3    3    0  502  0.12607095517E+04 -0.79553137514E+03  0.31964435872E+03  0.15246085625E+04  0.10100000352E+00 0.  1.
</event>
<event>
 5   0  0.2891204E-07  0.3221025E+04  0.7818609E-02  0.8183286E-01
       -1   -1    0    0    0  501  0.00000000000E+00  0.00000000000E+00  0.14309284481E+04  0.14309284481E+04  0.50400001928E-02 0.  1.
        1   -1    0    0  501    0  0.00000000000E+00  0.00000000000E+00 -0.18126350760E+04  0.18126350760E+04  0.50400001928E-02 0. -1.
    10030    2    1    2    0    0  0.00000000000E+00  0.00000000000E+00 -0.38170662792E+03  0.32435635241E+04  0.32210253623E+04 0.  0.
        4    1    3    3  502    0 -0.64899291444E+03 -0.26609951596E+03  0.12690317321E+04  0.14499806569E+04  0.12699999809E+01 0.  1.
       -4    1    3    3    0  502  0.64899291444E+03  0.26609951596E+03 -0.16507383600E+04  0.17935828672E+04  0.12699999809E+01 0. -1.
</event>
<event>
 5   0  0.3013888E-07  0.3150812E+04  0.7818609E-02  0.8201930E-01
        1   -1    0    0  501    0  0.00000000000E+00  0.00000000000E+00  0.19199469366E+04  0.19199469366E+04  0.50400001928E-02 0. -1.
       -1   -1    0    0    0  501  0.00000000000E+00  0.00000000000E+00 -0.12926940211E+04  0.12926940211E+04  0.50400001928E-02 0.  1.
    10030    2    1    2    0    0  0.00000000000E+00  0.00000000000E+00  0.62725291553E+03  0.32126409577E+04  0.31508119117E+04 0.  0.
        1    1    3    3  502    0  0.13737282000E+04 -0.70001622379E+03  0.64363179799E+03  0.16707524569E+04  0.50400001928E-02 0. -1.
       -1    1    3    3    0  502 -0.13737282000E+04  0.70001622379E+03 -0.16378882454E+02  0.15418885008E+04  0.50400001928E-02 0.  1.
</event>
<event>
 5   0  0.2997105E-07  0.3234297E+04  0.7818609E-02  0.8179818E-01
        1   -1    0    0  501    0  0.00000000000E+00  0.00000000000E+00  0.23756674543E+04  0.23756674543E+04  0.50400001928E-02 0.  1.
       -1   -1    0    0    0  501  0.00000000000E+00  0.00000000000E+00 -0.11008147372E+04  0.11008147373E+04  0.50400001928E-02 0. -1.
    10030    2    1    2    0    0  0.00000000000E+00  0.00000000000E+00  0.12748527171E+04  0.34764821916E+04  0.32342972928E+04 0.  0.
        3    1    3    3  502    0 -0.41423829057E+03  0.15616426847E+04  0.71227151483E+03  0.17656873894E+04  0.10100000352E+00 0.  1.
       -3    1    3    3    0  502  0.41423829057E+03 -0.15616426847E+04  0.56258120224E+03  0.17107948022E+04  0.10100000352E+00 0. -1.
</event>
<event>
 5   0  0.8335929E-07  0.3199490E+04  0.7818609E-02  0.8188952E-01
        2   -1    0    0  501    0  0.00000000000E+00  0.00000000000E+00  0.23103110152E+04  0.23103110152E+04  0.25500000920E-02 0.  1.
       -2   -1    0    0    0  501  0.00000000000E+00  0.00000000000E+00 -0.11077225270E+04  0.11077225270E+04  0.25500000920E-02 0. -1.
    10030    2    1    2    0    0  0.00000000000E+00  0.00000000000E+00  0.12025884882E+04  0.34180335422E+04  0.31994896817E+04 0.  0.
        4    1    3    3  502    0 -0.85146854960E+03  0.72133930284E+03 -0.62323446634E+03  0.12781830439E+04  0.12699999809E+01 0. -1.
       -4    1    3    3    0  502  0.85146854960E+03 -0.72133930284E+03  0.18258229545E+04  0.21398504983E+04  0.12699999809E+01 0.  1.
</event>
<event>
 5   0  0.8335929E-07  0.3208626E+04  0.7818609E-02  0.8186543E-01
        2   -1    0    0  501    0  0.00000000000E+00  0.00000000000E+00  0.26285635106E+04  0.26285635106E+04  0.25500000920E-02 0. -1.
       -2   -1    0    0    0  501  0.00000000000E+00  0.00000000000E+00 -0.97917368038E+03  0.97917368038E+03  0.25500000920E-02 0.  1.
    10030    2    1    2    0    0  0.00000000000E+00  0.00000000000E+00  0.16493898302E+04  0.36077371910E+04  0.32086260030E+04 0.  0.
        4    1    3    3  502    0  0.70884277201E+03  0.14696458885E+03  0.24344785420E+04  0.25398315004E+04  0.12699999809E+01 0. -1.
       -4    1    3    3    0  502 -0.70884277201E+03 -0.14696458885E+03 -0.78508871178E+03  0.10679056906E+04  0.12699999809E+01 0.  1.
</event>
<event>
 5   0  0.2783875E-07  0.3188964E+04  0.7818609E-02  0.8191738E-01
        1   -1    0    0  501    0  0.00000000000E+00  0.00000000000E+00  0.17385805271E+04  0.17385805271E+04  0.50400001928E-02 0.  1.
       -1   -1    0    0    0  501  0.00000000000E+00  0.00000000000E+00 -0.14623267004E+04  0.14623267004E+04  0.50400001928E-02 0. -1.
    10030    2    1    2    0    0  0.00000000000E+00  0.00000000000E+00  0.27625382670E+03  0.32009072275E+04  0.31889639230E+04 0.  0.
        2    1    3    3  502    0  0.10918576489E+04 -0.13080418969E+03  0.12970549035E+04  0.17004747232E+04  0.25500000920E-02 0.  1.
       -2    1    3    3    0  502 -0.10918576489E+04  0.13080418969E+03 -0.10208010768E+04  0.15004325043E+04  0.25500000920E-02 0. -1.
</event>
<event>
 5   0  0.2997105E-07  0.3197639E+04  0.7818609E-02  0.8189441E-01
        1   -1    0    0  501    0  0.00000000000E+00  0.00000000000E+00  0.24644397831E+04  0.24644397831E+04  0.50400001928E-02 0. -1.
       -1   -1    0    0    0  501  0.00000000000E+00  0.00000000000E+00 -0.10372431761E+04  0.10372431761E+04  0.50400001928E-02 0.  1.
    10030    2    1    2    0    0  0.00000000000E+00  0.00000000000E+00  0.14271966070E+04  0.35016829592E+04  0.31976387213E+04 0.  0.
        3    1    3    3  502    0  0.15803007467E+04 -0.11873341069E+03  0.48187670755E+03  0.16563976709E+04  0.10100000352E+00 0. -1.
       -3    1    3    3    0  502 -0.15803007467E+04  0.11873341069E+03  0.94531989943E+03  0.18452852883E+04  0.10100000352E+00 0.  1.
</event>
<event>
 5   0  0.3075756E-07  0.3197243E+04  0.7818609E-02  0.8189546E-01
       -1   -1    0    0    0  501  0.00000000000E+00  0.00000000000E+00  0.17671970997E+04  0.17671970997E+04  0.50400001928E-02 0.  1.
        1   -1    0    0  501    0  0.00000000000E+00  0.00000000000E+00 -0.14461267210E+04  0.14461267210E+04  0.50400001928E-02 0. -1.
    10030    2    1    2    0    0  0.00000000000E+00  0.00000000000E+00  0.32107037870E+03  0.32133238207E+04  0.31972431545E+04 0.  0.
        5    1    3    3  502    0  0.90308538843E+03  0.68949367299E+03 -0.96966694309E+03  0.14937338499E+04  0.46999998093E+01 0. -1.
       -5    1    3    3    0  502 -0.90308538843E+03 -0.68949367299E+03  0.12907373218E+04  0.17195899708E+04  0.46999998093E+01 0.  1.
</event>
<event>
 5   0  0.8838951E-07  0.3186287E+04  0.7818609E-02  0.8192448E-01
       -2   -1    0    0    0  501  0.00000000000E+00  0.00000000000E+00  0.11165347907E+04  0.11165347907E+04  0.25500000920E-02 0. -1.
        2   -1    0    0  501    0  0.00000000000E+00  0.00000000000E+00 -0.22731997674E+04  0.22731997674E+04  0.25500000920E-02 0.  1.
    10030    2    1    2    0    0  0.00000000000E+00  0.00000000000E+00 -0.11566649767E+04  0.33897345581E+04  0.31862872604E+04 0.  0.
        2    1    3    3  502    0 -0.14016328790E+04 -0.57499841608E+03 -0.54005373821E+02  0.15159533259E+04  0.25500000920E-02 0.  1.
       -2    1    3    3    0  502  0.14016328790E+04  0.57499841608E+03 -0.11026596029E+04  0.18737812321E+04  0.25500000920E-02 0. -1.
</event>
<event>
 5   0  0.8488469E-07  0.3190082E+04  0.7818609E-02  0.8191442E-01
        2   -1    0    0  501    0  0.00000000000E+00  0.00000000000E+00  0.10442472237E+04  0.10442472237E+04  0.25500000920E-02 0.  1.
       -2   -1    0    0    0  501  0.00000000000E+00  0.00000000000E+00 -0.24363531847E+04  0.24363531847E+04  0.25500000920E-02 0. -1.
    10030    2    1    2    0    0  0.00000000000E+00  0.00000000000E+00 -0.13921059610E+04  0.34806004084E+04  0.31900815344E+04 0.  0.
        3    1    3    3  502    0  0.56634334265E+03 -0.14888375268E+04 -0.78584657473E+03  0.17762141797E+04  0.10100000352E+00 0. -1.
       -3    1    3    3    0  502 -0.56634334265E+03  0.14888375268E+04 -0.60625938632E+03  0.17043862287E+04  0.10100000352E+00 0.  1.
</event>
<event>
 5   0  0.8195618E-07  0.3175153E+04  0.7818609E-02  0.8195410E-01
        2   -1    0    0  501    0  0.00000000000E+00  0.00000000000E+00  0.15841909407E+04  0.15841909407E+04  0.25500000920E-02 0. -1.
       -2   -1    0    0    0  501  0.00000000000E+00  0.00000000000E+00 -0.15909692266E+04  0.15909692266E+04  0.25500000920E-02 0.  1.
    10030    2    1    2    0    0  0.00000000000E+00  0.00000000000E+00 -0.67782858884E+01  0.31751601674E+04  0.31751529323E+04 0.  0.
        1    1    3    3  502    0  0.27652407096E+03  0.69711486206E+03  0.13958868363E+04  0.15845929296E+04  0.50400001928E-02 0. -1.
       -1    1    3    3    0  502 -0.27652407096E+03 -0.69711486206E+03 -0.14026651222E+04  0.15905672378E+04  0.50400001928E-02 0.  1.
</event>
<event>
 5   0  0.8838951E-07  0.3205390E+04  0.7818609E-02  0.8187395E-01
        2   -1    0    0  501    0  0.00000000000E+00  0.00000000000E+00  0.14294740079E+04  0.14294740079E+04  0.25500000920E-02 0. -1.
       -2   -1    0    0    0  501  0.00000000000E+00  0.00000000000E+00 -0.17969068477E+04  0.17969068477E+04  0.25500000920E-02 0.  1.
    10030    2    1    2    0    0  0.00000000000E+00  0.00000000000E+00 -0.36743283975E+03  0.32263808556E+04  0.32053902311E+04 0.  0.
        2    1    3    3  502    0  0.70655084870E+03  0.10800661850E+04 -0.11401359437E+04  0.17221112147E+04  0.25500000920E-02 0.  1.
       -2    1    3    3    0  502 -0.70655084870E+03 -0.10800661850E+04  0.77270310391E+03  0.15042696409E+04  0.25500000920E-02 0. -1.
</event>
<event>
 5   0  0.8488469E-07  0.3201376E+04  0.7818609E-02  0.8188454E-01
       -2   -1    0    0    0  501  0.00000000000E+00  0.00000000000E+00  0.28861661449E+04  0.28861661449E+04  0.25500000920E-02 0.  1.
        2   -1    0    0  501    0  0.00000000000E+00  0.00000000000E+00 -0.88775277267E+03  0.88775277267E+03  0.25500000920E-02 0. -1.
    10030    2    1    2    0    0  0.00000000000E+00  0.00000000000E+00  0.19984133723E+04  0.37739189176E+04  0.32013759527E+04 0.  0.
        3    1    3    3  502    0 -0.20359850433E+03  0.10581593698E+04 -0.39614105485E+03  0.11480772397E+04  0.10100000352E+00 0. -1.
       -3    1    3    3    0  502  0.20359850433E+03 -0.10581593698E+04  0.23945544271E+04  0.26258416779E+04  0.10100000352E+00 0.  1.
</event>
<event>
 5   0  0.2997105E-07  0.3203679E+04  0.7818609E-02  0.8187846E-01
        1   -1    0    0  501    0  0.00000000000E+00  0.00000000000E+00  0.16440550198E+04  0.16440550198E+04  0.50400001928E-02 0.  1.
       -1   -1    0    0    0  501  0.00000000000E+00  0.00000000000E+00 -0.15607078930E+04  0.15607078930E+04  0.50400001928E-02 0. -1.
    10030    2    1    2    0    0  0.00000000000E+00  0.00000000000E+00  0.83347126766E+02  0.32047629128E+04  0.32036789139E+04 0.  0.
        3    1    3    3  502    0 -0.10359236493E+04  0.84770135610E+03 -0.83848449896E+03  0.15794909501E+04  0.10100000352E+00 0. -1.
       -3    1    3    3    0  502  0.10359236493E+04 -0.84770135610E+03  0.92183162573E+03  0.16252719627E+04  0.10100000352E+00 0.  1.
</event>
<event>
 5   0  0.8802800E-07  0.3141369E+04  0.7818609E-02  0.8204475E-01
        2   -1    0    0  501    0  0.00000000000E+00  0.00000000000E+00  0.21258396781E+04  0.21258396781E+04  0.25500000920E-02 0. -1.
       -2   -1    0    0    0  501  0.00000000000E+00  0.00000000000E+00 -0.11605061259E+04  0.11605061259E+04  0.25500000920E-02 0.  1.
    10030    2    1    2    0    0  0.00000000000E+00  0.00000000000E+00  0.96533355222E+03  0.32863458040E+04  0.31413691086E+04 0.  0.
        5    1    3    3  502    0  0.14051608857E+04  0.24593477803E+03 -0.20498689242E+03  0.14411810247E+04  0.46999998093E+01 0.  1.
       -5    1    3    3    0  502 -0.14051608857E+04 -0.24593477803E+03  0.11703204446E+04  0.18451647793E+04  0.46999998093E+01 0. -1.
</event>
<event>
 5   0  0.3075756E-07  0.3206441E+04  0.7818609E-02  0.8187118E-01
       -1   -1    0    0    0  501  0.00000000000E+00  0.00000000000E+00  0.10949080508E+04  0.10949080508E+04  0.50400001928E-02 0.  1.
        1   -1    0    0  501    0  0.00000000000E+00  0.00000000000E+00 -0.23475174468E+04  0.23475174468E+04  0.50400001928E-02 0. -1.
    10030    2    1    2    0    0  0.00000000000E+00  0.00000000000E+00 -0.12526093960E+04  0.34424254976E+04  0.32064408630E+04 0.  0.
        5    1    3    3  502    0 -0.70829943576E+03 -0.13412532977E+04 -0.68813991334E+02  0.15183563332E+04  0.46999998093E+01 0.  1.
       -5    1    3    3    0  502  0.70829943576E+03  0.13412532977E+04 -0.11837954047E+04  0.19240691644E+04  0.46999998093E+01 0. -1.
</event>
<event>
 5   0  0.2997105E-07  0.3192514E+04  0.7818609E-02  0.8190797E-01
        1   -1    0    0  501    0  0.00000000000E+00  0.00000000000E+00  0.19614323487E+04  0.19614323487E+04  0.50400001928E-02 0.  1.
       -1   -1    0    0    0  501  0.00000000000E+00  0.00000000000E+00 -0.12990689528E+04  0.12990689528E+04  0.50400001928E-02 0. -1.
    10030    2    1    2    0    0  0.00000000000E+00  0.00000000000E+00  0.66236339591E+03  0.32605013015E+04  0.31925136600E+04 0.  0.
        3    1    3    3  502    0 -0.17763732148E+03  0.44137519045E+03 -0.12249693317E+04  0.13141221217E+04  0.10100000352E+00 0. -1.
       -3    1    3    3    0  502  0.17763732148E+03 -0.44137519045E+03  0.18873327277E+04  0.19463791799E+04  0.10100000352E+00 0.  1.
</event>
<event>
 5   0  0.8488469E-07  0.3190883E+04  0.7818609E-02  0.8191229E-01
        2   -1    0    0  501    0  0.00000000000E+00  0.00000000000E+00  0.26561189884E+04  0.26561189884E+04  0.25500000920E-02 0.  1.
       -2   -1    0    0    0  501  0.00000000000E+00  0.00000000000E+00 -0.95832828947E+03  0.95832828948E+03  0.25500000920E-02 0. -1.
    10030    2    1    2    0    0  0.00000000000E+00  0.00000000000E+00  0.16977906989E+04  0.36144472779E+04  0.31908832425E+04 0.  0.
        3    1    3    3  502    0  0.24351344420E+03  0.19689396202E+03 -0.92317358911E+03  0.97484127714E+03  0.10100000352E+00 0. -1.
       -3    1    3    3    0  502 -0.24351344420E+03 -0.19689396202E+03  0.26209642880E+04  0.26396060007E+04  0.10100000352E+00 0.  1.
</event>
<event>
 5   0  0.3013888E-07  0.3188853E+04  0.7818609E-02  0.8191767E-01
       -1   -1    0    0    0  501  0.00000000000E+00  0.00000000000E+00  0.16877804913E+04  0.16877804913E+04  0.50400001928E-02 0.  1.
        1   -1    0    0  501    0  0.00000000000E+00  0.00000000000E+00 -0.15062363277E+04  0.15062363277E+04  0.50400001928E-02 0. -1.
    10030    2    1    2    0    0  0.00000000000E+00  0.00000000000E+00  0.18154416358E+03  0.31940168189E+04  0.31888532667E+04 0.  0.
        1    1    3    3  502    0 -0.63438708172E+03  0.11658859810E+04 -0.79409444107E+03  0.15467136359E+04  0.50400001928E-02 0. -1.
       -1    1    3    3    0  502  0.63438708172E+03 -0.11658859810E+04  0.97563860465E+03  0.16473031831E+04  0.50400001928E-02 0.  1.
</event>
<event>
 5   0  0.2997105E-07  0.3226124E+04  0.7818609E-02  0.8181952E-01
       -1   -1    0    0    0  501  0.00000000000E+00  0.00000000000E+00  0.23957860463E+04  0.23957860463E+04  0.50400001928E-02 0.  1.
        1   -1    0    0  501    0  0.00000000000E+00  0.00000000000E+00 -0.10860604110E+04  0.10860604110E+04  0.50400001928E-02 0. -1.
    10030    2    1    2    0    0  0.00000000000E+00  0.00000000000E+00  0.13097256352E+04  0.34818464573E+04  0.32261236046E+04 0.  0.
        3    1    3    3  502    0  0.71952567720E+03  0.14079127941E+04  0.99960813046E+03  0.18706020584E+04  0.10100000352E+00 0.  1.
       -3    1    3    3    0  502 -0.71952567720E+03 -0.14079127941E+04  0.31011750478E+03  0.16112443989E+04  0.10100000352E+00 0. -1.
</event>
<event>
 5   0  0.2783875E-07  0.3203932E+04  0.7818609E-02  0.8187780E-01
       -1   -1    0    0    0  501  0.00000000000E+00  0.00000000000E+00  0.10472207051E+04  0.10472207051E+04  0.50400001928E-02 0. -1.
        1   -1    0    0  501    0  0.00000000000E+00  0.00000000000E+00 -0.24505771560E+04  0.24505771560E+04  0.50400001928E-02 0.  1.
    10030    2    1    2    0    0  0.00000000000E+00  0.00000000000E+00 -0.14033564508E+04  0.34977978611E+04  0.32039320450E+04 0.  0.
        2    1    3    3  502    0  0.14716506498E+04  0.22798674638E+03 -0.57136335725E+02  0.14903013630E+04  0.25500000920E-02 0. -1.
       -2    1    3    3    0  502 -0.14716506498E+04 -0.22798674638E+03 -0.13462201151E+04  0.20074964981E+04  0.25500000920E-02 0.  1.
</event>
<event>
 5   0  0.3075756E-07  0.3215109E+04  0.7818609E-02  0.8184838E-01
       -1   -1    0    0    0  501  0.00000000000E+00  0.00000000000E+00  0.20756001106E+04  0.20756001106E+04  0.50400001928E-02 0.  1.
        1   -1    0    0  501    0  0.00000000000E+00  0.00000000000E+00 -0.12450524597E+04  0.12450524597E+04  0.50400001928E-02 0. -1.
    10030    2    1    2    0    0  0.00000000000E+00  0.00000000000E+00  0.83054765090E+03  0.33206525702E+04  0.32151087216E+04 0.  0.
        5    1    3    3  502    0 -0.56790918417E+03 -0.91911922670E+03 -0.81414141428E+03  0.13528301175E+04  0.46999998093E+01 0. -1.
       -5    1    3    3    0  502  0.56790918417E+03  0.91911922670E+03  0.16446890652E+04  0.19678224527E+04  0.46999998093E+01 0.  1.
</event>
<event>
 5   0  0.8335929E-07  0.3200615E+04  0.7818609E-02  0.8188655E-01
        2   -1    0    0  501    0  0.00000000000E+00  0.00000000000E+00  0.24190241355E+04  0.24190241355E+04  0.25500000920E-02 0.  1.
       -2   -1    0    0    0  501  0.00000000000E+00  0.00000000000E+00 -0.10586845039E+04  0.10586845039E+04  0.25500000920E-02 0. -1.
    10030    2    1    2    0    0  0.00000000000E+00  0.00000000000E+00  0.13603396316E+04  0.34777086394E+04  0.32006145452E+04 0.  0.
        4    1    3    3  502    0 -0.13841016818E+02  0.10721067288E+04  0.19710364938E+04  0.22437894029E+04  0.12699999809E+01 0.  1.
       -4    1    3    3    0  502  0.13841016818E+02 -0.10721067288E+04 -0.61069686223E+03  0.12339192365E+04  0.12699999809E+01 0. -1.
</event>
<event>
 5   0  0.8195618E-07  0.3225698E+04  0.7818609E-02  0.8182063E-01
        2   -1    0    0  501    0  0.00000000000E+00  0.00000000000E+00  0.14463932582E+04  0.14463932582E+04  0.25500000920E-02 0. -1.
       -2   -1    0    0    0  501  0.00000000000E+00  0.00000000000E+00 -0.17984615372E+04  0.17984615372E+04  0.25500000920E-02 0.  1.
    10030    2    1    2    0    0  0.00000000000E+00  0.00000000000E+00 -0.35206827900E+03  0.32448547954E+04  0.32256984623E+04 0.  0.
        1    1    3    3  502    0 -0.13191969325E+04 -0.92057245862E+03 -0.58945108437E+02  0.16097231825E+04  0.50400001928E-02 0. -1.
       -1    1    3    3    0  502  0.13191969325E+04  0.92057245862E+03 -0.29312317056E+03  0.16351316129E+04  0.50400001928E-02 0.  1.
</event>
<event>
 5   0  0.2891204E-07  0.3201395E+04  0.7818609E-02  0.8188449E-01
       -1   -1    0    0    0  501  0.00000000000E+00  0.00000000000E+00  0.14941896867E+04  0.14941896867E+04  0.50400001928E-02 0.  1.
        1   -1    0    0  501    0  0.00000000000E+00  0.00000000000E+00 -0.17147971873E+04  0.17147971873E+04  0.50400001928E-02 0. -1.
    10030    2    1    2    0    0  0.00000000000E+00  0.00000000000E+00 -0.22060750060E+03  0.32089868741E+04  0.32013948661E+04 0.  0.
        4    1    3    3  502    0  0.59871035717E+03  0.10326839397E+04 -0.11792944795E+04  0.16779831028E+04  0.12699999809E+01 0. -1.
       -4    1    3    3    0  502 -0.59871035717E+03 -0.10326839397E+04  0.95868697893E+03  0.15310037712E+04  0.12699999809E+01 0.  1.
</event>
<event>
 5   0  0.8838951E-07  0.3202639E+04  0.7818609E-02  0.8188120E-01
        2   -1    0    0  501    0  0.00000000000E+00  0.00000000000E+00  0.17974743986E+04  0.17974743986E+04  0.25500000920E-02 0. -1.
       -2   -1    0    0    0  501  0.00000000000E+00  0.00000000000E+00 -0.14265709747E+04  0.14265709747E+04  0.25500000920E-02 0.  1.
    10030    2    1    2    0    0  0.00000000000E+00  0.00000000000E+00  0.37090342394E+03  0.32240453733E+04  0.32026394145E+04 0.  0.
        2    1    3    3  502    0  0.80251987211E+03 -0.88028828510E+03 -0.89187837002E+03  0.14880835450E+04  0.25500000920E-02 0.  1.
       -2    1    3    3    0  502 -0.80251987211E+03  0.88028828510E+03  0.12627817940E+04  0.17359618283E+04  0.25500000920E-02 0. -1.
</event>
<event>
 5   0  0.3075756E-07  0.3209447E+04  0.7818609E-02  0.8186327E-01
        1   -1    0    0  501    0  0.00000000000E+00  0.00000000000E+00  0.22191282457E+04  0.22191282457E+04  0.50400001928E-02 0.  1.
       -1   -1    0    0    0  501  0.00000000000E+00  0.00000000000E+00 -0.11604276035E+04  0.11604276035E+04  0.50400001928E-02 0. -1.
    10030    2    1    2    0    0  0.00000000000E+00  0.00000000000E+00  0.10587006422E+04  0.33795558492E+04  0.32094471000E+04 0.  0.
        5    1    3    3  502    0  0.14900673751E+03  0.13541690979E+04  0.14223179485E+04  0.19695145062E+04  0.46999998093E+01 0.  1.
       -5    1    3    3    0  502 -0.14900673751E+03 -0.13541690979E+04 -0.36361730628E+03  0.14100413430E+04  0.46999998093E+01 0. -1.
</event>
<event>
 5   0  0.8838951E-07  0.3024974E+04  0.7818609E-02  0.8236635E-01
       -2   -1    0    0    0  501  0.00000000000E+00  0.00000000000E+00  0.10770351567E+04  0.10770351567E+04  0.25500000920E-02 0. -1.
        2   -1    0    0  501    0  0.00000000000E+00  0.00000000000E+00 -0.21239950891E+04  0.21239950891E+04  0.25500000920E-02 0.  1.
    10030    2    1    2    0    0  0.00000000000E+00  0.00000000000E+00 -0.10469599325E+04  0.32010302458E+04  0.30249743031E+04 0.  0.
        2    1    3    3  502    0  0.15034422241E+04 -0.42283341839E+02 -0.69243119947E+03  0.16557739484E+04  0.25500000920E-02 0.  1.
       -2    1    3    3    0  502 -0.15034422241E+04  0.42283341839E+02 -0.35452873300E+03  0.15452562974E+04  0.25500000920E-02 0. -1.
</event>
<event>
 5   0  0.2891204E-07  0.3202913E+04  0.7818609E-02  0.8188048E-01
        1   -1    0    0  501    0  0.00000000000E+00  0.00000000000E+00  0.10678322078E+04  0.10678322078E+04  0.50400001928E-02 0. -1.
       -1   -1    0    0    0  501  0.00000000000E+00  0.00000000000E+00 -0.24017466382E+04  0.24017466382E+04  0.50400001928E-02 0.  1.
    10030    2    1    2    0    0  0.00000000000E+00  0.00000000000E+00 -0.13339144304E+04  0.34695788460E+04  0.32029126840E+04 0.  0.
        4    1    3    3  502    0 -0.11504798887E+04  0.10955866438E+04 -0.44829282435E+03  0.16507217020E+04  0.12699999809E+01 0.  1.
       -4    1    3    3    0  502  0.11504798887E+04 -0.10955866438E+04 -0.88562160600E+03  0.18188571440E+04  0.12699999809E+01 0. -1.
</event>
<event>
 5   0  0.2783875E-07  0.3212297E+04  0.7818609E-02  0.8185577E-01
       -1   -1    0    0    0  501  0.00000000000E+00  0.00000000000E+00  0.15047157246E+04  0.15047157246E+04  0.50400001928E-02 0.  1.
        1   -1    0    0  501    0  0.00000000000E+00  0.00000000000E+00 -0.17144184912E+04  0.17144184912E+04  0.50400001928E-02 0. -1.
    10030    2    1    2    0    0  0.00000000000E+00  0.00000000000E+00 -0.20970276659E+03  0.32191342157E+04  0.32122966626E+04 0.  0.
        2    1    3    3  502    0  0.69845060129E+03  0.76461342376E+03 -0.13351638939E+04  0.16897128613E+04  0.25500000920E-02 0. -1.
       -2    1    3    3    0  502 -0.69845060129E+03 -0.76461342376E+03  0.11254611273E+04  0.15294213544E+04  0.25500000920E-02 0.  1.
</event>
<event>
 5   0  0.2783875E-07  0.3190601E+04  0.7818609E-02  0.8191304E-01
       -1   -1    0    0    0  501  0.00000000000E+00  0.00000000000E+00  0.11376235844E+04  0.11376235844E+04  0.50400001928E-02 0.  1.
        1   -1    0    0  501    0  0.00000000000E+00  0.00000000000E+00 -0.22371046518E+04  0.22371046518E+04  0.50400001928E-02 0. -1.
    10030    2    1    2    0    0  0.00000000000E+00  0.00000000000E+00 -0.10994810674E+04  0.33747282362E+04  0.31906005783E+04 0.  0.
        2    1    3    3  502    0 -0.14386078246E+04 -0.12167675576E+03 -0.12675702041E+04  0.19212318778E+04  0.25500000920E-02 0. -1.
       -2    1    3    3    0  502  0.14386078246E+04  0.12167675576E+03  0.16808913667E+03  0.14534963584E+04  0.25500000920E-02 0.  1.
</event>
<event>
 5   0  0.8335929E-07  0.3194891E+04  0.7818609E-02  0.8190168E-01
        2   -1    0    0  501    0  0.00000000000E+00  0.00000000000E+00  0.22107002366E+04  0.22107002366E+04  0.25500000920E-02 0.  1.
       -2   -1    0    0    0  501  0.00000000000E+00  0.00000000000E+00 -0.11543096684E+04  0.11543096684E+04  0.25500000920E-02 0. -1.
    10030    2    1    2    0    0  0.00000000000E+00  0.00000000000E+00  0.10563905682E+04  0.33650099049E+04  0.31948913327E+04 0.  0.
        4    1    3    3  502    0 -0.75410741483E+03  0.99276454283E+03 -0.52377215360E+03  0.13522567480E+04  0.12699999809E+01 0. -1.
       -4    1    3    3    0  502  0.75410741483E+03 -0.99276454283E+03  0.15801627218E+04  0.20127531570E+04  0.12699999809E+01 0.  1.
</event>
<event>
 5   0  0.2783875E-07  0.3252884E+04  0.7818609E-02  0.8174989E-01
        3   -1    0    0  501    0  0.00000000000E+00  0.00000000000E+00  0.18348892040E+04  0.18348892068E+04  0.10100000352E+00 0.  1.
       -3   -1    0    0    0  501  0.00000000000E+00  0.00000000000E+00 -0.14416744715E+04  0.14416744750E+04  0.10100000352E+00 0. -1.
    10030    2    1    2    0    0  0.00000000000E+00  0.00000000000E+00  0.39321473254E+03  0.32765636818E+04  0.32528836030E+04 0.  0.
        2    1    3    3  502    0 -0.15416090638E+04  0.45610382800E+03  0.44482309428E+03  0.16680697805E+04  0.25500000920E-02 0.  1.
       -2    1    3    3    0  502  0.15416090638E+04 -0.45610382800E+03 -0.51608361732E+02  0.16084939013E+04  0.25500000920E-02 0. -1.
</event>
<event>
 5   0  0.8802800E-07  0.3201822E+04  0.7818609E-02  0.8188336E-01
        2   -1    0    0  501    0  0.00000000000E+00  0.00000000000E+00  0.24367168965E+04  0.24367168965E+04  0.25500000920E-02 0. -1.
       -2   -1    0    0    0  501  0.00000000000E+00  0.00000000000E+00 -0.10517908616E+04  0.10517908616E+04  0.25500000920E-02 0.  1.
    10030    2    1    2    0    0  0.00000000000E+00  0.00000000000E+00  0.13849260348E+04  0.34885077581E+04  0.32018223337E+04 0.  0.
        5    1    3    3  502    0 -0.97643407743E+03  0.10305763378E+04  0.14985618021E+04  0.20642724288E+04  0.46999998093E+01 0. -1.
       -5    1    3    3    0  502  0.97643407743E+03 -0.10305763378E+04 -0.11363576722E+03  0.14242353293E+04  0.46999998093E+01 0.  1.
</event>
<event>
 5   0  0.8802800E-07  0.3391389E+04  0.7818609E-02  0.8140023E-01
       -2   -1    0    0    0  501  0.00000000000E+00  0.00000000000E+00  0.14676773015E+04  0.14676773015E+04  0.25500000920E-02 0. -1.
        2   -1    0    0  501    0  0.00000000000E+00  0.00000000000E+00 -0.19591366242E+04  0.19591366242E+04  0.25500000920E-02 0.  1.
    10030    2    1    2    0    0  0.00000000000E+00  0.00000000000E+00 -0.49145932273E+03  0.34268139257E+04  0.33913893047E+04 0.  0.
        5    1    3    3  502    0  0.12141394231E+04 -0.10088956576E+04 -0.87135231657E+03  0.18031311478E+04  0.46999998093E+01 0.  1.
       -5    1    3    3    0  502 -0.12141394231E+04  0.10088956576E+04  0.37989299384E+03  0.16236827779E+04  0.46999998093E+01 0. -1.
</event>
<event>
 5   0  0.8335929E-07  0.3042357E+04  0.7818609E-02  0.8231738E-01
        2   -1    0    0  501    0  0.00000000000E+00  0.00000000000E+00  0.21144615812E+04  0.21144615812E+04  0.25500000920E-02 0.  1.
       -2   -1    0    0    0  501  0.00000000000E+00  0.00000000000E+00 -0.10943610770E+04  0.10943610770E+04  0.25500000920E-02 0. -1.
    10030    2    1    2    0    0  0.00000000000E+00  0.00000000000E+00  0.10201005042E+04  0.32088226581E+04  0.30423572789E+04 0.  0.
        4    1    3    3  502    0 -0.86907458874E+03 -0.63026938483E+03  0.16467251413E+04  0.19657658666E+04  0.12699999809E+01 0.  1.
       -4    1    3    3    0  502  0.86907458874E+03  0.63026938483E+03 -0.62662463711E+03  0.12430567915E+04  0.12699999809E+01 0. -1.
</event>
<event>
 5   0  0.2891204E-07  0.3214423E+04  0.7818609E-02  0.8185018E-01
       -1   -1    0    0    0  501  0.00000000000E+00  0.00000000000E+00  0.14613424074E+04  0.14613424074E+04  0.50400001928E-02 0. -1.
        1   -1    0    0  501    0  0.00000000000E+00  0.00000000000E+00 -0.17676412928E+04  0.17676412928E+04  0.50400001928E-02 0.  1.
    10030    2    1    2    0    0  0.00000000000E+00  0.00000000000E+00 -0.30629888539E+03  0.32289837001E+04  0.32144232342E+04 0.  0.
        4    1    3    3  502    0  0.10783587999E+04 -0.20234255586E+01  0.10439978971E+04  0.15009313834E+04  0.12699999809E+01 0. -1.
       -4    1    3    3    0  502 -0.10783587999E+04  0.20234255586E+01 -0.13502967825E+04  0.17280523167E+04  0.12699999809E+01 0.  1.
</event>
<event>
 5   0  0.2783875E-07  0.3182340E+04  0.7818609E-02  0.8193497E-01
        1   -1    0    0  501    0  0.00000000000E+00  0.00000000000E+00  0.20291071870E+04  0.20291071870E+04  0.50400001928E-02 0. -1.
       -1   -1    0    0    0  501  0.00000000000E+00  0.00000000000E+00 -0.12477514708E+04  0.12477514708E+04  0.50400001928E-02 0.  1.
    10030    2    1    2    0    0  0.00000000000E+00  0.00000000000E+00  0.78135571622E+03  0.32768586578E+04  0.31823396908E+04 0.  0.
        2    1    3    3  502    0 -0.15430598937E+04 -0.30394882945E+03  0.63952223057E+03  0.16977654166E+04  0.25500000920E-02 0. -1.
       -2    1    3    3    0  502  0.15430598937E+04  0.30394882945E+03  0.14183348565E+03  0.15790932411E+04  0.25500000920E-02 0.  1.
</event>
<event>
 5   0  0.8838951E-07  0.3219105E+04  0.7818609E-02  0.8183790E-01
       -2   -1    0    0    0  501  0.00000000000E+00  0.00000000000E+00  0.14553712876E+04  0.14553712876E+04  0.25500000920E-02 0.  1.
        2   -1    0    0  501    0  0.00000000000E+00  0.00000000000E+00 -0.17800674058E+04  0.17800674058E+04  0.25500000920E-02 0. -1.
    10030    2    1    2    0    0  0.00000000000E+00  0.00000000000E+00 -0.32469611820E+03  0.32354386935E+04  0.32191048399E+04 0.  0.
        2    1    3    3  502    0 -0.56175731599E+03 -0.61695713330E+03 -0.15457227052E+04  0.17565494777E+04  0.25500000920E-02 0. -1.
       -2    1    3    3    0  502  0.56175731599E+03  0.61695713330E+03  0.12210265870E+04  0.14788892158E+04  0.25500000920E-02 0.  1.
</event>
<event>
 5   0  0.2783875E-07  0.3200379E+04  0.7818609E-02  0.8188717E-01
       -1   -1    0    0    0  501  0.00000000000E+00  0.00000000000E+00  0.15257250759E+04  0.15257250759E+04  0.50400001928E-02 0.  1.
        1   -1    0    0  501    0  0.00000000000E+00  0.00000000000E+00 -0.16782878081E+04  0.16782878081E+04  0.50400001928E-02 0. -1.
    10030    2    1    2    0    0  0.00000000000E+00  0.00000000000E+00 -0.15256273222E+03  0.32040128840E+04  0.32003785985E+04 0.  0.
        2    1    3    3  502    0  0.35945334355E+02  0.10069570556E+04 -0.13208145906E+04  0.16612663127E+04  0.25500000920E-02 0. -1.
       -2    1    3    3    0  502 -0.35945334355E+02 -0.10069570556E+04  0.11682518583E+04  0.15427465714E+04  0.25500000920E-02 0.  1.
</event>
<event>
 5   0  0.8488469E-07  0.3199899E+04  0.7818609E-02  0.8188844E-01
       -2   -1    0    0    0  501  0.00000000000E+00  0.00000000000E+00  0.94631699718E+03  0.94631699718E+03  0.25500000920E-02 0.  1.
        2   -1    0    0  501    0  0.00000000000E+00  0.00000000000E+00 -0.27050543531E+04  0.27050543531E+04  0.25500000920E-02 0. -1.
    10030    2    1    2    0    0  0.00000000000E+00  0.00000000000E+00 -0.17587373559E+04  0.36513713503E+04  0.31998993188E+04 0.  0.
        3    1    3    3  502    0  0.12853116682E+04 -0.93077026664E+03 -0.11117689308E+04  0.19376247158E+04  0.10100000352E+00 0. -1.
       -3    1    3    3    0  502 -0.12853116682E+04  0.93077026664E+03 -0.64696842515E+03  0.17137466345E+04  0.10100000352E+00 0.  1.
</event>
<event>
 5   0  0.8802800E-07  0.3202406E+04  0.7818609E-02  0.8188182E-01
        2   -1    0    0  501    0  0.00000000000E+00  0.00000000000E+00  0.23523493871E+04  0.23523493871E+04  0.25500000920E-02 0. -1.
       -2   -1    0    0    0  501  0.00000000000E+00  0.00000000000E+00 -0.10899108791E+04  0.10899108791E+04  0.25500000920E-02 0.  1.
    10030    2    1    2    0    0  0.00000000000E+00  0.00000000000E+00  0.12624385080E+04  0.34422602662E+04  0.32024060882E+04 0.  0.
        5    1    3    3  502    0 -0.43272048553E+03  0.10483117390E+04 -0.58376018922E+03  0.12755401088E+04  0.46999998093E+01 0.  1.
       -5    1    3    3    0  502  0.43272048553E+03 -0.10483117390E+04  0.18461986972E+04  0.21667201574E+04  0.46999998093E+01 0. -1.
</event>
<event>
 5   0  0.3075756E-07  0.3206865E+04  0.7818609E-02  0.8187007E-01
        1   -1    0    0  501    0  0.00000000000E+00  0.00000000000E+00  0.15877843913E+04  0.15877843913E+04  0.50400001928E-02 0. -1.
       -1   -1    0    0    0  501  0.00000000000E+00  0.00000000000E+00 -0.16192343613E+04  0.16192343613E+04  0.50400001928E-02 0.  1.
    10030    2    1    2    0    0  0.00000000000E+00  0.00000000000E+00 -0.31449969972E+02  0.32070187526E+04  0.32068645402E+04 0.  0.
        5    1    3    3  502    0 -0.42444972046E+03  0.45005466365E+03  0.14636250933E+04  0.15890019727E+04  0.46999998093E+01 0. -1.
       -5    1    3    3    0  502  0.42444972046E+03 -0.45005466365E+03 -0.14950750633E+04  0.16180167800E+04  0.46999998093E+01 0.  1.
</event>
<event>
 5   0  0.2997105E-07  0.3199980E+04  0.7818609E-02  0.8188822E-01
        1   -1    0    0  501    0  0.00000000000E+00  0.00000000000E+00  0.19668021528E+04  0.19668021528E+04  0.50400001928E-02 0. -1.
       -1   -1    0    0    0  501  0.00000000000E+00  0.00000000000E+00 -0.13015891667E+04  0.13015891667E+04  0.50400001928E-02 0.  1.
    10030    2    1    2    0    0  0.00000000000E+00  0.00000000000E+00  0.66521298616E+03  0.32683913195E+04  0.31999802344E+04 0.  0.
        3    1    3    3  502    0  0.11189458657E+04  0.96065246457E+02  0.14965748395E+04  0.18710971761E+04  0.10100000352E+00 0. -1.
       -3    1    3    3    0  502 -0.11189458657E+04 -0.96065246457E+02 -0.83136185333E+03  0.13972941434E+04  0.10100000352E+00 0.  1.
</event>
<event>
 5   0  0.8488469E-07  0.3206834E+04  0.7818609E-02  0.8187015E-01
       -2   -1    0    0    0  501  0.00000000000E+00  0.00000000000E+00  0.13388863639E+04  0.13388863639E+04  0.25500000920E-02 0. -1.
        2   -1    0    0  501    0  0.00000000000E+00  0.00000000000E+00 -0.19202117337E+04  0.19202117337E+04  0.25500000920E-02 0.  1.
    10030    2    1    2    0    0  0.00000000000E+00  0.00000000000E+00 -0.58132536986E+03  0.32590980976E+04  0.32068335199E+04 0.  0.
        3    1    3    3  502    0 -0.49916243001E+03  0.26653718593E+03  0.12340348280E+04  0.13575887337E+04  0.10100000352E+00 0. -1.
       -3    1    3    3    0  502  0.49916243001E+03 -0.26653718593E+03 -0.18153601978E+04  0.19015093639E+04  0.10100000352E+00 0.  1.
</event>
<event>
 5   0  0.8195618E-07  0.3212857E+04  0.7818609E-02  0.8185430E-01
       -2   -1    0    0    0  501  0.00000000000E+00  0.00000000000E+00  0.13981789459E+04  0.13981789459E+04  0.25500000920E-02 0. -1.
        2   -1    0    0  501    0  0.00000000000E+00  0.00000000000E+00 -0.18456954708E+04  0.18456954708E+04  0.25500000920E-02 0.  1.
    10030    2    1    2    0    0  0.00000000000E+00  0.00000000000E+00 -0.44751652489E+03  0.32438744167E+04  0.32128570138E+04 0.  0.
        1    1    3    3  502    0  0.69980687724E+03 -0.10078202389E+04  0.82316168660E+03  0.14775068398E+04  0.50400001928E-02 0. -1.
       -1    1    3    3    0  502 -0.69980687724E+03  0.10078202389E+04 -0.12706782115E+04  0.17663675769E+04  0.50400001928E-02 0.  1.
</event>
<event>
 5   0  0.8195618E-07  0.3193068E+04  0.7818609E-02  0.8190650E-01
       -2   -1    0    0    0  501  0.00000000000E+00  0.00000000000E+00  0.16921580335E+04  0.16921580335E+04  0.25500000920E-02 0.  1.
        2   -1    0    0  501    0  0.00000000000E+00  0.00000000000E+00 -0.15063137618E+04  0.15063137618E+04  0.25500000920E-02 0. -1.
    10030    2    1    2    0    0  0.00000000000E+00  0.00000000000E+00  0.18584427168E+03  0.31984717953E+04  0.31930680750E+04 0.  0.
        1    1    3    3  502    0  0.10546594406E+04 -0.16956360871E+03 -0.10956197204E+04  0.15301767626E+04  0.50400001928E-02 0. -1.
       -1    1    3    3    0  502 -0.10546594406E+04  0.16956360871E+03  0.12814639921E+04  0.16682950327E+04  0.50400001928E-02 0.  1.
</event>
<event>
 5   0  0.8838951E-07  0.3204056E+04  0.7818609E-02  0.8187747E-01
        2   -1    0    0  501    0  0.00000000000E+00  0.00000000000E+00  0.13451985637E+04  0.13451985637E+04  0.25500000920E-02 0.  1.
       -2   -1    0    0    0  501  0.00000000000E+00  0.00000000000E+00 -0.19078926522E+04  0.19078926522E+04  0.25500000920E-02 0. -1.
    10030    2    1    2    0    0  0.00000000000E+00  0.00000000000E+00 -0.56269408855E+03  0.32530912159E+04  0.32040564636E+04 0.  0.
        2    1    3    3  502    0 -0.13697454037E+04  0.76256809291E+03 -0.61621560574E+03  0.16844685334E+04  0.25500000920E-02 0. -1.
       -2    1    3    3    0  502  0.13697454037E+04 -0.76256809291E+03  0.53521517190E+02  0.15686226825E+04  0.25500000920E-02 0.  1.
</event>
<event>
 5   0  0.3013888E-07  0.3196940E+04  0.7818609E-02  0.8189626E-01
        1   -1    0    0  501    0  0.00000000000E+00  0.00000000000E+00  0.18703923168E+04  0.18703923168E+04  0.50400001928E-02 0.  1.
       -1   -1    0    0    0  501  0.00000000000E+00  0.00000000000E+00 -0.13660802829E+04  0.13660802829E+04  0.50400001928E-02 0. -1.
    10030    2    1    2    0    0  0.00000000000E+00  0.00000000000E+00  0.50431203397E+03  0.32364725997E+04  0.31969398276E+04 0.  0.
        1    1    3    3  502    0 -0.29420150093E+02 -0.29648253100E+03 -0.13377220753E+04  0.13704991015E+04  0.50400001928E-02 0. -1.
       -1    1    3    3    0  502  0.29420150093E+02  0.29648253100E+03  0.18420341093E+04  0.18659734982E+04  0.50400001928E-02 0.  1.
</event>
<event>
 5   0  0.8195618E-07  0.3196336E+04  0.7818609E-02  0.8189786E-01
        2   -1    0    0  501    0  0.00000000000E+00  0.00000000000E+00  0.23701756117E+04  0.23701756117E+04  0.25500000920E-02 0.  1.
       -2   -1    0    0    0  501  0.00000000000E+00  0.00000000000E+00 -0.10776165805E+04  0.10776165805E+04  0.25500000920E-02 0. -1.
    10030    2    1    2    0    0  0.00000000000E+00  0.00000000000E+00  0.12925590313E+04  0.34477921922E+04  0.31963357382E+04 0.  0.
        1    1    3    3  502    0  0.12024588619E+04  0.71998373817E+03 -0.18216213917E+03  0.14133177076E+04  0.50400001928E-02 0. -1.
       -1    1    3    3    0  502 -0.12024588619E+04 -0.71998373817E+03  0.14747211704E+04  0.20344744846E+04  0.50400001928E-02 0.  1.
</event>
<event>
 5   0  0.8335929E-07  0.3199989E+04  0.7818609E-02  0.8188820E-01
        2   -1    0    0  501    0  0.00000000000E+00  0.00000000000E+00  0.24061856046E+04  0.24061856046E+04  0.25500000920E-02 0.  1.
       -2   -1    0    0    0  501  0.00000000000E+00  0.00000000000E+00 -0.10639171563E+04  0.10639171563E+04  0.25500000920E-02 0. -1.
    10030    2    1    2    0    0  0.00000000000E+00  0.00000000000E+00  0.13422684483E+04  0.34701027609E+04  0.31999888412E+04 0.  0.
        4    1    3    3  502    0  0.28516889772E+03  0.65769302562E+03  0.22222963990E+04  0.23350555270E+04  0.12699999809E+01 0.  1.
       -4    1    3    3    0  502 -0.28516889772E+03 -0.65769302562E+03 -0.88002795075E+03  0.11350472339E+04  0.12699999809E+01 0. -1.
</event>
<event>
 5   0  0.8488469E-07  0.3197444E+04  0.7818609E-02  0.8189493E-01
       -2   -1    0    0    0  501  0.00000000000E+00  0.00000000000E+00  0.11783562295E+04  0.11783562295E+04  0.25500000920E-02 0.  1.
        2   -1    0    0  501    0  0.00000000000E+00  0.00000000000E+00 -0.21690484800E+04  0.21690484801E+04  0.25500000920E-02 0. -1.
    10030    2    1    2    0    0  0.00000000000E+00  0.00000000000E+00 -0.99069225052E+03  0.33474047096E+04  0.31974438470E+04 0.  0.
        3    1    3    3  502    0  0.12829078314E+04  0.46090941412E+03 -0.13697565248E+04  0.19324913815E+04  0.10100000352E+00 0. -1.
       -3    1    3    3    0  502 -0.12829078314E+04 -0.46090941412E+03  0.37906427431E+03  0.14149133281E+04  0.10100000352E+00 0.  1.
</event>
<event>
 5   0  0.3075756E-07  0.3202604E+04  0.7818609E-02  0.8188130E-01
        1   -1    0    0  501    0  0.00000000000E+00  0.00000000000E+00  0.18257726774E+04  0.18257726774E+04  0.50400001928E-02 0. -1.
       -1   -1    0    0    0  501  0.00000000000E+00  0.00000000000E+00 -0.14044292425E+04  0.14044292425E+04  0.50400001928E-02 0.  1.
    10030    2    1    2    0    0  0.00000000000E+00  0.00000000000E+00  0.42134343499E+03  0.32302019199E+04  0.32026042767E+04 0.  0.
        5    1    3    3  502    0 -0.96592493335E+03 -0.75884556656E+03  0.12467965253E+04  0.17502517637E+04  0.46999998093E+01 0. -1.
       -5    1    3    3    0  502  0.96592493335E+03  0.75884556656E+03 -0.82545309028E+03  0.14799501563E+04  0.46999998093E+01 0.  1.
</event>
<event>
 5   0  0.2783875E-07  0.3218670E+04  0.7818609E-02  0.8183904E-01
        1   -1    0    0  501    0  0.00000000000E+00  0.00000000000E+00  0.23446150585E+04  0.23446150586E+04  0.50400001928E-02 0. -1.
       -1   -1    0    0    0  501  0.00000000000E+00  0.00000000000E+00 -0.11046416863E+04  0.11046416863E+04  0.50400001928E-02 0.  1.
    10030    2    1    2    0    0  0.00000000000E+00  0.00000000000E+00  0.12399733723E+04  0.34492567448E+04  0.32186702422E+04 0.  0.
        2    1    3    3  502    0 -0.10230895499E+04  0.83390957609E+03  0.16067353169E+04  0.20793546563E+04  0.25500000920E-02 0. -1.
       -2    1    3    3    0  502  0.10230895499E+04 -0.83390957609E+03 -0.36676194460E+03  0.13699020886E+04  0.25500000920E-02 0.  1.
</event>
<event>
 5   0  0.8195618E-07  0.3181615E+04  0.7818609E-02  0.8193690E-01
       -2   -1    0    0    0  501  0.00000000000E+00  0.00000000000E+00  0.15364380315E+04  0.15364380315E+04  0.25500000920E-02 0. -1.
        2   -1    0    0  501    0  0.00000000000E+00  0.00000000000E+00 -0.16471009457E+04  0.16471009457E+04  0.25500000920E-02 0.  1.
    10030    2    1    2    0    0  0.00000000000E+00  0.00000000000E+00 -0.11066291424E+03  0.31835389772E+04  0.31816150205E+04 0.  0.
        1    1    3    3  502    0 -0.57762153030E+03 -0.71072657486E+03 -0.13568446013E+04  0.16370113526E+04  0.50400001928E-02 0.  1.
       -1    1    3    3    0  502  0.57762153030E+03  0.71072657486E+03  0.12461816870E+04  0.15465276246E+04  0.50400001928E-02 0. -1.
</event>
<event>
 5   0  0.8335929E-07  0.3210108E+04  0.7818609E-02  0.8186153E-01
       -2   -1    0    0    0  501  0.00000000000E+00  0.00000000000E+00  0.14157144719E+04  0.14157144719E+04  0.25500000920E-02 0.  1.
        2   -1    0    0  501    0  0.00000000000E+00  0.00000000000E+00 -0.18197154808E+04  0.18197154809E+04  0.25500000920E-02 0. -1.
    10030    2    1    2    0    0  0.00000000000E+00  0.00000000000E+00 -0.40400100893E+03  0.32354299528E+04  0.32101075004E+04 0.  0.
        4    1    3    3  502    0 -0.60906356317E+03  0.11113510605E+04  0.79072415147E+03  0.14937556361E+04  0.12699999809E+01 0.  1.
       -4    1    3    3    0  502  0.60906356317E+03 -0.11113510605E+04 -0.11947251604E+04  0.17416743167E+04  0.12699999809E+01 0. -1.
</event>
<event>
 5   0  0.8488469E-07  0.3199108E+04  0.7818609E-02  0.8189053E-01
       -2   -1    0    0    0  501  0.00000000000E+00  0.00000000000E+00  0.13410397080E+04  0.13410397080E+04  0.25500000920E-02 0. -1.
        2   -1    0    0  501    0  0.00000000000E+00  0.00000000000E+00 -0.19079029460E+04  0.19079029460E+04  0.25500000920E-02 0.  1.
    10030    2    1    2    0    0  0.00000000000E+00  0.00000000000E+00 -0.56686323808E+03  0.32489426540E+04  0.31991083818E+04 0.  0.
        3    1    3    3  502    0 -0.47418707579E+03 -0.29778526530E+03 -0.18051193373E+04  0.18899696504E+04  0.10100000352E+00 0.  1.
       -3    1    3    3    0  502  0.47418707579E+03  0.29778526530E+03  0.12382560993E+04  0.13589730036E+04  0.10100000352E+00 0. -1.
</event>
<event>
 5   0  0.3013888E-07  0.3179589E+04  0.7818609E-02  0.8194229E-01
        1   -1    0    0  501    0  0.00000000000E+00  0.00000000000E+00  0.14442950934E+04  0.14442950934E+04  0.50400001928E-02 0.  1.
       -1   -1    0    0    0  501  0.00000000000E+00  0.00000000000E+00 -0.17499512908E+04  0.17499512908E+04  0.50400001928E-02 0. -1.
    10030    2    1    2    0    0  0.00000000000E+00  0.00000000000E+00 -0.30565619743E+03  0.31942463842E+04  0.31795886922E+04 0.  0.
        1    1    3    3  502    0  0.14877497806E+04  0.40225100909E+03 -0.54480724871E+03  0.16346315249E+04  0.50400001928E-02 0. -1.
       -1    1    3    3    0  502 -0.14877497806E+04 -0.40225100909E+03  0.23915105128E+03  0.15596148593E+04  0.50400001928E-02 0.  1.
</event>
<event>
 5   0  0.8838951E-07  0.3191839E+04  0.7818609E-02  0.8190976E-01
        2   -1    0    0  501    0  0.00000000000E+00  0.00000000000E+00  0.18373203090E+04  0.18373203090E+04  0.25500000920E-02 0.  1.
       -2   -1    0    0    0  501  0.00000000000E+00  0.00000000000E+00 -0.13862353940E+04  0.13862353940E+04  0.25500000920E-02 0. -1.
    10030    2    1    2    0    0  0.00000000000E+00  0.00000000000E+00  0.45108491498E+03  0.32235557029E+04  0.31918386190E+04 0.  0.
        2    1    3    3  502    0 -0.89462572591E+03 -0.12735139276E+04 -0.13118912514E+03  0.15618589884E+04  0.25500000920E-02 0. -1.
       -2    1    3    3    0  502  0.89462572591E+03  0.12735139276E+04  0.58227404012E+03  0.16616967145E+04  0.25500000920E-02 0.  1.
</event>
<event>
 5   0  0.3013888E-07  0.3206614E+04  0.7818609E-02  0.8187073E-01
        1   -1    0    0  501    0  0.00000000000E+00  0.00000000000E+00  0.23854311995E+04  0.23854311995E+04  0.50400001928E-02 0.  1.
       -1   -1    0    0    0  501  0.00000000000E+00  0.00000000000E+00 -0.10776218674E+04  0.10776218674E+04  0.50400001928E-02 0. -1.
    10030    2    1    2    0    0  0.00000000000E+00  0.00000000000E+00  0.13078093321E+04  0.34630530668E+04  0.32066136803E+04 0.  0.
        1    1    3    3  502    0  0.98702603060E+03  0.52371226519E+03 -0.58787434091E+03  0.12625732306E+04  0.50400001928E-02 0. -1.
       -1    1    3    3    0  502 -0.98702603060E+03 -0.52371226519E+03  0.18956836730E+04  0.22004798363E+04  0.50400001928E-02 0.  1.
</event>
<event>
 5   0  0.2783875E-07  0.3235472E+04  0.7818609E-02  0.8179511E-01
       -1   -1    0    0    0  501  0.00000000000E+00  0.00000000000E+00  0.10460130251E+04  0.10460130252E+04  0.50400001928E-02 0. -1.
        1   -1    0    0  501    0  0.00000000000E+00  0.00000000000E+00 -0.25019483123E+04  0.25019483123E+04  0.50400001928E-02 0.  1.
    10030    2    1    2    0    0  0.00000000000E+00  0.00000000000E+00 -0.14559352871E+04  0.35479613374E+04  0.32354724681E+04 0.  0.
        2    1    3    3  502    0  0.63831389725E+03  0.47673395334E+03  0.81597586736E+03  0.11404106759E+04  0.25500000920E-02 0. -1.
       -2    1    3    3    0  502 -0.63831389725E+03 -0.47673395334E+03 -0.22719111545E+04  0.24075506615E+04  0.25500000920E-02 0.  1.
</event>
<event>
 5   0  0.8802800E-07  0.3202740E+04  0.7818609E-02  0.8188094E-01
        2   -1    0    0  501    0  0.00000000000E+00  0.00000000000E+00  0.22699082529E+04  0.22699082529E+04  0.25500000920E-02 0.  1.
       -2   -1    0    0    0  501  0.00000000000E+00  0.00000000000E+00 -0.11297311031E+04  0.11297311031E+04  0.25500000920E-02 0. -1.
    10030    2    1    2    0    0  0.00000000000E+00  0.00000000000E+00  0.11401771498E+04  0.33996393560E+04  0.32027400484E+04 0.  0.
        5    1    3    3  502    0 -0.32907811885E+02  0.43474769314E+03  0.22056870715E+04  0.22483696378E+04  0.46999998093E+01 0.  1.
       -5    1    3    3    0  502  0.32907811885E+02 -0.43474769314E+03 -0.10655099217E+04  0.11512697182E+04  0.46999998093E+01 0. -1.
</event>
<event>
 5   0  0.3013888E-07  0.3194884E+04  0.7818609E-02  0.8190170E-01
        1   -1    0    0  501    0  0.00000000000E+00  0.00000000000E+00  0.22018018057E+04  0.22018018057E+04  0.50400001928E-02 0.  1.
       -1   -1    0    0    0  501  0.00000000000E+00  0.00000000000E+00 -0.11589696238E+04  0.11589696238E+04  0.50400001928E-02 0. -1.
    10030    2    1    2    0    0  0.00000000000E+00  0.00000000000E+00  0.10428321819E+04  0.33607714295E+04  0.31948842924E+04 0.  0.
        1    1    3    3  502    0  0.14708758097E+03 -0.24147552860E+03 -0.11324380402E+04  0.11672022543E+04  0.50400001928E-02 0. -1.
       -1    1    3    3    0  502 -0.14708758097E+03  0.24147552860E+03  0.21752702221E+04  0.21935691753E+04  0.50400001928E-02 0.  1.
</event>
<event>
 5   0  0.8335929E-07  0.3201262E+04  0.7818609E-02  0.8188484E-01
       -2   -1    0    0    0  501  0.00000000000E+00  0.00000000000E+00  0.14435386869E+04  0.14435386869E+04  0.25500000920E-02 0.  1.
        2   -1    0    0  501    0  0.00000000000E+00  0.00000000000E+00 -0.17748192820E+04  0.17748192820E+04  0.25500000920E-02 0. -1.
    10030    2    1    2    0    0  0.00000000000E+00  0.00000000000E+00 -0.33128059511E+03  0.32183579688E+04  0.32012624358E+04 0.  0.
        4    1    3    3  502    0 -0.90456125005E+03 -0.59975447456E+01  0.11619234546E+04  0.14725266561E+04  0.12699999809E+01 0.  1.
       -4    1    3    3    0  502  0.90456125005E+03  0.59975447456E+01 -0.14932040497E+04  0.17458313127E+04  0.12699999809E+01 0. -1.
</event>
<event>
 5   0  0.2783875E-07  0.3180069E+04  0.7818609E-02  0.8194101E-01
        3   -1    0    0  501    0  0.00000000000E+00  0.00000000000E+00  0.11057013481E+04  0.11057013527E+04  0.10100000352E+00 0. -1.
       -3   -1    0    0    0  501  0.00000000000E+00  0.00000000000E+00 -0.22865217978E+04  0.22865218000E+04  0.10100000352E+00 0.  1.
    10030    2    1    2    0    0  0.00000000000E+00  0.00000000000E+00 -0.11808204498E+04  0.33922231527E+04  0.31800693362E+04 0.  0.
        4    1    3    3  502    0 -0.22446428086E+02 -0.64824673566E+03  0.95815554320E+03  0.11570615067E+04  0.12699999809E+01 0. -1.
       -4    1    3    3    0  502  0.22446428086E+02  0.64824673566E+03 -0.21389759930E+04  0.22351616460E+04  0.12699999809E+01 0.  1.
</event>
<event>
 5   0  0.8488469E-07  0.3204197E+04  0.7818609E-02  0.8187710E-01
        2   -1    0    0  501    0  0.00000000000E+00  0.00000000000E+00  0.19074898186E+04  0.19074898186E+04  0.25500000920E-02 0.  1.
       -2   -1    0    0    0  501  0.00000000000E+00  0.00000000000E+00 -0.13456006966E+04  0.13456006966E+04  0.25500000920E-02 0. -1.
    10030    2    1    2    0    0  0.00000000000E+00  0.00000000000E+00  0.56188912196E+03  0.32530905152E+04  0.32041970156E+04 0.  0.
        3    1    3    3  502    0 -0.50413441683E+03 -0.14996540614E+04  0.24894248242E+02  0.15823190411E+04  0.10100000352E+00 0. -1.
       -3    1    3    3    0  502  0.50413441683E+03  0.14996540614E+04  0.53699487372E+03  0.16707714741E+04  0.10100000352E+00 0.  1.
</event>
<event>
 5   0  0.8488469E-07  0.3198863E+04  0.7818609E-02  0.8189117E-01
        2   -1    0    0  501    0  0.00000000000E+00  0.00000000000E+00  0.13249586593E+04  0.13249586593E+04  0.25500000920E-02 0. -1.
       -2   -1    0    0    0  501  0.00000000000E+00  0.00000000000E+00 -0.19307634355E+04  0.19307634355E+04  0.25500000920E-02 0.  1.
    10030    2    1    2    0    0  0.00000000000E+00  0.00000000000E+00 -0.60580477625E+03  0.32557220948E+04  0.31988633812E+04 0.  0.
        3    1    3    3  502    0  0.10263782917E+04  0.56901732962E+03  0.80312818751E+03  0.14220576693E+04  0.10100000352E+00 0. -1.
       -3    1    3    3    0  502 -0.10263782917E+04 -0.56901732962E+03 -0.14089329638E+04  0.18336644256E+04  0.10100000352E+00 0.  1.
</event>
<event>
 5   0  0.2997105E-07  0.3192807E+04  0.7818609E-02  0.8190719E-01
       -1   -1    0    0    0  501  0.00000000000E+00  0.00000000000E+00  0.22799070945E+04  0.22799070945E+04  0.50400001928E-02 0. -1.
        1   -1    0    0  501    0  0.00000000000E+00  0.00000000000E+00 -0.11178104636E+04  0.11178104636E+04  0.50400001928E-02 0.  1.
    10030    2    1    2    0    0  0.00000000000E+00  0.00000000000E+00  0.11620966309E+04  0.33977175581E+04  0.31928069195E+04 0.  0.
        3    1    3    3  502    0  0.57566763847E+03 -0.75865866233E+03  0.19445051248E+04  0.21651919976E+04  0.10100000352E+00 0. -1.
       -3    1    3    3    0  502 -0.57566763847E+03  0.75865866233E+03 -0.78240849389E+03  0.12325255606E+04  0.10100000352E+00 0.  1.
</event>
<event>
 5   0  0.8838951E-07  0.3152899E+04  0.7818609E-02  0.8201368E-01
        2   -1    0    0  501    0  0.00000000000E+00  0.00000000000E+00  0.16370635226E+04  0.16370635226E+04  0.25500000920E-02 0.  1.
       -2   -1    0    0    0  501  0.00000000000E+00  0.00000000000E+00 -0.15180794542E+04  0.15180794542E+04  0.25500000920E-02 0. -1.
    10030    2    1    2    0    0  0.00000000000E+00  0.00000000000E+00  0.11898406840E+03  0.31551429768E+04  0.31528986656E+04 0.  0.
        2    1    3    3  502    0 -0.47815740944E+03  0.98480807346E+03  0.11946323456E+04  0.16203789343E+04  0.25500000920E-02 0.  1.
       -2    1    3    3    0  502  0.47815740944E+03 -0.98480807346E+03 -0.10756482772E+04  0.15347640424E+04  0.25500000920E-02 0. -1.
</event>
<event>
 5   0  0.8335929E-07  0.3188071E+04  0.7818609E-02  0.8191975E-01
        2   -1    0    0  501    0  0.00000000000E+00  0.00000000000E+00  0.22059551765E+04  0.22059551765E+04  0.25500000920E-02 0.  1.
       -2   -1    0    0    0  501  0.00000000000E+00  0.00000000000E+00 -0.11518592496E+04  0.11518592496E+04  0.25500000920E-02 0. -1.
    10030    2    1    2    0    0  0.00000000000E+00  0.00000000000E+00  0.10540959269E+04  0.33578144261E+04  0.31880714385E+04 0.  0.
        4    1    3    3  502    0  0.12067785983E+04  0.46842909218E+03  0.15067384134E+04  0.19864547967E+04  0.12699999809E+01 0.  1.
       -4    1    3    3    0  502 -0.12067785983E+04 -0.46842909218E+03 -0.45264248655E+03  0.13713596295E+04  0.12699999809E+01 0. -1.
</event>
<event>
 5   0  0.8335929E-07  0.3239639E+04  0.7818609E-02  0.8178426E-01
       -2   -1    0    0    0  501  0.00000000000E+00  0.00000000000E+00  0.10622147316E+04  0.10622147316E+04  0.25500000920E-02 0.  1.
        2   -1    0    0  501    0  0.00000000000E+00  0.00000000000E+00 -0.24701366374E+04  0.24701366374E+04  0.25500000920E-02 0. -1.
    10030    2    1    2    0    0  0.00000000000E+00  0.00000000000E+00 -0.14079219059E+04  0.35323513690E+04  0.32396391930E+04 0.  0.
        4    1    3    3  502    0  0.34016951160E+01  0.15543176071E+04 -0.20680393403E+03  0.15680192203E+04  0.12699999809E+01 0.  1.
       -4    1    3    3    0  502 -0.34016951160E+01 -0.15543176071E+04 -0.12011179718E+04  0.19643321487E+04  0.12699999809E+01 0. -1.
</event>
<event>
 5   0  0.2891204E-07  0.3197705E+04  0.7818609E-02  0.8189424E-01
        1   -1    0    0  501    0  0.00000000000E+00  0.00000000000E+00  0.20030509873E+04  0.20030509873E+04  0.50400001928E-02 0.  1.
       -1   -1    0    0    0  501  0.00000000000E+00  0.00000000000E+00 -0.12762175152E+04  0.12762175152E+04  0.50400001928E-02 0. -1.
    10030    2    1    2    0    0  0.00000000000E+00  0.00000000000E+00  0.72683347217E+03  0.32792685025E+04  0.31977046479E+04 0.  0.
        4    1    3    3  502    0  0.15690400392E+04 -0.21599162634E+03  0.58759761775E+03  0.16893228231E+04  0.12699999809E+01 0. -1.
       -4    1    3    3    0  502 -0.15690400392E+04  0.21599162634E+03  0.13923585442E+03  0.15899456794E+04  0.12699999809E+01 0.  1.
</event>
<event>
 5   0  0.2997105E-07  0.3188137E+04  0.7818609E-02  0.8191957E-01
        1   -1    0    0  501    0  0.00000000000E+00  0.00000000000E+00  0.14321282645E+04  0.14321282645E+04  0.50400001928E-02 0. -1.
       -1   -1    0    0    0  501  0.00000000000E+00  0.00000000000E+00 -0.17743206605E+04  0.17743206605E+04  0.50400001928E-02 0.  1.
    10030    2    1    2    0    0  0.00000000000E+00  0.00000000000E+00 -0.34219239599E+03  0.32064489250E+04  0.31881372418E+04 0.  0.
        3    1    3    3  502    0 -0.79772852593E+03  0.92021436475E+03  0.86334895060E+03  0.14928284225E+04  0.10100000352E+00 0. -1.
       -3    1    3    3    0  502  0.79772852593E+03 -0.92021436475E+03 -0.12055413466E+04  0.17136205025E+04  0.10100000352E+00 0.  1.
</event>
<event>
 5   0  0.3013888E-07  0.3213683E+04  0.7818609E-02  0.8185213E-01
       -1   -1    0    0    0  501  0.00000000000E+00  0.00000000000E+00  0.15637538620E+04  0.15637538620E+04  0.50400001928E-02 0.  1.
        1   -1    0    0  501    0  0.00000000000E+00  0.00000000000E+00 -0.16511163953E+04  0.16511163953E+04  0.50400001928E-02 0. -1.
    10030    2    1    2    0    0  0.00000000000E+00  0.00000000000E+00 -0.87362533240E+02  0.32148702573E+04  0.32136830210E+04 0.  0.
        1    1    3    3  502    0  0.11050310103E+04 -0.19938268926E+03  0.11061312992E+04  0.15761895323E+04  0.50400001928E-02 0.  1.
       -1    1    3    3    0  502 -0.11050310103E+04  0.19938268926E+03 -0.11934938325E+04  0.16386807251E+04  0.50400001928E-02 0. -1.
</event>
<event>
 5   0  0.2891204E-07  0.3209537E+04  0.7818609E-02  0.8186303E-01
        1   -1    0    0  501    0  0.00000000000E+00  0.00000000000E+00  0.13805766429E+04  0.13805766430E+04  0.50400001928E-02 0.  1.
       -1   -1    0    0    0  501  0.00000000000E+00  0.00000000000E+00 -0.18653670092E+04  0.18653670092E+04  0.50400001928E-02 0. -1.
    10030    2    1    2    0    0  0.00000000000E+00  0.00000000000E+00 -0.48479036625E+03  0.32459436522E+04  0.32095371152E+04 0.  0.
        4    1    3    3  502    0 -0.11218940969E+02 -0.71633363870E+03  0.12098672100E+04  0.14060725534E+04  0.12699999809E+01 0.  1.
       -4    1    3    3    0  502  0.11218940969E+02  0.71633363870E+03 -0.16946575762E+04  0.18398710988E+04  0.12699999809E+01 0. -1.
</event>
<event>
 5   0  0.3013888E-07  0.3189632E+04  0.7818609E-02  0.8191561E-01
       -1   -1    0    0    0  501  0.00000000000E+00  0.00000000000E+00  0.11441728386E+04  0.11441728386E+04  0.50400001928E-02 0. -1.
        1   -1    0    0  501    0  0.00000000000E+00  0.00000000000E+00 -0.22229493096E+04  0.22229493096E+04  0.50400001928E-02 0.  1.
    10030    2    1    2    0    0  0.00000000000E+00  0.00000000000E+00 -0.10787764711E+04  0.33671221482E+04  0.31896320926E+04 0.  0.
        1    1    3    3  502    0 -0.54081431546E+03  0.32309132745E+03 -0.20860338559E+04  0.21790836096E+04  0.50400001928E-02 0.  1.
       -1    1    3    3    0  502  0.54081431546E+03 -0.32309132745E+03  0.10072573849E+04  0.11880385385E+04  0.50400001928E-02 0. -1.
</event>
<event>
 5   0  0.8838951E-07  0.3272988E+04  0.7818609E-02  0.8169803E-01
        2   -1    0    0  501    0  0.00000000000E+00  0.00000000000E+00  0.15556024092E+04  0.15556024092E+04  0.25500000920E-02 0.  1.
       -2   -1    0    0    0  501  0.00000000000E+00  0.00000000000E+00 -0.17215919786E+04  0.17215919786E+04  0.25500000920E-02 0. -1.
    10030    2    1    2    0    0  0.00000000000E+00  0.00000000000E+00 -0.16598956946E+03  0.32771943878E+04  0.32729880107E+04 0.  0.
        2    1    3    3  502    0  0.64103627807E+03 -0.79286283381E+03 -0.13646999084E+04  0.17035154308E+04  0.25500000920E-02 0. -1.
       -2    1    3    3    0  502 -0.64103627807E+03  0.79286283381E+03  0.11987103389E+04  0.15736789570E+04  0.25500000920E-02 0.  1.
</event>
<event>
 5   0  0.2891204E-07  0.3201157E+04  0.7818609E-02  0.8188512E-01
       -1   -1    0    0    0  501  0.00000000000E+00  0.00000000000E+00  0.13532161279E+04  0.13532161279E+04  0.50400001928E-02 0.  1.
        1   -1    0    0  501    0  0.00000000000E+00  0.00000000000E+00 -0.18931572345E+04  0.18931572345E+04  0.50400001928E-02 0. -1.
    10030    2    1    2    0    0  0.00000000000E+00  0.00000000000E+00 -0.53994110655E+03  0.32463733624E+04  0.32011566050E+04 0.  0.
        4    1    3    3  502    0 -0.11967864238E+04 -0.92068106787E+03 -0.80841075498E+03  0.17127407669E+04  0.12699999809E+01 0.  1.
       -4    1    3    3    0  502  0.11967864238E+04  0.92068106787E+03  0.26846964842E+03  0.15336325955E+04  0.12699999809E+01 0. -1.
</event>
<event>
 5   0  0.8335929E-07  0.3155599E+04  0.7818609E-02  0.8200643E-01
        2   -1    0    0  501    0  0.00000000000E+00  0.00000000000E+00  0.16884822882E+04  0.16884822882E+04  0.25500000920E-02 0. -1.
       -2   -1    0    0    0  501  0.00000000000E+00  0.00000000000E+00 -0.14743722840E+04  0.14743722840E+04  0.25500000920E-02 0.  1.
    10030    2    1    2    0    0  0.00000000000E+00  0.00000000000E+00  0.21411000423E+03  0.31628545722E+04  0.31555991430E+04 0.  0.
        4    1    3    3  502    0  0.32681605541E+03 -0.14771049893E+04 -0.34208465368E+03  0.15510226970E+04  0.12699999809E+01 0.  1.
       -4    1    3    3    0  502 -0.32681605541E+03  0.14771049893E+04  0.55619465792E+03  0.16118318752E+04  0.12699999809E+01 0. -1.
</event>
<event>
 5   0  0.3013888E-07  0.3205603E+04  0.7818609E-02  0.8187339E-01
        1   -1    0    0  501    0  0.00000000000E+00  0.00000000000E+00  0.24154048650E+04  0.24154048650E+04  0.50400001928E-02 0. -1.
       -1   -1    0    0    0  501  0.00000000000E+00  0.00000000000E+00 -0.10635782038E+04  0.10635782038E+04  0.50400001928E-02 0.  1.
    10030    2    1    2    0    0  0.00000000000E+00  0.00000000000E+00  0.13518266613E+04  0.34789830688E+04  0.32056025753E+04 0.  0.
        1    1    3    3  502    0 -0.32333496846E+03 -0.15417680337E+03 -0.10195793562E+04  0.10806748133E+04  0.50400001928E-02 0.  1.
       -1    1    3    3    0  502  0.32333496846E+03  0.15417680337E+03  0.23714060175E+04  0.23983082555E+04  0.50400001928E-02 0. -1.
</event>
<event>
 5   0  0.2997105E-07  0.3194801E+04  0.7818609E-02  0.8190192E-01
        1   -1    0    0  501    0  0.00000000000E+00  0.00000000000E+00  0.22704151766E+04  0.22704151766E+04  0.50400001928E-02 0. -1.
       -1   -1    0    0    0  501  0.00000000000E+00  0.00000000000E+00 -0.11238861956E+04  0.11238861956E+04  0.50400001928E-02 0.  1.
    10030    2    1    2    0    0  0.00000000000E+00  0.00000000000E+00  0.11465289809E+04  0.33943013722E+04  0.31948009486E+04 0.  0.
        3    1    3    3  502    0 -0.64207389224E+02 -0.66654000708E+03  0.21140996624E+04  0.22176148364E+04  0.10100000352E+00 0. -1.
       -3    1    3    3    0  502  0.64207389224E+02  0.66654000708E+03 -0.96757068143E+03  0.11766865358E+04  0.10100000352E+00 0.  1.
</event>
<event>
 5   0  0.8838951E-07  0.3153669E+04  0.7818609E-02  0.8201161E-01
       -2   -1    0    0    0  501  0.00000000000E+00  0.00000000000E+00  0.15133517294E+04  0.15133517294E+04  0.25500000920E-02 0.  1.
        2   -1    0    0  501    0  0.00000000000E+00  0.00000000000E+00 -0.16429801306E+04  0.16429801306E+04  0.25500000920E-02 0. -1.
    10030    2    1    2    0    0  0.00000000000E+00  0.00000000000E+00 -0.12962840120E+03  0.31563318599E+04  0.31536688614E+04 0.  0.
        2    1    3    3  502    0  0.12073058118E+04 -0.56341772232E+03  0.77933144610E+03  0.15434974428E+04  0.25500000920E-02 0.  1.
       -2    1    3    3    0  502 -0.12073058118E+04  0.56341772232E+03 -0.90895984730E+03  0.16128344171E+04  0.25500000920E-02 0. -1.
</event>
<event>
 5   0  0.8195618E-07  0.3196829E+04  0.7818609E-02  0.8189655E-01
       -2   -1    0    0    0  501  0.00000000000E+00  0.00000000000E+00  0.83924748102E+03  0.83924748102E+03  0.25500000920E-02 0. -1.
        2   -1    0    0  501    0  0.00000000000E+00  0.00000000000E+00 -0.30443098100E+04  0.30443098100E+04  0.25500000920E-02 0.  1.
    10030    2    1    2    0    0  0.00000000000E+00  0.00000000000E+00 -0.22050623290E+04  0.38835572910E+04  0.31968292663E+04 0.  0.
        1    1    3    3  502    0  0.94105761552E+03 -0.84806038229E+03  0.81607569474E+02  0.12694312282E+04  0.50400001928E-02 0. -1.
       -1    1    3    3    0  502 -0.94105761552E+03  0.84806038229E+03 -0.22866698984E+04  0.26141260628E+04  0.50400001928E-02 0.  1.
</event>
<event>
 5   0  0.8802800E-07  0.3189951E+04  0.7818609E-02  0.8191476E-01
        2   -1    0    0  501    0  0.00000000000E+00  0.00000000000E+00  0.13048647278E+04  0.13048647278E+04  0.25500000920E-02 0. -1.
       -2   -1    0    0    0  501  0.00000000000E+00  0.00000000000E+00 -0.19495863163E+04  0.19495863163E+04  0.25500000920E-02 0.  1.
    10030    2    1    2    0    0  0.00000000000E+00  0.00000000000E+00 -0.64472158844E+03  0.32544510441E+04  0.31899507319E+04 0.  0.
        5    1    3    3  502    0  0.93373395809E+03  0.11063338711E+04  0.36056997296E+03  0.14919338237E+04  0.46999998093E+01 0. -1.
       -5    1    3    3    0  502 -0.93373395809E+03 -0.11063338711E+04 -0.10052915614E+04  0.17625172204E+04  0.46999998093E+01 0.  1.
</event>
<event>
 5   0  0.2891204E-07  0.3212850E+04  0.7818609E-02  0.8185432E-01
       -1   -1    0    0    0  501  0.00000000000E+00  0.00000000000E+00  0.92875806808E+03  0.92875806809E+03  0.50400001928E-02 0.  1.
        1   -1    0    0  501    0  0.00000000000E+00  0.00000000000E+00 -0.27785499302E+04  0.27785499303E+04  0.50400001928E-02 0. -1.
    10030    2    1    2    0    0  0.00000000000E+00  0.00000000000E+00 -0.18497918622E+04  0.37073079983E+04  0.32128496170E+04 0.  0.
        4    1    3    3  502    0  0.56368555843E+03  0.53178334298E+03 -0.25486038063E+04  0.26638164177E+04  0.12699999809E+01 0. -1.
       -4    1    3    3    0  502 -0.56368555843E+03 -0.53178334298E+03  0.69881194417E+03  0.10434915806E+04  0.12699999809E+01 0.  1.
</event>
<event>
 5   0  0.3013888E-07  0.3213157E+04  0.7818609E-02  0.8185351E-01
        1   -1    0    0  501    0  0.00000000000E+00  0.00000000000E+00  0.24480021902E+04  0.24480021902E+04  0.50400001928E-02 0.  1.
       -1   -1    0    0    0  501  0.00000000000E+00  0.00000000000E+00 -0.10543678022E+04  0.10543678022E+04  0.50400001928E-02 0. -1.
    10030    2    1    2    0    0  0.00000000000E+00  0.00000000000E+00  0.13936343880E+04  0.35023699924E+04  0.32131571322E+04 0.  0.
        1    1    3    3  502    0 -0.62597617108E+03  0.31203668796E+03  0.22733340257E+04  0.23784996645E+04  0.50400001928E-02 0.  1.
       -1    1    3    3    0  502  0.62597617108E+03 -0.31203668796E+03 -0.87969963770E+03  0.11238703279E+04  0.50400001928E-02 0. -1.
</event>
<event>
 5   0  0.2997105E-07  0.3192222E+04  0.7818609E-02  0.8190874E-01
        1   -1    0    0  501    0  0.00000000000E+00  0.00000000000E+00  0.21353369013E+04  0.21353369013E+04  0.50400001928E-02 0.  1.
       -1   -1    0    0    0  501  0.00000000000E+00  0.00000000000E+00 -0.11930533629E+04  0.11930533629E+04  0.50400001928E-02 0. -1.
    10030    2    1    2    0    0  0.00000000000E+00  0.00000000000E+00  0.94228353836E+03  0.33283902643E+04  0.31922223426E+04 0.  0.
        3    1    3    3  502    0  0.14335828280E+04  0.36744231486E+03 -0.15218636929E+03  0.14877278920E+04  0.10100000352E+00 0. -1.
       -3    1    3    3    0  502 -0.14335828280E+04 -0.36744231486E+03  0.10944699077E+04  0.18406623722E+04  0.10100000352E+00 0.  1.
</event>
<event>
 5   0  0.8488469E-07  0.3195839E+04  0.7818609E-02  0.8189917E-01
       -2   -1    0    0    0  501  0.00000000000E+00  0.00000000000E+00  0.15927598098E+04  0.15927598098E+04  0.25500000920E-02 0. -1.
        2   -1    0    0  501    0  0.00000000000E+00  0.00000000000E+00 -0.16030956806E+04  0.16030956806E+04  0.25500000920E-02 0.  1.
    10030    2    1    2    0    0  0.00000000000E+00  0.00000000000E+00 -0.10335870759E+02  0.31958554904E+04  0.31958387765E+04 0.  0.
        3    1    3    3  502    0  0.12127584285E+03  0.11900986231E+03  0.15837000860E+04  0.15927891103E+04  0.10100000352E+00 0. -1.
       -3    1    3    3    0  502 -0.12127584285E+03 -0.11900986231E+03 -0.15940359567E+04  0.16030663801E+04  0.10100000352E+00 0.  1.
</event>
<event>
 5   0  0.8838951E-07  0.3194791E+04  0.7818609E-02  0.8190194E-01
       -2   -1    0    0    0  501  0.00000000000E+00  0.00000000000E+00  0.13728442948E+04  0.13728442948E+04  0.25500000920E-02 0. -1.
        2   -1    0    0  501    0  0.00000000000E+00  0.00000000000E+00 -0.18586757026E+04  0.18586757026E+04  0.25500000920E-02 0.  1.
    10030    2    1    2    0    0  0.00000000000E+00  0.00000000000E+00 -0.48583140775E+03  0.32315199974E+04  0.31947909692E+04 0.  0.
        2    1    3    3  502    0  0.15850985039E+04  0.53562730252E+02 -0.50289736300E+02  0.15868003311E+04  0.25500000920E-02 0.  1.
       -2    1    3    3    0  502 -0.15850985039E+04 -0.53562730252E+02 -0.43554167145E+03  0.16447196663E+04  0.25500000920E-02 0. -1.
</event>
<event>
 5   0  0.2783875E-07  0.3210210E+04  0.7818609E-02  0.8186126E-01
       -1   -1    0    0    0  501  0.00000000000E+00  0.00000000000E+00  0.10323116867E+04  0.10323116867E+04  0.50400001928E-02 0.  1.
        1   -1    0    0  501    0  0.00000000000E+00  0.00000000000E+00 -0.24957215057E+04  0.24957215057E+04  0.50400001928E-02 0. -1.
    10030    2    1    2    0    0  0.00000000000E+00  0.00000000000E+00 -0.14634098189E+04  0.35280331924E+04  0.32102102592E+04 0.  0.
        2    1    3    3  502    0 -0.27320027546E+03  0.33209705767E+03  0.96782390394E+03  0.10590608836E+04  0.25500000920E-02 0.  1.
       -2    1    3    3    0  502  0.27320027546E+03 -0.33209705767E+03 -0.24312337229E+04  0.24689723088E+04  0.25500000920E-02 0. -1.
</event>
<event>
 5   0  0.2783875E-07  0.3202439E+04  0.7818609E-02  0.8188173E-01
        1   -1    0    0  501    0  0.00000000000E+00  0.00000000000E+00  0.17261451660E+04  0.17261451660E+04  0.50400001928E-02 0. -1.
       -1   -1    0    0    0  501  0.00000000000E+00  0.00000000000E+00 -0.14853351880E+04  0.14853351880E+04  0.50400001928E-02 0.  1.
    10030    2    1    2    0    0  0.00000000000E+00  0.00000000000E+00  0.24080997807E+03  0.32114803540E+04  0.32024391671E+04 0.  0.
        2    1    3    3  502    0  0.88164603151E+03 -0.16098283020E+03  0.14510606968E+04  0.17055182035E+04  0.25500000920E-02 0. -1.
       -2    1    3    3    0  502 -0.88164603151E+03  0.16098283020E+03 -0.12102507188E+04  0.15059621505E+04  0.25500000920E-02 0.  1.
</event>
<event>
 5   0  0.8335929E-07  0.3195317E+04  0.7818609E-02  0.8190055E-01
        2   -1    0    0  501    0  0.00000000000E+00  0.00000000000E+00  0.13318897936E+04  0.13318897936E+04  0.25500000920E-02 0. -1.
       -2   -1    0    0    0  501  0.00000000000E+00  0.00000000000E+00 -0.19164599293E+04  0.19164599293E+04  0.25500000920E-02 0.  1.
    10030    2    1    2    0    0  0.00000000000E+00  0.00000000000E+00 -0.58457013566E+03  0.32483497229E+04  0.31953174613E+04 0.  0.
        4    1    3    3  502    0  0.61539376742E+03 -0.14639013570E+04 -0.11388713304E+03  0.15920705273E+04  0.12699999809E+01 0. -1.
       -4    1    3    3    0  502 -0.61539376742E+03  0.14639013570E+04 -0.47068300262E+03  0.16562791956E+04  0.12699999809E+01 0.  1.
</event>
<event>
 5   0  0.2997105E-07  0.3178387E+04  0.7818609E-02  0.8194548E-01
       -1   -1    0    0    0  501  0.00000000000E+00  0.00000000000E+00  0.16672580225E+04  0.16672580225E+04  0.50400001928E-02 0.  1.
        1   -1    0    0  501    0  0.00000000000E+00  0.00000000000E+00 -0.15147845345E+04  0.15147845345E+04  0.50400001928E-02 0. -1.
    10030    2    1    2    0    0  0.00000000000E+00  0.00000000000E+00  0.15247348800E+03  0.31820425570E+04  0.31783874324E+04 0.  0.
        3    1    3    3  502    0 -0.24813845085E+02 -0.11305564041E+03  0.16630324342E+04  0.16670555456E+04  0.10100000352E+00 0.  1.
       -3    1    3    3    0  502  0.24813845085E+02  0.11305564041E+03 -0.15105589462E+04  0.15149870114E+04  0.10100000352E+00 0. -1.
</event>
<event>
 5   0  0.8195618E-07  0.3164823E+04  0.7818609E-02  0.8198170E-01
       -2   -1    0    0    0  501  0.00000000000E+00  0.00000000000E+00  0.15114981687E+04  0.15114981687E+04  0.25500000920E-02 0.  1.
        2   -1    0    0  501    0  0.00000000000E+00  0.00000000000E+00 -0.16566517109E+04  0.16566517109E+04  0.25500000920E-02 0. -1.
    10030    2    1    2    0    0  0.00000000000E+00  0.00000000000E+00 -0.14515354223E+03  0.31681498797E+04  0.31648229191E+04 0.  0.
        1    1    3    3  502    0 -0.31326344173E+03  0.62894095045E+03 -0.14919266854E+04  0.16491045866E+04  0.50400001928E-02 0. -1.
       -1    1    3    3    0  502  0.31326344173E+03 -0.62894095045E+03  0.13467731432E+04  0.15190452930E+04  0.50400001928E-02 0.  1.
</event>
<event>
 5   0  0.2783875E-07  0.3202274E+04  0.7818609E-02  0.8188217E-01
       -1   -1    0    0    0  501  0.00000000000E+00  0.00000000000E+00  0.19519392581E+04  0.19519392581E+04  0.50400001928E-02 0.  1.
        1   -1    0    0  501    0  0.00000000000E+00  0.00000000000E+00 -0.13133809840E+04  0.13133809840E+04  0.50400001928E-02 0. -1.
    10030    2    1    2    0    0  0.00000000000E+00  0.00000000000E+00  0.63855827412E+03  0.32653202422E+04  0.32022741317E+04 0.  0.
        2    1    3    3  502    0  0.47180489332E+03 -0.74842138071E+02  0.18775807128E+04  0.19373978776E+04  0.25500000920E-02 0.  1.
       -2    1    3    3    0  502 -0.47180489332E+03  0.74842138071E+02 -0.12390224386E+04  0.13279223646E+04  0.25500000920E-02 0. -1.
</event>
<event>
 5   0  0.2891204E-07  0.3214466E+04  0.7818609E-02  0.8185007E-01
        1   -1    0    0  501    0  0.00000000000E+00  0.00000000000E+00  0.23759350247E+04  0.23759350247E+04  0.50400001928E-02 0.  1.
       -1   -1    0    0    0  501  0.00000000000E+00  0.00000000000E+00 -0.10872342679E+04  0.10872342679E+04  0.50400001928E-02 0. -1.
    10030    2    1    2    0    0  0.00000000000E+00  0.00000000000E+00  0.12887007567E+04  0.34631692926E+04  0.32144660379E+04 0.  0.
        4    1    3    3  502    0  0.12252660532E+04 -0.90343737680E+03  0.88986915683E+02  0.15249250076E+04  0.12699999809E+01 0. -1.
       -4    1    3    3    0  502 -0.12252660532E+04  0.90343737680E+03  0.11997138411E+04  0.19382442850E+04  0.12699999809E+01 0.  1.
</event>
<event>
 5   0  0.8335929E-07  0.3206722E+04  0.7818609E-02  0.8187044E-01
       -2   -1    0    0    0  501  0.00000000000E+00  0.00000000000E+00  0.12775415339E+04  0.12775415339E+04  0.25500000920E-02 0.  1.
        2   -1    0    0  501    0  0.00000000000E+00  0.00000000000E+00 -0.20122756900E+04  0.20122756900E+04  0.25500000920E-02 0. -1.
    10030    2    1    2    0    0  0.00000000000E+00  0.00000000000E+00 -0.73473415604E+03  0.32898172239E+04  0.32067215480E+04 0.  0.
        4    1    3    3  502    0 -0.81289439696E+03  0.12655202298E+04  0.20238457329E+03  0.15176626374E+04  0.12699999809E+01 0.  1.
       -4    1    3    3    0  502  0.81289439696E+03 -0.12655202298E+04 -0.93711872933E+03  0.17721545865E+04  0.12699999809E+01 0. -1.
</event>
<event>
 5   0  0.8838951E-07  0.3216271E+04  0.7818609E-02  0.8184533E-01
       -2   -1    0    0    0  501  0.00000000000E+00  0.00000000000E+00  0.17989641087E+04  0.17989641087E+04  0.25500000920E-02 0.  1.
        2   -1    0    0  501    0  0.00000000000E+00  0.00000000000E+00 -0.14375497791E+04  0.14375497791E+04  0.25500000920E-02 0. -1.
    10030    2    1    2    0    0  0.00000000000E+00  0.00000000000E+00  0.36141432957E+03  0.32365138878E+04  0.32162714171E+04 0.  0.
        2    1    3    3  502    0  0.15211026174E+03  0.60083249957E+03  0.16739478533E+04  0.17850038206E+04  0.25500000920E-02 0.  1.
       -2    1    3    3    0  502 -0.15211026174E+03 -0.60083249957E+03 -0.13125335237E+04  0.14515100672E+04  0.25500000920E-02 0. -1.
</event>
<event>
 5   0  0.3075756E-07  0.3186406E+04  0.7818609E-02  0.8192417E-01
       -1   -1    0    0    0  501  0.00000000000E+00  0.00000000000E+00  0.15058969255E+04  0.15058969255E+04  0.50400001928E-02 0. -1.
        1   -1    0    0  501    0  0.00000000000E+00  0.00000000000E+00 -0.16855705725E+04  0.16855705725E+04  0.50400001928E-02 0.  1.
    10030    2    1    2    0    0  0.00000000000E+00  0.00000000000E+00 -0.17967364700E+03  0.31914674981E+04  0.31864058392E+04 0.  0.
        5    1    3    3  502    0 -0.36258307836E+03 -0.13695367862E+04  0.64013910738E+03  0.15546374704E+04  0.46999998093E+01 0.  1.
       -5    1    3    3    0  502  0.36258307836E+03  0.13695367862E+04 -0.81981275437E+03  0.16368300277E+04  0.46999998093E+01 0. -1.
</event>
<event>
 5   0  0.8802800E-07  0.3202680E+04  0.7818609E-02  0.8188110E-01
        2   -1    0    0  501    0  0.00000000000E+00  0.00000000000E+00  0.15679951721E+04  0.15679951721E+04  0.25500000920E-02 0. -1.
       -2   -1    0    0    0  501  0.00000000000E+00  0.00000000000E+00 -0.16353939588E+04  0.16353939588E+04  0.25500000920E-02 0.  1.
    10030    2    1    2    0    0  0.00000000000E+00  0.00000000000E+00 -0.67398786787E+02  0.32033891309E+04  0.32026800226E+04 0.  0.
        5    1    3    3  502    0 -0.63477301155E+03 -0.42495962246E+01  0.14367665494E+04  0.15707562009E+04  0.46999998093E+01 0. -1.
       -5    1    3    3    0  502  0.63477301155E+03  0.42495962246E+01 -0.15041653362E+04  0.16326329299E+04  0.46999998093E+01 0.  1.
</event>
<event>
 5   0  0.8838951E-07  0.3200978E+04  0.7818609E-02  0.8188559E-01
        2   -1    0    0  501    0  0.00000000000E+00  0.00000000000E+00  0.14554631457E+04  0.14554631457E+04  0.25500000920E-02 0. -1.
       -2   -1    0    0    0  501  0.00000000000E+00  0.00000000000E+00 -0.17599659286E+04  0.17599659286E+04  0.25500000920E-02 0.  1.
    10030    2    1    2    0    0  0.00000000000E+00  0.00000000000E+00 -0.30450278285E+03  0.32154290743E+04  0.32009783172E+04 0.  0.
        2    1    3    3  502    0  0.76383661087E+03 -0.40347192339E+03  0.12011728312E+04  0.14795445690E+04  0.25500000920E-02 0. -1.
       -2    1    3    3    0  502 -0.76383661087E+03  0.40347192339E+03 -0.15056756141E+04  0.17358845054E+04  0.25500000920E-02 0.  1.
</event>
<event>
 5   0  0.8802800E-07  0.3180530E+04  0.7818609E-02  0.8193978E-01
        2   -1    0    0  501    0  0.00000000000E+00  0.00000000000E+00  0.21432727020E+04  0.21432727020E+04  0.25500000920E-02 0.  1.
       -2   -1    0    0    0  501  0.00000000000E+00  0.00000000000E+00 -0.11799444670E+04  0.11799444670E+04  0.25500000920E-02 0. -1.
    10030    2    1    2    0    0  0.00000000000E+00  0.00000000000E+00  0.96332823500E+03  0.33232171690E+04  0.31805299974E+04 0.  0.
        5    1    3    3  502    0 -0.12896518102E+04 -0.60676271750E+03 -0.25535887298E+03  0.14479616814E+04  0.46999998093E+01 0. -1.
       -5    1    3    3    0  502  0.12896518102E+04  0.60676271750E+03  0.12186871080E+04  0.18752554876E+04  0.46999998093E+01 0.  1.
</event>
<event>
 5   0  0.2997105E-07  0.3195342E+04  0.7818609E-02  0.8190048E-01
       -1   -1    0    0    0  501  0.00000000000E+00  0.00000000000E+00  0.24744882167E+04  0.24744882167E+04  0.50400001928E-02 0.  1.
        1   -1    0    0  501    0  0.00000000000E+00  0.00000000000E+00 -0.10315477525E+04  0.10315477525E+04  0.50400001928E-02 0. -1.
    10030    2    1    2    0    0  0.00000000000E+00  0.00000000000E+00  0.14429404643E+04  0.35060359692E+04  0.31953420840E+04 0.  0.
        3    1    3    3  502    0 -0.52836446190E+03  0.13903167269E+04  0.13616409254E+04  0.20164859597E+04  0.10100000352E+00 0. -1.
       -3    1    3    3    0  502  0.52836446190E+03 -0.13903167269E+04  0.81299538916E+02  0.14895500095E+04  0.10100000352E+00 0.  1.
</event>
<event>
 5   0  0.8195618E-07  0.3197861E+04  0.7818609E-02  0.8189382E-01
        2   -1    0    0  501    0  0.00000000000E+00  0.00000000000E+00  0.24328676875E+04  0.24328676875E+04  0.25500000920E-02 0.  1.
       -2   -1    0    0    0  501  0.00000000000E+00  0.00000000000E+00 -0.10508497331E+04  0.10508497331E+04  0.25500000920E-02 0. -1.
    10030    2    1    2    0    0  0.00000000000E+00  0.00000000000E+00  0.13820179544E+04  0.34837174207E+04  0.31978607601E+04 0.  0.
        1    1    3    3  502    0  0.13159307531E+04  0.81256966028E+03  0.11330317718E+04  0.19172126110E+04  0.50400001928E-02 0.  1.
       -1    1    3    3    0  502 -0.13159307531E+04 -0.81256966028E+03  0.24898618260E+03  0.15665048097E+04  0.50400001928E-02 0. -1.
</event>
<event>
 5   0  0.2997105E-07  0.3200909E+04  0.7818609E-02  0.8188577E-01
       -1   -1    0    0    0  501  0.00000000000E+00  0.00000000000E+00  0.95727950745E+03  0.95727950746E+03  0.50400001928E-02 0.  1.
        1   -1    0    0  501    0  0.00000000000E+00  0.00000000000E+00 -0.26757650085E+04  0.26757650085E+04  0.50400001928E-02 0. -1.
    10030    2    1    2    0    0  0.00000000000E+00  0.00000000000E+00 -0.17184855010E+04  0.36330445160E+04  0.32009092517E+04 0.  0.
        3    1    3    3  502    0 -0.81152854006E+03 -0.72365728539E+03 -0.21921822582E+04  0.24470229875E+04  0.10100000352E+00 0. -1.
       -3    1    3    3    0  502  0.81152854006E+03  0.72365728539E+03  0.47369675715E+03  0.11860215285E+04  0.10100000352E+00 0.  1.
</event>
<event>
 5   0  0.8838951E-07  0.3191565E+04  0.7818609E-02  0.8191048E-01
       -2   -1    0    0    0  501  0.00000000000E+00  0.00000000000E+00  0.13137811240E+04  0.13137811240E+04  0.25500000920E-02 0. -1.
        2   -1    0    0  501    0  0.00000000000E+00  0.00000000000E+00 -0.19383150250E+04  0.19383150250E+04  0.25500000920E-02 0.  1.
    10030    2    1    2    0    0  0.00000000000E+00  0.00000000000E+00 -0.62453390097E+03  0.32520961490E+04  0.31915649404E+04 0.  0.
        2    1    3    3  502    0 -0.12135235030E+04 -0.39059798537E+03  0.66578946713E+03  0.14382217121E+04  0.25500000920E-02 0. -1.
       -2    1    3    3    0  502  0.12135235030E+04  0.39059798537E+03 -0.12903233681E+04  0.18138744369E+04  0.25500000920E-02 0.  1.
</event>
<event>
 5   0  0.8488469E-07  0.3218931E+04  0.7818609E-02  0.8183835E-01
       -2   -1    0    0    0  501  0.00000000000E+00  0.00000000000E+00  0.13568833892E+04  0.13568833892E+04  0.25500000920E-02 0.  1.
        2   -1    0    0  501    0  0.00000000000E+00  0.00000000000E+00 -0.19090649129E+04  0.19090649129E+04  0.25500000920E-02 0. -1.
    10030    2    1    2    0    0  0.00000000000E+00  0.00000000000E+00 -0.55218152374E+03  0.32659483022E+04  0.32189305487E+04 0.  0.
        3    1    3    3  502    0 -0.83847722082E+03  0.12382557653E+04 -0.87980905330E+03  0.17350462157E+04  0.10100000352E+00 0. -1.
       -3    1    3    3    0  502  0.83847722082E+03 -0.12382557653E+04  0.32762752956E+03  0.15309020865E+04  0.10100000352E+00 0.  1.
</event>
<event>
 5   0  0.8195618E-07  0.3214332E+04  0.7818609E-02  0.8185042E-01
       -2   -1    0    0    0  501  0.00000000000E+00  0.00000000000E+00  0.94216207730E+03  0.94216207731E+03  0.25500000920E-02 0.  1.
        2   -1    0    0  501    0  0.00000000000E+00  0.00000000000E+00 -0.27415479243E+04  0.27415479243E+04  0.25500000920E-02 0. -1.
    10030    2    1    2    0    0  0.00000000000E+00  0.00000000000E+00 -0.17993858470E+04  0.36837100016E+04  0.32143319601E+04 0.  0.
        1    1    3    3  502    0  0.37763241542E+03  0.19096945130E+03 -0.26765542299E+04  0.27098003834E+04  0.50400001928E-02 0. -1.
       -1    1    3    3    0  502 -0.37763241542E+03 -0.19096945130E+03  0.87716838286E+03  0.97390961820E+03  0.50400001928E-02 0.  1.
</event>
<event>
 5   0  0.8802800E-07  0.3197876E+04  0.7818609E-02  0.8189378E-01
        2   -1    0    0  501    0  0.00000000000E+00  0.00000000000E+00  0.16158175783E+04  0.16158175783E+04  0.25500000920E-02 0.  1.
       -2   -1    0    0    0  501  0.00000000000E+00  0.00000000000E+00 -0.15822349177E+04  0.15822349177E+04  0.25500000920E-02 0. -1.
    10030    2    1    2    0    0  0.00000000000E+00  0.00000000000E+00  0.33582660640E+02  0.31980524960E+04  0.31978761658E+04 0.  0.
        5    1    3    3  502    0  0.61063681222E+03 -0.46032677795E+03  0.14210777326E+04  0.16137726206E+04  0.46999998093E+01 0.  1.
       -5    1    3    3    0  502 -0.61063681222E+03  0.46032677795E+03 -0.13874950719E+04  0.15842798754E+04  0.46999998093E+01 0. -1.
</event>
<event>
 5   0  0.2891204E-07  0.3048189E+04  0.7818609E-02  0.8230103E-01
        1   -1    0    0  501    0  0.00000000000E+00  0.00000000000E+00  0.10286271935E+04  0.10286271935E+04  0.50400001928E-02 0. -1.
       -1   -1    0    0    0  501  0.00000000000E+00  0.00000000000E+00 -0.22582171297E+04  0.22582171297E+04  0.50400001928E-02 0.  1.
    10030    2    1    2    0    0  0.00000000000E+00  0.00000000000E+00 -0.12295899362E+04  0.32868443232E+04  0.30481886742E+04 0.  0.
        4    1    3    3  502    0 -0.11902299430E+04  0.25612558147E+03  0.37383934064E+03  0.12735796388E+04  0.12699999809E+01 0. -1.
       -4    1    3    3    0  502  0.11902299430E+04 -0.25612558147E+03 -0.16034292769E+04  0.20132646844E+04  0.12699999809E+01 0.  1.
</event>
<event>
 5   0  0.3075756E-07  0.3211705E+04  0.7818609E-02  0.8185733E-01
       -1   -1    0    0    0  501  0.00000000000E+00  0.00000000000E+00  0.16769482113E+04  0.16769482113E+04  0.50400001928E-02 0. -1.
        1   -1    0    0  501    0  0.00000000000E+00  0.00000000000E+00 -0.15377711074E+04  0.15377711074E+04  0.50400001928E-02 0.  1.
    10030    2    1    2    0    0  0.00000000000E+00  0.00000000000E+00  0.13917710394E+03  0.32147193187E+04  0.32117051596E+04 0.  0.
        5    1    3    3  502    0  0.28436708492E+03  0.67396736647E+03  0.15004908736E+04  0.16693087197E+04  0.46999998093E+01 0. -1.
       -5    1    3    3    0  502 -0.28436708492E+03 -0.67396736647E+03 -0.13613137697E+04  0.15454105990E+04  0.46999998093E+01 0.  1.
</event>
<event>
 5   0  0.8335929E-07  0.3161505E+04  0.7818609E-02  0.8199058E-01
       -2   -1    0    0    0  501  0.00000000000E+00  0.00000000000E+00  0.17376071277E+04  0.17376071277E+04  0.25500000920E-02 0. -1.
        2   -1    0    0  501    0  0.00000000000E+00  0.00000000000E+00 -0.14380575522E+04  0.14380575522E+04  0.25500000920E-02 0.  1.
    10030    2    1    2    0    0  0.00000000000E+00  0.00000000000E+00  0.29954957550E+03  0.31756646800E+04  0.31615053711E+04 0.  0.
        4    1    3    3  502    0 -0.18412216310E+03  0.30926113667E+03  0.16959001160E+04  0.17336730481E+04  0.12699999809E+01 0. -1.
       -4    1    3    3    0  502  0.18412216310E+03 -0.30926113667E+03 -0.13963505405E+04  0.14419916319E+04  0.12699999809E+01 0.  1.
</event>
<event>
 5   0  0.2891204E-07  0.3203459E+04  0.7818609E-02  0.8187904E-01
       -1   -1    0    0    0  501  0.00000000000E+00  0.00000000000E+00  0.10855632127E+04  0.10855632128E+04  0.50400001928E-02 0. -1.
        1   -1    0    0  501    0  0.00000000000E+00  0.00000000000E+00 -0.23633244415E+04  0.23633244415E+04  0.50400001928E-02 0.  1.
    10030    2    1    2    0    0  0.00000000000E+00  0.00000000000E+00 -0.12777612288E+04  0.34488876543E+04  0.32034594260E+04 0.  0.
        4    1    3    3  502    0 -0.19750038499E+03 -0.57762813387E+03  0.95540760545E+03  0.11337839162E+04  0.12699999809E+01 0. -1.
       -4    1    3    3    0  502  0.19750038499E+03  0.57762813387E+03 -0.22331688343E+04  0.23151037381E+04  0.12699999809E+01 0.  1.
</event>
<event>
 5   0  0.3013888E-07  0.3198753E+04  0.7818609E-02  0.8189147E-01
        1   -1    0    0  501    0  0.00000000000E+00  0.00000000000E+00  0.24735548728E+04  0.24735548728E+04  0.50400001928E-02 0.  1.
       -1   -1    0    0    0  501  0.00000000000E+00  0.00000000000E+00 -0.10341409973E+04  0.10341409973E+04  0.50400001928E-02 0. -1.
    10030    2    1    2    0    0  0.00000000000E+00  0.00000000000E+00  0.14394138755E+04  0.35076958702E+04  0.31987525713E+04 0.  0.
        1    1    3    3  502    0  0.30111397698E+03 -0.74204118970E+03 -0.79845975554E+03  0.11308548694E+04  0.50400001928E-02 0. -1.
       -1    1    3    3    0  502 -0.30111397698E+03  0.74204118970E+03  0.22378736311E+04  0.23768410008E+04  0.50400001928E-02 0.  1.
</event>
<event>
 5   0  0.8195618E-07  0.3203914E+04  0.7818609E-02  0.8187784E-01
       -2   -1    0    0    0  501  0.00000000000E+00  0.00000000000E+00  0.21690259690E+04  0.21690259690E+04  0.25500000920E-02 0. -1.
        2   -1    0    0  501    0  0.00000000000E+00  0.00000000000E+00 -0.11831424536E+04  0.11831424536E+04  0.25500000920E-02 0.  1.
    10030    2    1    2    0    0  0.00000000000E+00  0.00000000000E+00  0.98588351542E+03  0.33521684225E+04  0.32039142977E+04 0.  0.
        1    1    3    3  502    0 -0.12244182976E+04 -0.49967863725E+03  0.14388717931E+04  0.19542852773E+04  0.50400001928E-02 0. -1.
       -1    1    3    3    0  502  0.12244182976E+04  0.49967863725E+03 -0.45298827772E+03  0.13978831452E+04  0.50400001928E-02 0.  1.
</event>
<event>
 5   0  0.3075756E-07  0.3218195E+04  0.7818609E-02  0.8184028E-01
       -1   -1    0    0    0  501  0.00000000000E+00  0.00000000000E+00  0.11592060948E+04  0.11592060948E+04  0.50400001928E-02 0. -1.
        1   -1    0    0  501    0  0.00000000000E+00  0.00000000000E+00 -0.22335925888E+04  0.22335925888E+04  0.50400001928E-02 0.  1.
    10030    2    1    2    0    0  0.00000000000E+00  0.00000000000E+00 -0.10743864940E+04  0.33927986836E+04  0.32181946133E+04 0.  0.
        5    1    3    3  502    0 -0.71523994700E+03 -0.78072611951E+03 -0.18145707337E+04  0.21009023045E+04  0.46999998093E+01 0.  1.
       -5    1    3    3    0  502  0.71523994700E+03  0.78072611951E+03  0.74018423975E+03  0.12918963791E+04  0.46999998093E+01 0. -1.
</event>
<event>
 5   0  0.8335929E-07  0.3199419E+04  0.7818609E-02  0.8188971E-01
        2   -1    0    0  501    0  0.00000000000E+00  0.00000000000E+00  0.17122798077E+04  0.17122798077E+04  0.25500000920E-02 0. -1.
       -2   -1    0    0    0  501  0.00000000000E+00  0.00000000000E+00 -0.14945396952E+04  0.14945396952E+04  0.25500000920E-02 0.  1.
    10030    2    1    2    0    0  0.00000000000E+00  0.00000000000E+00  0.21774011252E+03  0.32068195030E+04  0.31994187860E+04 0.  0.
        4    1    3    3  502    0  0.42576533511E+03  0.70898638388E+03 -0.12636515810E+04  0.15102167871E+04  0.12699999809E+01 0.  1.
       -4    1    3    3    0  502 -0.42576533511E+03 -0.70898638388E+03  0.14813916935E+04  0.16966027159E+04  0.12699999809E+01 0. -1.
</event>
<event>
 5   0  0.8195618E-07  0.3204237E+04  0.7818609E-02  0.8187699E-01
       -2   -1    0    0    0  501  0.00000000000E+00  0.00000000000E+00  0.19156616410E+04  0.19156616410E+04  0.25500000920E-02 0. -1.
        2   -1    0    0  501    0  0.00000000000E+00  0.00000000000E+00 -0.13398943777E+04  0.13398943777E+04  0.25500000920E-02 0.  1.
    10030    2    1    2    0    0  0.00000000000E+00  0.00000000000E+00  0.57576726327E+03  0.32555560187E+04  0.32042373584E+04 0.  0.
        1    1    3    3  502    0 -0.13131877274E+04  0.15674397129E+03 -0.63089676578E+03  0.14652854360E+04  0.50400001928E-02 0.  1.
       -1    1    3    3    0  502  0.13131877274E+04 -0.15674397129E+03  0.12066640291E+04  0.17902705826E+04  0.50400001928E-02 0. -1.
</event>
<event>
 5   0  0.8488469E-07  0.3196780E+04  0.7818609E-02  0.8189668E-01
       -2   -1    0    0    0  501  0.00000000000E+00  0.00000000000E+00  0.13104147168E+04  0.13104147168E+04  0.25500000920E-02 0. -1.
        2   -1    0    0  501    0  0.00000000000E+00  0.00000000000E+00 -0.19496506967E+04  0.19496506967E+04  0.25500000920E-02 0.  1.
    10030    2    1    2    0    0  0.00000000000E+00  0.00000000000E+00 -0.63923597987E+03  0.32600654135E+04  0.31967802336E+04 0.  0.
        3    1    3    3  502    0  0.15459766028E+04 -0.21008159492E+03 -0.67387514287E+03  0.16994957050E+04  0.10100000352E+00 0.  1.
       -3    1    3    3    0  502 -0.15459766028E+04  0.21008159492E+03  0.34639163004E+02  0.15605697084E+04  0.10100000352E+00 0. -1.
</event>
<event>
 5   0  0.8838951E-07  0.3200596E+04  0.7818609E-02  0.8188660E-01
        2   -1    0    0  501    0  0.00000000000E+00  0.00000000000E+00  0.17608764567E+04  0.17608764567E+04  0.25500000920E-02 0.  1.
       -2   -1    0    0    0  501  0.00000000000E+00  0.00000000000E+00 -0.14543632589E+04  0.14543632589E+04  0.25500000920E-02 0. -1.
    10030    2    1    2    0    0  0.00000000000E+00  0.00000000000E+00  0.30651319785E+03  0.32152397156E+04  0.32005962082E+04 0.  0.
        2    1    3    3  502    0  0.25540931912E+03  0.11077556285E+04  0.12847301560E+04  0.17154847789E+04  0.25500000920E-02 0.  1.
       -2    1    3    3    0  502 -0.25540931912E+03 -0.11077556285E+04 -0.97821695816E+03  0.14997549367E+04  0.25500000920E-02 0. -1.
</event>
<event>
 5   0  0.8195618E-07  0.3203133E+04  0.7818609E-02  0.8187990E-01
       -2   -1    0    0    0  501  0.00000000000E+00  0.00000000000E+00  0.22278465890E+04  0.22278465890E+04  0.25500000920E-02 0.  1.
        2   -1    0    0  501    0  0.00000000000E+00  0.00000000000E+00 -0.11513431624E+04  0.11513431624E+04  0.25500000920E-02 0. -1.
    10030    2    1    2    0    0  0.00000000000E+00  0.00000000000E+00  0.10765034265E+04  0.33791897514E+04  0.32031334266E+04 0.  0.
        1    1    3    3  502    0 -0.33846749098E+03 -0.15240676293E+04  0.91520542754E+03  0.18096804568E+04  0.50400001928E-02 0.  1.
       -1    1    3    3    0  502  0.33846749098E+03  0.15240676293E+04  0.16129799900E+03  0.15695092946E+04  0.50400001928E-02 0. -1.
</event>
<event>
 5   0  0.8488469E-07  0.3147444E+04  0.7818609E-02  0.8202837E-01
       -2   -1    0    0    0  501  0.00000000000E+00  0.00000000000E+00  0.14696640672E+04  0.14696640672E+04  0.25500000920E-02 0. -1.
        2   -1    0    0  501    0  0.00000000000E+00  0.00000000000E+00 -0.16851475881E+04  0.16851475881E+04  0.25500000920E-02 0.  1.
    10030    2    1    2    0    0  0.00000000000E+00  0.00000000000E+00 -0.21548352087E+03  0.31548116554E+04  0.31474439523E+04 0.  0.
        3    1    3    3  502    0  0.88203942227E+03  0.81657523611E+03 -0.11259011214E+04  0.16469493022E+04  0.10100000352E+00 0.  1.
       -3    1    3    3    0  502 -0.88203942227E+03 -0.81657523611E+03  0.91041760048E+03  0.15078623532E+04  0.10100000352E+00 0. -1.
</event>
<event>
 5   0  0.8838951E-07  0.3209965E+04  0.7818609E-02  0.8186190E-01
       -2   -1    0    0    0  501  0.00000000000E+00  0.00000000000E+00  0.15164434246E+04  0.15164434246E+04  0.25500000920E-02 0. -1.
        2   -1    0    0  501    0  0.00000000000E+00  0.00000000000E+00 -0.16986909630E+04  0.16986909630E+04  0.25500000920E-02 0.  1.
    10030    2    1    2    0    0  0.00000000000E+00  0.00000000000E+00 -0.18224753835E+03  0.32151343876E+04  0.32099649476E+04 0.  0.
        2    1    3    3  502    0  0.82451786976E+03 -0.93864125071E+03 -0.11002638670E+04  0.16647695613E+04  0.25500000920E-02 0.  1.
       -2    1    3    3    0  502 -0.82451786976E+03  0.93864125071E+03  0.91801632864E+03  0.15503648263E+04  0.25500000920E-02 0. -1.
</event>
<event>
 5   0  0.2997105E-07  0.3186756E+04  0.7818609E-02  0.8192324E-01
        1   -1    0    0  501    0  0.00000000000E+00  0.00000000000E+00  0.17778054106E+04  0.17778054106E+04  0.50400001928E-02 0.  1.
       -1   -1    0    0    0  501  0.00000000000E+00  0.00000000000E+00 -0.14280827855E+04  0.14280827855E+04  0.50400001928E-02 0. -1.
    10030    2    1    2    0    0  0.00000000000E+00  0.00000000000E+00  0.34972262512E+03  0.32058881961E+04  0.31867559071E+04 0.  0.
        3    1    3    3  502    0  0.10174192785E+04  0.10599735242E+04  0.79514024060E+03  0.16706088330E+04  0.10100000352E+00 0.  1.
       -3    1    3    3    0  502 -0.10174192785E+04 -0.10599735242E+04 -0.44541761548E+03  0.15352793631E+04  0.10100000352E+00 0. -1.
</event>
<event>
 5   0  0.3013888E-07  0.3200621E+04  0.7818609E-02  0.8188653E-01
        1   -1    0    0  501    0  0.00000000000E+00  0.00000000000E+00  0.26538237124E+04  0.26538237124E+04  0.50400001928E-02 0.  1.
       -1   -1    0    0    0  501  0.00000000000E+00  0.00000000000E+00 -0.96502053895E+03  0.96502053896E+03  0.50400001928E-02 0. -1.
    10030    2    1    2    0    0  0.00000000000E+00  0.00000000000E+00  0.16888031735E+04  0.36188442514E+04  0.32006214330E+04 0.  0.
        1    1    3    3  502    0  0.55307440639E+03  0.36916461882E+03 -0.80141969505E+03  0.10413680149E+04  0.50400001928E-02 0. -1.
       -1    1    3    3    0  502 -0.55307440639E+03 -0.36916461882E+03  0.24902228685E+04  0.25774762365E+04  0.50400001928E-02 0.  1.
</event>
<event>
 5   0  0.8335929E-07  0.3210982E+04  0.7818609E-02  0.8185923E-01
        2   -1    0    0  501    0  0.00000000000E+00  0.00000000000E+00  0.17138374763E+04  0.17138374763E+04  0.25500000920E-02 0.  1.
       -2   -1    0    0    0  501  0.00000000000E+00  0.00000000000E+00 -0.15039944314E+04  0.15039944314E+04  0.25500000920E-02 0. -1.
    10030    2    1    2    0    0  0.00000000000E+00  0.00000000000E+00  0.20984304493E+03  0.32178319077E+04  0.32109824171E+04 0.  0.
        4    1    3    3  502    0 -0.51656472480E+03 -0.42499526778E+03 -0.13576918248E+04  0.15135351984E+04  0.12699999809E+01 0. -1.
       -4    1    3    3    0  502  0.51656472480E+03  0.42499526778E+03  0.15675348698E+04  0.17042967093E+04  0.12699999809E+01 0.  1.
</event>
<event>
 5   0  0.8802800E-07  0.3201486E+04  0.7818609E-02  0.8188425E-01
        2   -1    0    0  501    0  0.00000000000E+00  0.00000000000E+00  0.17294598470E+04  0.17294598470E+04  0.25500000920E-02 0.  1.
       -2   -1    0    0    0  501  0.00000000000E+00  0.00000000000E+00 -0.14816059579E+04  0.14816059579E+04  0.25500000920E-02 0. -1.
    10030    2    1    2    0    0  0.00000000000E+00  0.00000000000E+00  0.24785388915E+03  0.32110658050E+04  0.32014859134E+04 0.  0.
        5    1    3    3  502    0  0.57155218577E+03 -0.35580922722E+01 -0.13757633896E+04  0.14897756728E+04  0.46999998093E+01 0. -1.
       -5    1    3    3    0  502 -0.57155218577E+03  0.35580922722E+01  0.16236172788E+04  0.17212901321E+04  0.46999998093E+01 0.  1.
</event>
<event>
 5   0  0.8802800E-07  0.3208704E+04  0.7818609E-02  0.8186522E-01
        2   -1    0    0  501    0  0.00000000000E+00  0.00000000000E+00  0.24721389210E+04  0.24721389210E+04  0.25500000920E-02 0. -1.
       -2   -1    0    0    0  501  0.00000000000E+00  0.00000000000E+00 -0.10411815713E+04  0.10411815713E+04  0.25500000920E-02 0.  1.
    10030    2    1    2    0    0  0.00000000000E+00  0.00000000000E+00  0.14309573497E+04  0.35133204923E+04  0.32087040912E+04 0.  0.
        5    1    3    3  502    0 -0.10186003788E+04 -0.12301289485E+04  0.54884910302E+03  0.16887928794E+04  0.46999998093E+01 0.  1.
       -5    1    3    3    0  502  0.10186003788E+04  0.12301289485E+04  0.88210824668E+03  0.18245276129E+04  0.46999998093E+01 0. -1.
</event>
<event>
 5   0  0.2891204E-07  0.3193262E+04  0.7818609E-02  0.8190599E-01
       -1   -1    0    0    0  501  0.00000000000E+00  0.00000000000E+00  0.11393760534E+04  0.11393760534E+04  0.50400001928E-02 0.  1.
        1   -1    0    0  501    0  0.00000000000E+00  0.00000000000E+00 -0.22373919056E+04  0.22373919056E+04  0.50400001928E-02 0. -1.
    10030    2    1    2    0    0  0.00000000000E+00  0.00000000000E+00 -0.10980158522E+04  0.33767679590E+04  0.31932621310E+04 0.  0.
        4    1    3    3  502    0 -0.67637530281E+03 -0.12240481864E+04  0.26562003457E+03  0.14234932836E+04  0.12699999809E+01 0.  1.
       -4    1    3    3    0  502  0.67637530281E+03  0.12240481864E+04 -0.13636358868E+04  0.19532746754E+04  0.12699999809E+01 0. -1.
</event>
<event>
 5   0  0.3075756E-07  0.3196343E+04  0.7818609E-02  0.8189784E-01
        1   -1    0    0  501    0  0.00000000000E+00  0.00000000000E+00  0.27603319512E+04  0.27603319512E+04  0.50400001928E-02 0. -1.
       -1   -1    0    0    0  501  0.00000000000E+00  0.00000000000E+00 -0.92530611878E+03  0.92530611879E+03  0.50400001928E-02 0.  1.
    10030    2    1    2    0    0  0.00000000000E+00  0.00000000000E+00  0.18350258324E+04  0.36856380700E+04  0.31963429380E+04 0.  0.
        5    1    3    3  502    0  0.11893907480E+04  0.10544833305E+04  0.72614160578E+03  0.17475380303E+04  0.46999998093E+01 0.  1.
       -5    1    3    3    0  502 -0.11893907480E+04 -0.10544833305E+04  0.11088842266E+04  0.19381000397E+04  0.46999998093E+01 0. -1.
</event>
<event>
 5   0  0.8195618E-07  0.3194961E+04  0.7818609E-02  0.8190149E-01
       -2   -1    0    0    0  501  0.00000000000E+00  0.00000000000E+00  0.13863761642E+04  0.13863761642E+04  0.25500000920E-02 0.  1.
        2   -1    0    0  501    0  0.00000000000E+00  0.00000000000E+00 -0.18407297685E+04  0.18407297685E+04  0.25500000920E-02 0. -1.
    10030    2    1    2    0    0  0.00000000000E+00  0.00000000000E+00 -0.45435360427E+03  0.32271059326E+04  0.31949609548E+04 0.  0.
        1    1    3    3  502    0  0.12209556043E+04 -0.83000615121E+03 -0.84348055583E+03  0.17003241594E+04  0.50400001928E-02 0. -1.
       -1    1    3    3    0  502 -0.12209556043E+04  0.83000615121E+03  0.38912695156E+03  0.15267817733E+04  0.50400001928E-02 0.  1.
</event>
<event>
 5   0  0.8335929E-07  0.3198275E+04  0.7818609E-02  0.8189273E-01
        2   -1    0    0  501    0  0.00000000000E+00  0.00000000000E+00  0.19508504423E+04  0.19508504423E+04  0.25500000920E-02 0.  1.
       -2   -1    0    0    0  501  0.00000000000E+00  0.00000000000E+00 -0.13108339009E+04  0.13108339009E+04  0.25500000920E-02 0. -1.
    10030    2    1    2    0    0  0.00000000000E+00  0.00000000000E+00  0.64001654139E+03  0.32616843432E+04  0.31982750947E+04 0.  0.
        4    1    3    3  502    0  0.95956141295E+03 -0.12752009908E+04  0.21628834802E+03  0.16104899673E+04  0.12699999809E+01 0. -1.
       -4    1    3    3    0  502 -0.95956141295E+03  0.12752009908E+04  0.42372819337E+03  0.16511943759E+04  0.12699999809E+01 0.  1.
</event>
<event>
 5   0  0.8838951E-07  0.3182296E+04  0.7818609E-02  0.8193508E-01
        2   -1    0    0  501    0  0.00000000000E+00  0.00000000000E+00  0.20413007860E+04  0.20413007860E+04  0.25500000920E-02 0.  1.
       -2   -1    0    0    0  501  0.00000000000E+00  0.00000000000E+00 -0.12402639949E+04  0.12402639949E+04  0.25500000920E-02 0. -1.
    10030    2    1    2    0    0  0.00000000000E+00  0.00000000000E+00  0.80103679114E+03  0.32815647809E+04  0.31822959433E+04 0.  0.
        2    1    3    3  502    0 -0.13563300216E+04 -0.56422477297E+03  0.10309577314E+04  0.17946739441E+04  0.25500000920E-02 0.  1.
       -2    1    3    3    0  502  0.13563300216E+04  0.56422477297E+03 -0.22992094022E+03  0.14868908368E+04  0.25500000920E-02 0. -1.
</event>
<event>
 5   0  0.8838951E-07  0.3428174E+04  0.7818609E-02  0.8131026E-01
       -2   -1    0    0    0  501  0.00000000000E+00  0.00000000000E+00  0.27848952238E+04  0.27848952238E+04  0.25500000920E-02 0. -1.
        2   -1    0    0  501    0  0.00000000000E+00  0.00000000000E+00 -0.10550109736E+04  0.10550109736E+04  0.25500000920E-02 0.  1.
    10030    2    1    2    0    0  0.00000000000E+00  0.00000000000E+00  0.17298842502E+04  0.38399061974E+04  0.34281744538E+04 0.  0.
        2    1    3    3  502    0 -0.32236513828E+03 -0.42486236968E+03 -0.95971375389E+03  0.10979425326E+04  0.25500000920E-02 0.  1.
       -2    1    3    3    0  502  0.32236513828E+03  0.42486236968E+03  0.26895980041E+04  0.27419636648E+04  0.25500000920E-02 0. -1.
</event>
<event>
 5   0  0.2783875E-07  0.3226455E+04  0.7818609E-02  0.8181865E-01
        1   -1    0    0  501    0  0.00000000000E+00  0.00000000000E+00  0.13948091211E+04  0.13948091211E+04  0.50400001928E-02 0. -1.
       -1   -1    0    0    0  501  0.00000000000E+00  0.00000000000E+00 -0.18658491124E+04  0.18658491124E+04  0.50400001928E-02 0.  1.
    10030    2    1    2    0    0  0.00000000000E+00  0.00000000000E+00 -0.47103999138E+03  0.32606582335E+04  0.32264552441E+04 0.  0.
        2    1    3    3  502    0 -0.35482708580E+03 -0.98128992995E+03 -0.14788757409E+04  0.18099463098E+04  0.25500000920E-02 0.  1.
       -2    1    3    3    0  502  0.35482708580E+03  0.98128992995E+03  0.10078357495E+04  0.14507119237E+04  0.25500000920E-02 0. -1.
</event>
<event>
 5   0  0.2997105E-07  0.3197674E+04  0.7818609E-02  0.8189432E-01
       -1   -1    0    0    0  501  0.00000000000E+00  0.00000000000E+00  0.13022707905E+04  0.13022707906E+04  0.50400001928E-02 0.  1.
        1   -1    0    0  501    0  0.00000000000E+00  0.00000000000E+00 -0.19629398506E+04  0.19629398506E+04  0.50400001928E-02 0. -1.
    10030    2    1    2    0    0  0.00000000000E+00  0.00000000000E+00 -0.66066906008E+03  0.32652106412E+04  0.31976736738E+04 0.  0.
        3    1    3    3  502    0 -0.35163786728E+03  0.14387577050E+04 -0.94522071127E+03  0.17570188179E+04  0.10100000352E+00 0. -1.
       -3    1    3    3    0  502  0.35163786728E+03 -0.14387577050E+04  0.28455165119E+03  0.15081918233E+04  0.10100000352E+00 0.  1.
</event>
<event>
 5   0  0.8802800E-07  0.3200906E+04  0.7818609E-02  0.8188578E-01
       -2   -1    0    0    0  501  0.00000000000E+00  0.00000000000E+00  0.13486568673E+04  0.13486568673E+04  0.25500000920E-02 0.  1.
        2   -1    0    0  501    0  0.00000000000E+00  0.00000000000E+00 -0.18992598118E+04  0.18992598118E+04  0.25500000920E-02 0. -1.
    10030    2    1    2    0    0  0.00000000000E+00  0.00000000000E+00 -0.55060294452E+03  0.32479166792E+04  0.32009059893E+04 0.  0.
        5    1    3    3  502    0 -0.13727670529E+04 -0.25988894387E+03 -0.10674046928E+04  0.17582396062E+04  0.46999998093E+01 0.  1.
       -5    1    3    3    0  502  0.13727670529E+04  0.25988894387E+03  0.51680174831E+03  0.14896770729E+04  0.46999998093E+01 0. -1.
</event>
<event>
 5   0  0.8195618E-07  0.3193871E+04  0.7818609E-02  0.8190438E-01
       -2   -1    0    0    0  501  0.00000000000E+00  0.00000000000E+00  0.99539707343E+03  0.99539707343E+03  0.25500000920E-02 0. -1.
        2   -1    0    0  501    0  0.00000000000E+00  0.00000000000E+00 -0.25619953292E+04  0.25619953292E+04  0.25500000920E-02 0.  1.
    10030    2    1    2    0    0  0.00000000000E+00  0.00000000000E+00 -0.15665982558E+04  0.35573924027E+04  0.31938707881E+04 0.  0.
        1    1    3    3  502    0  0.12011518396E+04 -0.92809618537E+03 -0.23077959962E+03  0.15353786161E+04  0.50400001928E-02 0. -1.
       -1    1    3    3    0  502 -0.12011518396E+04  0.92809618537E+03 -0.13358186562E+04  0.20220137866E+04  0.50400001928E-02 0.  1.
</event>
<event>
 5   0  0.2891204E-07  0.3196329E+04  0.7818609E-02  0.8189787E-01
       -1   -1    0    0    0  501  0.00000000000E+00  0.00000000000E+00  0.12808711687E+04  0.12808711687E+04  0.50400001928E-02 0.  1.
        1   -1    0    0  501    0  0.00000000000E+00  0.00000000000E+00 -0.19940568374E+04  0.19940568374E+04  0.50400001928E-02 0. -1.
    10030    2    1    2    0    0  0.00000000000E+00  0.00000000000E+00 -0.71318566876E+03  0.32749280061E+04  0.31963290893E+04 0.  0.
        4    1    3    3  502    0 -0.10305249016E+04 -0.16143420288E+03  0.88400195392E+03  0.13672979346E+04  0.12699999809E+01 0.  1.
       -4    1    3    3    0  502  0.10305249016E+04  0.16143420288E+03 -0.15971876227E+04  0.19076300715E+04  0.12699999809E+01 0. -1.
</event>
<event>
 5   0  0.2997105E-07  0.3205008E+04  0.7818609E-02  0.8187496E-01
        1   -1    0    0  501    0  0.00000000000E+00  0.00000000000E+00  0.94893151631E+03  0.94893151632E+03  0.50400001928E-02 0.  1.
       -1   -1    0    0    0  501  0.00000000000E+00  0.00000000000E+00 -0.27062217426E+04  0.27062217426E+04  0.50400001928E-02 0. -1.
    10030    2    1    2    0    0  0.00000000000E+00  0.00000000000E+00 -0.17572902263E+04  0.36551532589E+04  0.32050080198E+04 0.  0.
        3    1    3    3  502    0  0.99832977360E+03  0.12404733039E+04 -0.10845042992E+04  0.19265476739E+04  0.10100000352E+00 0. -1.
       -3    1    3    3    0  502 -0.99832977360E+03 -0.12404733039E+04 -0.67278592704E+03  0.17286055850E+04  0.10100000352E+00 0.  1.
</event>
<event>
 5   0  0.8802800E-07  0.3197612E+04  0.7818609E-02  0.8189448E-01
       -2   -1    0    0    0  501  0.00000000000E+00  0.00000000000E+00  0.12386037207E+04  0.12386037207E+04  0.25500000920E-02 0.  1.
        2   -1    0    0  501    0  0.00000000000E+00  0.00000000000E+00 -0.20637600143E+04  0.20637600143E+04  0.25500000920E-02 0. -1.
    10030    2    1    2    0    0  0.00000000000E+00  0.00000000000E+00 -0.82515629355E+03  0.33023637350E+04  0.31976121293E+04 0.  0.
        5    1    3    3  502    0  0.32618025928E+03 -0.49104714666E+03  0.11222557501E+04  0.12676754003E+04  0.46999998093E+01 0.  1.
       -5    1    3    3    0  502 -0.32618025928E+03  0.49104714666E+03 -0.19474120436E+04  0.20346883347E+04  0.46999998093E+01 0. -1.
</event>
<event>
 5   0  0.8802800E-07  0.3177717E+04  0.7818609E-02  0.8194727E-01
        2   -1    0    0  501    0  0.00000000000E+00  0.00000000000E+00  0.17514015479E+04  0.17514015479E+04  0.25500000920E-02 0. -1.
       -2   -1    0    0    0  501  0.00000000000E+00  0.00000000000E+00 -0.14414002022E+04  0.14414002022E+04  0.25500000920E-02 0.  1.
    10030    2    1    2    0    0  0.00000000000E+00  0.00000000000E+00  0.31000134575E+03  0.31928017501E+04  0.31777165042E+04 0.  0.
        5    1    3    3  502    0  0.22754612673E+03 -0.74617814401E+03  0.15457281003E+04  0.17314319254E+04  0.46999998093E+01 0. -1.
       -5    1    3    3    0  502 -0.22754612673E+03  0.74617814401E+03 -0.12357267545E+04  0.14613698246E+04  0.46999998093E+01 0.  1.
</event>
<event>
 5   0  0.8838951E-07  0.3201345E+04  0.7818609E-02  0.8188462E-01
        2   -1    0    0  501    0  0.00000000000E+00  0.00000000000E+00  0.19290277236E+04  0.19290277236E+04  0.25500000920E-02 0.  1.
       -2   -1    0    0    0  501  0.00000000000E+00  0.00000000000E+00 -0.13282088684E+04  0.13282088684E+04  0.25500000920E-02 0. -1.
    10030    2    1    2    0    0  0.00000000000E+00  0.00000000000E+00  0.60081885519E+03  0.32572365920E+04  0.32013445487E+04 0.  0.
        2    1    3    3  502    0  0.11266309924E+04  0.10190664586E+04  0.81355370929E+03  0.17232711562E+04  0.25500000920E-02 0. -1.
       -2    1    3    3    0  502 -0.11266309924E+04 -0.10190664586E+04 -0.21273485410E+03  0.15339654358E+04  0.25500000920E-02 0.  1.
</event>
<event>
 5   0  0.8335929E-07  0.3193768E+04  0.7818609E-02  0.8190465E-01
        2   -1    0    0  501    0  0.00000000000E+00  0.00000000000E+00  0.21102969804E+04  0.21102969804E+04  0.25500000920E-02 0. -1.
       -2   -1    0    0    0  501  0.00000000000E+00  0.00000000000E+00 -0.12083789986E+04  0.12083789986E+04  0.25500000920E-02 0.  1.
    10030    2    1    2    0    0  0.00000000000E+00  0.00000000000E+00  0.90191798183E+03  0.33186759790E+04  0.31937680266E+04 0.  0.
        4    1    3    3  502    0  0.49639091813E+02 -0.35925128277E+03  0.20669373999E+04  0.20985131288E+04  0.12699999809E+01 0. -1.
       -4    1    3    3    0  502 -0.49639091813E+02  0.35925128277E+03 -0.11650194181E+04  0.12201628502E+04  0.12699999809E+01 0.  1.
</event>
<event>
 5   0  0.3013888E-07  0.3196816E+04  0.7818609E-02  0.8189659E-01
       -1   -1    0    0    0  501  0.00000000000E+00  0.00000000000E+00  0.16740259655E+04  0.16740259655E+04  0.50400001928E-02 0. -1.
        1   -1    0    0  501    0  0.00000000000E+00  0.00000000000E+00 -0.15262058474E+04  0.15262058474E+04  0.50400001928E-02 0.  1.
    10030    2    1    2    0    0  0.00000000000E+00  0.00000000000E+00  0.14782011804E+03  0.32002318129E+04  0.31968160518E+04 0.  0.
        1    1    3    3  502    0  0.69051393737E+03 -0.83379803809E+03 -0.11033054318E+04  0.15457398041E+04  0.50400001928E-02 0.  1.
       -1    1    3    3    0  502 -0.69051393737E+03  0.83379803809E+03  0.12511255498E+04  0.16544920089E+04  0.50400001928E-02 0. -1.
</event>
<event>
 5   0  0.3013888E-07  0.3226075E+04  0.7818609E-02  0.8181965E-01
        1   -1    0    0  501    0  0.00000000000E+00  0.00000000000E+00  0.86671819524E+03  0.86671819526E+03  0.50400001928E-02 0.  1.
       -1   -1    0    0    0  501  0.00000000000E+00  0.00000000000E+00 -0.30020013545E+04  0.30020013545E+04  0.50400001928E-02 0. -1.
    10030    2    1    2    0    0  0.00000000000E+00  0.00000000000E+00 -0.21352831593E+04  0.38687195498E+04  0.32260745163E+04 0.  0.
        1    1    3    3  502    0 -0.18872731434E+03  0.10509272404E+04 -0.25175489867E+04  0.27346149573E+04  0.50400001928E-02 0. -1.
       -1    1    3    3    0  502  0.18872731434E+03 -0.10509272404E+04  0.38226582749E+03  0.11341045925E+04  0.50400001928E-02 0.  1.
</event>
<event>
 5   0  0.2997105E-07  0.3174516E+04  0.7818609E-02  0.8195580E-01
        1   -1    0    0  501    0  0.00000000000E+00  0.00000000000E+00  0.26948484653E+04  0.26948484654E+04  0.50400001928E-02 0. -1.
       -1   -1    0    0    0  501  0.00000000000E+00  0.00000000000E+00 -0.93489050137E+03  0.93489050139E+03  0.50400001928E-02 0.  1.
    10030    2    1    2    0    0  0.00000000000E+00  0.00000000000E+00  0.17599579640E+04  0.36297389667E+04  0.31745161729E+04 0.  0.
        3    1    3    3  502    0 -0.82417023833E+03  0.67414031271E+03  0.22259236472E+04  0.24674800579E+04  0.10100000352E+00 0. -1.
       -3    1    3    3    0  502  0.82417023833E+03 -0.67414031271E+03 -0.46596568321E+03  0.11622589088E+04  0.10100000352E+00 0.  1.
</event>
<event>
 5   0  0.8195618E-07  0.3202684E+04  0.7818609E-02  0.8188109E-01
       -2   -1    0    0    0  501  0.00000000000E+00  0.00000000000E+00  0.97507004225E+03  0.97507004225E+03  0.25500000920E-02 0. -1.
        2   -1    0    0  501    0  0.00000000000E+00  0.00000000000E+00 -0.26298577713E+04  0.26298577713E+04  0.25500000920E-02 0.  1.
    10030    2    1    2    0    0  0.00000000000E+00  0.00000000000E+00 -0.16547877290E+04  0.36049278135E+04  0.32026835799E+04 0.  0.
        1    1    3    3  502    0  0.79044334477E+03  0.85190648124E+02  0.73724020086E+03  0.10842422430E+04  0.50400001928E-02 0. -1.
       -1    1    3    3    0  502 -0.79044334477E+03 -0.85190648124E+02 -0.23920279299E+04  0.25206855705E+04  0.50400001928E-02 0.  1.
</event>
<event>
 5   0  0.8335929E-07  0.3212736E+04  0.7818609E-02  0.8185462E-01
       -2   -1    0    0    0  501  0.00000000000E+00  0.00000000000E+00  0.18894366879E+04  0.18894366879E+04  0.25500000920E-02 0.  1.
        2   -1    0    0  501    0  0.00000000000E+00  0.00000000000E+00 -0.13657074114E+04  0.13657074114E+04  0.25500000920E-02 0. -1.
    10030    2    1    2    0    0  0.00000000000E+00  0.00000000000E+00  0.52372927653E+03  0.32551440994E+04  0.32127357116E+04 0.  0.
        4    1    3    3  502    0  0.12928187016E+04  0.13369362836E+03  0.12183394153E+04  0.17814619629E+04  0.12699999809E+01 0.  1.
       -4    1    3    3    0  502 -0.12928187016E+04 -0.13369362836E+03 -0.69461013876E+03  0.14736821365E+04  0.12699999809E+01 0. -1.
</event>
<event>
 5   0  0.2891204E-07  0.3204209E+04  0.7818609E-02  0.8187706E-01
        1   -1    0    0  501    0  0.00000000000E+00  0.00000000000E+00  0.14612116408E+04  0.14612116408E+04  0.50400001928E-02 0.  1.
       -1   -1    0    0    0  501  0.00000000000E+00  0.00000000000E+00 -0.17565825745E+04  0.17565825745E+04  0.50400001928E-02 0. -1.
    10030    2    1    2    0    0  0.00000000000E+00  0.00000000000E+00 -0.29537093369E+03  0.32177942153E+04  0.32042090481E+04 0.  0.
        4    1    3    3  502    0 -0.21855457482E+03  0.39003841292E+02 -0.17410598900E+04  0.17551577010E+04  0.12699999809E+01 0. -1.
       -4    1    3    3    0  502  0.21855457482E+03 -0.39003841292E+02  0.14456889563E+04  0.14626365143E+04  0.12699999809E+01 0.  1.
</event>
<event>
 5   0  0.3075756E-07  0.3197053E+04  0.7818609E-02  0.8189596E-01
        1   -1    0    0  501    0  0.00000000000E+00  0.00000000000E+00  0.14758805096E+04  0.14758805096E+04  0.50400001928E-02 0. -1.
       -1   -1    0    0    0  501  0.00000000000E+00  0.00000000000E+00 -0.17313648384E+04  0.17313648384E+04  0.50400001928E-02 0.  1.
    10030    2    1    2    0    0  0.00000000000E+00  0.00000000000E+00 -0.25548432881E+03  0.32072453479E+04  0.31970534058E+04 0.  0.
        5    1    3    3  502    0  0.97200452502E+03 -0.72180054743E+03  0.91936532701E+03  0.15202116699E+04  0.46999998093E+01 0. -1.
       -5    1    3    3    0  502 -0.97200452502E+03  0.72180054743E+03 -0.11748496558E+04  0.16870336780E+04  0.46999998093E+01 0.  1.
</event>
<event>
 5   0  0.8195618E-07  0.3184658E+04  0.7818609E-02  0.8192881E-01
       -2   -1    0    0    0  501  0.00000000000E+00  0.00000000000E+00  0.10263498167E+04  0.10263498167E+04  0.25500000920E-02 0. -1.
        2   -1    0    0  501    0  0.00000000000E+00  0.00000000000E+00 -0.24704167719E+04  0.24704167719E+04  0.25500000920E-02 0.  1.
    10030    2    1    2    0    0  0.00000000000E+00  0.00000000000E+00 -0.14440669552E+04  0.34967665886E+04  0.31846580984E+04 0.  0.
        1    1    3    3  502    0  0.12914843210E+04 -0.79997863599E+03 -0.19818759290E+03  0.15320495721E+04  0.50400001928E-02 0. -1.
       -1    1    3    3    0  502 -0.12914843210E+04  0.79997863599E+03 -0.12458793623E+04  0.19647170165E+04  0.50400001928E-02 0.  1.
</event>
<event>
 5   0  0.2997105E-07  0.3200497E+04  0.7818609E-02  0.8188686E-01
        1   -1    0    0  501    0  0.00000000000E+00  0.00000000000E+00  0.87980467367E+03  0.87980467368E+03  0.50400001928E-02 0.  1.
       -1   -1    0    0    0  501  0.00000000000E+00  0.00000000000E+00 -0.29106410478E+04  0.29106410478E+04  0.50400001928E-02 0. -1.
    10030    2    1    2    0    0  0.00000000000E+00  0.00000000000E+00 -0.20308363741E+04  0.37904457215E+04  0.32004972097E+04 0.  0.
        3    1    3    3  502    0 -0.82195094777E+03 -0.10017145198E+04  0.96692685968E+02  0.12993786305E+04  0.10100000352E+00 0.  1.
       -3    1    3    3    0  502  0.82195094777E+03  0.10017145198E+04 -0.21275290601E+04  0.24910670909E+04  0.10100000352E+00 0. -1.
</event>
<event>
 5   0  0.8838951E-07  0.3178977E+04  0.7818609E-02  0.8194391E-01
       -2   -1    0    0    0  501  0.00000000000E+00  0.00000000000E+00  0.10935328732E+04  0.10935328732E+04  0.25500000920E-02 0.  1.
        2   -1    0    0  501    0  0.00000000000E+00  0.00000000000E+00 -0.23103780896E+04  0.23103780896E+04  0.25500000920E-02 0. -1.
    10030    2    1    2    0    0  0.00000000000E+00  0.00000000000E+00 -0.12168452164E+04  0.34039109628E+04  0.31789774397E+04 0.  0.
        2    1    3    3  502    0  0.76342308212E+03 -0.78894092048E+03  0.62235689954E+03  0.12619709540E+04  0.25500000920E-02 0.  1.
       -2    1    3    3    0  502 -0.76342308212E+03  0.78894092048E+03 -0.18392021159E+04  0.21419400088E+04  0.25500000920E-02 0. -1.
</event>
<event>
 5   0  0.8838951E-07  0.3199813E+04  0.7818609E-02  0.8188867E-01
       -2   -1    0    0    0  501  0.00000000000E+00  0.00000000000E+00  0.22039305874E+04  0.22039305874E+04  0.25500000920E-02 0. -1.
        2   -1    0    0  501    0  0.00000000000E+00  0.00000000000E+00 -0.11614252168E+04  0.11614252168E+04  0.25500000920E-02 0.  1.
    10030    2    1    2    0    0  0.00000000000E+00  0.00000000000E+00  0.10425053706E+04  0.33653558042E+04  0.31998128447E+04 0.  0.
        2    1    3    3  502    0  0.24634247454E+03 -0.14331937256E+04  0.12228252548E+04  0.19000080193E+04  0.25500000920E-02 0. -1.
       -2    1    3    3    0  502 -0.24634247454E+03  0.14331937256E+04 -0.18031988418E+03  0.14653477848E+04  0.25500000920E-02 0.  1.
</event>
<event>
 5   0  0.8335929E-07  0.3197158E+04  0.7818609E-02  0.8189568E-01
       -2   -1    0    0    0  501  0.00000000000E+00  0.00000000000E+00  0.21601814779E+04  0.21601814779E+04  0.25500000920E-02 0. -1.
        2   -1    0    0  501    0  0.00000000000E+00  0.00000000000E+00 -0.11829817038E+04  0.11829817038E+04  0.25500000920E-02 0.  1.
    10030    2    1    2    0    0  0.00000000000E+00  0.00000000000E+00  0.97719977415E+03  0.33431631817E+04  0.31971582165E+04 0.  0.
        4    1    3    3  502    0  0.74247670804E+03  0.87873472352E+03  0.16492466526E+04  0.20108362714E+04  0.12699999809E+01 0. -1.
       -4    1    3    3    0  502 -0.74247670804E+03 -0.87873472352E+03 -0.67204687846E+03  0.13323269103E+04  0.12699999809E+01 0.  1.
</event>
<event>
 5   0  0.8488469E-07  0.3081405E+04  0.7818609E-02  0.8220860E-01
        2   -1    0    0  501    0  0.00000000000E+00  0.00000000000E+00  0.16447349477E+04  0.16447349477E+04  0.25500000920E-02 0. -1.
       -2   -1    0    0    0  501  0.00000000000E+00  0.00000000000E+00 -0.14432503441E+04  0.14432503441E+04  0.25500000920E-02 0.  1.
    10030    2    1    2    0    0  0.00000000000E+00  0.00000000000E+00  0.20148460363E+03  0.30879852918E+04  0.30814050556E+04 0.  0.
        3    1    3    3  502    0  0.97929516789E+03  0.62450271897E+03  0.11151992364E+04  0.16101838463E+04  0.10100000352E+00 0. -1.
       -3    1    3    3    0  502 -0.97929516789E+03 -0.62450271897E+03 -0.91371463278E+03  0.14778014455E+04  0.10100000352E+00 0.  1.
</event>
<event>
 5   0  0.8195618E-07  0.3205716E+04  0.7818609E-02  0.8187309E-01
        2   -1    0    0  501    0  0.00000000000E+00  0.00000000000E+00  0.23580945102E+04  0.23580945102E+04  0.25500000920E-02 0. -1.
       -2   -1    0    0    0  501  0.00000000000E+00  0.00000000000E+00 -0.10895041806E+04  0.10895041806E+04  0.25500000920E-02 0.  1.
    10030    2    1    2    0    0  0.00000000000E+00  0.00000000000E+00  0.12685903296E+04  0.34475986908E+04  0.32057160368E+04 0.  0.
        1    1    3    3  502    0 -0.14165207028E+04 -0.10751944660E+03 -0.16405254557E+03  0.14300365627E+04  0.50400001928E-02 0. -1.
       -1    1    3    3    0  502  0.14165207028E+04  0.10751944660E+03  0.14326428752E+04  0.20175621281E+04  0.50400001928E-02 0.  1.
</event>
<event>
 5   0  0.8802800E-07  0.3184201E+04  0.7818609E-02  0.8193002E-01
       -2   -1    0    0    0  501  0.00000000000E+00  0.00000000000E+00  0.10407659226E+04  0.10407659226E+04  0.25500000920E-02 0. -1.
        2   -1    0    0  501    0  0.00000000000E+00  0.00000000000E+00 -0.24354993991E+04  0.24354993991E+04  0.25500000920E-02 0.  1.
    10030    2    1    2    0    0  0.00000000000E+00  0.00000000000E+00 -0.13947334765E+04  0.34762653216E+04  0.31842014880E+04 0.  0.
        5    1    3    3  502    0 -0.10658530420E+04  0.87690614514E+03 -0.15637267375E+04  0.20857302064E+04  0.46999998093E+01 0.  1.
       -5    1    3    3    0  502  0.10658530420E+04 -0.87690614514E+03  0.16899326093E+03  0.13905351152E+04  0.46999998093E+01 0. -1.
</event>
<event>
 5   0  0.2891204E-07  0.3196019E+04  0.7818609E-02  0.8189869E-01
       -1   -1    0    0    0  501  0.00000000000E+00  0.00000000000E+00  0.16571396168E+04  0.16571396168E+04  0.50400001928E-02 0. -1.
        1   -1    0    0  501    0  0.00000000000E+00  0.00000000000E+00 -0.15409892688E+04  0.15409892688E+04  0.50400001928E-02 0.  1.
    10030    2    1    2    0    0  0.00000000000E+00  0.00000000000E+00  0.11615034796E+03  0.31981288856E+04  0.31960190027E+04 0.  0.
        4    1    3    3  502    0 -0.26427419061E+03 -0.97396249984E+03  0.12979205528E+04  0.16440934199E+04  0.12699999809E+01 0. -1.
       -4    1    3    3    0  502  0.26427419061E+03  0.97396249984E+03 -0.11817702048E+04  0.15540354658E+04  0.12699999809E+01 0.  1.
</event>
<event>
 5   0  0.3075756E-07  0.3205815E+04  0.7818609E-02  0.8187283E-01
       -1   -1    0    0    0  501  0.00000000000E+00  0.00000000000E+00  0.14239401209E+04  0.14239401209E+04  0.50400001928E-02 0.  1.
        1   -1    0    0  501    0  0.00000000000E+00  0.00000000000E+00 -0.18043679819E+04  0.18043679819E+04  0.50400001928E-02 0. -1.
    10030    2    1    2    0    0  0.00000000000E+00  0.00000000000E+00 -0.38042786103E+03  0.32283081028E+04  0.32058146935E+04 0.  0.
        5    1    3    3  502    0  0.69381740938E+02 -0.88839832133E+03 -0.15319379629E+04  0.17722644880E+04  0.46999998093E+01 0. -1.
       -5    1    3    3    0  502 -0.69381740938E+02  0.88839832133E+03  0.11515101019E+04  0.14560436148E+04  0.46999998093E+01 0.  1.
</event>
<event>
 5   0  0.8335929E-07  0.3193892E+04  0.7818609E-02  0.8190432E-01
       -2   -1    0    0    0  501  0.00000000000E+00  0.00000000000E+00  0.10033862463E+04  0.10033862463E+04  0.25500000920E-02 0.  1.
        2   -1    0    0  501    0  0.00000000000E+00  0.00000000000E+00 -0.25416299006E+04  0.25416299006E+04  0.25500000920E-02 0. -1.
    10030    2    1    2    0    0  0.00000000000E+00  0.00000000000E+00 -0.15382436543E+04  0.35450161469E+04  0.31938919740E+04 0.  0.
        4    1    3    3  502    0  0.65729287540E+03 -0.61041020196E+03  0.69733878517E+03  0.11361855187E+04  0.12699999809E+01 0.  1.
       -4    1    3    3    0  502 -0.65729287540E+03  0.61041020196E+03 -0.22355824394E+04  0.24088306282E+04  0.12699999809E+01 0. -1.
</event>
<event>
 5   0  0.8838951E-07  0.3197118E+04  0.7818609E-02  0.8189579E-01
        2   -1    0    0  501    0  0.00000000000E+00  0.00000000000E+00  0.11020745981E+04  0.11020745981E+04  0.25500000920E-02 0. -1.
       -2   -1    0    0    0  501  0.00000000000E+00  0.00000000000E+00 -0.23187093799E+04  0.23187093799E+04  0.25500000920E-02 0.  1.
    10030    2    1    2    0    0  0.00000000000E+00  0.00000000000E+00 -0.12166347818E+04  0.34207839780E+04  0.31971178946E+04 0.  0.
        2    1    3    3  502    0  0.44452993008E+03 -0.98562079730E+03 -0.18681161298E+04  0.21584515489E+04  0.25500000920E-02 0.  1.
       -2    1    3    3    0  502 -0.44452993008E+03  0.98562079730E+03  0.65148134797E+03  0.12623324291E+04  0.25500000920E-02 0. -1.
</event>
<event>
 5   0  0.3075756E-07  0.3199828E+04  0.7818609E-02  0.8188863E-01
        1   -1    0    0  501    0  0.00000000000E+00  0.00000000000E+00  0.13175103819E+04  0.13175103819E+04  0.50400001928E-02 0.  1.
       -1   -1    0    0    0  501  0.00000000000E+00  0.00000000000E+00 -0.19428493065E+04  0.19428493065E+04  0.50400001928E-02 0. -1.
    10030    2    1    2    0    0  0.00000000000E+00  0.00000000000E+00 -0.62533892464E+03  0.32603596884E+04  0.31998275777E+04 0.  0.
        5    1    3    3  502    0 -0.13958151452E+04  0.47481476553E+03  0.32033414113E+03  0.15087693771E+04  0.46999998093E+01 0.  1.
       -5    1    3    3    0  502  0.13958151452E+04 -0.47481476553E+03 -0.94567306577E+03  0.17515903113E+04  0.46999998093E+01 0. -1.
</event>
<event>
 5   0  0.2783875E-07  0.3163526E+04  0.7818609E-02  0.8198517E-01
        1   -1    0    0  501    0  0.00000000000E+00  0.00000000000E+00  0.14804942152E+04  0.14804942152E+04  0.50400001928E-02 0. -1.
       -1   -1    0    0    0  501  0.00000000000E+00  0.00000000000E+00 -0.16899590998E+04  0.16899590999E+04  0.50400001928E-02 0.  1.
    10030    2    1    2    0    0  0.00000000000E+00  0.00000000000E+00 -0.20946488468E+03  0.31704533150E+04  0.31635263054E+04 0.  0.
        2    1    3    3  502    0  0.44077145095E+03 -0.33425193281E+03  0.13803932024E+04  0.14871076692E+04  0.25500000920E-02 0. -1.
       -2    1    3    3    0  502 -0.44077145095E+03  0.33425193281E+03 -0.15898580870E+04  0.16833456459E+04  0.25500000920E-02 0.  1.
</event>
<event>
 5   0  0.8802800E-07  0.3203498E+04  0.7818609E-02  0.8187894E-01
       -2   -1    0    0    0  501  0.00000000000E+00  0.00000000000E+00  0.97853116252E+03  0.97853116253E+03  0.25500000920E-02 0. -1.
        2   -1    0    0  501    0  0.00000000000E+00  0.00000000000E+00 -0.26218894708E+04  0.26218894708E+04  0.25500000920E-02 0.  1.
    10030    2    1    2    0    0  0.00000000000E+00  0.00000000000E+00 -0.16433583082E+04  0.36004206333E+04  0.32034984325E+04 0.  0.
        5    1    3    3  502    0 -0.65072662829E+03 -0.60868993722E+03 -0.23176227674E+04  0.24830114713E+04  0.46999998093E+01 0.  1.
       -5    1    3    3    0  502  0.65072662829E+03  0.60868993722E+03  0.67426445918E+03  0.11174091620E+04  0.46999998093E+01 0. -1.
</event>
<event>
 5   0  0.2783875E-07  0.3202182E+04  0.7818609E-02  0.8188241E-01
        1   -1    0    0  501    0  0.00000000000E+00  0.00000000000E+00  0.15047919380E+04  0.15047919380E+04  0.50400001928E-02 0.  1.
       -1   -1    0    0    0  501  0.00000000000E+00  0.00000000000E+00 -0.17035532089E+04  0.17035532089E+04  0.50400001928E-02 0. -1.
    10030    2    1    2    0    0  0.00000000000E+00  0.00000000000E+00 -0.19876127085E+03  0.32083451469E+04  0.32021824650E+04 0.  0.
        2    1    3    3  502    0  0.44332566030E+02  0.84781544770E+03  0.12607062507E+04  0.15199133727E+04  0.25500000920E-02 0.  1.
       -2    1    3    3    0  502 -0.44332566030E+02 -0.84781544770E+03 -0.14594675216E+04  0.16884317743E+04  0.25500000920E-02 0. -1.
</event>
<event>
 5   0  0.2997105E-07  0.3217350E+04  0.7818609E-02  0.8184250E-01
        1   -1    0    0  501    0  0.00000000000E+00  0.00000000000E+00  0.21889713774E+04  0.21889713774E+04  0.50400001928E-02 0.  1.
       -1   -1    0    0    0  501  0.00000000000E+00  0.00000000000E+00 -0.11822151969E+04  0.11822151969E+04  0.50400001928E-02 0. -1.
    10030    2    1    2    0    0  0.00000000000E+00  0.00000000000E+00  0.10067561806E+04  0.33711865743E+04  0.32173499828E+04 0.  0.
        3    1    3    3  502    0 -0.39906396149E+03  0.12837202779E+04  0.14291657572E+04  0.19620664028E+04  0.10100000352E+00 0.  1.
       -3    1    3    3    0  502  0.39906396149E+03 -0.12837202779E+04 -0.42240957670E+03  0.14091201715E+04  0.10100000352E+00 0. -1.
</event>
<event>
 5   0  0.3013888E-07  0.3177955E+04  0.7818609E-02  0.8194664E-01
        1   -1    0    0  501    0  0.00000000000E+00  0.00000000000E+00  0.21177943495E+04  0.21177943495E+04  0.50400001928E-02 0.  1.
       -1   -1    0    0    0  501  0.00000000000E+00  0.00000000000E+00 -0.11922072022E+04  0.11922072022E+04  0.50400001928E-02 0. -1.
    10030    2    1    2    0    0  0.00000000000E+00  0.00000000000E+00  0.92558714729E+03  0.33100015517E+04  0.31779551138E+04 0.  0.
        1    1    3    3  502    0 -0.26411658417E+03 -0.13691016447E+04  0.12564612591E+04  0.18769368074E+04  0.50400001928E-02 0.  1.
       -1    1    3    3    0  502  0.26411658417E+03  0.13691016447E+04 -0.33087411176E+03  0.14330647443E+04  0.50400001928E-02 0. -1.
</event>
<event>
 5   0  0.8195618E-07  0.3192419E+04  0.7818609E-02  0.8190822E-01
        2   -1    0    0  501    0  0.00000000000E+00  0.00000000000E+00  0.24339204199E+04  0.24339204199E+04  0.25500000920E-02 0. -1.
       -2   -1    0    0    0  501  0.00000000000E+00  0.00000000000E+00 -0.10468235082E+04  0.10468235082E+04  0.25500000920E-02 0.  1.
    10030    2    1    2    0    0  0.00000000000E+00  0.00000000000E+00  0.13870969117E+04  0.34807439281E+04  0.31924192159E+04 0.  0.
        1    1    3    3  502    0 -0.14367854314E+04 -0.66705964015E+03  0.90766201430E+03  0.18256974754E+04  0.50400001928E-02 0. -1.
       -1    1    3    3    0  502  0.14367854314E+04  0.66705964015E+03  0.47943489744E+03  0.16550464526E+04  0.50400001928E-02 0.  1.
</event>
<event>
 5   0  0.8488469E-07  0.3195060E+04  0.7818609E-02  0.8190123E-01
        2   -1    0    0  501    0  0.00000000000E+00  0.00000000000E+00  0.20916733535E+04  0.20916733535E+04  0.25500000920E-02 0.  1.
       -2   -1    0    0    0  501  0.00000000000E+00  0.00000000000E+00 -0.12201246815E+04  0.12201246815E+04  0.25500000920E-02 0. -1.
    10030    2    1    2    0    0  0.00000000000E+00  0.00000000000E+00  0.87154867200E+03  0.33117980349E+04  0.31950601147E+04 0.  0.
        3    1    3    3  502    0 -0.13449730199E+04 -0.61291635555E+03  0.10641272996E+04  0.18212594003E+04  0.10100000352E+00 0.  1.
       -3    1    3    3    0  502  0.13449730199E+04  0.61291635555E+03 -0.19257862760E+03  0.14905386346E+04  0.10100000352E+00 0. -1.
</event>
<event>
 5   0  0.8802800E-07  0.3181437E+04  0.7818609E-02  0.8193737E-01
       -2   -1    0    0    0  501  0.00000000000E+00  0.00000000000E+00  0.12750422564E+04  0.12750422564E+04  0.25500000920E-02 0.  1.
        2   -1    0    0  501    0  0.00000000000E+00  0.00000000000E+00 -0.19845499514E+04  0.19845499514E+04  0.25500000920E-02 0. -1.
    10030    2    1    2    0    0  0.00000000000E+00  0.00000000000E+00 -0.70950769503E+03  0.32595922078E+04  0.31814368125E+04 0.  0.
        5    1    3    3  502    0 -0.90976996253E+03  0.71956365773E+03  0.76052277555E+03  0.13870364899E+04  0.46999998093E+01 0.  1.
       -5    1    3    3    0  502  0.90976996253E+03 -0.71956365773E+03 -0.14700304706E+04  0.18725557179E+04  0.46999998093E+01 0. -1.
</event>
<event>
 5   0  0.8335929E-07  0.3203885E+04  0.7818609E-02  0.8187792E-01
        2   -1    0    0  501    0  0.00000000000E+00  0.00000000000E+00  0.21989313538E+04  0.21989313538E+04  0.25500000920E-02 0. -1.
       -2   -1    0    0    0  501  0.00000000000E+00  0.00000000000E+00 -0.11670306558E+04  0.11670306558E+04  0.25500000920E-02 0.  1.
    10030    2    1    2    0    0  0.00000000000E+00  0.00000000000E+00  0.10319006980E+04  0.33659620095E+04  0.32038853286E+04 0.  0.
        4    1    3    3  502    0 -0.65892238485E+02 -0.51215907169E+03 -0.10771955939E+04  0.11945713299E+04  0.12699999809E+01 0.  1.
       -4    1    3    3    0  502  0.65892238485E+02  0.51215907169E+03  0.21090962919E+04  0.21713906796E+04  0.12699999809E+01 0. -1.
</event>
<event>
 5   0  0.8195618E-07  0.3190930E+04  0.7818609E-02  0.8191217E-01
        2   -1    0    0  501    0  0.00000000000E+00  0.00000000000E+00  0.12110111450E+04  0.12110111450E+04  0.25500000920E-02 0.  1.
       -2   -1    0    0    0  501  0.00000000000E+00  0.00000000000E+00 -0.21019695796E+04  0.21019695796E+04  0.25500000920E-02 0. -1.
    10030    2    1    2    0    0  0.00000000000E+00  0.00000000000E+00 -0.89095843463E+03  0.33129807246E+04  0.31909300132E+04 0.  0.
        1    1    3    3  502    0  0.29774588135E+03 -0.24045485069E+03  0.11626470406E+04  0.12240176821E+04  0.50400001928E-02 0.  1.
       -1    1    3    3    0  502 -0.29774588135E+03  0.24045485069E+03 -0.20536054752E+04  0.20889630425E+04  0.50400001928E-02 0. -1.
</event>
<event>
 5   0  0.2783875E-07  0.3426466E+04  0.7818609E-02  0.8131441E-01
       -1   -1    0    0    0  501  0.00000000000E+00  0.00000000000E+00  0.98110436535E+03  0.98110436537E+03  0.50400001928E-02 0.  1.
        1   -1    0    0  501    0  0.00000000000E+00  0.00000000000E+00 -0.29916967132E+04  0.29916967132E+04  0.50400001928E-02 0. -1.
    10030    2    1    2    0    0  0.00000000000E+00  0.00000000000E+00 -0.20105923479E+04  0.39728010786E+04  0.34264656456E+04 0.  0.
        2    1    3    3  502    0 -0.58832270183E+03 -0.33661669967E+03 -0.28296214686E+04  0.29096721567E+04  0.25500000920E-02 0. -1.
       -2    1    3    3    0  502  0.58832270183E+03  0.33661669967E+03  0.81902912071E+03  0.10631289219E+04  0.25500000920E-02 0.  1.
</event>
<event>
 5   0  0.2997105E-07  0.3267601E+04  0.7818609E-02  0.8171189E-01
        1   -1    0    0  501    0  0.00000000000E+00  0.00000000000E+00  0.18368835101E+04  0.18368835101E+04  0.50400001928E-02 0.  1.
       -1   -1    0    0    0  501  0.00000000000E+00  0.00000000000E+00 -0.14531699611E+04  0.14531699611E+04  0.50400001928E-02 0. -1.
    10030    2    1    2    0    0  0.00000000000E+00  0.00000000000E+00  0.38371354902E+03  0.32900534712E+04  0.32676009175E+04 0.  0.
        3    1    3    3  502    0  0.92546201218E+03 -0.95297667565E+03 -0.76581460542E+03  0.15333350907E+04  0.10100000352E+00 0. -1.
       -3    1    3    3    0  502 -0.92546201218E+03  0.95297667565E+03  0.11495281544E+04  0.17567183805E+04  0.10100000352E+00 0.  1.
</event>
<event>
 5   0  0.8488469E-07  0.3202559E+04  0.7818609E-02  0.8188142E-01
        2   -1    0    0  501    0  0.00000000000E+00  0.00000000000E+00  0.17767352155E+04  0.17767352155E+04  0.25500000920E-02 0.  1.
       -2   -1    0    0    0  501  0.00000000000E+00  0.00000000000E+00 -0.14431507239E+04  0.14431507239E+04  0.25500000920E-02 0. -1.
    10030    2    1    2    0    0  0.00000000000E+00  0.00000000000E+00  0.33358449161E+03  0.32198859394E+04  0.32025594217E+04 0.  0.
        3    1    3    3  502    0 -0.95651499064E+02  0.97692528155E+03 -0.11051865728E+04  0.14781642621E+04  0.10100000352E+00 0. -1.
       -3    1    3    3    0  502  0.95651499064E+02 -0.97692528155E+03  0.14387710644E+04  0.17417216772E+04  0.10100000352E+00 0.  1.
</event>
<event>
 5   0  0.8488469E-07  0.3199714E+04  0.7818609E-02  0.8188893E-01
       -2   -1    0    0    0  501  0.00000000000E+00  0.00000000000E+00  0.12881722739E+04  0.12881722739E+04  0.25500000920E-02 0.  1.
        2   -1    0    0  501    0  0.00000000000E+00  0.00000000000E+00 -0.19869564933E+04  0.19869564933E+04  0.25500000920E-02 0. -1.
    10030    2    1    2    0    0  0.00000000000E+00  0.00000000000E+00 -0.69878421945E+03  0.32751287672E+04  0.31997139023E+04 0.  0.
        3    1    3    3  502    0 -0.10130828964E+04 -0.78742042331E+03  0.62873228325E+03  0.14288709431E+04  0.10100000352E+00 0.  1.
       -3    1    3    3    0  502  0.10130828964E+04  0.78742042331E+03 -0.13275165027E+04  0.18462578241E+04  0.10100000352E+00 0. -1.
</event>
<event>
 5   0  0.2783875E-07  0.3208941E+04  0.7818609E-02  0.8186460E-01
       -1   -1    0    0    0  501  0.00000000000E+00  0.00000000000E+00  0.20192316427E+04  0.20192316427E+04  0.50400001928E-02 0. -1.
        1   -1    0    0  501    0  0.00000000000E+00  0.00000000000E+00 -0.12749035406E+04  0.12749035406E+04  0.50400001928E-02 0.  1.
    10030    2    1    2    0    0  0.00000000000E+00  0.00000000000E+00  0.74432810203E+03  0.32941351833E+04  0.32089409908E+04 0.  0.
        2    1    3    3  502    0 -0.91475089802E+03  0.38934999508E+03  0.16649487549E+04  0.19391794606E+04  0.25500000920E-02 0. -1.
       -2    1    3    3    0  502  0.91475089802E+03 -0.38934999508E+03 -0.92062065282E+03  0.13549557227E+04  0.25500000920E-02 0.  1.
</event>
<event>
 5   0  0.3013888E-07  0.3203483E+04  0.7818609E-02  0.8187898E-01
       -1   -1    0    0    0  501  0.00000000000E+00  0.00000000000E+00  0.12325172577E+04  0.12325172577E+04  0.50400001928E-02 0. -1.
        1   -1    0    0  501    0  0.00000000000E+00  0.00000000000E+00 -0.20815745828E+04  0.20815745828E+04  0.50400001928E-02 0.  1.
    10030    2    1    2    0    0  0.00000000000E+00  0.00000000000E+00 -0.84905732513E+03  0.33140918405E+04  0.32034834768E+04 0.  0.
        1    1    3    3  502    0 -0.15621096410E+04 -0.20784232780E+03 -0.12793910568E+03  0.15810608396E+04  0.50400001928E-02 0. -1.
       -1    1    3    3    0  502  0.15621096410E+04  0.20784232780E+03 -0.72111821945E+03  0.17330310009E+04  0.50400001928E-02 0.  1.
</event>
<event>
 5   0  0.8802800E-07  0.3201634E+04  0.7818609E-02  0.8188386E-01
        2   -1    0    0  501    0  0.00000000000E+00  0.00000000000E+00  0.18700242617E+04  0.18700242617E+04  0.25500000920E-02 0.  1.
       -2   -1    0    0    0  501  0.00000000000E+00  0.00000000000E+00 -0.13703649340E+04  0.13703649340E+04  0.25500000920E-02 0. -1.
    10030    2    1    2    0    0  0.00000000000E+00  0.00000000000E+00  0.49965932771E+03  0.32403891956E+04  0.32016343788E+04 0.  0.
        5    1    3    3  502    0 -0.25098845709E+03 -0.13240385009E+04  0.11243024295E+04  0.17550359542E+04  0.46999998093E+01 0.  1.
       -5    1    3    3    0  502  0.25098845709E+03  0.13240385009E+04 -0.62464310180E+03  0.14853532415E+04  0.46999998093E+01 0. -1.
</event>
<event>
 5   0  0.2891204E-07  0.3175133E+04  0.7818609E-02  0.8195415E-01
        1   -1    0    0  501    0  0.00000000000E+00  0.00000000000E+00  0.19088873549E+04  0.19088873549E+04  0.50400001928E-02 0. -1.
       -1   -1    0    0    0  501  0.00000000000E+00  0.00000000000E+00 -0.13203333897E+04  0.13203333897E+04  0.50400001928E-02 0.  1.
    10030    2    1    2    0    0  0.00000000000E+00  0.00000000000E+00  0.58855396515E+03  0.32292207446E+04  0.31751332015E+04 0.  0.
        4    1    3    3  502    0 -0.51895833655E+03 -0.11317110136E+04  0.12960838263E+04  0.17971985063E+04  0.12699999809E+01 0. -1.
       -4    1    3    3    0  502  0.51895833655E+03  0.11317110136E+04 -0.70752986119E+03  0.14320222382E+04  0.12699999809E+01 0.  1.
</event>
<event>
 5   0  0.3013888E-07  0.3192792E+04  0.7818609E-02  0.8190723E-01
        1   -1    0    0  501    0  0.00000000000E+00  0.00000000000E+00  0.17608024421E+04  0.17608024421E+04  0.50400001928E-02 0. -1.
       -1   -1    0    0    0  501  0.00000000000E+00  0.00000000000E+00 -0.14473400784E+04  0.14473400784E+04  0.50400001928E-02 0.  1.
    10030    2    1    2    0    0  0.00000000000E+00  0.00000000000E+00  0.31346236368E+03  0.32081425206E+04  0.31927918471E+04 0.  0.
        1    1    3    3  502    0  0.74000379880E+03  0.13807938380E+04 -0.15179999213E+03  0.15739251834E+04  0.50400001928E-02 0.  1.
       -1    1    3    3    0  502 -0.74000379880E+03 -0.13807938380E+04  0.46526235581E+03  0.16342173372E+04  0.50400001928E-02 0. -1.
</event>
<event>
 5   0  0.8335929E-07  0.3187097E+04  0.7818609E-02  0.8192233E-01
        2   -1    0    0  501    0  0.00000000000E+00  0.00000000000E+00  0.11441859130E+04  0.11441859130E+04  0.25500000920E-02 0.  1.
       -2   -1    0    0    0  501  0.00000000000E+00  0.00000000000E+00 -0.22193917923E+04  0.22193917923E+04  0.25500000920E-02 0. -1.
    10030    2    1    2    0    0  0.00000000000E+00  0.00000000000E+00 -0.10752058793E+04  0.33635777053E+04  0.31870970015E+04 0.  0.
        4    1    3    3  502    0 -0.15612756895E+04 -0.31784608916E+03 -0.56721545102E+03  0.16912548288E+04  0.12699999809E+01 0. -1.
       -4    1    3    3    0  502  0.15612756895E+04  0.31784608916E+03 -0.50799042826E+03  0.16723228765E+04  0.12699999809E+01 0.  1.
</event>
<event>
 5   0  0.3013888E-07  0.3193362E+04  0.7818609E-02  0.8190572E-01
        1   -1    0    0  501    0  0.00000000000E+00  0.00000000000E+00  0.17921882078E+04  0.17921882078E+04  0.50400001928E-02 0.  1.
       -1   -1    0    0    0  501  0.00000000000E+00  0.00000000000E+00 -0.14225014613E+04  0.14225014613E+04  0.50400001928E-02 0. -1.
    10030    2    1    2    0    0  0.00000000000E+00  0.00000000000E+00  0.36968674651E+03  0.32146896691E+04  0.31933620806E+04 0.  0.
        1    1    3    3  502    0  0.54919392254E+03  0.15033667172E+03  0.16865081791E+04  0.17800350888E+04  0.50400001928E-02 0.  1.
       -1    1    3    3    0  502 -0.54919392254E+03 -0.15033667172E+03 -0.13168214326E+04  0.14346545803E+04  0.50400001928E-02 0. -1.
</event>
<event>
 5   0  0.3013888E-07  0.3218513E+04  0.7818609E-02  0.8183945E-01
        1   -1    0    0  501    0  0.00000000000E+00  0.00000000000E+00  0.14861484735E+04  0.14861484735E+04  0.50400001928E-02 0. -1.
       -1   -1    0    0    0  501  0.00000000000E+00  0.00000000000E+00 -0.17425629255E+04  0.17425629255E+04  0.50400001928E-02 0.  1.
    10030    2    1    2    0    0  0.00000000000E+00  0.00000000000E+00 -0.25641445198E+03  0.32287113991E+04  0.32185134655E+04 0.  0.
        1    1    3    3  502    0  0.98204479412E+02 -0.18929307277E+02  0.14830278282E+04  0.14863963057E+04  0.50400001928E-02 0. -1.
       -1    1    3    3    0  502 -0.98204479412E+02  0.18929307277E+02 -0.17394422802E+04  0.17423150933E+04  0.50400001928E-02 0.  1.
</event>
<event>
 5   0  0.3013888E-07  0.3205309E+04  0.7818609E-02  0.8187416E-01
        1   -1    0    0  501    0  0.00000000000E+00  0.00000000000E+00  0.20995246272E+04  0.20995246272E+04  0.50400001928E-02 0.  1.
       -1   -1    0    0    0  501  0.00000000000E+00  0.00000000000E+00 -0.12233730334E+04  0.12233730334E+04  0.50400001928E-02 0. -1.
    10030    2    1    2    0    0  0.00000000000E+00  0.00000000000E+00  0.87615159380E+03  0.33228976607E+04  0.32053092281E+04 0.  0.
        1    1    3    3  502    0  0.80479858121E+02  0.15362930571E+04  0.90381009451E+03  0.17842494366E+04  0.50400001928E-02 0.  1.
       -1    1    3    3    0  502 -0.80479858121E+02 -0.15362930571E+04 -0.27658500713E+02  0.15386482241E+04  0.50400001928E-02 0. -1.
</event>
<event>
 5   0  0.3075756E-07  0.3207422E+04  0.7818609E-02  0.8186860E-01
        1   -1    0    0  501    0  0.00000000000E+00  0.00000000000E+00  0.17350095797E+04  0.17350095798E+04  0.50400001928E-02 0.  1.
       -1   -1    0    0    0  501  0.00000000000E+00  0.00000000000E+00 -0.14823485321E+04  0.14823485321E+04  0.50400001928E-02 0. -1.
    10030    2    1    2    0    0  0.00000000000E+00  0.00000000000E+00  0.25266104763E+03  0.32173581119E+04  0.32074219578E+04 0.  0.
        5    1    3    3  502    0 -0.23336310407E+03  0.85389427455E+03 -0.12150754010E+04  0.15033376502E+04  0.46999998093E+01 0. -1.
       -5    1    3    3    0  502  0.23336310407E+03 -0.85389427455E+03  0.14677364486E+04  0.17140204617E+04  0.46999998093E+01 0.  1.
</event>
<event>
 5   0  0.3075756E-07  0.3190561E+04  0.7818609E-02  0.8191315E-01
       -1   -1    0    0    0  501  0.00000000000E+00  0.00000000000E+00  0.75105112881E+03  0.75105112883E+03  0.50400001928E-02 0.  1.
        1   -1    0    0  501    0  0.00000000000E+00  0.00000000000E+00 -0.33884769190E+04  0.33884769190E+04  0.50400001928E-02 0. -1.
    10030    2    1    2    0    0  0.00000000000E+00  0.00000000000E+00 -0.26374257902E+04  0.41395280478E+04  0.31905607125E+04 0.  0.
        5    1    3    3  502    0 -0.13751600398E+04  0.17744531126E+03 -0.23422404555E+04  0.27218861870E+04  0.46999998093E+01 0. -1.
       -5    1    3    3    0  502  0.13751600398E+04 -0.17744531126E+03 -0.29518533467E+03  0.14176418608E+04  0.46999998093E+01 0.  1.
</event>
<event>
 5   0  0.2783875E-07  0.3206796E+04  0.7818609E-02  0.8187025E-01
        1   -1    0    0  501    0  0.00000000000E+00  0.00000000000E+00  0.20141364185E+04  0.20141364185E+04  0.50400001928E-02 0.  1.
       -1   -1    0    0    0  501  0.00000000000E+00  0.00000000000E+00 -0.12764203396E+04  0.12764203396E+04  0.50400001928E-02 0. -1.
    10030    2    1    2    0    0  0.00000000000E+00  0.00000000000E+00  0.73771607894E+03  0.32905567581E+04  0.32067957161E+04 0.  0.
        2    1    3    3  502    0  0.20085642984E+03 -0.70777833618E+03  0.18307065798E+04  0.19730129396E+04  0.25500000920E-02 0.  1.
       -2    1    3    3    0  502 -0.20085642984E+03  0.70777833618E+03 -0.10929905009E+04  0.13175438185E+04  0.25500000920E-02 0. -1.
</event>
<event>
 5   0  0.2783875E-07  0.3212160E+04  0.7818609E-02  0.8185613E-01
        1   -1    0    0  501    0  0.00000000000E+00  0.00000000000E+00  0.17851020451E+04  0.17851020451E+04  0.50400001928E-02 0.  1.
       -1   -1    0    0    0  501  0.00000000000E+00  0.00000000000E+00 -0.14450110995E+04  0.14450110995E+04  0.50400001928E-02 0. -1.
    10030    2    1    2    0    0  0.00000000000E+00  0.00000000000E+00  0.34009094562E+03  0.32301131446E+04  0.32121595657E+04 0.  0.
        2    1    3    3  502    0  0.22617669691E+03 -0.85902383606E+03  0.15155879349E+04  0.17567255442E+04  0.25500000920E-02 0.  1.
       -2    1    3    3    0  502 -0.22617669691E+03  0.85902383606E+03 -0.11754969893E+04  0.14733876004E+04  0.25500000920E-02 0. -1.
</event>
<event>
 5   0  0.2783875E-07  0.3322544E+04  0.7818609E-02  0.8157183E-01
       -1   -1    0    0    0  501  0.00000000000E+00  0.00000000000E+00  0.11059703969E+04  0.11059703969E+04  0.50400001928E-02 0. -1.
        1   -1    0    0  501    0  0.00000000000E+00  0.00000000000E+00 -0.24953869584E+04  0.24953869585E+04  0.50400001928E-02 0.  1.
    10030    2    1    2    0    0  0.00000000000E+00  0.00000000000E+00 -0.13894165615E+04  0.36013573554E+04  0.33225436671E+04 0.  0.
        2    1    3    3  502    0 -0.14609569626E+04  0.56491055879E+03 -0.12945995009E+04  0.20321188582E+04  0.25500000920E-02 0.  1.
       -2    1    3    3    0  502  0.14609569626E+04 -0.56491055879E+03 -0.94817060584E+02  0.15692384972E+04  0.25500000920E-02 0. -1.
</event>
<event>
 5   0  0.8488469E-07  0.3207994E+04  0.7818609E-02  0.8186709E-01
       -2   -1    0    0    0  501  0.00000000000E+00  0.00000000000E+00  0.15523397417E+04  0.15523397417E+04  0.25500000920E-02 0.  1.
        2   -1    0    0  501    0  0.00000000000E+00  0.00000000000E+00 -0.16573734094E+04  0.16573734094E+04  0.25500000920E-02 0. -1.
    10030    2    1    2    0    0  0.00000000000E+00  0.00000000000E+00 -0.10503366767E+03  0.32097131511E+04  0.32079941460E+04 0.  0.
        3    1    3    3  502    0  0.57937574731E+03 -0.88170184992E+02  0.14413861768E+04  0.15559705521E+04  0.10100000352E+00 0.  1.
       -3    1    3    3    0  502 -0.57937574731E+03  0.88170184992E+02 -0.15464198445E+04  0.16537425990E+04  0.10100000352E+00 0. -1.
</event>
<event>
 5   0  0.3013888E-07  0.3202558E+04  0.7818609E-02  0.8188142E-01
        1   -1    0    0  501    0  0.00000000000E+00  0.00000000000E+00  0.18279252237E+04  0.18279252237E+04  0.50400001928E-02 0.  1.
       -1   -1    0    0    0  501  0.00000000000E+00  0.00000000000E+00 -0.14027347646E+04  0.14027347646E+04  0.50400001928E-02 0. -1.
    10030    2    1    2    0    0  0.00000000000E+00  0.00000000000E+00  0.42519045903E+03  0.32306599883E+04  0.32025578892E+04 0.  0.
        1    1    3    3  502    0 -0.17001094904E+03  0.11051851065E+04  0.13688450790E+04  0.17675052172E+04  0.50400001928E-02 0.  1.
       -1    1    3    3    0  502  0.17001094904E+03 -0.11051851065E+04 -0.94365461999E+03  0.14631547711E+04  0.50400001928E-02 0. -1.
</event>
<event>
 5   0  0.2783875E-07  0.3034587E+04  0.7818609E-02  0.8233923E-01
       -3   -1    0    0    0  501  0.00000000000E+00  0.00000000000E+00  0.13280054462E+04  0.13280054501E+04  0.10100000352E+00 0.  1.
        3   -1    0    0  501    0  0.00000000000E+00  0.00000000000E+00 -0.17335617978E+04  0.17335618007E+04  0.10100000352E+00 0. -1.
    10030    2    1    2    0    0  0.00000000000E+00  0.00000000000E+00 -0.40555635154E+03  0.30615672508E+04  0.30345869697E+04 0.  0.
        1    1    3    3  502    0  0.73371904688E+03  0.48583057068E+03  0.10442553016E+04  0.13655929547E+04  0.50400001928E-02 0.  1.
       -1    1    3    3    0  502 -0.73371904688E+03 -0.48583057068E+03 -0.14498116531E+04  0.16959742960E+04  0.50400001928E-02 0. -1.
</event>
<event>
 5   0  0.8488469E-07  0.3203670E+04  0.7818609E-02  0.8187849E-01
       -2   -1    0    0    0  501  0.00000000000E+00  0.00000000000E+00  0.12861134132E+04  0.12861134132E+04  0.25500000920E-02 0. -1.
        2   -1    0    0  501    0  0.00000000000E+00  0.00000000000E+00 -0.19950610158E+04  0.19950610158E+04  0.25500000920E-02 0.  1.
    10030    2    1    2    0    0  0.00000000000E+00  0.00000000000E+00 -0.70894760263E+03  0.32811744289E+04  0.32036696037E+04 0.  0.
        3    1    3    3  502    0  0.14326174210E+04 -0.41209197739E+03 -0.95488324146E+03  0.17703147990E+04  0.10100000352E+00 0.  1.
       -3    1    3    3    0  502 -0.14326174210E+04  0.41209197739E+03  0.24593563883E+03  0.15108596299E+04  0.10100000352E+00 0. -1.
</event>
<event>
 5   0  0.2891204E-07  0.3203644E+04  0.7818609E-02  0.8187855E-01
        1   -1    0    0  501    0  0.00000000000E+00  0.00000000000E+00  0.17576882082E+04  0.17576882082E+04  0.50400001928E-02 0.  1.
       -1   -1    0    0    0  501  0.00000000000E+00  0.00000000000E+00 -0.14597779441E+04  0.14597779441E+04  0.50400001928E-02 0. -1.
    10030    2    1    2    0    0  0.00000000000E+00  0.00000000000E+00  0.29791026406E+03  0.32174661523E+04  0.32036444740E+04 0.  0.
        4    1    3    3  502    0  0.21550275303E+03 -0.10495907763E+04 -0.10468752895E+04  0.14980092519E+04  0.12699999809E+01 0. -1.
       -4    1    3    3    0  502 -0.21550275303E+03  0.10495907763E+04  0.13447855535E+04  0.17194569004E+04  0.12699999809E+01 0.  1.
</event>
<event>
 5   0  0.8335929E-07  0.3421681E+04  0.7818609E-02  0.8132606E-01
        2   -1    0    0  501    0  0.00000000000E+00  0.00000000000E+00  0.15677358161E+04  0.15677358161E+04  0.25500000920E-02 0.  1.
       -2   -1    0    0    0  501  0.00000000000E+00  0.00000000000E+00 -0.18670074291E+04  0.18670074291E+04  0.25500000920E-02 0. -1.
    10030    2    1    2    0    0  0.00000000000E+00  0.00000000000E+00 -0.29927161306E+03  0.34347432452E+04  0.34216805319E+04 0.  0.
        4    1    3    3  502    0  0.48668577486E+03 -0.13647408096E+04  0.76355816364E+03  0.16378043848E+04  0.12699999809E+01 0.  1.
       -4    1    3    3    0  502 -0.48668577486E+03  0.13647408096E+04 -0.10628297767E+04  0.17969388604E+04  0.12699999809E+01 0. -1.
</event>
<event>
 5   0  0.8195618E-07  0.3128385E+04  0.7818609E-02  0.8207991E-01
        2   -1    0    0  501    0  0.00000000000E+00  0.00000000000E+00  0.21000317868E+04  0.21000317868E+04  0.25500000920E-02 0.  1.
       -2   -1    0    0    0  501  0.00000000000E+00  0.00000000000E+00 -0.11650766724E+04  0.11650766724E+04  0.25500000920E-02 0. -1.
    10030    2    1    2    0    0  0.00000000000E+00  0.00000000000E+00  0.93495511437E+03  0.32651084591E+04  0.31283849162E+04 0.  0.
        1    1    3    3  502    0  0.44132959497E+03 -0.72461390199E+03  0.18390100802E+04  0.20252889160E+04  0.50400001928E-02 0.  1.
       -1    1    3    3    0  502 -0.44132959497E+03  0.72461390199E+03 -0.90405496579E+03  0.12398195431E+04  0.50400001928E-02 0. -1.
</event>
<event>
 5   0  0.2997105E-07  0.3206789E+04  0.7818609E-02  0.8187026E-01
        1   -1    0    0  501    0  0.00000000000E+00  0.00000000000E+00  0.14955855619E+04  0.14955855619E+04  0.50400001928E-02 0.  1.
       -1   -1    0    0    0  501  0.00000000000E+00  0.00000000000E+00 -0.17189749655E+04  0.17189749655E+04  0.50400001928E-02 0. -1.
    10030    2    1    2    0    0  0.00000000000E+00  0.00000000000E+00 -0.22338940360E+03  0.32145605275E+04  0.32067891354E+04 0.  0.
        3    1    3    3  502    0  0.91210572207E+03  0.62878556219E+03  0.10502372816E+04  0.15265341429E+04  0.10100000352E+00 0.  1.
       -3    1    3    3    0  502 -0.91210572207E+03 -0.62878556219E+03 -0.12736266852E+04  0.16880263846E+04  0.10100000352E+00 0. -1.
</event>
<event>
 5   0  0.8488469E-07  0.3176935E+04  0.7818609E-02  0.8194935E-01
        2   -1    0    0  501    0  0.00000000000E+00  0.00000000000E+00  0.19998800470E+04  0.19998800470E+04  0.25500000920E-02 0.  1.
       -2   -1    0    0    0  501  0.00000000000E+00  0.00000000000E+00 -0.12616905381E+04  0.12616905381E+04  0.25500000920E-02 0. -1.
    10030    2    1    2    0    0  0.00000000000E+00  0.00000000000E+00  0.73818950889E+03  0.32615705851E+04  0.31769354621E+04 0.  0.
        3    1    3    3  502    0 -0.34543348646E+03  0.92397848569E+03  0.16473216143E+04  0.19200856873E+04  0.10100000352E+00 0.  1.
       -3    1    3    3    0  502  0.34543348646E+03 -0.92397848569E+03 -0.90913210542E+03  0.13414848978E+04  0.10100000352E+00 0. -1.
</event>
<event>
 5   0  0.2891204E-07  0.3200676E+04  0.7818609E-02  0.8188639E-01
        1   -1    0    0  501    0  0.00000000000E+00  0.00000000000E+00  0.21949068618E+04  0.21949068618E+04  0.50400001928E-02 0.  1.
       -1   -1    0    0    0  501  0.00000000000E+00  0.00000000000E+00 -0.11668294584E+04  0.11668294584E+04  0.50400001928E-02 0. -1.
    10030    2    1    2    0    0  0.00000000000E+00  0.00000000000E+00  0.10280774034E+04  0.33617363202E+04  0.32006761690E+04 0.  0.
        4    1    3    3  502    0 -0.17936851717E+03  0.15858891338E+04  0.39037281075E+03  0.16430489810E+04  0.12699999809E+01 0. -1.
       -4    1    3    3    0  502  0.17936851717E+03 -0.15858891338E+04  0.63770459268E+03  0.17186873392E+04  0.12699999809E+01 0.  1.
</event>
<event>
 5   0  0.8838951E-07  0.3198988E+04  0.7818609E-02  0.8189085E-01
       -2   -1    0    0    0  501  0.00000000000E+00  0.00000000000E+00  0.13390307655E+04  0.13390307655E+04  0.25500000920E-02 0.  1.
        2   -1    0    0  501    0  0.00000000000E+00  0.00000000000E+00 -0.19106212515E+04  0.19106212515E+04  0.25500000920E-02 0. -1.
    10030    2    1    2    0    0  0.00000000000E+00  0.00000000000E+00 -0.57159048599E+03  0.32496520169E+04  0.31989877380E+04 0.  0.
        2    1    3    3  502    0 -0.91987222439E+03  0.86308709618E+03  0.71329350163E+03  0.14490934629E+04  0.25500000920E-02 0.  1.
       -2    1    3    3    0  502  0.91987222439E+03 -0.86308709618E+03 -0.12848839876E+04  0.18005585540E+04  0.25500000920E-02 0. -1.
</event>
<event>
 5   0  0.2891204E-07  0.3170021E+04  0.7818609E-02  0.8196780E-01
       -1   -1    0    0    0  501  0.00000000000E+00  0.00000000000E+00  0.17794213960E+04  0.17794213960E+04  0.50400001928E-02 0.  1.
        1   -1    0    0  501    0  0.00000000000E+00  0.00000000000E+00 -0.14118396071E+04  0.14118396071E+04  0.50400001928E-02 0. -1.
    10030    2    1    2    0    0  0.00000000000E+00  0.00000000000E+00  0.36758178887E+03  0.31912610031E+04  0.31700205707E+04 0.  0.
        4    1    3    3  502    0  0.43770956013E+03  0.27472771004E+03  0.16922269091E+04  0.17693779977E+04  0.12699999809E+01 0.  1.
       -4    1    3    3    0  502 -0.43770956013E+03 -0.27472771004E+03 -0.13246451203E+04  0.14218830055E+04  0.12699999809E+01 0. -1.
</event>
<event>
 5   0  0.2891204E-07  0.3200953E+04  0.7818609E-02  0.8188565E-01
        1   -1    0    0  501    0  0.00000000000E+00  0.00000000000E+00  0.19419231932E+04  0.19419231932E+04  0.50400001928E-02 0.  1.
       -1   -1    0    0    0  501  0.00000000000E+00  0.00000000000E+00 -0.13190664165E+04  0.13190664165E+04  0.50400001928E-02 0. -1.
    10030    2    1    2    0    0  0.00000000000E+00  0.00000000000E+00  0.62285677669E+03  0.32609896098E+04  0.32009534003E+04 0.  0.
        4    1    3    3  502    0  0.53158317818E+03  0.10412592454E+04 -0.80210590436E+03  0.14178071047E+04  0.12699999809E+01 0. -1.
       -4    1    3    3    0  502 -0.53158317818E+03 -0.10412592454E+04  0.14249626811E+04  0.18431825050E+04  0.12699999809E+01 0.  1.
</event>
<event>
 5   0  0.2783875E-07  0.3198965E+04  0.7818609E-02  0.8189091E-01
        1   -1    0    0  501    0  0.00000000000E+00  0.00000000000E+00  0.14769447064E+04  0.14769447064E+04  0.50400001928E-02 0.  1.
       -1   -1    0    0    0  501  0.00000000000E+00  0.00000000000E+00 -0.17321865379E+04  0.17321865380E+04  0.50400001928E-02 0. -1.
    10030    2    1    2    0    0  0.00000000000E+00  0.00000000000E+00 -0.25524183153E+03  0.32091312444E+04  0.31989646686E+04 0.  0.
        2    1    3    3  502    0 -0.42514458086E+03 -0.76671451049E+03 -0.14696859940E+04  0.17113082645E+04  0.25500000920E-02 0. -1.
       -2    1    3    3    0  502  0.42514458086E+03  0.76671451049E+03  0.12144441625E+04  0.14978229799E+04  0.25500000920E-02 0.  1.
</event>
<event>
 5   0  0.8838951E-07  0.3201616E+04  0.7818609E-02  0.8188391E-01
       -2   -1    0    0    0  501  0.00000000000E+00  0.00000000000E+00  0.10879853832E+04  0.10879853832E+04  0.25500000920E-02 0. -1.
        2   -1    0    0  501    0  0.00000000000E+00  0.00000000000E+00 -0.23553497831E+04  0.23553497831E+04  0.25500000920E-02 0.  1.
    10030    2    1    2    0    0  0.00000000000E+00  0.00000000000E+00 -0.12673643999E+04  0.34433351663E+04  0.32016159272E+04 0.  0.
        2    1    3    3  502    0  0.49139680060E+03 -0.59125531726E+03 -0.21438041954E+04  0.22774876716E+04  0.25500000920E-02 0.  1.
       -2    1    3    3    0  502 -0.49139680060E+03  0.59125531726E+03  0.87643979548E+03  0.11658474947E+04  0.25500000920E-02 0. -1.
</event>
<event>
 5   0  0.8195618E-07  0.3405364E+04  0.7818609E-02  0.8136591E-01
       -2   -1    0    0    0  501  0.00000000000E+00  0.00000000000E+00  0.16100879664E+04  0.16100879664E+04  0.25500000920E-02 0. -1.
        2   -1    0    0  501    0  0.00000000000E+00  0.00000000000E+00 -0.18006013683E+04  0.18006013683E+04  0.25500000920E-02 0.  1.
    10030    2    1    2    0    0  0.00000000000E+00  0.00000000000E+00 -0.19051340185E+03  0.34106893347E+04  0.34053643537E+04 0.  0.
        1    1    3    3  502    0 -0.10130669119E+04  0.66750330021E+03  0.11012918728E+04  0.16385081669E+04  0.50400001928E-02 0. -1.
       -1    1    3    3    0  502  0.10130669119E+04 -0.66750330021E+03 -0.12918052747E+04  0.17721811678E+04  0.50400001928E-02 0.  1.
</event>
<event>
 5   0  0.8802800E-07  0.3181222E+04  0.7818609E-02  0.8193794E-01
       -2   -1    0    0    0  501  0.00000000000E+00  0.00000000000E+00  0.14444885564E+04  0.14444885564E+04  0.25500000920E-02 0.  1.
        2   -1    0    0  501    0  0.00000000000E+00  0.00000000000E+00 -0.17515148451E+04  0.17515148451E+04  0.25500000920E-02 0. -1.
    10030    2    1    2    0    0  0.00000000000E+00  0.00000000000E+00 -0.30702628872E+03  0.31960034016E+04  0.31812218723E+04 0.  0.
        5    1    3    3  502    0  0.82666309402E+03  0.13346735191E+04  0.10320457855E+03  0.15733399342E+04  0.46999998093E+01 0.  1.
       -5    1    3    3    0  502 -0.82666309402E+03 -0.13346735191E+04 -0.41023086726E+03  0.16226634673E+04  0.46999998093E+01 0. -1.
</event>
<event>
 5   0  0.8195618E-07  0.3183222E+04  0.7818609E-02  0.8193262E-01
        2   -1    0    0  501    0  0.00000000000E+00  0.00000000000E+00  0.13897444287E+04  0.13897444287E+04  0.25500000920E-02 0. -1.
       -2   -1    0    0    0  501  0.00000000000E+00  0.00000000000E+00 -0.18228001114E+04  0.18228001114E+04  0.25500000920E-02 0.  1.
    10030    2    1    2    0    0  0.00000000000E+00  0.00000000000E+00 -0.43305568261E+03  0.32125445401E+04  0.31832224550E+04 0.  0.
        1    1    3    3  502    0 -0.52225852562E+03  0.40678451276E+03 -0.16772716222E+04  0.18031826591E+04  0.50400001928E-02 0.  1.
       -1    1    3    3    0  502  0.52225852562E+03 -0.40678451276E+03  0.12442159396E+04  0.14093618810E+04  0.50400001928E-02 0. -1.
</event>
<event>
 5   0  0.3013888E-07  0.3194699E+04  0.7818609E-02  0.8190219E-01
        1   -1    0    0  501    0  0.00000000000E+00  0.00000000000E+00  0.11767974600E+04  0.11767974600E+04  0.50400001928E-02 0.  1.
       -1   -1    0    0    0  501  0.00000000000E+00  0.00000000000E+00 -0.21681942925E+04  0.21681942925E+04  0.50400001928E-02 0. -1.
    10030    2    1    2    0    0  0.00000000000E+00  0.00000000000E+00 -0.99139683243E+03  0.33449917525E+04  0.31946990695E+04 0.  0.
        1    1    3    3  502    0  0.10152847456E+04 -0.63733776392E+03 -0.16010733523E+04  0.20001096019E+04  0.50400001928E-02 0. -1.
       -1    1    3    3    0  502 -0.10152847456E+04  0.63733776392E+03  0.60967651989E+03  0.13448821506E+04  0.50400001928E-02 0.  1.
</event>
<event>
 5   0  0.8802800E-07  0.3207457E+04  0.7818609E-02  0.8186851E-01
       -2   -1    0    0    0  501  0.00000000000E+00  0.00000000000E+00  0.18539124922E+04  0.18539124922E+04  0.25500000920E-02 0. -1.
        2   -1    0    0  501    0  0.00000000000E+00  0.00000000000E+00 -0.13873063270E+04  0.13873063270E+04  0.25500000920E-02 0.  1.
    10030    2    1    2    0    0  0.00000000000E+00  0.00000000000E+00  0.46660616517E+03  0.32412188191E+04  0.32074566435E+04 0.  0.
        5    1    3    3  502    0  0.13346201914E+04 -0.10267460257E+03  0.11258724718E+04  0.17491037825E+04  0.46999998093E+01 0. -1.
       -5    1    3    3    0  502 -0.13346201914E+04  0.10267460257E+03 -0.65926630660E+03  0.14921150366E+04  0.46999998093E+01 0.  1.
</event>
<event>
 5   0  0.8335929E-07  0.3204333E+04  0.7818609E-02  0.8187674E-01
       -2   -1    0    0    0  501  0.00000000000E+00  0.00000000000E+00  0.11847065249E+04  0.11847065249E+04  0.25500000920E-02 0. -1.
        2   -1    0    0  501    0  0.00000000000E+00  0.00000000000E+00 -0.21667290277E+04  0.21667290277E+04  0.25500000920E-02 0.  1.
    10030    2    1    2    0    0  0.00000000000E+00  0.00000000000E+00 -0.98202250285E+03  0.33514355526E+04  0.32043333265E+04 0.  0.
        4    1    3    3  502    0  0.79206926251E+03 -0.80513390824E+03  0.69751963913E+03  0.13274598249E+04  0.12699999809E+01 0. -1.
       -4    1    3    3    0  502 -0.79206926251E+03  0.80513390824E+03 -0.16795421420E+04  0.20239757277E+04  0.12699999809E+01 0.  1.
</event>
<event>
 5   0  0.8335929E-07  0.3202502E+04  0.7818609E-02  0.8188157E-01
       -2   -1    0    0    0  501  0.00000000000E+00  0.00000000000E+00  0.10353358089E+04  0.10353358090E+04  0.25500000920E-02 0. -1.
        2   -1    0    0  501    0  0.00000000000E+00  0.00000000000E+00 -0.24764951762E+04  0.24764951762E+04  0.25500000920E-02 0.  1.
    10030    2    1    2    0    0  0.00000000000E+00  0.00000000000E+00 -0.14411593672E+04  0.35118309851E+04  0.32025016075E+04 0.  0.
        4    1    3    3  502    0  0.51867488870E+03 -0.71129431917E+03  0.74616386714E+03  0.11540040633E+04  0.12699999809E+01 0. -1.
       -4    1    3    3    0  502 -0.51867488870E+03  0.71129431917E+03 -0.21873232344E+04  0.23578269218E+04  0.12699999809E+01 0.  1.
</event>
<event>
 5   0  0.2783875E-07  0.3182805E+04  0.7818609E-02  0.8193373E-01
       -1   -1    0    0    0  501  0.00000000000E+00  0.00000000000E+00  0.18817605485E+04  0.18817605485E+04  0.50400001928E-02 0.  1.
        1   -1    0    0  501    0  0.00000000000E+00  0.00000000000E+00 -0.13458468898E+04  0.13458468898E+04  0.50400001928E-02 0. -1.
    10030    2    1    2    0    0  0.00000000000E+00  0.00000000000E+00  0.53591365875E+03  0.32276074383E+04  0.31828047892E+04 0.  0.
        2    1    3    3  502    0 -0.49929064098E+03  0.57216942136E+03 -0.11502618642E+04  0.13783219316E+04  0.25500000920E-02 0. -1.
       -2    1    3    3    0  502  0.49929064098E+03 -0.57216942136E+03  0.16861755230E+04  0.18492855067E+04  0.25500000920E-02 0.  1.
</event>
<event>
 5   0  0.3013888E-07  0.3204931E+04  0.7818609E-02  0.8187516E-01
       -1   -1    0    0    0  501  0.00000000000E+00  0.00000000000E+00  0.19808510475E+04  0.19808510475E+04  0.50400001928E-02 0. -1.
        1   -1    0    0  501    0  0.00000000000E+00  0.00000000000E+00 -0.12963598632E+04  0.12963598632E+04  0.50400001928E-02 0.  1.
    10030    2    1    2    0    0  0.00000000000E+00  0.00000000000E+00  0.68449118424E+03  0.32772109107E+04  0.32049310713E+04 0.  0.
        1    1    3    3  502    0 -0.21879847382E+03  0.11430907111E+04 -0.78412609405E+03  0.14033470267E+04  0.50400001928E-02 0.  1.
       -1    1    3    3    0  502  0.21879847382E+03 -0.11430907111E+04  0.14686172783E+04  0.18738638841E+04  0.50400001928E-02 0. -1.
</event>
<event>
 5   0  0.3075756E-07  0.3208361E+04  0.7818609E-02  0.8186613E-01
        1   -1    0    0  501    0  0.00000000000E+00  0.00000000000E+00  0.12334461672E+04  0.12334461672E+04  0.50400001928E-02 0. -1.
       -1   -1    0    0    0  501  0.00000000000E+00  0.00000000000E+00 -0.20863455733E+04  0.20863455734E+04  0.50400001928E-02 0.  1.
    10030    2    1    2    0    0  0.00000000000E+00  0.00000000000E+00 -0.85289940618E+03  0.33197917405E+04  0.32083609216E+04 0.  0.
        5    1    3    3  502    0  0.13909403086E+04  0.71629333119E+03 -0.79313284471E+03  0.17541017296E+04  0.46999998093E+01 0.  1.
       -5    1    3    3    0  502 -0.13909403086E+04 -0.71629333119E+03 -0.59766561470E+02  0.15656900109E+04  0.46999998093E+01 0. -1.
</event>
<event>
 5   0  0.8335929E-07  0.3195205E+04  0.7818609E-02  0.8190085E-01
        2   -1    0    0  501    0  0.00000000000E+00  0.00000000000E+00  0.15256318798E+04  0.15256318798E+04  0.25500000920E-02 0.  1.
       -2   -1    0    0    0  501  0.00000000000E+00  0.00000000000E+00 -0.16729682586E+04  0.16729682586E+04  0.25500000920E-02 0. -1.
    10030    2    1    2    0    0  0.00000000000E+00  0.00000000000E+00 -0.14733637876E+03  0.31986001384E+04  0.31952049757E+04 0.  0.
        4    1    3    3  502    0 -0.13790421375E+04  0.27184417419E+03 -0.83386671864E+03  0.16343169183E+04  0.12699999809E+01 0. -1.
       -4    1    3    3    0  502  0.13790421375E+04 -0.27184417419E+03  0.68653033988E+03  0.15642832201E+04  0.12699999809E+01 0.  1.
</event>
<event>
 5   0  0.8802800E-07  0.3206026E+04  0.7818609E-02  0.8187228E-01
        2   -1    0    0  501    0  0.00000000000E+00  0.00000000000E+00  0.15877512200E+04  0.15877512200E+04  0.25500000920E-02 0. -1.
       -2   -1    0    0    0  501  0.00000000000E+00  0.00000000000E+00 -0.16184212467E+04  0.16184212467E+04  0.25500000920E-02 0.  1.
    10030    2    1    2    0    0  0.00000000000E+00  0.00000000000E+00 -0.30670026638E+02  0.32061724667E+04  0.32060257697E+04 0.  0.
        5    1    3    3  502    0  0.11033862291E+04 -0.10152948757E+04  0.55156248328E+03  0.15976633307E+04  0.46999998093E+01 0. -1.
       -5    1    3    3    0  502 -0.11033862291E+04  0.10152948757E+04 -0.58223250991E+03  0.16085091361E+04  0.46999998093E+01 0.  1.
</event>
<event>
 5   0  0.8195618E-07  0.3191769E+04  0.7818609E-02  0.8190994E-01
        2   -1    0    0  501    0  0.00000000000E+00  0.00000000000E+00  0.17625765713E+04  0.17625765713E+04  0.25500000920E-02 0. -1.
       -2   -1    0    0    0  501  0.00000000000E+00  0.00000000000E+00 -0.14449571973E+04  0.14449571973E+04  0.25500000920E-02 0.  1.
    10030    2    1    2    0    0  0.00000000000E+00  0.00000000000E+00  0.31761937401E+03  0.32075337685E+04  0.31917692287E+04 0.  0.
        1    1    3    3  502    0  0.56087520163E+03 -0.76711767272E+02 -0.13406665801E+04  0.14552843592E+04  0.50400001928E-02 0.  1.
       -1    1    3    3    0  502 -0.56087520163E+03  0.76711767272E+02  0.16582859541E+04  0.17522494094E+04  0.50400001928E-02 0. -1.
</event>
<event>
 5   0  0.8195618E-07  0.3199174E+04  0.7818609E-02  0.8189035E-01
        2   -1    0    0  501    0  0.00000000000E+00  0.00000000000E+00  0.17051597477E+04  0.17051597477E+04  0.25500000920E-02 0. -1.
       -2   -1    0    0    0  501  0.00000000000E+00  0.00000000000E+00 -0.15005509733E+04  0.15005509733E+04  0.25500000920E-02 0.  1.
    10030    2    1    2    0    0  0.00000000000E+00  0.00000000000E+00  0.20460877435E+03  0.32057107210E+04  0.31991743429E+04 0.  0.
        1    1    3    3  502    0  0.47378250889E+02 -0.12349444091E+03 -0.14950616216E+04  0.15009013385E+04  0.50400001928E-02 0.  1.
       -1    1    3    3    0  502 -0.47378250889E+02  0.12349444091E+03  0.16996703959E+04  0.17048093824E+04  0.50400001928E-02 0. -1.
</event>
<event>
 5   0  0.3075756E-07  0.3193481E+04  0.7818609E-02  0.8190541E-01
        1   -1    0    0  501    0  0.00000000000E+00  0.00000000000E+00  0.26556927135E+04  0.26556927135E+04  0.50400001928E-02 0. -1.
       -1   -1    0    0    0  501  0.00000000000E+00  0.00000000000E+00 -0.96004323868E+03  0.96004323869E+03  0.50400001928E-02 0.  1.
    10030    2    1    2    0    0  0.00000000000E+00  0.00000000000E+00  0.16956494748E+04  0.36157359522E+04  0.31934807553E+04 0.  0.
        5    1    3    3  502    0 -0.55604051792E+03  0.28899966062E+03  0.25106360398E+04  0.25876663764E+04  0.46999998093E+01 0. -1.
       -5    1    3    3    0  502  0.55604051792E+03 -0.28899966062E+03 -0.81498656500E+03  0.10280695757E+04  0.46999998093E+01 0.  1.
</event>
<event>
 5   0  0.2783875E-07  0.3189361E+04  0.7818609E-02  0.8191632E-01
       -3   -1    0    0    0  501  0.00000000000E+00  0.00000000000E+00  0.13201794646E+04  0.13201794684E+04  0.10100000352E+00 0. -1.
        3   -1    0    0  501    0  0.00000000000E+00  0.00000000000E+00 -0.19262580250E+04  0.19262580276E+04  0.10100000352E+00 0.  1.
    10030    2    1    2    0    0  0.00000000000E+00  0.00000000000E+00 -0.60607856042E+03  0.32464374961E+04  0.31893612518E+04 0.  0.
        2    1    3    3  502    0 -0.99460785474E+03 -0.34226809301E+02 -0.15713677178E+04  0.18600034311E+04  0.25500000920E-02 0.  1.
       -2    1    3    3    0  502  0.99460785474E+03  0.34226809301E+02  0.96528915737E+03  0.13864340650E+04  0.25500000920E-02 0. -1.
</event>
<event>
 5   0  0.8335929E-07  0.3225287E+04  0.7818609E-02  0.8182171E-01
        2   -1    0    0  501    0  0.00000000000E+00  0.00000000000E+00  0.18771938864E+04  0.18771938864E+04  0.25500000920E-02 0.  1.
       -2   -1    0    0    0  501  0.00000000000E+00  0.00000000000E+00 -0.13853754145E+04  0.13853754145E+04  0.25500000920E-02 0. -1.
    10030    2    1    2    0    0  0.00000000000E+00  0.00000000000E+00  0.49181847188E+03  0.32625693010E+04  0.32252865042E+04 0.  0.
        4    1    3    3  502    0 -0.60809168487E+03 -0.70712424917E+03  0.15767219842E+04  0.18318990227E+04  0.12699999809E+01 0.  1.
       -4    1    3    3    0  502  0.60809168487E+03  0.70712424917E+03 -0.10849035124E+04  0.14306702782E+04  0.12699999809E+01 0. -1.
</event>
<event>
 5   0  0.2891204E-07  0.3203025E+04  0.7818609E-02  0.8188019E-01
        1   -1    0    0  501    0  0.00000000000E+00  0.00000000000E+00  0.20364466868E+04  0.20364466868E+04  0.50400001928E-02 0. -1.
       -1   -1    0    0    0  501  0.00000000000E+00  0.00000000000E+00 -0.12594692540E+04  0.12594692540E+04  0.50400001928E-02 0.  1.
    10030    2    1    2    0    0  0.00000000000E+00  0.00000000000E+00  0.77697743280E+03  0.32959159408E+04  0.32030248138E+04 0.  0.
        4    1    3    3  502    0  0.91488699141E+03 -0.11924544137E+04  0.95758737230E+03  0.17821169783E+04  0.12699999809E+01 0. -1.
       -4    1    3    3    0  502 -0.91488699141E+03  0.11924544137E+04 -0.18060993950E+03  0.15137989625E+04  0.12699999809E+01 0.  1.
</event>
<event>
 5   0  0.8335929E-07  0.3185407E+04  0.7818609E-02  0.8192682E-01
       -2   -1    0    0    0  501  0.00000000000E+00  0.00000000000E+00  0.14798851750E+04  0.14798851750E+04  0.25500000920E-02 0. -1.
        2   -1    0    0  501    0  0.00000000000E+00  0.00000000000E+00 -0.17141222248E+04  0.17141222248E+04  0.25500000920E-02 0.  1.
    10030    2    1    2    0    0  0.00000000000E+00  0.00000000000E+00 -0.23423704974E+03  0.31940073998E+04  0.31854067675E+04 0.  0.
        4    1    3    3  502    0 -0.10437447135E+04 -0.23233813192E+03 -0.13006946854E+04  0.16838029315E+04  0.12699999809E+01 0.  1.
       -4    1    3    3    0  502  0.10437447135E+04  0.23233813192E+03  0.10664576356E+04  0.15102044683E+04  0.12699999809E+01 0. -1.
</event>
<event>
 5   0  0.2997105E-07  0.3198926E+04  0.7818609E-02  0.8189101E-01
        1   -1    0    0  501    0  0.00000000000E+00  0.00000000000E+00  0.15582235368E+04  0.15582235368E+04  0.50400001928E-02 0.  1.
       -1   -1    0    0    0  501  0.00000000000E+00  0.00000000000E+00 -0.16417935585E+04  0.16417935585E+04  0.50400001928E-02 0. -1.
    10030    2    1    2    0    0  0.00000000000E+00  0.00000000000E+00 -0.83570021728E+02  0.32000170953E+04  0.31989256730E+04 0.  0.
        3    1    3    3  502    0  0.94244105791E+02 -0.60306144486E+03 -0.15207062443E+04  0.16386313037E+04  0.10100000352E+00 0. -1.
       -3    1    3    3    0  502 -0.94244105791E+02  0.60306144486E+03  0.14371362226E+04  0.15613857916E+04  0.10100000352E+00 0.  1.
</event>
<event>
 5   0  0.2891204E-07  0.3199813E+04  0.7818609E-02  0.8188867E-01
       -1   -1    0    0    0  501  0.00000000000E+00  0.00000000000E+00  0.16126881773E+04  0.16126881773E+04  0.50400001928E-02 0. -1.
        1   -1    0    0  501    0  0.00000000000E+00  0.00000000000E+00 -0.15872258033E+04  0.15872258033E+04  0.50400001928E-02 0.  1.
    10030    2    1    2    0    0  0.00000000000E+00  0.00000000000E+00  0.25462373944E+02  0.31999139806E+04  0.31998126743E+04 0.  0.
        4    1    3    3  502    0 -0.13248947415E+04 -0.68272532440E+03 -0.56887017816E+03  0.15953290686E+04  0.12699999809E+01 0.  1.
       -4    1    3    3    0  502  0.13248947415E+04  0.68272532440E+03  0.59433255210E+03  0.16045849120E+04  0.12699999809E+01 0. -1.
</event>
<event>
 5   0  0.2783875E-07  0.3189326E+04  0.7818609E-02  0.8191642E-01
       -1   -1    0    0    0  501  0.00000000000E+00  0.00000000000E+00  0.15595924105E+04  0.15595924105E+04  0.50400001928E-02 0.  1.
        1   -1    0    0  501    0  0.00000000000E+00  0.00000000000E+00 -0.16305224159E+04  0.16305224159E+04  0.50400001928E-02 0. -1.
    10030    2    1    2    0    0  0.00000000000E+00  0.00000000000E+00 -0.70930005353E+02  0.31901148264E+04  0.31893261890E+04 0.  0.
        2    1    3    3  502    0 -0.14708545315E+04  0.54601585043E+02 -0.64925832874E+03  0.16087046849E+04  0.25500000920E-02 0.  1.
       -2    1    3    3    0  502  0.14708545315E+04 -0.54601585043E+02  0.57832832338E+03  0.15814101415E+04  0.25500000920E-02 0. -1.
</event>
<event>
 5   0  0.8195618E-07  0.3123281E+04  0.7818609E-02  0.8209378E-01
       -2   -1    0    0    0  501  0.00000000000E+00  0.00000000000E+00  0.19939207284E+04  0.19939207284E+04  0.25500000920E-02 0. -1.
        2   -1    0    0  501    0  0.00000000000E+00  0.00000000000E+00 -0.12230781203E+04  0.12230781203E+04  0.25500000920E-02 0.  1.
    10030    2    1    2    0    0  0.00000000000E+00  0.00000000000E+00  0.77084260817E+03  0.32169988487E+04  0.31232808497E+04 0.  0.
        1    1    3    3  502    0  0.12497817680E+04  0.26070543973E+02 -0.57865943130E+03  0.13774907907E+04  0.50400001928E-02 0.  1.
       -1    1    3    3    0  502 -0.12497817680E+04 -0.26070543973E+02  0.13495020395E+04  0.18395080580E+04  0.50400001928E-02 0. -1.
</event>
<event>
 5   0  0.3013888E-07  0.3149463E+04  0.7818609E-02  0.8202293E-01
        1   -1    0    0  501    0  0.00000000000E+00  0.00000000000E+00  0.18074846796E+04  0.18074846796E+04  0.50400001928E-02 0. -1.
       -1   -1    0    0    0  501  0.00000000000E+00  0.00000000000E+00 -0.13719505457E+04  0.13719505457E+04  0.50400001928E-02 0.  1.
    10030    2    1    2    0    0  0.00000000000E+00  0.00000000000E+00  0.43553413393E+03  0.31794352253E+04  0.31494631876E+04 0.  0.
        1    1    3    3  502    0 -0.84992436692E+03  0.78805490682E+03  0.12939219544E+04  0.17371344190E+04  0.50400001928E-02 0. -1.
       -1    1    3    3    0  502  0.84992436692E+03 -0.78805490682E+03 -0.85838782045E+03  0.14423008063E+04  0.50400001928E-02 0.  1.
</event>
<event>
 5   0  0.8195618E-07  0.3127437E+04  0.7818609E-02  0.8208248E-01
        2   -1    0    0  501    0  0.00000000000E+00  0.00000000000E+00  0.88587097438E+03  0.88587097438E+03  0.25500000920E-02 0. -1.
       -2   -1    0    0    0  501  0.00000000000E+00  0.00000000000E+00 -0.27602392381E+04  0.27602392381E+04  0.25500000920E-02 0.  1.
    10030    2    1    2    0    0  0.00000000000E+00  0.00000000000E+00 -0.18743682637E+04  0.36461102125E+04  0.31274371766E+04 0.  0.
        1    1    3    3  502    0  0.12248793814E+04 -0.14262491579E+03  0.18381453851E+03  0.12467795114E+04  0.50400001928E-02 0. -1.
       -1    1    3    3    0  502 -0.12248793814E+04  0.14262491579E+03 -0.20581828022E+04  0.23993307010E+04  0.50400001928E-02 0.  1.
</event>
<event>
 5   0  0.8838951E-07  0.3195791E+04  0.7818609E-02  0.8189930E-01
        2   -1    0    0  501    0  0.00000000000E+00  0.00000000000E+00  0.23456816532E+04  0.23456816532E+04  0.25500000920E-02 0.  1.
       -2   -1    0    0    0  501  0.00000000000E+00  0.00000000000E+00 -0.10884984419E+04  0.10884984419E+04  0.25500000920E-02 0. -1.
    10030    2    1    2    0    0  0.00000000000E+00  0.00000000000E+00  0.12571832113E+04  0.34341800951E+04  0.31957914980E+04 0.  0.
        2    1    3    3  502    0  0.10781420853E+04 -0.96303090134E+03 -0.10296340176E+03  0.14492826967E+04  0.25500000920E-02 0. -1.
       -2    1    3    3    0  502 -0.10781420853E+04  0.96303090134E+03  0.13601466131E+04  0.19848973984E+04  0.25500000920E-02 0.  1.
</event>
<event>
 5   0  0.8335929E-07  0.3194968E+04  0.7818609E-02  0.8190147E-01
        2   -1    0    0  501    0  0.00000000000E+00  0.00000000000E+00  0.12942405899E+04  0.12942405899E+04  0.25500000920E-02 0.  1.
       -2   -1    0    0    0  501  0.00000000000E+00  0.00000000000E+00 -0.19717780554E+04  0.19717780554E+04  0.25500000920E-02 0. -1.
    10030    2    1    2    0    0  0.00000000000E+00  0.00000000000E+00 -0.67753746552E+03  0.32660186454E+04  0.31949680397E+04 0.  0.
        4    1    3    3  502    0  0.66458455328E+03 -0.14500744034E+04 -0.24985646524E+03  0.16145644211E+04  0.12699999809E+01 0. -1.
       -4    1    3    3    0  502 -0.66458455328E+03  0.14500744034E+04 -0.42768100028E+03  0.16514542242E+04  0.12699999809E+01 0.  1.
</event>
<event>
 5   0  0.2783875E-07  0.3207931E+04  0.7818609E-02  0.8186726E-01
       -1   -1    0    0    0  501  0.00000000000E+00  0.00000000000E+00  0.13797536553E+04  0.13797536553E+04  0.50400001928E-02 0. -1.
        1   -1    0    0  501    0  0.00000000000E+00  0.00000000000E+00 -0.18646121248E+04  0.18646121248E+04  0.50400001928E-02 0.  1.
    10030    2    1    2    0    0  0.00000000000E+00  0.00000000000E+00 -0.48485846942E+03  0.32443657801E+04  0.32079310435E+04 0.  0.
        2    1    3    3  502    0 -0.68686294656E+03  0.13723965460E+04  0.22918499300E+03  0.15517018876E+04  0.25500000920E-02 0. -1.
       -2    1    3    3    0  502  0.68686294656E+03 -0.13723965460E+04 -0.71404346242E+03  0.16926638925E+04  0.25500000920E-02 0.  1.
</event>
<event>
 5   0  0.3013888E-07  0.3197681E+04  0.7818609E-02  0.8189430E-01
        1   -1    0    0  501    0  0.00000000000E+00  0.00000000000E+00  0.11916143971E+04  0.11916143971E+04  0.50400001928E-02 0. -1.
       -1   -1    0    0    0  501  0.00000000000E+00  0.00000000000E+00 -0.21452339391E+04  0.21452339391E+04  0.50400001928E-02 0.  1.
    10030    2    1    2    0    0  0.00000000000E+00  0.00000000000E+00 -0.95361954198E+03  0.33368483362E+04  0.31976814394E+04 0.  0.
        1    1    3    3  502    0  0.11813927688E+04 -0.35447880497E+03 -0.15384086275E+04  0.19718126692E+04  0.50400001928E-02 0.  1.
       -1    1    3    3    0  502 -0.11813927688E+04  0.35447880497E+03  0.58478908552E+03  0.13650356669E+04  0.50400001928E-02 0. -1.
</event>
<event>
 5   0  0.8335929E-07  0.3202909E+04  0.7818609E-02  0.8188049E-01
       -2   -1    0    0    0  501  0.00000000000E+00  0.00000000000E+00  0.13384814774E+04  0.13384814774E+04  0.25500000920E-02 0.  1.
        2   -1    0    0  501    0  0.00000000000E+00  0.00000000000E+00 -0.19160936847E+04  0.19160936847E+04  0.25500000920E-02 0. -1.
    10030    2    1    2    0    0  0.00000000000E+00  0.00000000000E+00 -0.57761220733E+03  0.32545751621E+04  0.32029086193E+04 0.  0.
        4    1    3    3  502    0 -0.11935343558E+04  0.96701976370E+03  0.17126998858E+03  0.15456346605E+04  0.12699999809E+01 0.  1.
       -4    1    3    3    0  502  0.11935343558E+04 -0.96701976370E+03 -0.74888219592E+03  0.17089405016E+04  0.12699999809E+01 0. -1.
</event>
<event>
 5   0  0.8488469E-07  0.3201421E+04  0.7818609E-02  0.8188442E-01
       -2   -1    0    0    0  501  0.00000000000E+00  0.00000000000E+00  0.19866471322E+04  0.19866471322E+04  0.25500000920E-02 0.  1.
        2   -1    0    0  501    0  0.00000000000E+00  0.00000000000E+00 -0.12897475720E+04  0.12897475720E+04  0.25500000920E-02 0. -1.
    10030    2    1    2    0    0  0.00000000000E+00  0.00000000000E+00  0.69689956023E+03  0.32763947043E+04  0.32014205068E+04 0.  0.
        3    1    3    3  502    0 -0.33800685532E+03  0.12936056833E+04  0.12491800629E+04  0.18297855442E+04  0.10100000352E+00 0.  1.
       -3    1    3    3    0  502  0.33800685532E+03 -0.12936056833E+04 -0.55228050265E+03  0.14466091600E+04  0.10100000352E+00 0. -1.
</event>
<event>
 5   0  0.2783875E-07  0.3201141E+04  0.7818609E-02  0.8188516E-01
       -1   -1    0    0    0  501  0.00000000000E+00  0.00000000000E+00  0.14174832958E+04  0.14174832958E+04  0.50400001928E-02 0.  1.
        1   -1    0    0  501    0  0.00000000000E+00  0.00000000000E+00 -0.18073056119E+04  0.18073056119E+04  0.50400001928E-02 0. -1.
    10030    2    1    2    0    0  0.00000000000E+00  0.00000000000E+00 -0.38982231611E+03  0.32247889077E+04  0.32011407437E+04 0.  0.
        2    1    3    3  502    0  0.11651766902E+04  0.92975699838E+02 -0.12963981218E+04  0.17455455567E+04  0.25500000920E-02 0. -1.
       -2    1    3    3    0  502 -0.11651766902E+04 -0.92975699838E+02  0.90657580565E+03  0.14792433511E+04  0.25500000920E-02 0.  1.
</event>
<event>
 5   0  0.2997105E-07  0.3207199E+04  0.7818609E-02  0.8186918E-01
        1   -1    0    0  501    0  0.00000000000E+00  0.00000000000E+00  0.11199598742E+04  0.11199598742E+04  0.50400001928E-02 0. -1.
       -1   -1    0    0    0  501  0.00000000000E+00  0.00000000000E+00 -0.22960929060E+04  0.22960929060E+04  0.50400001928E-02 0.  1.
    10030    2    1    2    0    0  0.00000000000E+00  0.00000000000E+00 -0.11761330318E+04  0.34160527802E+04  0.32071993528E+04 0.  0.
        3    1    3    3  502    0  0.13610156760E+03 -0.40432257503E+03 -0.22345409797E+04  0.22749008290E+04  0.10100000352E+00 0.  1.
       -3    1    3    3    0  502 -0.13610156760E+03  0.40432257503E+03  0.10584079479E+04  0.11411519512E+04  0.10100000352E+00 0. -1.
</event>
<event>
 5   0  0.8838951E-07  0.3206274E+04  0.7818609E-02  0.8187162E-01
        2   -1    0    0  501    0  0.00000000000E+00  0.00000000000E+00  0.12246731302E+04  0.12246731302E+04  0.25500000920E-02 0.  1.
       -2   -1    0    0    0  501  0.00000000000E+00  0.00000000000E+00 -0.20985590344E+04  0.20985590344E+04  0.25500000920E-02 0. -1.
    10030    2    1    2    0    0  0.00000000000E+00  0.00000000000E+00 -0.87388590420E+03  0.33232321647E+04  0.32062743873E+04 0.  0.
        2    1    3    3  502    0 -0.55070983932E+03  0.56206974282E+03 -0.18846190193E+04  0.20423008032E+04  0.25500000920E-02 0. -1.
       -2    1    3    3    0  502  0.55070983932E+03 -0.56206974282E+03  0.10107331151E+04  0.12809313615E+04  0.25500000920E-02 0.  1.
</event>
<event>
 5   0  0.8335929E-07  0.3193148E+04  0.7818609E-02  0.8190629E-01
        2   -1    0    0  501    0  0.00000000000E+00  0.00000000000E+00  0.11125970656E+04  0.11125970656E+04  0.25500000920E-02 0. -1.
       -2   -1    0    0    0  501  0.00000000000E+00  0.00000000000E+00 -0.22910795037E+04  0.22910795037E+04  0.25500000920E-02 0.  1.
    10030    2    1    2    0    0  0.00000000000E+00  0.00000000000E+00 -0.11784824381E+04  0.34036765693E+04  0.31931478718E+04 0.  0.
        4    1    3    3  502    0 -0.48948907576E+03 -0.11684738055E+04 -0.16249602661E+04  0.20604436582E+04  0.12699999809E+01 0.  1.
       -4    1    3    3    0  502  0.48948907576E+03  0.11684738055E+04  0.44647782798E+03  0.13432329110E+04  0.12699999809E+01 0. -1.
</event>
<event>
 5   0  0.3013888E-07  0.3211139E+04  0.7818609E-02  0.8185881E-01
        1   -1    0    0  501    0  0.00000000000E+00  0.00000000000E+00  0.18005290388E+04  0.18005290388E+04  0.50400001928E-02 0.  1.
       -1   -1    0    0    0  501  0.00000000000E+00  0.00000000000E+00 -0.14317202980E+04  0.14317202981E+04  0.50400001928E-02 0. -1.
    10030    2    1    2    0    0  0.00000000000E+00  0.00000000000E+00  0.36880874076E+03  0.32322493369E+04  0.32111393443E+04 0.  0.
        1    1    3    3  502    0 -0.15151844004E+04 -0.32608140605E+03  0.60637517102E+03  0.16642727237E+04  0.50400001928E-02 0.  1.
       -1    1    3    3    0  502  0.15151844004E+04  0.32608140605E+03 -0.23756643027E+03  0.15679766132E+04  0.50400001928E-02 0. -1.
</event>
<event>
 5   0  0.3013888E-07  0.3196275E+04  0.7818609E-02  0.8189802E-01
       -1   -1    0    0    0  501  0.00000000000E+00  0.00000000000E+00  0.70048536762E+03  0.70048536764E+03  0.50400001928E-02 0. -1.
        1   -1    0    0  501    0  0.00000000000E+00  0.00000000000E+00 -0.36461064751E+04  0.36461064752E+04  0.50400001928E-02 0.  1.
    10030    2    1    2    0    0  0.00000000000E+00  0.00000000000E+00 -0.29456211075E+04  0.43465918428E+04  0.31962754792E+04 0.  0.
        1    1    3    3  502    0  0.76263971753E+03 -0.64836242294E+03 -0.31669831811E+04  0.33214116938E+04  0.50400001928E-02 0.  1.
       -1    1    3    3    0  502 -0.76263971753E+03  0.64836242294E+03  0.22136207359E+03  0.10251801490E+04  0.50400001928E-02 0. -1.
</event>
<event>
 5   0  0.8488469E-07  0.3210777E+04  0.7818609E-02  0.8185977E-01
        2   -1    0    0  501    0  0.00000000000E+00  0.00000000000E+00  0.26320513275E+04  0.26320513275E+04  0.25500000920E-02 0.  1.
       -2   -1    0    0    0  501  0.00000000000E+00  0.00000000000E+00 -0.97918768472E+03  0.97918768473E+03  0.25500000920E-02 0. -1.
    10030    2    1    2    0    0  0.00000000000E+00  0.00000000000E+00  0.16528636428E+04  0.36112390122E+04  0.32107770059E+04 0.  0.
        3    1    3    3  502    0 -0.11327377206E+04  0.10668964807E+04  0.12705333083E+04  0.20088847009E+04  0.10100000352E+00 0.  1.
       -3    1    3    3    0  502  0.11327377206E+04 -0.10668964807E+04  0.38233033455E+03  0.16023543113E+04  0.10100000352E+00 0. -1.
</event>
<event>
 5   0  0.2891204E-07  0.3197577E+04  0.7818609E-02  0.8189457E-01
       -1   -1    0    0    0  501  0.00000000000E+00  0.00000000000E+00  0.11223669216E+04  0.11223669216E+04  0.50400001928E-02 0. -1.
        1   -1    0    0  501    0  0.00000000000E+00  0.00000000000E+00 -0.22774412569E+04  0.22774412569E+04  0.50400001928E-02 0.  1.
    10030    2    1    2    0    0  0.00000000000E+00  0.00000000000E+00 -0.11550743353E+04  0.33998081785E+04  0.31975770406E+04 0.  0.
        4    1    3    3  502    0  0.40204945263E+03 -0.57153667725E+03  0.95140235609E+03  0.11804516051E+04  0.12699999809E+01 0. -1.
       -4    1    3    3    0  502 -0.40204945263E+03  0.57153667725E+03 -0.21064766914E+04  0.22193565735E+04  0.12699999809E+01 0.  1.
</event>
<event>
 5   0  0.3013888E-07  0.3215399E+04  0.7818609E-02  0.8184762E-01
        1   -1    0    0  501    0  0.00000000000E+00  0.00000000000E+00  0.19756261648E+04  0.19756261648E+04  0.50400001928E-02 0. -1.
       -1   -1    0    0    0  501  0.00000000000E+00  0.00000000000E+00 -0.13082932277E+04  0.13082932277E+04  0.50400001928E-02 0.  1.
    10030    2    1    2    0    0  0.00000000000E+00  0.00000000000E+00  0.66733293709E+03  0.32839193925E+04  0.32153994041E+04 0.  0.
        1    1    3    3  502    0 -0.29915503986E+02  0.16003907687E+04  0.18029039315E+03  0.16107917854E+04  0.50400001928E-02 0. -1.
       -1    1    3    3    0  502  0.29915503986E+02 -0.16003907687E+04  0.48704254395E+03  0.16731276071E+04  0.50400001928E-02 0.  1.
</event>
<event>
 5   0  0.3013888E-07  0.3305227E+04  0.7818609E-02  0.8161567E-01
       -1   -1    0    0    0  501  0.00000000000E+00  0.00000000000E+00  0.14998136115E+04  0.14998136115E+04  0.50400001928E-02 0. -1.
        1   -1    0    0  501    0  0.00000000000E+00  0.00000000000E+00 -0.18209804130E+04  0.18209804130E+04  0.50400001928E-02 0.  1.
    10030    2    1    2    0    0  0.00000000000E+00  0.00000000000E+00 -0.32116680153E+03  0.33207940245E+04  0.33052268967E+04 0.  0.
        1    1    3    3  502    0 -0.12949836452E+04  0.76701573480E+03  0.52515255113E+03  0.15940768428E+04  0.50400001928E-02 0. -1.
       -1    1    3    3    0  502  0.12949836452E+04 -0.76701573480E+03 -0.84631935266E+03  0.17267171817E+04  0.50400001928E-02 0.  1.
</event>
<event>
 5   0  0.2997105E-07  0.3188443E+04  0.7818609E-02  0.8191876E-01
        1   -1    0    0  501    0  0.00000000000E+00  0.00000000000E+00  0.24993486753E+04  0.24993486753E+04  0.50400001928E-02 0.  1.
       -1   -1    0    0    0  501  0.00000000000E+00  0.00000000000E+00 -0.10168820357E+04  0.10168820357E+04  0.50400001928E-02 0. -1.
    10030    2    1    2    0    0  0.00000000000E+00  0.00000000000E+00  0.14824666395E+04  0.35162307110E+04  0.31884433625E+04 0.  0.
        3    1    3    3  502    0 -0.10144477426E+04 -0.12160431529E+04  0.94361403981E+03  0.18434404353E+04  0.10100000352E+00 0. -1.
       -3    1    3    3    0  502  0.10144477426E+04  0.12160431529E+04  0.53885259973E+03  0.16727902757E+04  0.10100000352E+00 0.  1.
</event>
<event>
 5   0  0.8802800E-07  0.3202781E+04  0.7818609E-02  0.8188083E-01
       -2   -1    0    0    0  501  0.00000000000E+00  0.00000000000E+00  0.12840472317E+04  0.12840472317E+04  0.25500000920E-02 0.  1.
        2   -1    0    0  501    0  0.00000000000E+00  0.00000000000E+00 -0.19971631526E+04  0.19971631526E+04  0.25500000920E-02 0. -1.
    10030    2    1    2    0    0  0.00000000000E+00  0.00000000000E+00 -0.71311592089E+03  0.32812103843E+04  0.32027811772E+04 0.  0.
        5    1    3    3  502    0  0.55174783524E+03  0.13952989478E+04 -0.92985471245E+03  0.17652016042E+04  0.46999998093E+01 0. -1.
       -5    1    3    3    0  502 -0.55174783524E+03 -0.13952989478E+04  0.21673879156E+03  0.15160087800E+04  0.46999998093E+01 0.  1.
</event>
<event>
 5   0  0.2891204E-07  0.3205122E+04  0.7818609E-02  0.8187466E-01
       -1   -1    0    0    0  501  0.00000000000E+00  0.00000000000E+00  0.12327378935E+04  0.12327378935E+04  0.50400001928E-02 0.  1.
        1   -1    0    0  501    0  0.00000000000E+00  0.00000000000E+00 -0.20833317037E+04  0.20833317037E+04  0.50400001928E-02 0. -1.
    10030    2    1    2    0    0  0.00000000000E+00  0.00000000000E+00 -0.85059381016E+03  0.33160695972E+04  0.32051221106E+04 0.  0.
        4    1    3    3  502    0  0.60492914908E+01  0.98001947198E+03  0.88655561940E+03  0.13215359392E+04  0.12699999809E+01 0.  1.
       -4    1    3    3    0  502 -0.60492914908E+01 -0.98001947198E+03 -0.17371494296E+04  0.19945336580E+04  0.12699999809E+01 0. -1.
</event>
<event>
 5   0  0.3013888E-07  0.3202709E+04  0.7818609E-02  0.8188102E-01
       -1   -1    0    0    0  501  0.00000000000E+00  0.00000000000E+00  0.22529326291E+04  0.22529326291E+04  0.50400001928E-02 0. -1.
        1   -1    0    0  501    0  0.00000000000E+00  0.00000000000E+00 -0.11382214857E+04  0.11382214857E+04  0.50400001928E-02 0.  1.
    10030    2    1    2    0    0  0.00000000000E+00  0.00000000000E+00  0.11147111434E+04  0.33911541149E+04  0.32027090560E+04 0.  0.
        1    1    3    3  502    0  0.77071883491E+03  0.68782704925E+03  0.18529624605E+04  0.21214578601E+04  0.50400001928E-02 0. -1.
       -1    1    3    3    0  502 -0.77071883491E+03 -0.68782704925E+03 -0.73825131710E+03  0.12696962548E+04  0.50400001928E-02 0.  1.
</event>
<event>
 5   0  0.3013888E-07  0.3206379E+04  0.7818609E-02  0.8187134E-01
        1   -1    0    0  501    0  0.00000000000E+00  0.00000000000E+00  0.23077362010E+04  0.23077362010E+04  0.50400001928E-02 0.  1.
       -1   -1    0    0    0  501  0.00000000000E+00  0.00000000000E+00 -0.11137394701E+04  0.11137394701E+04  0.50400001928E-02 0. -1.
    10030    2    1    2    0    0  0.00000000000E+00  0.00000000000E+00  0.11939967309E+04  0.34214756711E+04  0.32063792001E+04 0.  0.
        1    1    3    3  502    0  0.92527626788E+03  0.10253248705E+04 -0.27173484961E+03  0.14075748970E+04  0.50400001928E-02 0. -1.
       -1    1    3    3    0  502 -0.92527626788E+03 -0.10253248705E+04  0.14657315806E+04  0.20139007742E+04  0.50400001928E-02 0.  1.
</event>
<event>
 5   0  0.8802800E-07  0.3188391E+04  0.7818609E-02  0.8191890E-01
        2   -1    0    0  501    0  0.00000000000E+00  0.00000000000E+00  0.12379814246E+04  0.12379814246E+04  0.25500000920E-02 0.  1.
       -2   -1    0    0    0  501  0.00000000000E+00  0.00000000000E+00 -0.20529052583E+04  0.20529052583E+04  0.25500000920E-02 0. -1.
    10030    2    1    2    0    0  0.00000000000E+00  0.00000000000E+00 -0.81492383376E+03  0.32908866829E+04  0.31883905509E+04 0.  0.
        5    1    3    3  502    0 -0.12809225636E+04 -0.36936909929E+03 -0.13097732123E+04  0.18688831165E+04  0.46999998093E+01 0. -1.
       -5    1    3    3    0  502  0.12809225636E+04  0.36936909929E+03  0.49484937855E+03  0.14220035664E+04  0.46999998093E+01 0.  1.
</event>
<event>
 5   0  0.8335929E-07  0.3195856E+04  0.7818609E-02  0.8189913E-01
        2   -1    0    0  501    0  0.00000000000E+00  0.00000000000E+00  0.18331325347E+04  0.18331325347E+04  0.25500000920E-02 0. -1.
       -2   -1    0    0    0  501  0.00000000000E+00  0.00000000000E+00 -0.13929016795E+04  0.13929016795E+04  0.25500000920E-02 0.  1.
    10030    2    1    2    0    0  0.00000000000E+00  0.00000000000E+00  0.44023085521E+03  0.32260342142E+04  0.31958556828E+04 0.  0.
        4    1    3    3  502    0 -0.33134930555E+03 -0.11229357193E+04 -0.87762532869E+03  0.14632172848E+04  0.12699999809E+01 0.  1.
       -4    1    3    3    0  502  0.33134930555E+03  0.11229357193E+04  0.13178561839E+04  0.17628169294E+04  0.12699999809E+01 0. -1.
</event>
<event>
 5   0  0.3075756E-07  0.3229972E+04  0.7818609E-02  0.8180946E-01
        1   -1    0    0  501    0  0.00000000000E+00  0.00000000000E+00  0.20810843777E+04  0.20810843778E+04  0.50400001928E-02 0. -1.
       -1   -1    0    0    0  501  0.00000000000E+00  0.00000000000E+00 -0.12532791978E+04  0.12532791978E+04  0.50400001928E-02 0.  1.
    10030    2    1    2    0    0  0.00000000000E+00  0.00000000000E+00  0.82780517999E+03  0.33343635755E+04  0.32299719871E+04 0.  0.
        5    1    3    3  502    0 -0.65769178780E+03  0.13974007822E+04  0.90125176283E+03  0.17881734435E+04  0.46999998093E+01 0. -1.
       -5    1    3    3    0  502  0.65769178780E+03 -0.13974007822E+04 -0.73446582839E+02  0.15461901320E+04  0.46999998093E+01 0.  1.
</event>
<event>
 5   0  0.8335929E-07  0.3209134E+04  0.7818609E-02  0.8186409E-01
        2   -1    0    0  501    0  0.00000000000E+00  0.00000000000E+00  0.19514998210E+04  0.19514998210E+04  0.25500000920E-02 0.  1.
       -2   -1    0    0    0  501  0.00000000000E+00  0.00000000000E+00 -0.13193108175E+04  0.13193108175E+04  0.25500000920E-02 0. -1.
    10030    2    1    2    0    0  0.00000000000E+00  0.00000000000E+00  0.63218900354E+03  0.32708106385E+04  0.32091337299E+04 0.  0.
        4    1    3    3  502    0  0.11503642832E+04 -0.72836842686E+03  0.11813957734E+04  0.18026525277E+04  0.12699999809E+01 0. -1.
       -4    1    3    3    0  502 -0.11503642832E+04  0.72836842686E+03 -0.54920676984E+03  0.14681581108E+04  0.12699999809E+01 0.  1.
</event>
<event>
 5   0  0.2997105E-07  0.3177525E+04  0.7818609E-02  0.8194778E-01
        1   -1    0    0  501    0  0.00000000000E+00  0.00000000000E+00  0.19367181640E+04  0.19367181640E+04  0.50400001928E-02 0.  1.
       -1   -1    0    0    0  501  0.00000000000E+00  0.00000000000E+00 -0.13033210406E+04  0.13033210406E+04  0.50400001928E-02 0. -1.
    10030    2    1    2    0    0  0.00000000000E+00  0.00000000000E+00  0.63339712338E+03  0.32400392046E+04  0.31775245288E+04 0.  0.
        3    1    3    3  502    0 -0.36549078005E+03  0.15236609668E+04  0.48775899127E+02  0.15676432472E+04  0.10100000352E+00 0. -1.
       -3    1    3    3    0  502  0.36549078005E+03 -0.15236609668E+04  0.58462122425E+03  0.16723959573E+04  0.10100000352E+00 0.  1.
</event>
<event>
 5   0  0.8838951E-07  0.3253677E+04  0.7818609E-02  0.8174783E-01
       -2   -1    0    0    0  501  0.00000000000E+00  0.00000000000E+00  0.11044553967E+04  0.11044553967E+04  0.25500000920E-02 0. -1.
        2   -1    0    0  501    0  0.00000000000E+00  0.00000000000E+00 -0.23962966669E+04  0.23962966669E+04  0.25500000920E-02 0.  1.
    10030    2    1    2    0    0  0.00000000000E+00  0.00000000000E+00 -0.12918412702E+04  0.35007520636E+04  0.32536765580E+04 0.  0.
        2    1    3    3  502    0 -0.99354964715E+03  0.94915092436E+03  0.29117964657E+03  0.14045689606E+04  0.25500000920E-02 0. -1.
       -2    1    3    3    0  502  0.99354964715E+03 -0.94915092436E+03 -0.15830209167E+04  0.20961831030E+04  0.25500000920E-02 0.  1.
</event>
<event>
 5   0  0.8195618E-07  0.3197470E+04  0.7818609E-02  0.8189486E-01
        2   -1    0    0  501    0  0.00000000000E+00  0.00000000000E+00  0.18209526790E+04  0.18209526790E+04  0.25500000920E-02 0. -1.
       -2   -1    0    0    0  501  0.00000000000E+00  0.00000000000E+00 -0.14036351171E+04  0.14036351171E+04  0.25500000920E-02 0.  1.
    10030    2    1    2    0    0  0.00000000000E+00  0.00000000000E+00  0.41731756196E+03  0.32245877961E+04  0.31974697039E+04 0.  0.
        1    1    3    3  502    0  0.19531781061E+03  0.48733503381E+03  0.17315349290E+04  0.18093804720E+04  0.50400001928E-02 0. -1.
       -1    1    3    3    0  502 -0.19531781061E+03 -0.48733503381E+03 -0.13142173670E+04  0.14152073241E+04  0.50400001928E-02 0.  1.
</event>
<event>
 5   0  0.2891204E-07  0.3203747E+04  0.7818609E-02  0.8187828E-01
       -1   -1    0    0    0  501  0.00000000000E+00  0.00000000000E+00  0.11306476411E+04  0.11306476411E+04  0.50400001928E-02 0. -1.
        1   -1    0    0  501    0  0.00000000000E+00  0.00000000000E+00 -0.22694949070E+04  0.22694949070E+04  0.50400001928E-02 0.  1.
    10030    2    1    2    0    0  0.00000000000E+00  0.00000000000E+00 -0.11388472659E+04  0.34001425481E+04  0.32037472204E+04 0.  0.
        4    1    3    3  502    0 -0.11997655728E+04 -0.77226525052E+03 -0.13421842559E+04  0.19589005173E+04  0.12699999809E+01 0.  1.
       -4    1    3    3    0  502  0.11997655728E+04  0.77226525052E+03  0.20333699005E+03  0.14412420308E+04  0.12699999809E+01 0. -1.
</event>
<event>
 5   0  0.8195618E-07  0.3201952E+04  0.7818609E-02  0.8188302E-01
        2   -1    0    0  501    0  0.00000000000E+00  0.00000000000E+00  0.15392524454E+04  0.15392524454E+04  0.25500000920E-02 0. -1.
       -2   -1    0    0    0  501  0.00000000000E+00  0.00000000000E+00 -0.16651751436E+04  0.16651751436E+04  0.25500000920E-02 0.  1.
    10030    2    1    2    0    0  0.00000000000E+00  0.00000000000E+00 -0.12592269817E+03  0.32044275889E+04  0.32019524742E+04 0.  0.
        1    1    3    3  502    0 -0.34959668702E+03  0.15477380464E+04 -0.27623170613E+03  0.16105945670E+04  0.50400001928E-02 0.  1.
       -1    1    3    3    0  502  0.34959668702E+03 -0.15477380464E+04  0.15030900796E+03  0.15938330219E+04  0.50400001928E-02 0. -1.
</event>
<event>
 5   0  0.2783875E-07  0.3179863E+04  0.7818609E-02  0.8194156E-01
        1   -1    0    0  501    0  0.00000000000E+00  0.00000000000E+00  0.22616391145E+04  0.22616391145E+04  0.50400001928E-02 0.  1.
       -1   -1    0    0    0  501  0.00000000000E+00  0.00000000000E+00 -0.11177212316E+04  0.11177212316E+04  0.50400001928E-02 0. -1.
    10030    2    1    2    0    0  0.00000000000E+00  0.00000000000E+00  0.11439178830E+04  0.33793603461E+04  0.31798629256E+04 0.  0.
        2    1    3    3  502    0  0.67030238084E+03 -0.10807426720E+04 -0.44214684918E+03  0.13464040408E+04  0.25500000920E-02 0. -1.
       -2    1    3    3    0  502 -0.67030238084E+03  0.10807426720E+04  0.15860647322E+04  0.20329563053E+04  0.25500000920E-02 0.  1.
</event>
<event>
 5   0  0.8335929E-07  0.3261955E+04  0.7818609E-02  0.8172644E-01
        2   -1    0    0  501    0  0.00000000000E+00  0.00000000000E+00  0.14048077993E+04  0.14048077993E+04  0.25500000920E-02 0. -1.
       -2   -1    0    0    0  501  0.00000000000E+00  0.00000000000E+00 -0.18935593257E+04  0.18935593257E+04  0.25500000920E-02 0.  1.
    10030    2    1    2    0    0  0.00000000000E+00  0.00000000000E+00 -0.48875152632E+03  0.32983671250E+04  0.32619545731E+04 0.  0.
        4    1    3    3  502    0  0.15574727508E+04  0.42488029100E+03 -0.47900184772E+03  0.16839504191E+04  0.12699999809E+01 0.  1.
       -4    1    3    3    0  502 -0.15574727508E+04 -0.42488029100E+03 -0.97496786006E+01  0.16144167059E+04  0.12699999809E+01 0. -1.
</event>
<event>
 5   0  0.8488469E-07  0.3202728E+04  0.7818609E-02  0.8188097E-01
        2   -1    0    0  501    0  0.00000000000E+00  0.00000000000E+00  0.20742955600E+04  0.20742955600E+04  0.25500000920E-02 0.  1.
       -2   -1    0    0    0  501  0.00000000000E+00  0.00000000000E+00 -0.12362587707E+04  0.12362587708E+04  0.25500000920E-02 0. -1.
    10030    2    1    2    0    0  0.00000000000E+00  0.00000000000E+00  0.83803678930E+03  0.33105543308E+04  0.32027276370E+04 0.  0.
        3    1    3    3  502    0  0.67749513823E+03  0.14435325550E+04  0.57086606597E+03  0.16937160255E+04  0.10100000352E+00 0. -1.
       -3    1    3    3    0  502 -0.67749513823E+03 -0.14435325550E+04  0.26717072333E+03  0.16168383053E+04  0.10100000352E+00 0.  1.
</event>
<event>
 5   0  0.2783875E-07  0.3202336E+04  0.7818609E-02  0.8188201E-01
       -1   -1    0    0    0  501  0.00000000000E+00  0.00000000000E+00  0.15214008105E+04  0.15214008105E+04  0.50400001928E-02 0.  1.
        1   -1    0    0  501    0  0.00000000000E+00  0.00000000000E+00 -0.16851169365E+04  0.16851169365E+04  0.50400001928E-02 0. -1.
    10030    2    1    2    0    0  0.00000000000E+00  0.00000000000E+00 -0.16371612605E+03  0.32065177470E+04  0.32023355683E+04 0.  0.
        2    1    3    3  502    0 -0.12485383290E+04 -0.41022090717E+03 -0.99771598538E+03  0.16500201026E+04  0.25500000920E-02 0. -1.
       -2    1    3    3    0  502  0.12485383290E+04  0.41022090717E+03  0.83399985932E+03  0.15564976444E+04  0.25500000920E-02 0.  1.
</event>
<event>
 5   0  0.2891204E-07  0.3183144E+04  0.7818609E-02  0.8193283E-01
       -1   -1    0    0    0  501  0.00000000000E+00  0.00000000000E+00  0.21868399683E+04  0.21868399683E+04  0.50400001928E-02 0. -1.
        1   -1    0    0  501    0  0.00000000000E+00  0.00000000000E+00 -0.11583385400E+04  0.11583385401E+04  0.50400001928E-02 0.  1.
    10030    2    1    2    0    0  0.00000000000E+00  0.00000000000E+00  0.10285014283E+04  0.33451785084E+04  0.31831437393E+04 0.  0.
        4    1    3    3  502    0 -0.15811995179E+03 -0.41525691058E+03 -0.10918315390E+04  0.11787866403E+04  0.12699999809E+01 0.  1.
       -4    1    3    3    0  502  0.15811995179E+03  0.41525691058E+03  0.21203329673E+04  0.21663918681E+04  0.12699999809E+01 0. -1.
</event>
<event>
 5   0  0.2997105E-07  0.3200381E+04  0.7818609E-02  0.8188717E-01
        1   -1    0    0  501    0  0.00000000000E+00  0.00000000000E+00  0.21696889647E+04  0.21696889647E+04  0.50400001928E-02 0.  1.
       -1   -1    0    0    0  501  0.00000000000E+00  0.00000000000E+00 -0.11801737320E+04  0.11801737320E+04  0.50400001928E-02 0. -1.
    10030    2    1    2    0    0  0.00000000000E+00  0.00000000000E+00  0.98951523275E+03  0.33498626967E+04  0.32003811790E+04 0.  0.
        3    1    3    3  502    0 -0.54310925643E+03 -0.55864533678E+03  0.19577376981E+04  0.21070807250E+04  0.10100000352E+00 0.  1.
       -3    1    3    3    0  502  0.54310925643E+03  0.55864533678E+03 -0.96822246537E+03  0.12427819718E+04  0.10100000352E+00 0. -1.
</event>
<event>
 5   0  0.2997105E-07  0.3197136E+04  0.7818609E-02  0.8189574E-01
        1   -1    0    0  501    0  0.00000000000E+00  0.00000000000E+00  0.20281732242E+04  0.20281732242E+04  0.50400001928E-02 0. -1.
       -1   -1    0    0    0  501  0.00000000000E+00  0.00000000000E+00 -0.12599609071E+04  0.12599609071E+04  0.50400001928E-02 0.  1.
    10030    2    1    2    0    0  0.00000000000E+00  0.00000000000E+00  0.76821231707E+03  0.32881341312E+04  0.31971355775E+04 0.  0.
        3    1    3    3  502    0  0.54461411870E+03  0.45296652744E+03  0.18579456188E+04  0.19884026619E+04  0.10100000352E+00 0. -1.
       -3    1    3    3    0  502 -0.54461411870E+03 -0.45296652744E+03 -0.10897333017E+04  0.12997314693E+04  0.10100000352E+00 0.  1.
</event>
<event>
 5   0  0.8195618E-07  0.3210065E+04  0.7818609E-02  0.8186164E-01
        2   -1    0    0  501    0  0.00000000000E+00  0.00000000000E+00  0.18870150910E+04  0.18870150910E+04  0.25500000920E-02 0.  1.
       -2   -1    0    0    0  501  0.00000000000E+00  0.00000000000E+00 -0.13651874088E+04  0.13651874088E+04  0.25500000920E-02 0. -1.
    10030    2    1    2    0    0  0.00000000000E+00  0.00000000000E+00  0.52182768219E+03  0.32522024998E+04  0.32100649479E+04 0.  0.
        1    1    3    3  502    0 -0.15262091929E+04  0.49526916491E+03  0.22137338319E+03  0.16197568401E+04  0.50400001928E-02 0.  1.
       -1    1    3    3    0  502  0.15262091929E+04 -0.49526916491E+03  0.30045429900E+03  0.16324456597E+04  0.50400001928E-02 0. -1.
</event>
<event>
 5   0  0.8802800E-07  0.3220122E+04  0.7818609E-02  0.8183523E-01
       -2   -1    0    0    0  501  0.00000000000E+00  0.00000000000E+00  0.11040397198E+04  0.11040397198E+04  0.25500000920E-02 0.  1.
        2   -1    0    0  501    0  0.00000000000E+00  0.00000000000E+00 -0.23480107628E+04  0.23480107628E+04  0.25500000920E-02 0. -1.
    10030    2    1    2    0    0  0.00000000000E+00  0.00000000000E+00 -0.12439710430E+04  0.34520504825E+04  0.32201224477E+04 0.  0.
        5    1    3    3  502    0 -0.61323864955E+03  0.89303060967E+03 -0.18988697638E+04  0.21861595964E+04  0.46999998093E+01 0. -1.
       -5    1    3    3    0  502  0.61323864955E+03 -0.89303060967E+03  0.65489872077E+03  0.12658908861E+04  0.46999998093E+01 0.  1.
</event>
<event>
 5   0  0.8838951E-07  0.3200807E+04  0.7818609E-02  0.8188604E-01
       -2   -1    0    0    0  501  0.00000000000E+00  0.00000000000E+00  0.16513699089E+04  0.16513699089E+04  0.25500000920E-02 0. -1.
        2   -1    0    0  501    0  0.00000000000E+00  0.00000000000E+00 -0.15510096162E+04  0.15510096162E+04  0.25500000920E-02 0.  1.
    10030    2    1    2    0    0  0.00000000000E+00  0.00000000000E+00  0.10036029270E+03  0.32023795251E+04  0.32008065288E+04 0.  0.
        2    1    3    3  502    0  0.14345451719E+04  0.46710580294E+03 -0.48410750597E+03  0.15844455682E+04  0.25500000920E-02 0.  1.
       -2    1    3    3    0  502 -0.14345451719E+04 -0.46710580294E+03  0.58446779866E+03  0.16179339569E+04  0.25500000920E-02 0. -1.
</event>
<event>
 5   0  0.3013888E-07  0.3204177E+04  0.7818609E-02  0.8187715E-01
       -1   -1    0    0    0  501  0.00000000000E+00  0.00000000000E+00  0.18116948688E+04  0.18116948688E+04  0.50400001928E-02 0.  1.
        1   -1    0    0  501    0  0.00000000000E+00  0.00000000000E+00 -0.14167330086E+04  0.14167330086E+04  0.50400001928E-02 0. -1.
    10030    2    1    2    0    0  0.00000000000E+00  0.00000000000E+00  0.39496186015E+03  0.32284278774E+04  0.32041772249E+04 0.  0.
        1    1    3    3  502    0 -0.54917793916E+03  0.97219525200E+03 -0.96009547225E+03  0.14725974782E+04  0.50400001928E-02 0. -1.
       -1    1    3    3    0  502  0.54917793916E+03 -0.97219525200E+03  0.13550573324E+04  0.17558303993E+04  0.50400001928E-02 0.  1.
</event>
<event>
 5   0  0.8838951E-07  0.3211504E+04  0.7818609E-02  0.8185785E-01
        2   -1    0    0  501    0  0.00000000000E+00  0.00000000000E+00  0.19987421232E+04  0.19987421232E+04  0.25500000920E-02 0. -1.
       -2   -1    0    0    0  501  0.00000000000E+00  0.00000000000E+00 -0.12900314498E+04  0.12900314498E+04  0.25500000920E-02 0.  1.
    10030    2    1    2    0    0  0.00000000000E+00  0.00000000000E+00  0.70871067340E+03  0.32887735730E+04  0.32115044443E+04 0.  0.
        2    1    3    3  502    0  0.10483751256E+04 -0.38711736727E+03  0.15351325790E+04  0.18988370902E+04  0.25500000920E-02 0. -1.
       -2    1    3    3    0  502 -0.10483751256E+04  0.38711736727E+03 -0.82642190562E+03  0.13899364828E+04  0.25500000920E-02 0.  1.
</event>
<event>
 5   0  0.3013888E-07  0.3117950E+04  0.7818609E-02  0.8210829E-01
       -1   -1    0    0    0  501  0.00000000000E+00  0.00000000000E+00  0.12751889215E+04  0.12751889215E+04  0.50400001928E-02 0. -1.
        1   -1    0    0  501    0  0.00000000000E+00  0.00000000000E+00 -0.19059160791E+04  0.19059160791E+04  0.50400001928E-02 0.  1.
    10030    2    1    2    0    0  0.00000000000E+00  0.00000000000E+00 -0.63072715755E+03  0.31811050006E+04  0.31179500120E+04 0.  0.
        1    1    3    3  502    0  0.14598079496E+03  0.20203444090E+03 -0.18854548514E+04  0.19018591706E+04  0.50400001928E-02 0.  1.
       -1    1    3    3    0  502 -0.14598079496E+03 -0.20203444090E+03  0.12547276939E+04  0.12792458300E+04  0.50400001928E-02 0. -1.
</event>
<event>
 5   0  0.3075756E-07  0.3244650E+04  0.7818609E-02  0.8177124E-01
        1   -1    0    0  501    0  0.00000000000E+00  0.00000000000E+00  0.20543437873E+04  0.20543437873E+04  0.50400001928E-02 0.  1.
       -1   -1    0    0    0  501  0.00000000000E+00  0.00000000000E+00 -0.12811578151E+04  0.12811578151E+04  0.50400001928E-02 0. -1.
    10030    2    1    2    0    0  0.00000000000E+00  0.00000000000E+00  0.77318597225E+03  0.33355016024E+04  0.32446501186E+04 0.  0.
        5    1    3    3  502    0  0.75977869834E+02  0.16181129873E+04  0.47769859993E+03  0.16888695387E+04  0.46999998093E+01 0.  1.
       -5    1    3    3    0  502 -0.75977869834E+02 -0.16181129873E+04  0.29548737232E+03  0.16466320638E+04  0.46999998093E+01 0. -1.
</event>
<event>
 5   0  0.8335929E-07  0.3058175E+04  0.7818609E-02  0.8227311E-01
        2   -1    0    0  501    0  0.00000000000E+00  0.00000000000E+00  0.21698305337E+04  0.21698305337E+04  0.25500000920E-02 0.  1.
       -2   -1    0    0    0  501  0.00000000000E+00  0.00000000000E+00 -0.10775532300E+04  0.10775532300E+04  0.25500000920E-02 0. -1.
    10030    2    1    2    0    0  0.00000000000E+00  0.00000000000E+00  0.10922773036E+04  0.32473837637E+04  0.30581745537E+04 0.  0.
        4    1    3    3  502    0 -0.13502321240E+04 -0.26671339800E+03  0.12535731885E+04  0.18616417962E+04  0.12699999809E+01 0.  1.
       -4    1    3    3    0  502  0.13502321240E+04  0.26671339800E+03 -0.16129588487E+03  0.13857419676E+04  0.12699999809E+01 0. -1.
</event>
<event>
 5   0  0.2997105E-07  0.3184923E+04  0.7818609E-02  0.8192810E-01
        1   -1    0    0  501    0  0.00000000000E+00  0.00000000000E+00  0.13478680077E+04  0.13478680077E+04  0.50400001928E-02 0.  1.
       -1   -1    0    0    0  501  0.00000000000E+00  0.00000000000E+00 -0.18814410523E+04  0.18814410523E+04  0.50400001928E-02 0. -1.
    10030    2    1    2    0    0  0.00000000000E+00  0.00000000000E+00 -0.53357304463E+03  0.32293090600E+04  0.31849233603E+04 0.  0.
        3    1    3    3  502    0  0.12471755927E+04  0.84883875293E+03 -0.78375479809E+03  0.17000722871E+04  0.10100000352E+00 0. -1.
       -3    1    3    3    0  502 -0.12471755927E+04 -0.84883875293E+03  0.25018175346E+03  0.15292367729E+04  0.10100000352E+00 0.  1.
</event>
<event>
 5   0  0.2783875E-07  0.3189238E+04  0.7818609E-02  0.8191665E-01
       -3   -1    0    0    0  501  0.00000000000E+00  0.00000000000E+00  0.10688447422E+04  0.10688447470E+04  0.10100000352E+00 0. -1.
        3   -1    0    0  501    0  0.00000000000E+00  0.00000000000E+00 -0.23790259872E+04  0.23790259894E+04  0.10100000352E+00 0.  1.
    10030    2    1    2    0    0  0.00000000000E+00  0.00000000000E+00 -0.13101812450E+04  0.34478707364E+04  0.31892377961E+04 0.  0.
        1    1    3    3  502    0 -0.72691862751E+03  0.44625787089E+03  0.80148357700E+03  0.11704412427E+04  0.50400001928E-02 0. -1.
       -1    1    3    3    0  502  0.72691862751E+03 -0.44625787089E+03 -0.21116648220E+04  0.22774294937E+04  0.50400001928E-02 0.  1.
</event>
<event>
 5   0  0.3013888E-07  0.3219664E+04  0.7818609E-02  0.8183643E-01
        1   -1    0    0  501    0  0.00000000000E+00  0.00000000000E+00  0.18219315677E+04  0.18219315677E+04  0.50400001928E-02 0. -1.
       -1   -1    0    0    0  501  0.00000000000E+00  0.00000000000E+00 -0.14224242832E+04  0.14224242832E+04  0.50400001928E-02 0.  1.
    10030    2    1    2    0    0  0.00000000000E+00  0.00000000000E+00  0.39950728446E+03  0.32443558509E+04  0.32196643951E+04 0.  0.
        1    1    3    3  502    0  0.10709009699E+04 -0.73634575232E+03 -0.75754551976E+03  0.15042969018E+04  0.50400001928E-02 0.  1.
       -1    1    3    3    0  502 -0.10709009699E+04  0.73634575232E+03  0.11570528042E+04  0.17400589490E+04  0.50400001928E-02 0. -1.
</event>
<event>
 5   0  0.2783875E-07  0.3200379E+04  0.7818609E-02  0.8188717E-01
        1   -1    0    0  501    0  0.00000000000E+00  0.00000000000E+00  0.20270515064E+04  0.20270515064E+04  0.50400001928E-02 0. -1.
       -1   -1    0    0    0  501  0.00000000000E+00  0.00000000000E+00 -0.12632171841E+04  0.12632171841E+04  0.50400001928E-02 0.  1.
    10030    2    1    2    0    0  0.00000000000E+00  0.00000000000E+00  0.76383432236E+03  0.32902686905E+04  0.32003789125E+04 0.  0.
        2    1    3    3  502    0  0.28201029498E+03  0.66573434761E+03  0.18495541794E+04  0.19858455858E+04  0.25500000920E-02 0. -1.
       -2    1    3    3    0  502 -0.28201029498E+03 -0.66573434761E+03 -0.10857198571E+04  0.13044231047E+04  0.25500000920E-02 0.  1.
</event>
<event>
 5   0  0.2891204E-07  0.3202224E+04  0.7818609E-02  0.8188230E-01
       -1   -1    0    0    0  501  0.00000000000E+00  0.00000000000E+00  0.16479840599E+04  0.16479840599E+04  0.50400001928E-02 0.  1.
        1   -1    0    0  501    0  0.00000000000E+00  0.00000000000E+00 -0.15555729180E+04  0.15555729180E+04  0.50400001928E-02 0. -1.
    10030    2    1    2    0    0  0.00000000000E+00  0.00000000000E+00  0.92411141867E+02  0.32035569779E+04  0.32022238353E+04 0.  0.
        4    1    3    3  502    0 -0.70099489785E+03  0.14339535320E+04 -0.80105383840E+02  0.15981348704E+04  0.12699999809E+01 0. -1.
       -4    1    3    3    0  502  0.70099489785E+03 -0.14339535320E+04  0.17251652571E+03  0.16054221075E+04  0.12699999809E+01 0.  1.
</event>
<event>
 5   0  0.3075756E-07  0.3202242E+04  0.7818609E-02  0.8188225E-01
        1   -1    0    0  501    0  0.00000000000E+00  0.00000000000E+00  0.17933559394E+04  0.17933559394E+04  0.50400001928E-02 0.  1.
       -1   -1    0    0    0  501  0.00000000000E+00  0.00000000000E+00 -0.14294920368E+04  0.14294920368E+04  0.50400001928E-02 0. -1.
    10030    2    1    2    0    0  0.00000000000E+00  0.00000000000E+00  0.36386390258E+03  0.32228479762E+04  0.32022417364E+04 0.  0.
        5    1    3    3  502    0  0.14426640671E+03 -0.13929314625E+04  0.96313236064E+03  0.16996225726E+04  0.46999998093E+01 0. -1.
       -5    1    3    3    0  502 -0.14426640671E+03  0.13929314625E+04 -0.59926845806E+03  0.15232254036E+04  0.46999998093E+01 0.  1.
</event>
<event>
 5   0  0.8195618E-07  0.3214190E+04  0.7818609E-02  0.8185080E-01
       -2   -1    0    0    0  501  0.00000000000E+00  0.00000000000E+00  0.10270516717E+04  0.10270516717E+04  0.25500000920E-02 0.  1.
        2   -1    0    0  501    0  0.00000000000E+00  0.00000000000E+00 -0.25147266628E+04  0.25147266628E+04  0.25500000920E-02 0. -1.
    10030    2    1    2    0    0  0.00000000000E+00  0.00000000000E+00 -0.14876749911E+04  0.35417783345E+04  0.32141899277E+04 0.  0.
        1    1    3    3  502    0  0.92407130267E+03 -0.12988467142E+04 -0.96924309023E+03  0.18655676689E+04  0.50400001928E-02 0.  1.
       -1    1    3    3    0  502 -0.92407130267E+03  0.12988467142E+04 -0.51843190084E+03  0.16762106655E+04  0.50400001928E-02 0. -1.
</event>
<event>
 5   0  0.2783875E-07  0.3202429E+04  0.7818609E-02  0.8188176E-01
       -1   -1    0    0    0  501  0.00000000000E+00  0.00000000000E+00  0.17653245980E+04  0.17653245980E+04  0.50400001928E-02 0. -1.
        1   -1    0    0  501    0  0.00000000000E+00  0.00000000000E+00 -0.14523606204E+04  0.14523606204E+04  0.50400001928E-02 0.  1.
    10030    2    1    2    0    0  0.00000000000E+00  0.00000000000E+00  0.31296397757E+03  0.32176852184E+04  0.32024290334E+04 0.  0.
        2    1    3    3  502    0  0.97348816586E+02 -0.83007051932E+03 -0.12158188753E+04  0.14753675463E+04  0.25500000920E-02 0.  1.
       -2    1    3    3    0  502 -0.97348816586E+02  0.83007051932E+03  0.15287828529E+04  0.17423176721E+04  0.25500000920E-02 0. -1.
</event>
<event>
 5   0  0.8488469E-07  0.3191114E+04  0.7818609E-02  0.8191168E-01
        2   -1    0    0  501    0  0.00000000000E+00  0.00000000000E+00  0.13758165725E+04  0.13758165725E+04  0.25500000920E-02 0. -1.
       -2   -1    0    0    0  501  0.00000000000E+00  0.00000000000E+00 -0.18503933013E+04  0.18503933013E+04  0.25500000920E-02 0.  1.
    10030    2    1    2    0    0  0.00000000000E+00  0.00000000000E+00 -0.47457672880E+03  0.32262098738E+04  0.31911137677E+04 0.  0.
        3    1    3    3  502    0  0.14088701974E+04 -0.74526716927E+03 -0.31201591422E+03  0.16240973886E+04  0.10100000352E+00 0. -1.
       -3    1    3    3    0  502 -0.14088701974E+04  0.74526716927E+03 -0.16256081457E+03  0.16021124852E+04  0.10100000352E+00 0.  1.
</event>
<event>
 5   0  0.2891204E-07  0.3203663E+04  0.7818609E-02  0.8187851E-01
        1   -1    0    0  501    0  0.00000000000E+00  0.00000000000E+00  0.22975003317E+04  0.22975003317E+04  0.50400001928E-02 0.  1.
       -1   -1    0    0    0  501  0.00000000000E+00  0.00000000000E+00 -0.11168067360E+04  0.11168067360E+04  0.50400001928E-02 0. -1.
    10030    2    1    2    0    0  0.00000000000E+00  0.00000000000E+00  0.11806935958E+04  0.34143070677E+04  0.32036628077E+04 0.  0.
        4    1    3    3  502    0 -0.82197754441E+03  0.43473486146E+03  0.19804150139E+04  0.21878497946E+04  0.12699999809E+01 0.  1.
       -4    1    3    3    0  502  0.82197754441E+03 -0.43473486146E+03 -0.79972141817E+03  0.12264572732E+04  0.12699999809E+01 0. -1.
</event>
<event>
 5   0  0.8195618E-07  0.3187644E+04  0.7818609E-02  0.8192088E-01
        2   -1    0    0  501    0  0.00000000000E+00  0.00000000000E+00  0.15252403677E+04  0.15252403677E+04  0.25500000920E-02 0. -1.
       -2   -1    0    0    0  501  0.00000000000E+00  0.00000000000E+00 -0.16654873146E+04  0.16654873146E+04  0.25500000920E-02 0.  1.
    10030    2    1    2    0    0  0.00000000000E+00  0.00000000000E+00 -0.14024694689E+03  0.31907276823E+04  0.31876439476E+04 0.  0.
        1    1    3    3  502    0  0.50103090652E+03  0.63606655263E+03  0.13040322895E+04  0.15349634656E+04  0.50400001928E-02 0. -1.
       -1    1    3    3    0  502 -0.50103090652E+03 -0.63606655263E+03 -0.14442792364E+04  0.16557642167E+04  0.50400001928E-02 0.  1.
</event>
<event>
 5   0  0.2997105E-07  0.3195516E+04  0.7818609E-02  0.8190002E-01
       -1   -1    0    0    0  501  0.00000000000E+00  0.00000000000E+00  0.13273972325E+04  0.13273972325E+04  0.50400001928E-02 0. -1.
        1   -1    0    0  501    0  0.00000000000E+00  0.00000000000E+00 -0.19231849260E+04  0.19231849261E+04  0.50400001928E-02 0.  1.
    10030    2    1    2    0    0  0.00000000000E+00  0.00000000000E+00 -0.59578769356E+03  0.32505821585E+04  0.31955158259E+04 0.  0.
        3    1    3    3  502    0  0.11510315632E+04 -0.80642044252E+03  0.47523136783E+03  0.14835876963E+04  0.10100000352E+00 0. -1.
       -3    1    3    3    0  502 -0.11510315632E+04  0.80642044252E+03 -0.10710190614E+04  0.17669944622E+04  0.10100000352E+00 0.  1.
</event>
<event>
 5   0  0.8335929E-07  0.3115232E+04  0.7818609E-02  0.8211570E-01
       -2   -1    0    0    0  501  0.00000000000E+00  0.00000000000E+00  0.10167721375E+04  0.10167721375E+04  0.25500000920E-02 0.  1.
        2   -1    0    0  501    0  0.00000000000E+00  0.00000000000E+00 -0.23861464548E+04  0.23861464548E+04  0.25500000920E-02 0. -1.
    10030    2    1    2    0    0  0.00000000000E+00  0.00000000000E+00 -0.13693743173E+04  0.34029185923E+04  0.31152317610E+04 0.  0.
        4    1    3    3  502    0 -0.54405762193E+03 -0.11908758238E+04  0.23702562637E+03  0.13305512707E+04  0.12699999809E+01 0.  1.
       -4    1    3    3    0  502  0.54405762193E+03  0.11908758238E+04 -0.16063999437E+04  0.20723673216E+04  0.12699999809E+01 0. -1.
</event>
<event>
 5   0  0.8335929E-07  0.3199877E+04  0.7818609E-02  0.8188850E-01
       -2   -1    0    0    0  501  0.00000000000E+00  0.00000000000E+00  0.10175216527E+04  0.10175216527E+04  0.25500000920E-02 0.  1.
        2   -1    0    0  501    0  0.00000000000E+00  0.00000000000E+00 -0.25157233540E+04  0.25157233540E+04  0.25500000920E-02 0. -1.
    10030    2    1    2    0    0  0.00000000000E+00  0.00000000000E+00 -0.14982017013E+04  0.35332450067E+04  0.31998768632E+04 0.  0.
        4    1    3    3  502    0  0.77724287475E+03 -0.46754722281E+03 -0.22043997730E+04  0.23837128317E+04  0.12699999809E+01 0. -1.
       -4    1    3    3    0  502 -0.77724287475E+03  0.46754722281E+03  0.70619807170E+03  0.11495321750E+04  0.12699999809E+01 0.  1.
</event>
<event>
 5   0  0.8802800E-07  0.3183888E+04  0.7818609E-02  0.8193085E-01
       -2   -1    0    0    0  501  0.00000000000E+00  0.00000000000E+00  0.14255750660E+04  0.14255750660E+04  0.25500000920E-02 0. -1.
        2   -1    0    0  501    0  0.00000000000E+00  0.00000000000E+00 -0.17777281944E+04  0.17777281944E+04  0.25500000920E-02 0.  1.
    10030    2    1    2    0    0  0.00000000000E+00  0.00000000000E+00 -0.35215312845E+03  0.32033032604E+04  0.31838875533E+04 0.  0.
        5    1    3    3  502    0 -0.88519259980E+03 -0.11125594564E+04  0.54446700563E+03  0.15224391262E+04  0.46999998093E+01 0. -1.
       -5    1    3    3    0  502  0.88519259980E+03  0.11125594564E+04 -0.89662013408E+03  0.16808641342E+04  0.46999998093E+01 0.  1.
</event>
<event>
 5   0  0.8838951E-07  0.3197431E+04  0.7818609E-02  0.8189496E-01
        2   -1    0    0  501    0  0.00000000000E+00  0.00000000000E+00  0.20212145798E+04  0.20212145798E+04  0.25500000920E-02 0. -1.
       -2   -1    0    0    0  501  0.00000000000E+00  0.00000000000E+00 -0.12645326316E+04  0.12645326316E+04  0.25500000920E-02 0.  1.
    10030    2    1    2    0    0  0.00000000000E+00  0.00000000000E+00  0.75668194814E+03  0.32857472114E+04  0.31974313388E+04 0.  0.
        2    1    3    3  502    0 -0.14190217955E+04 -0.35939329482E+03 -0.28214462697E+03  0.14907689247E+04  0.25500000920E-02 0.  1.
       -2    1    3    3    0  502  0.14190217955E+04  0.35939329482E+03  0.10388265751E+04  0.17949782867E+04  0.25500000920E-02 0. -1.
</event>
<event>
 5   0  0.8488469E-07  0.3210529E+04  0.7818609E-02  0.8186042E-01
        2   -1    0    0  501    0  0.00000000000E+00  0.00000000000E+00  0.19882423860E+04  0.19882423860E+04  0.25500000920E-02 0.  1.
       -2   -1    0    0    0  501  0.00000000000E+00  0.00000000000E+00 -0.12960565741E+04  0.12960565741E+04  0.25500000920E-02 0. -1.
    10030    2    1    2    0    0  0.00000000000E+00  0.00000000000E+00  0.69218581197E+03  0.32842989601E+04  0.32105293117E+04 0.  0.
        3    1    3    3  502    0 -0.12719737247E+04  0.22717122913E+03 -0.62834378504E+03  0.14367810710E+04  0.10100000352E+00 0. -1.
       -3    1    3    3    0  502  0.12719737247E+04 -0.22717122913E+03  0.13205295970E+04  0.18475178891E+04  0.10100000352E+00 0.  1.
</event>
<event>
 5   0  0.8488469E-07  0.3190646E+04  0.7818609E-02  0.8191292E-01
       -2   -1    0    0    0  501  0.00000000000E+00  0.00000000000E+00  0.14527841182E+04  0.14527841182E+04  0.25500000920E-02 0.  1.
        2   -1    0    0  501    0  0.00000000000E+00  0.00000000000E+00 -0.17518469318E+04  0.17518469318E+04  0.25500000920E-02 0. -1.
    10030    2    1    2    0    0  0.00000000000E+00  0.00000000000E+00 -0.29906281354E+03  0.32046310500E+04  0.31906459535E+04 0.  0.
        3    1    3    3  502    0 -0.83291383081E+03 -0.12713519894E+04 -0.63639733223E+03  0.16477508626E+04  0.10100000352E+00 0. -1.
       -3    1    3    3    0  502  0.83291383081E+03  0.12713519894E+04  0.33733451869E+03  0.15568801875E+04  0.10100000352E+00 0.  1.
</event>
<event>
 5   0  0.8838951E-07  0.3190714E+04  0.7818609E-02  0.8191274E-01
        2   -1    0    0  501    0  0.00000000000E+00  0.00000000000E+00  0.30896795868E+04  0.30896795868E+04  0.25500000920E-02 0.  1.
       -2   -1    0    0    0  501  0.00000000000E+00  0.00000000000E+00 -0.82376319822E+03  0.82376319823E+03  0.25500000920E-02 0. -1.
    10030    2    1    2    0    0  0.00000000000E+00  0.00000000000E+00  0.22659163886E+04  0.39134427851E+04  0.31907142385E+04 0.  0.
        2    1    3    3  502    0 -0.12626212715E+03 -0.85747145066E+03  0.27757330698E+04  0.29079019048E+04  0.25500000920E-02 0.  1.
       -2    1    3    3    0  502  0.12626212715E+03  0.85747145066E+03 -0.50981668115E+03  0.10055408802E+04  0.25500000920E-02 0. -1.
</event>
<event>
 5   0  0.8802800E-07  0.3215008E+04  0.7818609E-02  0.8184865E-01
        2   -1    0    0  501    0  0.00000000000E+00  0.00000000000E+00  0.29617323675E+04  0.29617323675E+04  0.25500000920E-02 0. -1.
       -2   -1    0    0    0  501  0.00000000000E+00  0.00000000000E+00 -0.87248567988E+03  0.87248567988E+03  0.25500000920E-02 0.  1.
    10030    2    1    2    0    0  0.00000000000E+00  0.00000000000E+00  0.20892466876E+04  0.38342180473E+04  0.32150079802E+04 0.  0.
        5    1    3    3  502    0  0.11934616279E+04 -0.87608226783E+03  0.29776994133E+03  0.15101522523E+04  0.46999998093E+01 0.  1.
       -5    1    3    3    0  502 -0.11934616279E+04  0.87608226783E+03  0.17914767463E+04  0.23240657950E+04  0.46999998093E+01 0. -1.
</event>
<event>
 5   0  0.8488469E-07  0.3213908E+04  0.7818609E-02  0.8185154E-01
        2   -1    0    0  501    0  0.00000000000E+00  0.00000000000E+00  0.13855702165E+04  0.13855702165E+04  0.25500000920E-02 0.  1.
       -2   -1    0    0    0  501  0.00000000000E+00  0.00000000000E+00 -0.18637096642E+04  0.18637096642E+04  0.25500000920E-02 0. -1.
    10030    2    1    2    0    0  0.00000000000E+00  0.00000000000E+00 -0.47813944773E+03  0.32492798808E+04  0.32139076546E+04 0.  0.
        3    1    3    3  502    0  0.35916888048E+03  0.80207078340E+03  0.11210924954E+04  0.14244887573E+04  0.10100000352E+00 0.  1.
       -3    1    3    3    0  502 -0.35916888048E+03 -0.80207078340E+03 -0.15992319431E+04  0.18247911235E+04  0.10100000352E+00 0. -1.
</event>
<event>
 5   0  0.2891204E-07  0.3197029E+04  0.7818609E-02  0.8189602E-01
        1   -1    0    0  501    0  0.00000000000E+00  0.00000000000E+00  0.18522754065E+04  0.18522754065E+04  0.50400001928E-02 0.  1.
       -1   -1    0    0    0  501  0.00000000000E+00  0.00000000000E+00 -0.13795183695E+04  0.13795183695E+04  0.50400001928E-02 0. -1.
    10030    2    1    2    0    0  0.00000000000E+00  0.00000000000E+00  0.47275703699E+03  0.32317937760E+04  0.31970285883E+04 0.  0.
        4    1    3    3  502    0  0.82140225690E+03 -0.28822828602E+02  0.16223139521E+04  0.18186359161E+04  0.12699999809E+01 0.  1.
       -4    1    3    3    0  502 -0.82140225690E+03  0.28822828602E+02 -0.11495569151E+04  0.14131578599E+04  0.12699999809E+01 0. -1.
</event>
<event>
 5   0  0.8195618E-07  0.3139196E+04  0.7818609E-02  0.8205062E-01
        2   -1    0    0  501    0  0.00000000000E+00  0.00000000000E+00  0.16239264135E+04  0.16239264135E+04  0.25500000920E-02 0.  1.
       -2   -1    0    0    0  501  0.00000000000E+00  0.00000000000E+00 -0.15170876075E+04  0.15170876075E+04  0.25500000920E-02 0. -1.
    10030    2    1    2    0    0  0.00000000000E+00  0.00000000000E+00  0.10683880606E+03  0.31410140210E+04  0.31391964815E+04 0.  0.
        1    1    3    3  502    0  0.46127912221E+03  0.10575242055E+04 -0.10113878760E+04  0.15342885353E+04  0.50400001928E-02 0. -1.
       -1    1    3    3    0  502 -0.46127912221E+03 -0.10575242055E+04  0.11182266821E+04  0.16067254857E+04  0.50400001928E-02 0.  1.
</event>
<event>
 5   0  0.8838951E-07  0.3211357E+04  0.7818609E-02  0.8185824E-01
        2   -1    0    0  501    0  0.00000000000E+00  0.00000000000E+00  0.18778788499E+04  0.18778788499E+04  0.25500000920E-02 0.  1.
       -2   -1    0    0    0  501  0.00000000000E+00  0.00000000000E+00 -0.13729338874E+04  0.13729338874E+04  0.25500000920E-02 0. -1.
    10030    2    1    2    0    0  0.00000000000E+00  0.00000000000E+00  0.50494496249E+03  0.32508127373E+04  0.32113570399E+04 0.  0.
        2    1    3    3  502    0 -0.10993455298E+04  0.11333669907E+04 -0.42869189899E+02  0.15795312903E+04  0.25500000920E-02 0. -1.
       -2    1    3    3    0  502  0.10993455298E+04 -0.11333669907E+04  0.54781415239E+03  0.16712814470E+04  0.25500000920E-02 0.  1.
</event>
<event>
 5   0  0.2783875E-07  0.3207835E+04  0.7818609E-02  0.8186751E-01
       -1   -1    0    0    0  501  0.00000000000E+00  0.00000000000E+00  0.13054074229E+04  0.13054074229E+04  0.50400001928E-02 0.  1.
        1   -1    0    0  501    0  0.00000000000E+00  0.00000000000E+00 -0.19706890439E+04  0.19706890439E+04  0.50400001928E-02 0. -1.
    10030    2    1    2    0    0  0.00000000000E+00  0.00000000000E+00 -0.66528162104E+03  0.32760964669E+04  0.32078354735E+04 0.  0.
        2    1    3    3  502    0  0.45566931964E+03 -0.12507734182E+04  0.58109526114E+03  0.14524945353E+04  0.25500000920E-02 0.  1.
       -2    1    3    3    0  502 -0.45566931964E+03  0.12507734182E+04 -0.12463768822E+04  0.18236019316E+04  0.25500000920E-02 0. -1.
</event>
<event>
 5   0  0.8802800E-07  0.3191963E+04  0.7818609E-02  0.8190943E-01
       -2   -1    0    0    0  501  0.00000000000E+00  0.00000000000E+00  0.13845648146E+04  0.13845648146E+04  0.25500000920E-02 0.  1.
        2   -1    0    0  501    0  0.00000000000E+00  0.00000000000E+00 -0.18396807153E+04  0.18396807153E+04  0.25500000920E-02 0. -1.
    10030    2    1    2    0    0  0.00000000000E+00  0.00000000000E+00 -0.45511590071E+03  0.32242455299E+04  0.31919631505E+04 0.  0.
        5    1    3    3  502    0 -0.13866970494E+04 -0.17588369838E+03  0.55047307049E+03  0.15023003939E+04  0.46999998093E+01 0. -1.
       -5    1    3    3    0  502  0.13866970494E+04  0.17588369838E+03 -0.10055889712E+04  0.17219451360E+04  0.46999998093E+01 0.  1.
</event>
<event>
 5   0  0.2997105E-07  0.3239690E+04  0.7818609E-02  0.8178413E-01
       -1   -1    0    0    0  501  0.00000000000E+00  0.00000000000E+00  0.25687911824E+04  0.25687911824E+04  0.50400001928E-02 0. -1.
        1   -1    0    0  501    0  0.00000000000E+00  0.00000000000E+00 -0.10214521325E+04  0.10214521325E+04  0.50400001928E-02 0.  1.
    10030    2    1    2    0    0  0.00000000000E+00  0.00000000000E+00  0.15473390498E+04  0.35902433149E+04  0.32396896341E+04 0.  0.
        3    1    3    3  502    0 -0.80745705550E+02  0.50021443904E+03  0.24787094219E+04  0.25299673442E+04  0.10100000352E+00 0. -1.
       -3    1    3    3    0  502  0.80745705550E+02 -0.50021443904E+03 -0.93137037207E+03  0.10602759708E+04  0.10100000352E+00 0.  1.
</event>
<event>
 5   0  0.2997105E-07  0.3211745E+04  0.7818609E-02  0.8185722E-01
        1   -1    0    0  501    0  0.00000000000E+00  0.00000000000E+00  0.15531038130E+04  0.15531038130E+04  0.50400001928E-02 0. -1.
       -1   -1    0    0    0  501  0.00000000000E+00  0.00000000000E+00 -0.16604339730E+04  0.16604339730E+04  0.50400001928E-02 0.  1.
    10030    2    1    2    0    0  0.00000000000E+00  0.00000000000E+00 -0.10733016003E+03  0.32135377860E+04  0.32117449057E+04 0.  0.
        3    1    3    3  502    0 -0.29007121450E+03  0.68504449691E+03  0.13702945210E+04  0.15592095295E+04  0.10100000352E+00 0. -1.
       -3    1    3    3    0  502  0.29007121450E+03 -0.68504449691E+03 -0.14776246811E+04  0.16543282566E+04  0.10100000352E+00 0.  1.
</event>
<event>
 5   0  0.2891204E-07  0.3238953E+04  0.7818609E-02  0.8178605E-01
        1   -1    0    0  501    0  0.00000000000E+00  0.00000000000E+00  0.17170179687E+04  0.17170179687E+04  0.50400001928E-02 0. -1.
       -1   -1    0    0    0  501  0.00000000000E+00  0.00000000000E+00 -0.15274758046E+04  0.15274758046E+04  0.50400001928E-02 0.  1.
    10030    2    1    2    0    0  0.00000000000E+00  0.00000000000E+00  0.18954216415E+03  0.32444937733E+04  0.32389525488E+04 0.  0.
        4    1    3    3  502    0 -0.14438672143E+04  0.66746698973E+03  0.39932588869E+03  0.16400388694E+04  0.12699999809E+01 0. -1.
       -4    1    3    3    0  502  0.14438672143E+04 -0.66746698973E+03 -0.20978372454E+03  0.16044549039E+04  0.12699999809E+01 0.  1.
</event>
<event>
 5   0  0.8335929E-07  0.3192847E+04  0.7818609E-02  0.8190709E-01
       -2   -1    0    0    0  501  0.00000000000E+00  0.00000000000E+00  0.11169096813E+04  0.11169096814E+04  0.25500000920E-02 0. -1.
        2   -1    0    0  501    0  0.00000000000E+00  0.00000000000E+00 -0.22818032293E+04  0.22818032293E+04  0.25500000920E-02 0.  1.
    10030    2    1    2    0    0  0.00000000000E+00  0.00000000000E+00 -0.11648935479E+04  0.33987129106E+04  0.31928470791E+04 0.  0.
        4    1    3    3  502    0  0.12334512972E+04 -0.20025033743E+03  0.47512308319E+03  0.13368791483E+04  0.12699999809E+01 0. -1.
       -4    1    3    3    0  502 -0.12334512972E+04  0.20025033743E+03 -0.16400166311E+04  0.20618337623E+04  0.12699999809E+01 0.  1.
</event>
<event>
 5   0  0.8838951E-07  0.3220553E+04  0.7818609E-02  0.8183410E-01
        2   -1    0    0  501    0  0.00000000000E+00  0.00000000000E+00  0.22945562219E+04  0.22945562219E+04  0.25500000920E-02 0.  1.
       -2   -1    0    0    0  501  0.00000000000E+00  0.00000000000E+00 -0.11300620569E+04  0.11300620569E+04  0.25500000920E-02 0. -1.
    10030    2    1    2    0    0  0.00000000000E+00  0.00000000000E+00  0.11644941650E+04  0.34246182789E+04  0.32205533214E+04 0.  0.
        2    1    3    3  502    0 -0.12575451550E+04  0.50743667738E+03  0.15056476471E+04  0.20262987529E+04  0.25500000920E-02 0.  1.
       -2    1    3    3    0  502  0.12575451550E+04 -0.50743667738E+03 -0.34115348215E+03  0.13983195260E+04  0.25500000920E-02 0. -1.
</event>
<event>
 5   0  0.8335929E-07  0.3181977E+04  0.7818609E-02  0.8193593E-01
       -2   -1    0    0    0  501  0.00000000000E+00  0.00000000000E+00  0.92677806825E+03  0.92677806825E+03  0.25500000920E-02 0. -1.
        2   -1    0    0  501    0  0.00000000000E+00  0.00000000000E+00 -0.27312311747E+04  0.27312311747E+04  0.25500000920E-02 0.  1.
    10030    2    1    2    0    0  0.00000000000E+00  0.00000000000E+00 -0.18044531065E+04  0.36580092430E+04  0.31819774682E+04 0.  0.
        4    1    3    3  502    0 -0.11781686824E+04 -0.36147285516E+03 -0.20589914491E+04  0.23996231933E+04  0.12699999809E+01 0.  1.
       -4    1    3    3    0  502  0.11781686824E+04  0.36147285516E+03  0.25453834264E+03  0.12583860497E+04  0.12699999809E+01 0. -1.
</event>
<event>
 5   0  0.8195618E-07  0.3185691E+04  0.7818609E-02  0.8192606E-01
        2   -1    0    0  501    0  0.00000000000E+00  0.00000000000E+00  0.18885358083E+04  0.18885358083E+04  0.25500000920E-02 0.  1.
       -2   -1    0    0    0  501  0.00000000000E+00  0.00000000000E+00 -0.13434517247E+04  0.13434517247E+04  0.25500000920E-02 0. -1.
    10030    2    1    2    0    0  0.00000000000E+00  0.00000000000E+00  0.54508408364E+03  0.32319875330E+04  0.31856909384E+04 0.  0.
        1    1    3    3  502    0 -0.82511152498E+03 -0.11866649724E+04 -0.40664488664E+03  0.15014469186E+04  0.50400001928E-02 0. -1.
       -1    1    3    3    0  502  0.82511152498E+03  0.11866649724E+04  0.95172897028E+03  0.17305406145E+04  0.50400001928E-02 0.  1.
</event>
<event>
 5   0  0.8488469E-07  0.3191271E+04  0.7818609E-02  0.8191126E-01
       -2   -1    0    0    0  501  0.00000000000E+00  0.00000000000E+00  0.16710197159E+04  0.16710197159E+04  0.25500000920E-02 0.  1.
        2   -1    0    0  501    0  0.00000000000E+00  0.00000000000E+00 -0.15236520082E+04  0.15236520082E+04  0.25500000920E-02 0. -1.
    10030    2    1    2    0    0  0.00000000000E+00  0.00000000000E+00  0.14736770776E+03  0.31946717241E+04  0.31912709355E+04 0.  0.
        3    1    3    3  502    0 -0.13304291168E+03 -0.15516264145E+04 -0.27426040104E+03  0.15812854657E+04  0.10100000352E+00 0.  1.
       -3    1    3    3    0  502  0.13304291168E+03  0.15516264145E+04  0.42162810880E+03  0.16133862584E+04  0.10100000352E+00 0. -1.
</event>
<event>
 5   0  0.3013888E-07  0.3271550E+04  0.7818609E-02  0.8170172E-01
       -1   -1    0    0    0  501  0.00000000000E+00  0.00000000000E+00  0.11592921451E+04  0.11592921451E+04  0.50400001928E-02 0. -1.
        1   -1    0    0  501    0  0.00000000000E+00  0.00000000000E+00 -0.23080978297E+04  0.23080978297E+04  0.50400001928E-02 0.  1.
    10030    2    1    2    0    0  0.00000000000E+00  0.00000000000E+00 -0.11488056845E+04  0.34673899748E+04  0.32715498982E+04 0.  0.
        1    1    3    3  502    0  0.13257815323E+04 -0.95593529710E+03 -0.64350321921E+03  0.17565891258E+04  0.50400001928E-02 0. -1.
       -1    1    3    3    0  502 -0.13257815323E+04  0.95593529710E+03 -0.50530246534E+03  0.17108008490E+04  0.50400001928E-02 0.  1.
</event>
<event>
 5   0  0.8838951E-07  0.3191137E+04  0.7818609E-02  0.8191162E-01
        2   -1    0    0  501    0  0.00000000000E+00  0.00000000000E+00  0.22009995785E+04  0.22009995785E+04  0.25500000920E-02 0.  1.
       -2   -1    0    0    0  501  0.00000000000E+00  0.00000000000E+00 -0.11566737853E+04  0.11566737853E+04  0.25500000920E-02 0. -1.
    10030    2    1    2    0    0  0.00000000000E+00  0.00000000000E+00  0.10443257932E+04  0.33576733639E+04  0.31911367968E+04 0.  0.
        2    1    3    3  502    0  0.44871074706E+03  0.73790986048E+03 -0.88948899198E+03  0.12397753682E+04  0.25500000920E-02 0. -1.
       -2    1    3    3    0  502 -0.44871074706E+03 -0.73790986048E+03  0.19338147852E+04  0.21178979957E+04  0.25500000920E-02 0.  1.
</event>
<event>
 5   0  0.2783875E-07  0.3186647E+04  0.7818609E-02  0.8192353E-01
       -1   -1    0    0    0  501  0.00000000000E+00  0.00000000000E+00  0.14515521950E+04  0.14515521950E+04  0.50400001928E-02 0. -1.
        1   -1    0    0  501    0  0.00000000000E+00  0.00000000000E+00 -0.17489412099E+04  0.17489412099E+04  0.50400001928E-02 0.  1.
    10030    2    1    2    0    0  0.00000000000E+00  0.00000000000E+00 -0.29738901490E+03  0.32004934048E+04  0.31866467969E+04 0.  0.
        2    1    3    3  502    0 -0.23501995362E+03 -0.15672429764E+04  0.16929678820E+02  0.15848569461E+04  0.25500000920E-02 0. -1.
       -2    1    3    3    0  502  0.23501995362E+03  0.15672429764E+04 -0.31431869372E+03  0.16156364587E+04  0.25500000920E-02 0.  1.
</event>
<event>
 5   0  0.8335929E-07  0.3213448E+04  0.7818609E-02  0.8185275E-01
       -2   -1    0    0    0  501  0.00000000000E+00  0.00000000000E+00  0.20856620015E+04  0.20856620015E+04  0.25500000920E-02 0. -1.
        2   -1    0    0  501    0  0.00000000000E+00  0.00000000000E+00 -0.12377661848E+04  0.12377661848E+04  0.25500000920E-02 0.  1.
    10030    2    1    2    0    0  0.00000000000E+00  0.00000000000E+00  0.84789581674E+03  0.33234281864E+04  0.32134479292E+04 0.  0.
        4    1    3    3  502    0  0.10109921229E+04 -0.46235374343E+03 -0.77579063983E+03  0.13556285576E+04  0.12699999809E+01 0.  1.
       -4    1    3    3    0  502 -0.10109921229E+04  0.46235374343E+03  0.16236864566E+04  0.19677996287E+04  0.12699999809E+01 0. -1.
</event>
<event>
 5   0  0.8335929E-07  0.3233012E+04  0.7818609E-02  0.8180153E-01
       -2   -1    0    0    0  501  0.00000000000E+00  0.00000000000E+00  0.20002913554E+04  0.20002913554E+04  0.25500000920E-02 0. -1.
        2   -1    0    0  501    0  0.00000000000E+00  0.00000000000E+00 -0.13063555122E+04  0.13063555122E+04  0.25500000920E-02 0.  1.
    10030    2    1    2    0    0  0.00000000000E+00  0.00000000000E+00  0.69393584321E+03  0.33066468676E+04  0.32330119939E+04 0.  0.
        4    1    3    3  502    0  0.14306053950E+03  0.18814617813E+02  0.19936910852E+04  0.19989062169E+04  0.12699999809E+01 0. -1.
       -4    1    3    3    0  502 -0.14306053950E+03 -0.18814617813E+02 -0.12997552420E+04  0.13077406508E+04  0.12699999809E+01 0.  1.
</event>
<event>
 5   0  0.3013888E-07  0.3094049E+04  0.7818609E-02  0.8217373E-01
       -1   -1    0    0    0  501  0.00000000000E+00  0.00000000000E+00  0.12772361627E+04  0.12772361627E+04  0.50400001928E-02 0. -1.
        1   -1    0    0  501    0  0.00000000000E+00  0.00000000000E+00 -0.18738000687E+04  0.18738000687E+04  0.50400001928E-02 0.  1.
    10030    2    1    2    0    0  0.00000000000E+00  0.00000000000E+00 -0.59656390600E+03  0.31510362314E+04  0.30940492623E+04 0.  0.
        1    1    3    3  502    0  0.47116542340E+03 -0.72358655743E+01 -0.17989329042E+04  0.18596259860E+04  0.50400001928E-02 0.  1.
       -1    1    3    3    0  502 -0.47116542340E+03  0.72358655743E+01  0.12023689982E+04  0.12914102454E+04  0.50400001928E-02 0. -1.
</event>
<event>
 5   0  0.2997105E-07  0.3209785E+04  0.7818609E-02  0.8186238E-01
       -1   -1    0    0    0  501  0.00000000000E+00  0.00000000000E+00  0.11884645011E+04  0.11884645011E+04  0.50400001928E-02 0. -1.
        1   -1    0    0  501    0  0.00000000000E+00  0.00000000000E+00 -0.21672327804E+04  0.21672327804E+04  0.50400001928E-02 0.  1.
    10030    2    1    2    0    0  0.00000000000E+00  0.00000000000E+00 -0.97876827931E+03  0.33556972815E+04  0.32097845567E+04 0.  0.
        3    1    3    3  502    0  0.85917162130E+02 -0.11191895361E+04  0.70980407050E+03  0.13280771082E+04  0.10100000352E+00 0. -1.
       -3    1    3    3    0  502 -0.85917162130E+02  0.11191895361E+04 -0.16885723498E+04  0.20276201733E+04  0.10100000352E+00 0.  1.
</event>
<event>
 5   0  0.8488469E-07  0.3180008E+04  0.7818609E-02  0.8194117E-01
       -2   -1    0    0    0  501  0.00000000000E+00  0.00000000000E+00  0.19586057051E+04  0.19586057051E+04  0.25500000920E-02 0. -1.
        2   -1    0    0  501    0  0.00000000000E+00  0.00000000000E+00 -0.12907715836E+04  0.12907715836E+04  0.25500000920E-02 0.  1.
    10030    2    1    2    0    0  0.00000000000E+00  0.00000000000E+00  0.66783412151E+03  0.32493772887E+04  0.31800079167E+04 0.  0.
        3    1    3    3  502    0 -0.12424134243E+04  0.91637762363E+03 -0.54874199441E+02  0.15447816201E+04  0.10100000352E+00 0.  1.
       -3    1    3    3    0  502  0.12424134243E+04 -0.91637762363E+03  0.72270832095E+03  0.17045956686E+04  0.10100000352E+00 0. -1.
</event>
<event>
 5   0  0.3075756E-07  0.3203730E+04  0.7818609E-02  0.8187833E-01
       -1   -1    0    0    0  501  0.00000000000E+00  0.00000000000E+00  0.13700369260E+04  0.13700369260E+04  0.50400001928E-02 0.  1.
        1   -1    0    0  501    0  0.00000000000E+00  0.00000000000E+00 -0.18729212919E+04  0.18729212920E+04  0.50400001928E-02 0. -1.
    10030    2    1    2    0    0  0.00000000000E+00  0.00000000000E+00 -0.50288436592E+03  0.32429582180E+04  0.32037299072E+04 0.  0.
        5    1    3    3  502    0 -0.27776204234E+02  0.58235920702E+03  0.12588170467E+04  0.13872837528E+04  0.46999998093E+01 0.  1.
       -5    1    3    3    0  502  0.27776204234E+02 -0.58235920702E+03 -0.17617014127E+04  0.18556744652E+04  0.46999998093E+01 0. -1.
</event>
<event>
 5   0  0.2891204E-07  0.3201173E+04  0.7818609E-02  0.8188507E-01
        1   -1    0    0  501    0  0.00000000000E+00  0.00000000000E+00  0.16982193971E+04  0.16982193971E+04  0.50400001928E-02 0.  1.
       -1   -1    0    0    0  501  0.00000000000E+00  0.00000000000E+00 -0.15085666795E+04  0.15085666795E+04  0.50400001928E-02 0. -1.
    10030    2    1    2    0    0  0.00000000000E+00  0.00000000000E+00  0.18965271763E+03  0.32067860766E+04  0.32011730331E+04 0.  0.
        4    1    3    3  502    0 -0.69265763217E+03  0.14115886763E+04  0.39454723218E+03  0.16211188475E+04  0.12699999809E+01 0.  1.
       -4    1    3    3    0  502  0.69265763217E+03 -0.14115886763E+04 -0.20489451455E+03  0.15856672291E+04  0.12699999809E+01 0. -1.
</event>
<event>
 5   0  0.8335929E-07  0.3155971E+04  0.7818609E-02  0.8200543E-01
       -2   -1    0    0    0  501  0.00000000000E+00  0.00000000000E+00  0.13866679454E+04  0.13866679454E+04  0.25500000920E-02 0.  1.
        2   -1    0    0  501    0  0.00000000000E+00  0.00000000000E+00 -0.17956989782E+04  0.17956989782E+04  0.25500000920E-02 0. -1.
    10030    2    1    2    0    0  0.00000000000E+00  0.00000000000E+00 -0.40903103278E+03  0.31823669236E+04  0.31559709838E+04 0.  0.
        4    1    3    3  502    0 -0.11603061127E+04 -0.39148180204E+03  0.79903108756E+03  0.14621971715E+04  0.12699999809E+01 0.  1.
       -4    1    3    3    0  502  0.11603061127E+04  0.39148180204E+03 -0.12080621203E+04  0.17201697521E+04  0.12699999809E+01 0. -1.
</event>
<event>
 5   0  0.8195618E-07  0.3168681E+04  0.7818609E-02  0.8197138E-01
        2   -1    0    0  501    0  0.00000000000E+00  0.00000000000E+00  0.15989778562E+04  0.15989778562E+04  0.25500000920E-02 0.  1.
       -2   -1    0    0    0  501  0.00000000000E+00  0.00000000000E+00 -0.15698368951E+04  0.15698368951E+04  0.25500000920E-02 0. -1.
    10030    2    1    2    0    0  0.00000000000E+00  0.00000000000E+00  0.29140961072E+02  0.31688147513E+04  0.31686807559E+04 0.  0.
        1    1    3    3  502    0 -0.14765879335E+04  0.49410464214E+03  0.30729963377E+03  0.15870993629E+04  0.50400001928E-02 0.  1.
       -1    1    3    3    0  502  0.14765879335E+04 -0.49410464214E+03 -0.27815867270E+03  0.15817153884E+04  0.50400001928E-02 0. -1.
</event>
<event>
 5   0  0.2783875E-07  0.3221130E+04  0.7818609E-02  0.8183259E-01
       -1   -1    0    0    0  501  0.00000000000E+00  0.00000000000E+00  0.11106277687E+04  0.11106277687E+04  0.50400001928E-02 0. -1.
        1   -1    0    0  501    0  0.00000000000E+00  0.00000000000E+00 -0.23355442605E+04  0.23355442606E+04  0.50400001928E-02 0.  1.
    10030    2    1    2    0    0  0.00000000000E+00  0.00000000000E+00 -0.12249164919E+04  0.34461720292E+04  0.32211304294E+04 0.  0.
        2    1    3    3  502    0 -0.11497271718E+04  0.58128027052E+03 -0.16465034054E+04  0.20906297583E+04  0.25500000920E-02 0.  1.
       -2    1    3    3    0  502  0.11497271718E+04 -0.58128027052E+03  0.42158691349E+03  0.13555422709E+04  0.25500000920E-02 0. -1.
</event>
<event>
 5   0  0.8838951E-07  0.3198906E+04  0.7818609E-02  0.8189106E-01
       -2   -1    0    0    0  501  0.00000000000E+00  0.00000000000E+00  0.15948395744E+04  0.15948395744E+04  0.25500000920E-02 0.  1.
        2   -1    0    0  501    0  0.00000000000E+00  0.00000000000E+00 -0.16040798840E+04  0.16040798840E+04  0.25500000920E-02 0. -1.
    10030    2    1    2    0    0  0.00000000000E+00  0.00000000000E+00 -0.92403095952E+01  0.31989194583E+04  0.31989061126E+04 0.  0.
        2    1    3    3  502    0  0.12726013280E+04  0.33171300808E+03  0.90571458270E+03  0.15968301616E+04  0.25500000920E-02 0.  1.
       -2    1    3    3    0  502 -0.12726013280E+04 -0.33171300808E+03 -0.91495489230E+03  0.16020892967E+04  0.25500000920E-02 0. -1.
</event>
<event>
 5   0  0.8195618E-07  0.3211122E+04  0.7818609E-02  0.8185886E-01
        2   -1    0    0  501    0  0.00000000000E+00  0.00000000000E+00  0.21280066052E+04  0.21280066052E+04  0.25500000920E-02 0. -1.
       -2   -1    0    0    0  501  0.00000000000E+00  0.00000000000E+00 -0.12113805891E+04  0.12113805891E+04  0.25500000920E-02 0.  1.
    10030    2    1    2    0    0  0.00000000000E+00  0.00000000000E+00  0.91662601608E+03  0.33393871944E+04  0.32111218570E+04 0.  0.
        1    1    3    3  502    0  0.64651104491E+03  0.16218518260E+03 -0.10606980241E+04  0.12527413392E+04  0.50400001928E-02 0.  1.
       -1    1    3    3    0  502 -0.64651104491E+03 -0.16218518260E+03  0.19773240402E+04  0.20866458551E+04  0.50400001928E-02 0. -1.
</event>
<event>
 5   0  0.8488469E-07  0.3184775E+04  0.7818609E-02  0.8192850E-01
        2   -1    0    0  501    0  0.00000000000E+00  0.00000000000E+00  0.26514669502E+04  0.26514669502E+04  0.25500000920E-02 0.  1.
       -2   -1    0    0    0  501  0.00000000000E+00  0.00000000000E+00 -0.95633764777E+03  0.95633764777E+03  0.25500000920E-02 0. -1.
    10030    2    1    2    0    0  0.00000000000E+00  0.00000000000E+00  0.16951293025E+04  0.36078045980E+04  0.31847748218E+04 0.  0.
        3    1    3    3  502    0 -0.82622716657E+03 -0.11671797241E+04  0.53987710398E+02  0.14310396648E+04  0.10100000352E+00 0. -1.
       -3    1    3    3    0  502  0.82622716657E+03  0.11671797241E+04  0.16411415921E+04  0.21767649332E+04  0.10100000352E+00 0.  1.
</event>
<event>
 5   0  0.8838951E-07  0.3179419E+04  0.7818609E-02  0.8194274E-01
       -2   -1    0    0    0  501  0.00000000000E+00  0.00000000000E+00  0.12941576607E+04  0.12941576607E+04  0.25500000920E-02 0. -1.
        2   -1    0    0  501    0  0.00000000000E+00  0.00000000000E+00 -0.19527581049E+04  0.19527581049E+04  0.25500000920E-02 0.  1.
    10030    2    1    2    0    0  0.00000000000E+00  0.00000000000E+00 -0.65860044419E+03  0.32469157656E+04  0.31794193564E+04 0.  0.
        2    1    3    3  502    0 -0.19406432632E+03 -0.12549214024E+04  0.64739652117E+03  0.14253459035E+04  0.25500000920E-02 0. -1.
       -2    1    3    3    0  502  0.19406432632E+03  0.12549214024E+04 -0.13059969654E+04  0.18215698621E+04  0.25500000920E-02 0.  1.
</event>
<event>
 5   0  0.3075756E-07  0.3202229E+04  0.7818609E-02  0.8188229E-01
        1   -1    0    0  501    0  0.00000000000E+00  0.00000000000E+00  0.10038647071E+04  0.10038647072E+04  0.50400001928E-02 0.  1.
       -1   -1    0    0    0  501  0.00000000000E+00  0.00000000000E+00 -0.25536981041E+04  0.25536981041E+04  0.50400001928E-02 0. -1.
    10030    2    1    2    0    0  0.00000000000E+00  0.00000000000E+00 -0.15498333970E+04  0.35575628113E+04  0.32022288485E+04 0.  0.
        5    1    3    3  502    0 -0.36114010031E+03 -0.48918695653E+03 -0.24204271052E+04  0.24956392993E+04  0.46999998093E+01 0. -1.
       -5    1    3    3    0  502  0.36114010031E+03  0.48918695653E+03  0.87059370824E+03  0.10619235120E+04  0.46999998093E+01 0.  1.
</event>
<event>
 5   0  0.8335929E-07  0.3197368E+04  0.7818609E-02  0.8189513E-01
       -2   -1    0    0    0  501  0.00000000000E+00  0.00000000000E+00  0.17468399214E+04  0.17468399214E+04  0.25500000920E-02 0.  1.
        2   -1    0    0  501    0  0.00000000000E+00  0.00000000000E+00 -0.14630940486E+04  0.14630940486E+04  0.25500000920E-02 0. -1.
    10030    2    1    2    0    0  0.00000000000E+00  0.00000000000E+00  0.28374587285E+03  0.32099339700E+04  0.31973683509E+04 0.  0.
        4    1    3    3  502    0  0.31929170828E+03  0.84799766493E+03 -0.11803993768E+04  0.14880831752E+04  0.12699999809E+01 0. -1.
       -4    1    3    3    0  502 -0.31929170828E+03 -0.84799766493E+03  0.14641452496E+04  0.17218507948E+04  0.12699999809E+01 0.  1.
</event>
<event>
 5   0  0.2997105E-07  0.3198566E+04  0.7818609E-02  0.8189196E-01
       -1   -1    0    0    0  501  0.00000000000E+00  0.00000000000E+00  0.17012128476E+04  0.17012128476E+04  0.50400001928E-02 0.  1.
        1   -1    0    0  501    0  0.00000000000E+00  0.00000000000E+00 -0.15034608046E+04  0.15034608046E+04  0.50400001928E-02 0. -1.
    10030    2    1    2    0    0  0.00000000000E+00  0.00000000000E+00  0.19775204300E+03  0.32046736521E+04  0.31985664517E+04 0.  0.
        3    1    3    3  502    0 -0.88542032954E+03  0.78682378898E+03  0.11754722598E+04  0.16687707687E+04  0.10100000352E+00 0.  1.
       -3    1    3    3    0  502  0.88542032954E+03 -0.78682378898E+03 -0.97772021675E+03  0.15359028834E+04  0.10100000352E+00 0. -1.
</event>
<event>
 5   0  0.3013888E-07  0.3206616E+04  0.7818609E-02  0.8187072E-01
       -1   -1    0    0    0  501  0.00000000000E+00  0.00000000000E+00  0.12423128503E+04  0.12423128503E+04  0.50400001928E-02 0. -1.
        1   -1    0    0  501    0  0.00000000000E+00  0.00000000000E+00 -0.20692019721E+04  0.20692019721E+04  0.50400001928E-02 0.  1.
    10030    2    1    2    0    0  0.00000000000E+00  0.00000000000E+00 -0.82688912174E+03  0.33115148224E+04  0.32066157860E+04 0.  0.
        1    1    3    3  502    0  0.91976971555E+03  0.13013096429E+04 -0.59589634474E+03  0.17013158349E+04  0.50400001928E-02 0.  1.
       -1    1    3    3    0  502 -0.91976971555E+03 -0.13013096429E+04 -0.23099277701E+03  0.16101989875E+04  0.50400001928E-02 0. -1.
</event>
<event>
 5   0  0.8488469E-07  0.3206017E+04  0.7818609E-02  0.8187230E-01
       -2   -1    0    0    0  501  0.00000000000E+00  0.00000000000E+00  0.24741583817E+04  0.24741583817E+04  0.25500000920E-02 0.  1.
        2   -1    0    0  501    0  0.00000000000E+00  0.00000000000E+00 -0.10385898977E+04  0.10385898977E+04  0.25500000920E-02 0. -1.
    10030    2    1    2    0    0  0.00000000000E+00  0.00000000000E+00  0.14355684840E+04  0.35127482795E+04  0.32060167814E+04 0.  0.
        3    1    3    3  502    0 -0.20651510579E+03  0.62564359391E+03  0.23189521338E+04  0.24107296415E+04  0.10100000352E+00 0.  1.
       -3    1    3    3    0  502  0.20651510579E+03 -0.62564359391E+03 -0.88338364979E+03  0.11020186380E+04  0.10100000352E+00 0. -1.
</event>
<event>
 5   0  0.2783875E-07  0.3186060E+04  0.7818609E-02  0.8192508E-01
        3   -1    0    0  501    0  0.00000000000E+00  0.00000000000E+00  0.20093438177E+04  0.20093438202E+04  0.10100000352E+00 0.  1.
       -3   -1    0    0    0  501  0.00000000000E+00  0.00000000000E+00 -0.12629716859E+04  0.12629716900E+04  0.10100000352E+00 0. -1.
    10030    2    1    2    0    0  0.00000000000E+00  0.00000000000E+00  0.74637213175E+03  0.32723155102E+04  0.31860598612E+04 0.  0.
        1    1    3    3  502    0 -0.51932904898E+03  0.12184801039E+04 -0.53584471874E+03  0.14288197883E+04  0.50400001928E-02 0. -1.
       -1    1    3    3    0  502  0.51932904898E+03 -0.12184801039E+04  0.12822168505E+04  0.18434957219E+04  0.50400001928E-02 0.  1.
</event>
<event>
 5   0  0.2997105E-07  0.3203537E+04  0.7818609E-02  0.8187884E-01
        1   -1    0    0  501    0  0.00000000000E+00  0.00000000000E+00  0.14451730118E+04  0.14451730118E+04  0.50400001928E-02 0.  1.
       -1   -1    0    0    0  501  0.00000000000E+00  0.00000000000E+00 -0.17753320366E+04  0.17753320366E+04  0.50400001928E-02 0. -1.
    10030    2    1    2    0    0  0.00000000000E+00  0.00000000000E+00 -0.33015902478E+03  0.32205050483E+04  0.32035367619E+04 0.  0.
        3    1    3    3  502    0 -0.18982971957E+03 -0.14557692816E+04 -0.80906793427E+03  0.16762727869E+04  0.10100000352E+00 0. -1.
       -3    1    3    3    0  502  0.18982971957E+03  0.14557692816E+04  0.47890890949E+03  0.15442322615E+04  0.10100000352E+00 0.  1.
</event>
<event>
 5   0  0.2891204E-07  0.3158952E+04  0.7818609E-02  0.8199743E-01
        1   -1    0    0  501    0  0.00000000000E+00  0.00000000000E+00  0.21031880362E+04  0.21031880362E+04  0.50400001928E-02 0. -1.
       -1   -1    0    0    0  501  0.00000000000E+00  0.00000000000E+00 -0.11861731035E+04  0.11861731035E+04  0.50400001928E-02 0.  1.
    10030    2    1    2    0    0  0.00000000000E+00  0.00000000000E+00  0.91701493271E+03  0.32893611396E+04  0.31589524087E+04 0.  0.
        4    1    3    3  502    0  0.93625164303E+03  0.10354097607E+04 -0.31098741951E+03  0.14301591868E+04  0.12699999809E+01 0. -1.
       -4    1    3    3    0  502 -0.93625164303E+03 -0.10354097607E+04  0.12280023522E+04  0.18592019529E+04  0.12699999809E+01 0.  1.
</event>
<event>
 5   0  0.3075756E-07  0.3236993E+04  0.7818609E-02  0.8179115E-01
        1   -1    0    0  501    0  0.00000000000E+00  0.00000000000E+00  0.14066643341E+04  0.14066643341E+04  0.50400001928E-02 0.  1.
       -1   -1    0    0    0  501  0.00000000000E+00  0.00000000000E+00 -0.18622283921E+04  0.18622283921E+04  0.50400001928E-02 0. -1.
    10030    2    1    2    0    0  0.00000000000E+00  0.00000000000E+00 -0.45556405796E+03  0.32688927262E+04  0.32369925926E+04 0.  0.
        5    1    3    3  502    0  0.14971945779E+04  0.51643249092E+03 -0.56455621131E+03  0.16813803637E+04  0.46999998093E+01 0. -1.
       -5    1    3    3    0  502 -0.14971945779E+04 -0.51643249092E+03  0.10899215334E+03  0.15875123625E+04  0.46999998093E+01 0.  1.
</event>
<event>
 5   0  0.2891204E-07  0.3038361E+04  0.7818609E-02  0.8232861E-01
       -1   -1    0    0    0  501  0.00000000000E+00  0.00000000000E+00  0.22733357692E+04  0.22733357692E+04  0.50400001928E-02 0.  1.
        1   -1    0    0  501    0  0.00000000000E+00  0.00000000000E+00 -0.10152085997E+04  0.10152085997E+04  0.50400001928E-02 0. -1.
    10030    2    1    2    0    0  0.00000000000E+00  0.00000000000E+00  0.12581271695E+04  0.32885443689E+04  0.30383614156E+04 0.  0.
        4    1    3    3  502    0 -0.53006539062E+03  0.27378999269E+03  0.21412375177E+04  0.22227977863E+04  0.12699999809E+01 0.  1.
       -4    1    3    3    0  502  0.53006539062E+03 -0.27378999269E+03 -0.88311034822E+03  0.10657465827E+04  0.12699999809E+01 0. -1.
</event>
<event>
 5   0  0.8195618E-07  0.3176538E+04  0.7818609E-02  0.8195041E-01
       -2   -1    0    0    0  501  0.00000000000E+00  0.00000000000E+00  0.11422863920E+04  0.11422863920E+04  0.25500000920E-02 0. -1.
        2   -1    0    0  501    0  0.00000000000E+00  0.00000000000E+00 -0.22083763090E+04  0.22083763090E+04  0.25500000920E-02 0.  1.
    10030    2    1    2    0    0  0.00000000000E+00  0.00000000000E+00 -0.10660899170E+04  0.33506627011E+04  0.31765378677E+04 0.  0.
        1    1    3    3  502    0 -0.62589500692E+02 -0.91211697720E+03  0.83688576815E+03  0.12394565804E+04  0.50400001928E-02 0. -1.
       -1    1    3    3    0  502  0.62589500692E+02  0.91211697720E+03 -0.19029756852E+04  0.21112061207E+04  0.50400001928E-02 0.  1.
</event>
<event>
 5   0  0.2891204E-07  0.3198470E+04  0.7818609E-02  0.8189221E-01
       -1   -1    0    0    0  501  0.00000000000E+00  0.00000000000E+00  0.78622517920E+03  0.78622517921E+03  0.50400001928E-02 0. -1.
        1   -1    0    0  501    0  0.00000000000E+00  0.00000000000E+00 -0.32529515304E+04  0.32529515304E+04  0.50400001928E-02 0.  1.
    10030    2    1    2    0    0  0.00000000000E+00  0.00000000000E+00 -0.24667263512E+04  0.40391767096E+04  0.31984698841E+04 0.  0.
        4    1    3    3  502    0  0.99808779036E+03 -0.31342730987E+03 -0.27609037971E+04  0.29524578414E+04  0.12699999809E+01 0.  1.
       -4    1    3    3    0  502 -0.99808779036E+03  0.31342730987E+03  0.29417744589E+03  0.10867188682E+04  0.12699999809E+01 0. -1.
</event>
<event>
 5   0  0.8488469E-07  0.3209137E+04  0.7818609E-02  0.8186408E-01
       -2   -1    0    0    0  501  0.00000000000E+00  0.00000000000E+00  0.18571897643E+04  0.18571897643E+04  0.25500000920E-02 0. -1.
        2   -1    0    0  501    0  0.00000000000E+00  0.00000000000E+00 -0.13863094271E+04  0.13863094271E+04  0.25500000920E-02 0.  1.
    10030    2    1    2    0    0  0.00000000000E+00  0.00000000000E+00  0.47088033721E+03  0.32434991915E+04  0.32091367551E+04 0.  0.
        3    1    3    3  502    0 -0.12811847255E+04 -0.78897198066E+02  0.12085478300E+04  0.17630221032E+04  0.10100000352E+00 0. -1.
       -3    1    3    3    0  502  0.12811847255E+04  0.78897198066E+02 -0.73766749284E+03  0.14804770883E+04  0.10100000352E+00 0.  1.
</event>
<event>
 5   0  0.8335929E-07  0.3195282E+04  0.7818609E-02  0.8190064E-01
       -2   -1    0    0    0  501  0.00000000000E+00  0.00000000000E+00  0.15409251093E+04  0.15409251093E+04  0.25500000920E-02 0. -1.
        2   -1    0    0  501    0  0.00000000000E+00  0.00000000000E+00 -0.16564441976E+04  0.16564441976E+04  0.25500000920E-02 0.  1.
    10030    2    1    2    0    0  0.00000000000E+00  0.00000000000E+00 -0.11551908831E+03  0.31973693068E+04  0.31952818068E+04 0.  0.
        4    1    3    3  502    0  0.29908383598E+03  0.64519729218E+03 -0.14893318646E+04  0.16504065264E+04  0.12699999809E+01 0.  1.
       -4    1    3    3    0  502 -0.29908383598E+03 -0.64519729218E+03  0.13738127763E+04  0.15469627804E+04  0.12699999809E+01 0. -1.
</event>
<event>
 5   0  0.2891204E-07  0.3203388E+04  0.7818609E-02  0.8187923E-01
        1   -1    0    0  501    0  0.00000000000E+00  0.00000000000E+00  0.22298868266E+04  0.22298868266E+04  0.50400001928E-02 0. -1.
       -1   -1    0    0    0  501  0.00000000000E+00  0.00000000000E+00 -0.11504723463E+04  0.11504723463E+04  0.50400001928E-02 0.  1.
    10030    2    1    2    0    0  0.00000000000E+00  0.00000000000E+00  0.10794144803E+04  0.33803591728E+04  0.32033876626E+04 0.  0.
        4    1    3    3  502    0 -0.15047066416E+04  0.51505016726E+02  0.11163643442E+04  0.18743174240E+04  0.12699999809E+01 0. -1.
       -4    1    3    3    0  502  0.15047066416E+04 -0.51505016726E+02 -0.36949863954E+02  0.15060417488E+04  0.12699999809E+01 0.  1.
</event>
<event>
 5   0  0.3013888E-07  0.3207537E+04  0.7818609E-02  0.8186829E-01
       -1   -1    0    0    0  501  0.00000000000E+00  0.00000000000E+00  0.15609896658E+04  0.15609896658E+04  0.50400001928E-02 0.  1.
        1   -1    0    0  501    0  0.00000000000E+00  0.00000000000E+00 -0.16477198536E+04  0.16477198536E+04  0.50400001928E-02 0. -1.
    10030    2    1    2    0    0  0.00000000000E+00  0.00000000000E+00 -0.86730187805E+02  0.32087095194E+04  0.32075371634E+04 0.  0.
        1    1    3    3  502    0 -0.90936480592E+03 -0.73362796394E+03  0.10556352446E+04  0.15746492020E+04  0.50400001928E-02 0.  1.
       -1    1    3    3    0  502  0.90936480592E+03  0.73362796394E+03 -0.11423654324E+04  0.16340603174E+04  0.50400001928E-02 0. -1.
</event>
<event>
 5   0  0.8838951E-07  0.3190683E+04  0.7818609E-02  0.8191282E-01
       -2   -1    0    0    0  501  0.00000000000E+00  0.00000000000E+00  0.11049401499E+04  0.11049401499E+04  0.25500000920E-02 0.  1.
        2   -1    0    0  501    0  0.00000000000E+00  0.00000000000E+00 -0.23033958760E+04  0.23033958760E+04  0.25500000920E-02 0. -1.
    10030    2    1    2    0    0  0.00000000000E+00  0.00000000000E+00 -0.11984557261E+04  0.34083360259E+04  0.31906830520E+04 0.  0.
        2    1    3    3  502    0 -0.15790646657E+04 -0.22574961817E+03 -0.62762061218E+03  0.17141516098E+04  0.25500000920E-02 0. -1.
       -2    1    3    3    0  502  0.15790646657E+04  0.22574961817E+03 -0.57083511389E+03  0.16941844161E+04  0.25500000920E-02 0.  1.
</event>
<event>
 5   0  0.8488469E-07  0.3088856E+04  0.7818609E-02  0.8218803E-01
       -2   -1    0    0    0  501  0.00000000000E+00  0.00000000000E+00  0.16516112065E+04  0.16516112065E+04  0.25500000920E-02 0.  1.
        2   -1    0    0  501    0  0.00000000000E+00  0.00000000000E+00 -0.14442002681E+04  0.14442002681E+04  0.25500000920E-02 0. -1.
    10030    2    1    2    0    0  0.00000000000E+00  0.00000000000E+00  0.20741093842E+03  0.30958114746E+04  0.30888556763E+04 0.  0.
        3    1    3    3  502    0 -0.57195767266E+03 -0.14204709969E+04 -0.97704537216E+02  0.15344118153E+04  0.10100000352E+00 0. -1.
       -3    1    3    3    0  502  0.57195767266E+03  0.14204709969E+04  0.30511547564E+03  0.15613996593E+04  0.10100000352E+00 0.  1.
</event>
<event>
 5   0  0.2891204E-07  0.3189629E+04  0.7818609E-02  0.8191562E-01
       -1   -1    0    0    0  501  0.00000000000E+00  0.00000000000E+00  0.18802828172E+04  0.18802828172E+04  0.50400001928E-02 0.  1.
        1   -1    0    0  501    0  0.00000000000E+00  0.00000000000E+00 -0.13526863534E+04  0.13526863534E+04  0.50400001928E-02 0. -1.
    10030    2    1    2    0    0  0.00000000000E+00  0.00000000000E+00  0.52759646379E+03  0.32329691705E+04  0.31896287604E+04 0.  0.
        4    1    3    3  502    0  0.11525618012E+03 -0.13625667410E+04  0.10956564386E+04  0.17522376423E+04  0.12699999809E+01 0.  1.
       -4    1    3    3    0  502 -0.11525618012E+03  0.13625667410E+04 -0.56805997482E+03  0.14807315282E+04  0.12699999809E+01 0. -1.
</event>
<event>
 5   0  0.2783875E-07  0.3288204E+04  0.7818609E-02  0.8165903E-01
       -1   -1    0    0    0  501  0.00000000000E+00  0.00000000000E+00  0.15306076534E+04  0.15306076534E+04  0.50400001928E-02 0.  1.
        1   -1    0    0  501    0  0.00000000000E+00  0.00000000000E+00 -0.17660124197E+04  0.17660124197E+04  0.50400001928E-02 0. -1.
    10030    2    1    2    0    0  0.00000000000E+00  0.00000000000E+00 -0.23540476626E+03  0.32966200731E+04  0.32882044496E+04 0.  0.
        2    1    3    3  502    0  0.13207591016E+03  0.13563440168E+04 -0.10398166479E+04  0.17141562937E+04  0.25500000920E-02 0. -1.
       -2    1    3    3    0  502 -0.13207591016E+03 -0.13563440168E+04  0.80441188164E+03  0.15824637794E+04  0.25500000920E-02 0.  1.
</event>
<event>
 5   0  0.3013888E-07  0.3203807E+04  0.7818609E-02  0.8187813E-01
        1   -1    0    0  501    0  0.00000000000E+00  0.00000000000E+00  0.17911225143E+04  0.17911225143E+04  0.50400001928E-02 0. -1.
       -1   -1    0    0    0  501  0.00000000000E+00  0.00000000000E+00 -0.14326738043E+04  0.14326738043E+04  0.50400001928E-02 0.  1.
    10030    2    1    2    0    0  0.00000000000E+00  0.00000000000E+00  0.35844871002E+03  0.32237963185E+04  0.32038066773E+04 0.  0.
        1    1    3    3  502    0 -0.21018315581E+03 -0.76201050142E+03  0.15812076811E+04  0.17677824227E+04  0.50400001928E-02 0. -1.
       -1    1    3    3    0  502  0.21018315581E+03  0.76201050142E+03 -0.12227589711E+04  0.14560138958E+04  0.50400001928E-02 0.  1.
</event>
<event>
 5   0  0.8838951E-07  0.3186985E+04  0.7818609E-02  0.8192263E-01
       -2   -1    0    0    0  501  0.00000000000E+00  0.00000000000E+00  0.10341738154E+04  0.10341738154E+04  0.25500000920E-02 0.  1.
        2   -1    0    0  501    0  0.00000000000E+00  0.00000000000E+00 -0.24553112683E+04  0.24553112683E+04  0.25500000920E-02 0. -1.
    10030    2    1    2    0    0  0.00000000000E+00  0.00000000000E+00 -0.14211374529E+04  0.34894850838E+04  0.31869851725E+04 0.  0.
        2    1    3    3  502    0  0.53250018474E+03 -0.25582151582E+03  0.90984132473E+03  0.10848098132E+04  0.25500000920E-02 0.  1.
       -2    1    3    3    0  502 -0.53250018474E+03  0.25582151582E+03 -0.23309787777E+04  0.24046752705E+04  0.25500000920E-02 0. -1.
</event>
<event>
 5   0  0.3075756E-07  0.3122968E+04  0.7818609E-02  0.8209463E-01
       -1   -1    0    0    0  501  0.00000000000E+00  0.00000000000E+00  0.13063195617E+04  0.13063195617E+04  0.50400001928E-02 0. -1.
        1   -1    0    0  501    0  0.00000000000E+00  0.00000000000E+00 -0.18664903157E+04  0.18664903157E+04  0.50400001928E-02 0.  1.
    10030    2    1    2    0    0  0.00000000000E+00  0.00000000000E+00 -0.56017075401E+03  0.31728098773E+04  0.31229683386E+04 0.  0.
        5    1    3    3  502    0  0.19843403310E+03 -0.12806997131E+04  0.60481660236E+03  0.14301723788E+04  0.46999998093E+01 0. -1.
       -5    1    3    3    0  502 -0.19843403310E+03  0.12806997131E+04 -0.11649873564E+04  0.17426374985E+04  0.46999998093E+01 0.  1.
</event>
<event>
 5   0  0.2997105E-07  0.3215921E+04  0.7818609E-02  0.8184625E-01
       -1   -1    0    0    0  501  0.00000000000E+00  0.00000000000E+00  0.17031394091E+04  0.17031394091E+04  0.50400001928E-02 0.  1.
        1   -1    0    0  501    0  0.00000000000E+00  0.00000000000E+00 -0.15181006697E+04  0.15181006697E+04  0.50400001928E-02 0. -1.
    10030    2    1    2    0    0  0.00000000000E+00  0.00000000000E+00  0.18503873941E+03  0.32212400788E+04  0.32159210671E+04 0.  0.
        3    1    3    3  502    0  0.71000817593E+03 -0.93669940215E+03 -0.10065737961E+04  0.15474844739E+04  0.10100000352E+00 0. -1.
       -3    1    3    3    0  502 -0.71000817593E+03  0.93669940215E+03  0.11916125355E+04  0.16737556048E+04  0.10100000352E+00 0.  1.
</event>
<event>
 5   0  0.8488469E-07  0.3197319E+04  0.7818609E-02  0.8189526E-01
       -2   -1    0    0    0  501  0.00000000000E+00  0.00000000000E+00  0.23141323974E+04  0.23141323974E+04  0.25500000920E-02 0. -1.
        2   -1    0    0  501    0  0.00000000000E+00  0.00000000000E+00 -0.11043934011E+04  0.11043934011E+04  0.25500000920E-02 0.  1.
    10030    2    1    2    0    0  0.00000000000E+00  0.00000000000E+00  0.12097389963E+04  0.34185257985E+04  0.31973192202E+04 0.  0.
        3    1    3    3  502    0 -0.14465447445E+04 -0.57596064957E+03  0.21716618859E+03  0.15720634629E+04  0.10100000352E+00 0.  1.
       -3    1    3    3    0  502  0.14465447445E+04  0.57596064957E+03  0.99257280773E+03  0.18464623356E+04  0.10100000352E+00 0. -1.
</event>
<event>
 5   0  0.8488469E-07  0.3205659E+04  0.7818609E-02  0.8187324E-01
        2   -1    0    0  501    0  0.00000000000E+00  0.00000000000E+00  0.19533985562E+04  0.19533985562E+04  0.25500000920E-02 0.  1.
       -2   -1    0    0    0  501  0.00000000000E+00  0.00000000000E+00 -0.13151755481E+04  0.13151755481E+04  0.25500000920E-02 0. -1.
    10030    2    1    2    0    0  0.00000000000E+00  0.00000000000E+00  0.63822300812E+03  0.32685741043E+04  0.32056587572E+04 0.  0.
        3    1    3    3  502    0 -0.69590257884E+03 -0.99149917017E+03  0.13893360053E+04  0.18432594905E+04  0.10100000352E+00 0.  1.
       -3    1    3    3    0  502  0.69590257884E+03  0.99149917017E+03 -0.75111299714E+03  0.14253146138E+04  0.10100000352E+00 0. -1.
</event>
<event>
 5   0  0.3013888E-07  0.3171591E+04  0.7818609E-02  0.8196360E-01
       -1   -1    0    0    0  501  0.00000000000E+00  0.00000000000E+00  0.16759311406E+04  0.16759311406E+04  0.50400001928E-02 0.  1.
        1   -1    0    0  501    0  0.00000000000E+00  0.00000000000E+00 -0.15005078129E+04  0.15005078129E+04  0.50400001928E-02 0. -1.
    10030    2    1    2    0    0  0.00000000000E+00  0.00000000000E+00  0.17542332766E+03  0.31764389536E+04  0.31715912539E+04 0.  0.
        1    1    3    3  502    0  0.13243586195E+04 -0.53744929025E+03  0.77576265791E+03  0.16262180647E+04  0.50400001928E-02 0.  1.
       -1    1    3    3    0  502 -0.13243586195E+04  0.53744929025E+03 -0.60033933025E+03  0.15502208888E+04  0.50400001928E-02 0. -1.
</event>
<event>
 5   0  0.8195618E-07  0.3190687E+04  0.7818609E-02  0.8191281E-01
       -2   -1    0    0    0  501  0.00000000000E+00  0.00000000000E+00  0.22238459152E+04  0.22238459152E+04  0.25500000920E-02 0.  1.
        2   -1    0    0  501    0  0.00000000000E+00  0.00000000000E+00 -0.11444680610E+04  0.11444680610E+04  0.25500000920E-02 0. -1.
    10030    2    1    2    0    0  0.00000000000E+00  0.00000000000E+00  0.10793778542E+04  0.33683139763E+04  0.31906868368E+04 0.  0.
        1    1    3    3  502    0 -0.11599730274E+03  0.82872732369E+03  0.19735662925E+04  0.21436436882E+04  0.50400001928E-02 0.  1.
       -1    1    3    3    0  502  0.11599730274E+03 -0.82872732369E+03 -0.89418843825E+03  0.12246702880E+04  0.50400001928E-02 0. -1.
</event>
<event>
 5   0  0.2783875E-07  0.3203803E+04  0.7818609E-02  0.8187814E-01
        1   -1    0    0  501    0  0.00000000000E+00  0.00000000000E+00  0.26533491715E+04  0.26533491715E+04  0.50400001928E-02 0. -1.
       -1   -1    0    0    0  501  0.00000000000E+00  0.00000000000E+00 -0.96711291448E+03  0.96711291449E+03  0.50400001928E-02 0.  1.
    10030    2    1    2    0    0  0.00000000000E+00  0.00000000000E+00  0.16862362570E+04  0.36204620860E+04  0.32038028968E+04 0.  0.
        2    1    3    3  502    0  0.10704951937E+04  0.49060514315E+02  0.21886489640E+04  0.24369142745E+04  0.25500000920E-02 0. -1.
       -2    1    3    3    0  502 -0.10704951937E+04 -0.49060514315E+02 -0.50241270695E+03  0.11835478115E+04  0.25500000920E-02 0.  1.
</event>
<event>
 5   0  0.3013888E-07  0.3205124E+04  0.7818609E-02  0.8187465E-01
        1   -1    0    0  501    0  0.00000000000E+00  0.00000000000E+00  0.18712378798E+04  0.18712378799E+04  0.50400001928E-02 0. -1.
       -1   -1    0    0    0  501  0.00000000000E+00  0.00000000000E+00 -0.13724630508E+04  0.13724630508E+04  0.50400001928E-02 0.  1.
    10030    2    1    2    0    0  0.00000000000E+00  0.00000000000E+00  0.49877482907E+03  0.32437009306E+04  0.32051239285E+04 0.  0.
        1    1    3    3  502    0  0.78365683167E+02  0.13450154692E+04 -0.62881093831E+03  0.14868123583E+04  0.50400001928E-02 0.  1.
       -1    1    3    3    0  502 -0.78365683167E+02 -0.13450154692E+04  0.11275857674E+04  0.17568885723E+04  0.50400001928E-02 0. -1.
</event>
<event>
 5   0  0.2783875E-07  0.3171885E+04  0.7818609E-02  0.8196282E-01
       -4   -1    0    0    0  501  0.00000000000E+00  0.00000000000E+00  0.13962952273E+04  0.13962958049E+04  0.12699999809E+01 0.  1.
        4   -1    0    0  501    0  0.00000000000E+00  0.00000000000E+00 -0.18013464782E+04  0.18013469259E+04  0.12699999809E+01 0. -1.
    10030    2    1    2    0    0  0.00000000000E+00  0.00000000000E+00 -0.40505125081E+03  0.31976427308E+04  0.31718846949E+04 0.  0.
        2    1    3    3  502    0 -0.11386601628E+04 -0.83959166275E+03  0.52005998954E+03  0.15072901245E+04  0.25500000920E-02 0.  1.
       -2    1    3    3    0  502  0.11386601628E+04  0.83959166275E+03 -0.92511124036E+03  0.16903526063E+04  0.25500000920E-02 0. -1.
</event>
<event>
 5   0  0.8195618E-07  0.3202000E+04  0.7818609E-02  0.8188289E-01
       -2   -1    0    0    0  501  0.00000000000E+00  0.00000000000E+00  0.10969815678E+04  0.10969815678E+04  0.25500000920E-02 0.  1.
        2   -1    0    0  501    0  0.00000000000E+00  0.00000000000E+00 -0.23365947334E+04  0.23365947334E+04  0.25500000920E-02 0. -1.
    10030    2    1    2    0    0  0.00000000000E+00  0.00000000000E+00 -0.12396131656E+04  0.34335763011E+04  0.32020002210E+04 0.  0.
        1    1    3    3  502    0  0.58441942085E+03  0.14856930437E+04 -0.49125542138E+03  0.16703777323E+04  0.50400001928E-02 0. -1.
       -1    1    3    3    0  502 -0.58441942085E+03 -0.14856930437E+04 -0.74835774423E+03  0.17631985688E+04  0.50400001928E-02 0.  1.
</event>
<event>
 5   0  0.2783875E-07  0.3029965E+04  0.7818609E-02  0.8235226E-01
        1   -1    0    0  501    0  0.00000000000E+00  0.00000000000E+00  0.16780852505E+04  0.16780852505E+04  0.50400001928E-02 0.  1.
       -1   -1    0    0    0  501  0.00000000000E+00  0.00000000000E+00 -0.13677326176E+04  0.13677326177E+04  0.50400001928E-02 0. -1.
    10030    2    1    2    0    0  0.00000000000E+00  0.00000000000E+00  0.31035263281E+03  0.30458178681E+04  0.30299649716E+04 0.  0.
        2    1    3    3  502    0 -0.10726608558E+04 -0.44721433653E+03 -0.82179853968E+03  0.14233603951E+04  0.25500000920E-02 0. -1.
       -2    1    3    3    0  502  0.10726608558E+04  0.44721433653E+03  0.11321511725E+04  0.16224574730E+04  0.25500000920E-02 0.  1.
</event>
<event>
 5   0  0.2783875E-07  0.3210170E+04  0.7818609E-02  0.8186136E-01
       -1   -1    0    0    0  501  0.00000000000E+00  0.00000000000E+00  0.16358123372E+04  0.16358123372E+04  0.50400001928E-02 0. -1.
        1   -1    0    0  501    0  0.00000000000E+00  0.00000000000E+00 -0.15749349647E+04  0.15749349647E+04  0.50400001928E-02 0.  1.
    10030    2    1    2    0    0  0.00000000000E+00  0.00000000000E+00  0.60877372558E+02  0.32107473019E+04  0.32101701173E+04 0.  0.
        2    1    3    3  502    0 -0.56846676431E+03  0.64238704860E+03  0.13873264324E+04  0.16311009203E+04  0.25500000920E-02 0. -1.
       -2    1    3    3    0  502  0.56846676431E+03 -0.64238704860E+03 -0.13264490598E+04  0.15796463815E+04  0.25500000920E-02 0.  1.
</event>
<event>
 5   0  0.8838951E-07  0.3135146E+04  0.7818609E-02  0.8206158E-01
        2   -1    0    0  501    0  0.00000000000E+00  0.00000000000E+00  0.23980223440E+04  0.23980223440E+04  0.25500000920E-02 0.  1.
       -2   -1    0    0    0  501  0.00000000000E+00  0.00000000000E+00 -0.10247131935E+04  0.10247131935E+04  0.25500000920E-02 0. -1.
    10030    2    1    2    0    0  0.00000000000E+00  0.00000000000E+00  0.13733091505E+04  0.34227355375E+04  0.31351460152E+04 0.  0.
        2    1    3    3  502    0 -0.61638797926E+03  0.20832318688E+03  0.22436450972E+04  0.23360813371E+04  0.25500000920E-02 0.  1.
       -2    1    3    3    0  502  0.61638797926E+03 -0.20832318688E+03 -0.87033594671E+03  0.10866542004E+04  0.25500000920E-02 0. -1.
</event>
<event>
 5   0  0.2997105E-07  0.3195920E+04  0.7818609E-02  0.8189895E-01
        1   -1    0    0  501    0  0.00000000000E+00  0.00000000000E+00  0.12847956087E+04  0.12847956088E+04  0.50400001928E-02 0.  1.
       -1   -1    0    0    0  501  0.00000000000E+00  0.00000000000E+00 -0.19874572939E+04  0.19874572939E+04  0.50400001928E-02 0. -1.
    10030    2    1    2    0    0  0.00000000000E+00  0.00000000000E+00 -0.70266168514E+03  0.32722529026E+04  0.31959201516E+04 0.  0.
        3    1    3    3  502    0 -0.87440451839E+03 -0.37194535166E+02 -0.17202416268E+04  0.19300771902E+04  0.10100000352E+00 0. -1.
       -3    1    3    3    0  502  0.87440451839E+03  0.37194535166E+02  0.10175799417E+04  0.13421757125E+04  0.10100000352E+00 0.  1.
</event>
<event>
 5   0  0.8802800E-07  0.3197149E+04  0.7818609E-02  0.8189571E-01
        2   -1    0    0  501    0  0.00000000000E+00  0.00000000000E+00  0.74363869176E+03  0.74363869176E+03  0.25500000920E-02 0.  1.
       -2   -1    0    0    0  501  0.00000000000E+00  0.00000000000E+00 -0.34364006918E+04  0.34364006918E+04  0.25500000920E-02 0. -1.
    10030    2    1    2    0    0  0.00000000000E+00  0.00000000000E+00 -0.26927620001E+04  0.41800393836E+04  0.31971490518E+04 0.  0.
        5    1    3    3  502    0  0.26402935745E+03 -0.63520841088E+03 -0.32329839301E+04  0.33053605566E+04  0.46999998093E+01 0. -1.
       -5    1    3    3    0  502 -0.26402935745E+03  0.63520841088E+03  0.54022192998E+03  0.87467882704E+03  0.46999998093E+01 0.  1.
</event>
<event>
 5   0  0.2997105E-07  0.3187890E+04  0.7818609E-02  0.8192023E-01
        1   -1    0    0  501    0  0.00000000000E+00  0.00000000000E+00  0.17257757695E+04  0.17257757695E+04  0.50400001928E-02 0. -1.
       -1   -1    0    0    0  501  0.00000000000E+00  0.00000000000E+00 -0.14721843395E+04  0.14721843395E+04  0.50400001928E-02 0.  1.
    10030    2    1    2    0    0  0.00000000000E+00  0.00000000000E+00  0.25359142999E+03  0.31979601090E+04  0.31878896225E+04 0.  0.
        3    1    3    3  502    0 -0.50116306124E+03  0.99752659420E+02  0.16413814261E+04  0.17190834777E+04  0.10100000352E+00 0. -1.
       -3    1    3    3    0  502  0.50116306124E+03 -0.99752659420E+02 -0.13877899962E+04  0.14788766313E+04  0.10100000352E+00 0.  1.
</event>
<event>
 5   0  0.8838951E-07  0.3204828E+04  0.7818609E-02  0.8187543E-01
        2   -1    0    0  501    0  0.00000000000E+00  0.00000000000E+00  0.19536790761E+04  0.19536790761E+04  0.25500000920E-02 0. -1.
       -2   -1    0    0    0  501  0.00000000000E+00  0.00000000000E+00 -0.13143054230E+04  0.13143054230E+04  0.25500000920E-02 0.  1.
    10030    2    1    2    0    0  0.00000000000E+00  0.00000000000E+00  0.63937365309E+03  0.32679844992E+04  0.32048282354E+04 0.  0.
        2    1    3    3  502    0 -0.55923477594E+03  0.21779595093E+03  0.18347499918E+04  0.19304108742E+04  0.25500000920E-02 0. -1.
       -2    1    3    3    0  502  0.55923477594E+03 -0.21779595093E+03 -0.11953763387E+04  0.13375736249E+04  0.25500000920E-02 0.  1.
</event>
<event>
 5   0  0.8838951E-07  0.3224311E+04  0.7818609E-02  0.8182426E-01
        2   -1    0    0  501    0  0.00000000000E+00  0.00000000000E+00  0.16072289704E+04  0.16072289704E+04  0.25500000920E-02 0. -1.
       -2   -1    0    0    0  501  0.00000000000E+00  0.00000000000E+00 -0.16170968954E+04  0.16170968954E+04  0.25500000920E-02 0.  1.
    10030    2    1    2    0    0  0.00000000000E+00  0.00000000000E+00 -0.98679250059E+01  0.32243258657E+04  0.32243107655E+04 0.  0.
        2    1    3    3  502    0  0.74437284590E+03  0.59875646277E+03 -0.13035719177E+04  0.16161373643E+04  0.25500000920E-02 0.  1.
       -2    1    3    3    0  502 -0.74437284590E+03 -0.59875646277E+03  0.12937039927E+04  0.16081885015E+04  0.25500000920E-02 0. -1.
</event>
<event>
 5   0  0.3013888E-07  0.3187911E+04  0.7818609E-02  0.8192017E-01
       -1   -1    0    0    0  501  0.00000000000E+00  0.00000000000E+00  0.10915569184E+04  0.10915569184E+04  0.50400001928E-02 0.  1.
        1   -1    0    0  501    0  0.00000000000E+00  0.00000000000E+00 -0.23275870553E+04  0.23275870553E+04  0.50400001928E-02 0. -1.
    10030    2    1    2    0    0  0.00000000000E+00  0.00000000000E+00 -0.12360301369E+04  0.34191439737E+04  0.31879107600E+04 0.  0.
        1    1    3    3  502    0 -0.14020311397E+04 -0.40825587409E+03  0.67341615979E+02  0.14618136231E+04  0.50400001928E-02 0.  1.
       -1    1    3    3    0  502  0.14020311397E+04  0.40825587409E+03 -0.13033717529E+04  0.19573303506E+04  0.50400001928E-02 0. -1.
</event>
<event>
 5   0  0.8488469E-07  0.3341879E+04  0.7818609E-02  0.8152320E-01
        2   -1    0    0  501    0  0.00000000000E+00  0.00000000000E+00  0.23827604257E+04  0.23827604257E+04  0.25500000920E-02 0. -1.
       -2   -1    0    0    0  501  0.00000000000E+00  0.00000000000E+00 -0.11717662537E+04  0.11717662537E+04  0.25500000920E-02 0.  1.
    10030    2    1    2    0    0  0.00000000000E+00  0.00000000000E+00  0.12109941720E+04  0.35545266794E+04  0.33418786678E+04 0.  0.
        3    1    3    3  502    0 -0.12717342039E+04 -0.65553853464E+03  0.15235529680E+04  0.20900364380E+04  0.10100000352E+00 0. -1.
       -3    1    3    3    0  502  0.12717342039E+04  0.65553853464E+03 -0.31255879604E+03  0.14644902414E+04  0.10100000352E+00 0.  1.
</event>
<event>
 5   0  0.8838951E-07  0.3195963E+04  0.7818609E-02  0.8189884E-01
       -2   -1    0    0    0  501  0.00000000000E+00  0.00000000000E+00  0.14043346671E+04  0.14043346671E+04  0.25500000920E-02 0.  1.
        2   -1    0    0  501    0  0.00000000000E+00  0.00000000000E+00 -0.18183311107E+04  0.18183311107E+04  0.25500000920E-02 0. -1.
    10030    2    1    2    0    0  0.00000000000E+00  0.00000000000E+00 -0.41399644364E+03  0.32226657777E+04  0.31959633383E+04 0.  0.
        2    1    3    3  502    0 -0.13861672554E+04  0.44564729446E+03 -0.87089435135E+03  0.16966196221E+04  0.25500000920E-02 0. -1.
       -2    1    3    3    0  502  0.13861672554E+04 -0.44564729446E+03  0.45689790771E+03  0.15260461556E+04  0.25500000920E-02 0.  1.
</event>
<event>
 5   0  0.2997105E-07  0.3201021E+04  0.7818609E-02  0.8188548E-01
        1   -1    0    0  501    0  0.00000000000E+00  0.00000000000E+00  0.20192087555E+04  0.20192087555E+04  0.50400001928E-02 0.  1.
       -1   -1    0    0    0  501  0.00000000000E+00  0.00000000000E+00 -0.12686327250E+04  0.12686327250E+04  0.50400001928E-02 0. -1.
    10030    2    1    2    0    0  0.00000000000E+00  0.00000000000E+00  0.75057603049E+03  0.32878414805E+04  0.32010212782E+04 0.  0.
        3    1    3    3  502    0 -0.14978690515E+04 -0.24437572035E+03 -0.14673196360E+03  0.15247496410E+04  0.10100000352E+00 0. -1.
       -3    1    3    3    0  502  0.14978690515E+04  0.24437572035E+03  0.89730799409E+03  0.17630918396E+04  0.10100000352E+00 0.  1.
</event>
<event>
 5   0  0.2997105E-07  0.3207069E+04  0.7818609E-02  0.8186953E-01
        1   -1    0    0  501    0  0.00000000000E+00  0.00000000000E+00  0.11652862280E+04  0.11652862280E+04  0.50400001928E-02 0. -1.
       -1   -1    0    0    0  501  0.00000000000E+00  0.00000000000E+00 -0.22066013104E+04  0.22066013104E+04  0.50400001928E-02 0.  1.
    10030    2    1    2    0    0  0.00000000000E+00  0.00000000000E+00 -0.10413150824E+04  0.33718875383E+04  0.32070685166E+04 0.  0.
        3    1    3    3  502    0  0.52290422264E+03  0.47808733929E+03 -0.20331014485E+04  0.21530206316E+04  0.10100000352E+00 0.  1.
       -3    1    3    3    0  502 -0.52290422264E+03 -0.47808733929E+03  0.99178636611E+03  0.12188669067E+04  0.10100000352E+00 0. -1.
</event>
<event>
 5   0  0.2891204E-07  0.3219200E+04  0.7818609E-02  0.8183765E-01
       -1   -1    0    0    0  501  0.00000000000E+00  0.00000000000E+00  0.14385480943E+04  0.14385480943E+04  0.50400001928E-02 0. -1.
        1   -1    0    0  501    0  0.00000000000E+00  0.00000000000E+00 -0.18009914770E+04  0.18009914770E+04  0.50400001928E-02 0.  1.
    10030    2    1    2    0    0  0.00000000000E+00  0.00000000000E+00 -0.36244338274E+03  0.32395395713E+04  0.32192004331E+04 0.  0.
        4    1    3    3  502    0  0.44171405639E+03 -0.15473978026E+04 -0.21694211432E+03  0.16237662273E+04  0.12699999809E+01 0.  1.
       -4    1    3    3    0  502 -0.44171405639E+03  0.15473978026E+04 -0.14550126842E+03  0.16157733440E+04  0.12699999809E+01 0. -1.
</event>
<event>
 5   0  0.8488469E-07  0.3170597E+04  0.7818609E-02  0.8196626E-01
        2   -1    0    0  501    0  0.00000000000E+00  0.00000000000E+00  0.14173987448E+04  0.14173987448E+04  0.25500000920E-02 0.  1.
       -2   -1    0    0    0  501  0.00000000000E+00  0.00000000000E+00 -0.17730873208E+04  0.17730873208E+04  0.25500000920E-02 0. -1.
    10030    2    1    2    0    0  0.00000000000E+00  0.00000000000E+00 -0.35568857603E+03  0.31904860656E+04  0.31705972579E+04 0.  0.
        3    1    3    3  502    0  0.11084965307E+04 -0.80330883635E+03 -0.98229768623E+03  0.16849268232E+04  0.10100000352E+00 0. -1.
       -3    1    3    3    0  502 -0.11084965307E+04  0.80330883635E+03  0.62660911020E+03  0.15055592424E+04  0.10100000352E+00 0.  1.
</event>
<event>
 5   0  0.8838951E-07  0.3204984E+04  0.7818609E-02  0.8187502E-01
        2   -1    0    0  501    0  0.00000000000E+00  0.00000000000E+00  0.93824946437E+03  0.93824946438E+03  0.25500000920E-02 0.  1.
       -2   -1    0    0    0  501  0.00000000000E+00  0.00000000000E+00 -0.27369905644E+04  0.27369905644E+04  0.25500000920E-02 0. -1.
    10030    2    1    2    0    0  0.00000000000E+00  0.00000000000E+00 -0.17987411000E+04  0.36752400288E+04  0.32049835763E+04 0.  0.
        2    1    3    3  502    0  0.33072414705E+03 -0.16264934234E+03  0.88898875836E+03  0.96235870781E+03  0.25500000920E-02 0.  1.
       -2    1    3    3    0  502 -0.33072414705E+03  0.16264934234E+03 -0.26877298584E+04  0.27128813210E+04  0.25500000920E-02 0. -1.
</event>
<event>
 5   0  0.8335929E-07  0.3198515E+04  0.7818609E-02  0.8189209E-01
        2   -1    0    0  501    0  0.00000000000E+00  0.00000000000E+00  0.12849958932E+04  0.12849958932E+04  0.25500000920E-02 0. -1.
       -2   -1    0    0    0  501  0.00000000000E+00  0.00000000000E+00 -0.19903755567E+04  0.19903755567E+04  0.25500000920E-02 0.  1.
    10030    2    1    2    0    0  0.00000000000E+00  0.00000000000E+00 -0.70537966354E+03  0.32753714498E+04  0.31985149155E+04 0.  0.
        4    1    3    3  502    0  0.15832966272E+04 -0.48531162475E+02 -0.12731199990E+03  0.15891486531E+04  0.12699999809E+01 0. -1.
       -4    1    3    3    0  502 -0.15832966272E+04  0.48531162475E+02 -0.57806766364E+03  0.16862227967E+04  0.12699999809E+01 0.  1.
</event>
<event>
 5   0  0.2783875E-07  0.3202728E+04  0.7818609E-02  0.8188097E-01
       -1   -1    0    0    0  501  0.00000000000E+00  0.00000000000E+00  0.16475269182E+04  0.16475269182E+04  0.50400001928E-02 0.  1.
        1   -1    0    0  501    0  0.00000000000E+00  0.00000000000E+00 -0.15564942731E+04  0.15564942731E+04  0.50400001928E-02 0. -1.
    10030    2    1    2    0    0  0.00000000000E+00  0.00000000000E+00  0.91032645126E+02  0.32040211913E+04  0.32027277206E+04 0.  0.
        2    1    3    3  502    0  0.82614357309E+03 -0.13684460117E+04 -0.50483481100E+02  0.15992830494E+04  0.25500000920E-02 0.  1.
       -2    1    3    3    0  502 -0.82614357309E+03  0.13684460117E+04  0.14151612623E+03  0.16047381419E+04  0.25500000920E-02 0. -1.
</event>
<event>
 5   0  0.2783875E-07  0.3197997E+04  0.7818609E-02  0.8189346E-01
       -3   -1    0    0    0  501  0.00000000000E+00  0.00000000000E+00  0.21533334924E+04  0.21533334947E+04  0.10100000352E+00 0. -1.
        3   -1    0    0  501    0  0.00000000000E+00  0.00000000000E+00 -0.11873666751E+04  0.11873666794E+04  0.10100000352E+00 0.  1.
    10030    2    1    2    0    0  0.00000000000E+00  0.00000000000E+00  0.96596681727E+03  0.33407001741E+04  0.31979971484E+04 0.  0.
        5    1    3    3  502    0 -0.41886790836E+02  0.10402299927E+04  0.17507875423E+04  0.20369369282E+04  0.46999998093E+01 0. -1.
       -5    1    3    3    0  502  0.41886790836E+02 -0.10402299927E+04 -0.78482072506E+03  0.13037632459E+04  0.46999998093E+01 0.  1.
</event>
<event>
 5   0  0.8195618E-07  0.3031651E+04  0.7818609E-02  0.8234750E-01
       -2   -1    0    0    0  501  0.00000000000E+00  0.00000000000E+00  0.19206734453E+04  0.19206734453E+04  0.25500000920E-02 0.  1.
        2   -1    0    0  501    0  0.00000000000E+00  0.00000000000E+00 -0.11963132957E+04  0.11963132957E+04  0.25500000920E-02 0. -1.
    10030    2    1    2    0    0  0.00000000000E+00  0.00000000000E+00  0.72436014966E+03  0.31169867410E+04  0.30316511536E+04 0.  0.
        1    1    3    3  502    0 -0.10717486716E+04 -0.64843289187E+02  0.14622877712E+04  0.18141486690E+04  0.50400001928E-02 0.  1.
       -1    1    3    3    0  502  0.10717486716E+04  0.64843289187E+02 -0.73792762152E+03  0.13028380720E+04  0.50400001928E-02 0. -1.
</event>
<event>
 5   0  0.8838951E-07  0.3202480E+04  0.7818609E-02  0.8188163E-01
       -2   -1    0    0    0  501  0.00000000000E+00  0.00000000000E+00  0.13455882699E+04  0.13455882699E+04  0.25500000920E-02 0. -1.
        2   -1    0    0  501    0  0.00000000000E+00  0.00000000000E+00 -0.19054632178E+04  0.19054632178E+04  0.25500000920E-02 0.  1.
    10030    2    1    2    0    0  0.00000000000E+00  0.00000000000E+00 -0.55987494796E+03  0.32510514877E+04  0.32024796359E+04 0.  0.
        2    1    3    3  502    0  0.10389386083E+04 -0.68805550287E+03 -0.13007508905E+04  0.18013235928E+04  0.25500000920E-02 0.  1.
       -2    1    3    3    0  502 -0.10389386083E+04  0.68805550287E+03  0.74087594253E+03  0.14497278949E+04  0.25500000920E-02 0. -1.
</event>
<event>
 5   0  0.3013888E-07  0.3149170E+04  0.7818609E-02  0.8202372E-01
       -1   -1    0    0    0  501  0.00000000000E+00  0.00000000000E+00  0.20355644943E+04  0.20355644943E+04  0.50400001928E-02 0.  1.
        1   -1    0    0  501    0  0.00000000000E+00  0.00000000000E+00 -0.12179998860E+04  0.12179998860E+04  0.50400001928E-02 0. -1.
    10030    2    1    2    0    0  0.00000000000E+00  0.00000000000E+00  0.81756460831E+03  0.32535643803E+04  0.31491696188E+04 0.  0.
        1    1    3    3  502    0  0.10933186786E+04  0.15486801127E+03  0.15684844695E+04  0.19181953407E+04  0.50400001928E-02 0.  1.
       -1    1    3    3    0  502 -0.10933186786E+04 -0.15486801127E+03 -0.75091986123E+03  0.13353690396E+04  0.50400001928E-02 0. -1.
</event>
<event>
 5   0  0.2997105E-07  0.3207223E+04  0.7818609E-02  0.8186912E-01
        1   -1    0    0  501    0  0.00000000000E+00  0.00000000000E+00  0.18643145363E+04  0.18643145363E+04  0.50400001928E-02 0.  1.
       -1   -1    0    0    0  501  0.00000000000E+00  0.00000000000E+00 -0.13793645401E+04  0.13793645401E+04  0.50400001928E-02 0. -1.
    10030    2    1    2    0    0  0.00000000000E+00  0.00000000000E+00  0.48494999622E+03  0.32436790764E+04  0.32072227007E+04 0.  0.
        3    1    3    3  502    0  0.15536282720E+04 -0.11372821922E+03  0.62742528107E+03  0.16793919760E+04  0.10100000352E+00 0.  1.
       -3    1    3    3    0  502 -0.15536282720E+04  0.11372821922E+03 -0.14247528485E+03  0.15642871004E+04  0.10100000352E+00 0. -1.
</event>
<event>
 5   0  0.2891204E-07  0.3212460E+04  0.7818609E-02  0.8185534E-01
        1   -1    0    0  501    0  0.00000000000E+00  0.00000000000E+00  0.14988319465E+04  0.14988319465E+04  0.50400001928E-02 0.  1.
       -1   -1    0    0    0  501  0.00000000000E+00  0.00000000000E+00 -0.17213240526E+04  0.17213240526E+04  0.50400001928E-02 0. -1.
    10030    2    1    2    0    0  0.00000000000E+00  0.00000000000E+00 -0.22249210613E+03  0.32201559991E+04  0.32124604155E+04 0.  0.
        4    1    3    3  502    0 -0.46657101046E+02  0.15698647027E+04  0.22619339662E+03  0.15867630999E+04  0.12699999809E+01 0.  1.
       -4    1    3    3    0  502  0.46657101046E+02 -0.15698647027E+04 -0.44868550274E+03  0.16333928992E+04  0.12699999809E+01 0. -1.
</event>
<event>
 5   0  0.3013888E-07  0.3228328E+04  0.7818609E-02  0.8181376E-01
       -1   -1    0    0    0  501  0.00000000000E+00  0.00000000000E+00  0.19016198268E+04  0.19016198268E+04  0.50400001928E-02 0. -1.
        1   -1    0    0  501    0  0.00000000000E+00  0.00000000000E+00 -0.13701612133E+04  0.13701612133E+04  0.50400001928E-02 0.  1.
    10030    2    1    2    0    0  0.00000000000E+00  0.00000000000E+00  0.53145861351E+03  0.32717810401E+04  0.32283281922E+04 0.  0.
        1    1    3    3  502    0 -0.11426825796E+04 -0.29977192692E+03  0.13805070726E+04  0.18169717839E+04  0.50400001928E-02 0. -1.
       -1    1    3    3    0  502  0.11426825796E+04  0.29977192692E+03 -0.84904845911E+03  0.14548092562E+04  0.50400001928E-02 0.  1.
</event>
<event>
 5   0  0.8488469E-07  0.3206457E+04  0.7818609E-02  0.8187114E-01
       -2   -1    0    0    0  501  0.00000000000E+00  0.00000000000E+00  0.11412913291E+04  0.11412913291E+04  0.25500000920E-02 0.  1.
        2   -1    0    0  501    0  0.00000000000E+00  0.00000000000E+00 -0.22521343561E+04  0.22521343561E+04  0.25500000920E-02 0. -1.
    10030    2    1    2    0    0  0.00000000000E+00  0.00000000000E+00 -0.11108430270E+04  0.33934256852E+04  0.32064568686E+04 0.  0.
        3    1    3    3  502    0  0.11956011417E+03 -0.52075003701E+03  0.10442960944E+04  0.11730428658E+04  0.10100000352E+00 0.  1.
       -3    1    3    3    0  502 -0.11956011417E+03  0.52075003701E+03 -0.21551391214E+04  0.22203828195E+04  0.10100000352E+00 0. -1.
</event>
<event>
 5   0  0.2783875E-07  0.3199522E+04  0.7818609E-02  0.8188943E-01
       -1   -1    0    0    0  501  0.00000000000E+00  0.00000000000E+00  0.10768410086E+04  0.10768410086E+04  0.50400001928E-02 0.  1.
        1   -1    0    0  501    0  0.00000000000E+00  0.00000000000E+00 -0.23766135506E+04  0.23766135506E+04  0.50400001928E-02 0. -1.
    10030    2    1    2    0    0  0.00000000000E+00  0.00000000000E+00 -0.12997725421E+04  0.34534545592E+04  0.31995217974E+04 0.  0.
        2    1    3    3  502    0  0.78574450917E+03 -0.10067587807E+04  0.39005192019E+03  0.13353269924E+04  0.25500000920E-02 0.  1.
       -2    1    3    3    0  502 -0.78574450917E+03  0.10067587807E+04 -0.16898244622E+04  0.21181275668E+04  0.25500000920E-02 0. -1.
</event>
<event>
 5   0  0.8195618E-07  0.3218945E+04  0.7818609E-02  0.8183832E-01
       -2   -1    0    0    0  501  0.00000000000E+00  0.00000000000E+00  0.13596562654E+04  0.13596562654E+04  0.25500000920E-02 0. -1.
        2   -1    0    0  501    0  0.00000000000E+00  0.00000000000E+00 -0.19051891495E+04  0.19051891495E+04  0.25500000920E-02 0.  1.
    10030    2    1    2    0    0  0.00000000000E+00  0.00000000000E+00 -0.54553288403E+03  0.32648454149E+04  0.32189453949E+04 0.  0.
        1    1    3    3  502    0  0.32729919521E+03  0.31805593398E+03 -0.18381856233E+04  0.18939933278E+04  0.50400001928E-02 0.  1.
       -1    1    3    3    0  502 -0.32729919521E+03 -0.31805593398E+03  0.12926527392E+04  0.13708520871E+04  0.50400001928E-02 0. -1.
</event>
<event>
 5   0  0.2783875E-07  0.3224040E+04  0.7818609E-02  0.8182497E-01
       -1   -1    0    0    0  501  0.00000000000E+00  0.00000000000E+00  0.11314580605E+04  0.11314580605E+04  0.50400001928E-02 0. -1.
        1   -1    0    0  501    0  0.00000000000E+00  0.00000000000E+00 -0.22966896833E+04  0.22966896833E+04  0.50400001928E-02 0.  1.
    10030    2    1    2    0    0  0.00000000000E+00  0.00000000000E+00 -0.11652316229E+04  0.34281477438E+04  0.32240397359E+04 0.  0.
        2    1    3    3  502    0 -0.63030959199E+03  0.92158005187E+03  0.65375512776E+03  0.12938298732E+04  0.25500000920E-02 0. -1.
       -2    1    3    3    0  502  0.63030959199E+03 -0.92158005187E+03 -0.18189867506E+04  0.21343178706E+04  0.25500000920E-02 0.  1.
</event>
<event>
 5   0  0.2997105E-07  0.3167042E+04  0.7818609E-02  0.8197576E-01
       -1   -1    0    0    0  501  0.00000000000E+00  0.00000000000E+00  0.23343158452E+04  0.23343158452E+04  0.50400001928E-02 0. -1.
        1   -1    0    0  501    0  0.00000000000E+00  0.00000000000E+00 -0.10742068907E+04  0.10742068907E+04  0.50400001928E-02 0.  1.
    10030    2    1    2    0    0  0.00000000000E+00  0.00000000000E+00  0.12601089545E+04  0.34085227359E+04  0.31670416265E+04 0.  0.
        3    1    3    3  502    0  0.57043321882E+03  0.12125884616E+04 -0.27794014541E+03  0.13685815902E+04  0.10100000352E+00 0.  1.
       -3    1    3    3    0  502 -0.57043321882E+03 -0.12125884616E+04  0.15380490999E+04  0.20399411458E+04  0.10100000352E+00 0. -1.
</event>
<event>
 5   0  0.8335929E-07  0.3120115E+04  0.7818609E-02  0.8210239E-01
       -2   -1    0    0    0  501  0.00000000000E+00  0.00000000000E+00  0.11746108870E+04  0.11746108870E+04  0.25500000920E-02 0. -1.
        2   -1    0    0  501    0  0.00000000000E+00  0.00000000000E+00 -0.20719880756E+04  0.20719880756E+04  0.25500000920E-02 0.  1.
    10030    2    1    2    0    0  0.00000000000E+00  0.00000000000E+00 -0.89737718861E+03  0.32465989627E+04  0.31201152232E+04 0.  0.
        4    1    3    3  502    0  0.80090746836E+03 -0.92369898476E+03  0.55967049416E+03  0.13445836762E+04  0.12699999809E+01 0. -1.
       -4    1    3    3    0  502 -0.80090746836E+03  0.92369898476E+03 -0.14570476828E+04  0.19020152865E+04  0.12699999809E+01 0.  1.
</event>
<event>
 5   0  0.2891204E-07  0.3179719E+04  0.7818609E-02  0.8194194E-01
        1   -1    0    0  501    0  0.00000000000E+00  0.00000000000E+00  0.10628304065E+04  0.10628304065E+04  0.50400001928E-02 0. -1.
       -1   -1    0    0    0  501  0.00000000000E+00  0.00000000000E+00 -0.23782283716E+04  0.23782283716E+04  0.50400001928E-02 0.  1.
    10030    2    1    2    0    0  0.00000000000E+00  0.00000000000E+00 -0.13153979651E+04  0.34410587781E+04  0.31797191240E+04 0.  0.
        4    1    3    3  502    0  0.12299017657E+03 -0.15004490484E+04 -0.10463989698E+03  0.15091139955E+04  0.12699999809E+01 0. -1.
       -4    1    3    3    0  502 -0.12299017657E+03  0.15004490484E+04 -0.12107580681E+04  0.19319447826E+04  0.12699999809E+01 0.  1.
</event>
<event>
 5   0  0.8838951E-07  0.3194617E+04  0.7818609E-02  0.8190240E-01
       -2   -1    0    0    0  501  0.00000000000E+00  0.00000000000E+00  0.14435422357E+04  0.14435422357E+04  0.25500000920E-02 0. -1.
        2   -1    0    0  501    0  0.00000000000E+00  0.00000000000E+00 -0.17674538109E+04  0.17674538109E+04  0.25500000920E-02 0.  1.
    10030    2    1    2    0    0  0.00000000000E+00  0.00000000000E+00 -0.32391157515E+03  0.32109960466E+04  0.31946168632E+04 0.  0.
        2    1    3    3  502    0 -0.14835898126E+04 -0.57250298600E+03 -0.31304556817E+03  0.16207393154E+04  0.25500000920E-02 0.  1.
       -2    1    3    3    0  502  0.14835898126E+04  0.57250298600E+03 -0.10866006988E+02  0.15902567312E+04  0.25500000920E-02 0. -1.
</event>
<event>
 5   0  0.3075756E-07  0.3201293E+04  0.7818609E-02  0.8188476E-01
       -1   -1    0    0    0  501  0.00000000000E+00  0.00000000000E+00  0.21374008161E+04  0.21374008161E+04  0.50400001928E-02 0.  1.
        1   -1    0    0  501    0  0.00000000000E+00  0.00000000000E+00 -0.11986846381E+04  0.11986846381E+04  0.50400001928E-02 0. -1.
    10030    2    1    2    0    0  0.00000000000E+00  0.00000000000E+00  0.93871617801E+03  0.33360854542E+04  0.32012931910E+04 0.  0.
        5    1    3    3  502    0 -0.80482625514E+03 -0.12755593576E+03  0.19050572179E+04  0.20720233857E+04  0.46999998093E+01 0.  1.
       -5    1    3    3    0  502  0.80482625514E+03  0.12755593576E+03 -0.96634103984E+03  0.12640620685E+04  0.46999998093E+01 0. -1.
</event>
<event>
 5   0  0.8488469E-07  0.3203187E+04  0.7818609E-02  0.8187976E-01
       -2   -1    0    0    0  501  0.00000000000E+00  0.00000000000E+00  0.20269735806E+04  0.20269735806E+04  0.25500000920E-02 0.  1.
        2   -1    0    0  501    0  0.00000000000E+00  0.00000000000E+00 -0.12654837980E+04  0.12654837980E+04  0.25500000920E-02 0. -1.
    10030    2    1    2    0    0  0.00000000000E+00  0.00000000000E+00  0.76148978265E+03  0.32924573786E+04  0.32031873034E+04 0.  0.
        3    1    3    3  502    0 -0.81780121489E+03 -0.13577989849E+04  0.61667456905E+03  0.17007952389E+04  0.10100000352E+00 0.  1.
       -3    1    3    3    0  502  0.81780121489E+03  0.13577989849E+04  0.14481521359E+03  0.15916621397E+04  0.10100000352E+00 0. -1.
</event>
<event>
 5   0  0.2783875E-07  0.3196634E+04  0.7818609E-02  0.8189707E-01
       -1   -1    0    0    0  501  0.00000000000E+00  0.00000000000E+00  0.15370476006E+04  0.15370476006E+04  0.50400001928E-02 0.  1.
        1   -1    0    0  501    0  0.00000000000E+00  0.00000000000E+00 -0.16620289721E+04  0.16620289721E+04  0.50400001928E-02 0. -1.
    10030    2    1    2    0    0  0.00000000000E+00  0.00000000000E+00 -0.12498137143E+03  0.31990765727E+04  0.31966342573E+04 0.  0.
        2    1    3    3  502    0 -0.11193505263E+04  0.28031306414E+02  0.10789447584E+04  0.15549447407E+04  0.25500000920E-02 0.  1.
       -2    1    3    3    0  502  0.11193505263E+04 -0.28031306414E+02 -0.12039261298E+04  0.16441318320E+04  0.25500000920E-02 0. -1.
</event>
<event>
 5   0  0.8838951E-07  0.3192698E+04  0.7818609E-02  0.8190748E-01
        2   -1    0    0  501    0  0.00000000000E+00  0.00000000000E+00  0.24438166237E+04  0.24438166237E+04  0.25500000920E-02 0. -1.
       -2   -1    0    0    0  501  0.00000000000E+00  0.00000000000E+00 -0.10427661914E+04  0.10427661914E+04  0.25500000920E-02 0.  1.
    10030    2    1    2    0    0  0.00000000000E+00  0.00000000000E+00  0.14010504322E+04  0.34865828151E+04  0.31926975135E+04 0.  0.
        2    1    3    3  502    0  0.27251096767E+03 -0.14800860967E+04  0.12818937700E+04  0.19769088797E+04  0.25500000920E-02 0. -1.
       -2    1    3    3    0  502 -0.27251096767E+03  0.14800860967E+04  0.11915666223E+03  0.15096739354E+04  0.25500000920E-02 0.  1.
</event>
<event>
 5   0  0.8195618E-07  0.3199667E+04  0.7818609E-02  0.8188905E-01
       -2   -1    0    0    0  501  0.00000000000E+00  0.00000000000E+00  0.11184295215E+04  0.11184295215E+04  0.25500000920E-02 0.  1.
        2   -1    0    0  501    0  0.00000000000E+00  0.00000000000E+00 -0.22884467996E+04  0.22884467996E+04  0.25500000920E-02 0. -1.
    10030    2    1    2    0    0  0.00000000000E+00  0.00000000000E+00 -0.11700172781E+04  0.34068763211E+04  0.31996665196E+04 0.  0.
        1    1    3    3  502    0  0.24727332135E+03  0.65723487324E+02  0.10965039302E+04  0.11259593871E+04  0.50400001928E-02 0.  1.
       -1    1    3    3    0  502 -0.24727332135E+03 -0.65723487324E+02 -0.22665212083E+04  0.22809169341E+04  0.50400001928E-02 0. -1.
</event>
<event>
 5   0  0.2997105E-07  0.3186164E+04  0.7818609E-02  0.8192481E-01
       -1   -1    0    0    0  501  0.00000000000E+00  0.00000000000E+00  0.27643644594E+04  0.27643644594E+04  0.50400001928E-02 0. -1.
        1   -1    0    0  501    0  0.00000000000E+00  0.00000000000E+00 -0.91808083948E+03  0.91808083949E+03  0.50400001928E-02 0.  1.
    10030    2    1    2    0    0  0.00000000000E+00  0.00000000000E+00  0.18462836199E+04  0.36824452989E+04  0.31861638649E+04 0.  0.
        3    1    3    3  502    0  0.41752474108E+03 -0.15317281031E+04  0.77072083600E+03  0.17648026826E+04  0.10100000352E+00 0. -1.
       -3    1    3    3    0  502 -0.41752474108E+03  0.15317281031E+04  0.10755627839E+04  0.19176426162E+04  0.10100000352E+00 0.  1.
</event>
<event>
 5   0  0.2891204E-07  0.3107476E+04  0.7818609E-02  0.8213689E-01
       -1   -1    0    0    0  501  0.00000000000E+00  0.00000000000E+00  0.12540493120E+04  0.12540493120E+04  0.50400001928E-02 0. -1.
        1   -1    0    0  501    0  0.00000000000E+00  0.00000000000E+00 -0.19250459389E+04  0.19250459389E+04  0.50400001928E-02 0.  1.
    10030    2    1    2    0    0  0.00000000000E+00  0.00000000000E+00 -0.67099662693E+03  0.31790952509E+04  0.31074764908E+04 0.  0.
        4    1    3    3  502    0  0.14101381135E+04  0.61862622135E+02 -0.99991566421E+03  0.17297830591E+04  0.12699999809E+01 0.  1.
       -4    1    3    3    0  502 -0.14101381135E+04 -0.61862622135E+02  0.32891903728E+03  0.14493121918E+04  0.12699999809E+01 0. -1.
</event>
<event>
 5   0  0.8838951E-07  0.3196770E+04  0.7818609E-02  0.8189671E-01
        2   -1    0    0  501    0  0.00000000000E+00  0.00000000000E+00  0.12896591495E+04  0.12896591495E+04  0.25500000920E-02 0. -1.
       -2   -1    0    0    0  501  0.00000000000E+00  0.00000000000E+00 -0.19810152088E+04  0.19810152088E+04  0.25500000920E-02 0.  1.
    10030    2    1    2    0    0  0.00000000000E+00  0.00000000000E+00 -0.69135605927E+03  0.32706743583E+04  0.31967698630E+04 0.  0.
        2    1    3    3  502    0  0.13355046916E+04  0.87414519060E+03 -0.25927572638E+03  0.16170734361E+04  0.25500000920E-02 0.  1.
       -2    1    3    3    0  502 -0.13355046916E+04 -0.87414519060E+03 -0.43208033290E+03  0.16536009221E+04  0.25500000920E-02 0. -1.
</event>
<event>
 5   0  0.8335929E-07  0.3219419E+04  0.7818609E-02  0.8183707E-01
       -2   -1    0    0    0  501  0.00000000000E+00  0.00000000000E+00  0.79614729179E+03  0.79614729179E+03  0.25500000920E-02 0.  1.
        2   -1    0    0  501    0  0.00000000000E+00  0.00000000000E+00 -0.32546296340E+04  0.32546296340E+04  0.25500000920E-02 0. -1.
    10030    2    1    2    0    0  0.00000000000E+00  0.00000000000E+00 -0.24584823422E+04  0.40507769258E+04  0.32194189345E+04 0.  0.
        4    1    3    3  502    0  0.14364932882E+04  0.63001920612E+03 -0.16841679155E+04  0.23014908967E+04  0.12699999809E+01 0. -1.
       -4    1    3    3    0  502 -0.14364932882E+04 -0.63001920612E+03 -0.77431442670E+03  0.17492860291E+04  0.12699999809E+01 0.  1.
</event>
<event>
 5   0  0.8488469E-07  0.3330181E+04  0.7818609E-02  0.8155258E-01
        2   -1    0    0  501    0  0.00000000000E+00  0.00000000000E+00  0.20176675787E+04  0.20176675787E+04  0.25500000920E-02 0. -1.
       -2   -1    0    0    0  501  0.00000000000E+00  0.00000000000E+00 -0.13741243948E+04  0.13741243948E+04  0.25500000920E-02 0.  1.
    10030    2    1    2    0    0  0.00000000000E+00  0.00000000000E+00  0.64354318387E+03  0.33917919735E+04  0.33301809203E+04 0.  0.
        3    1    3    3  502    0  0.14840754994E+04  0.49087096101E+03 -0.26250695161E+03  0.15850376331E+04  0.10100000352E+00 0.  1.
       -3    1    3    3    0  502 -0.14840754994E+04 -0.49087096101E+03  0.90605013548E+03  0.18067543404E+04  0.10100000352E+00 0. -1.
</event>
<event>
 5   0  0.8802800E-07  0.3187275E+04  0.7818609E-02  0.8192186E-01
        2   -1    0    0  501    0  0.00000000000E+00  0.00000000000E+00  0.15868395444E+04  0.15868395444E+04  0.25500000920E-02 0. -1.
       -2   -1    0    0    0  501  0.00000000000E+00  0.00000000000E+00 -0.16004646227E+04  0.16004646227E+04  0.25500000920E-02 0.  1.
    10030    2    1    2    0    0  0.00000000000E+00  0.00000000000E+00 -0.13625078222E+02  0.31873041671E+04  0.31872750448E+04 0.  0.
        5    1    3    3  502    0  0.10396654341E+04  0.57151269780E+03  0.10572119779E+04  0.15891035948E+04  0.46999998093E+01 0. -1.
       -5    1    3    3    0  502 -0.10396654341E+04 -0.57151269780E+03 -0.10708370562E+04  0.15982005724E+04  0.46999998093E+01 0.  1.
</event>
<event>
 5   0  0.2891204E-07  0.3201986E+04  0.7818609E-02  0.8188293E-01
        1   -1    0    0  501    0  0.00000000000E+00  0.00000000000E+00  0.21360496462E+04  0.21360496462E+04  0.50400001928E-02 0.  1.
       -1   -1    0    0    0  501  0.00000000000E+00  0.00000000000E+00 -0.11999624347E+04  0.11999624347E+04  0.50400001928E-02 0. -1.
    10030    2    1    2    0    0  0.00000000000E+00  0.00000000000E+00  0.93608721155E+03  0.33360120809E+04  0.32019864672E+04 0.  0.
        4    1    3    3  502    0 -0.86508012509E+03  0.10443986200E+04  0.13545688120E+04  0.19167656037E+04  0.12699999809E+01 0.  1.
       -4    1    3    3    0  502  0.86508012509E+03 -0.10443986200E+04 -0.41848160048E+03  0.14192464772E+04  0.12699999809E+01 0. -1.
</event>
<event>
 5   0  0.3075756E-07  0.3175889E+04  0.7818609E-02  0.8195214E-01
       -1   -1    0    0    0  501  0.00000000000E+00  0.00000000000E+00  0.15942133267E+04  0.15942133267E+04  0.50400001928E-02 0. -1.
        1   -1    0    0  501    0  0.00000000000E+00  0.00000000000E+00 -0.15817002213E+04  0.15817002213E+04  0.50400001928E-02 0.  1.
    10030    2    1    2    0    0  0.00000000000E+00  0.00000000000E+00  0.12513105366E+02  0.31759135480E+04  0.31758888971E+04 0.  0.
        5    1    3    3  502    0  0.21325158062E+03  0.14738784854E+04 -0.54488423751E+03  0.15857852783E+04  0.46999998093E+01 0.  1.
       -5    1    3    3    0  502 -0.21325158062E+03 -0.14738784854E+04  0.55739734288E+03  0.15901282698E+04  0.46999998093E+01 0. -1.
</event>
<event>
 5   0  0.3013888E-07  0.3208039E+04  0.7818609E-02  0.8186697E-01
        1   -1    0    0  501    0  0.00000000000E+00  0.00000000000E+00  0.20465418469E+04  0.20465418469E+04  0.50400001928E-02 0. -1.
       -1   -1    0    0    0  501  0.00000000000E+00  0.00000000000E+00 -0.12571830731E+04  0.12571830731E+04  0.50400001928E-02 0.  1.
    10030    2    1    2    0    0  0.00000000000E+00  0.00000000000E+00  0.78935877381E+03  0.33037249200E+04  0.32080385087E+04 0.  0.
        1    1    3    3  502    0 -0.28636989183E+03  0.16377728211E+03 -0.12218693590E+04  0.12656205764E+04  0.50400001928E-02 0.  1.
       -1    1    3    3    0  502  0.28636989183E+03 -0.16377728211E+03  0.20112281328E+04  0.20381043436E+04  0.50400001928E-02 0. -1.
</event>
<event>
 5   0  0.8335929E-07  0.3197130E+04  0.7818609E-02  0.8189576E-01
       -2   -1    0    0    0  501  0.00000000000E+00  0.00000000000E+00  0.18704445569E+04  0.18704445569E+04  0.25500000920E-02 0. -1.
        2   -1    0    0  501    0  0.00000000000E+00  0.00000000000E+00 -0.13662044094E+04  0.13662044094E+04  0.25500000920E-02 0.  1.
    10030    2    1    2    0    0  0.00000000000E+00  0.00000000000E+00  0.50424014747E+03  0.32366489664E+04  0.31971297135E+04 0.  0.
        4    1    3    3  502    0 -0.11339910143E+04  0.72289371084E+03 -0.62279463074E+03  0.14820208172E+04  0.12699999809E+01 0.  1.
       -4    1    3    3    0  502  0.11339910143E+04 -0.72289371084E+03  0.11270347782E+04  0.17546281492E+04  0.12699999809E+01 0. -1.
</event>
<event>
 5   0  0.8335929E-07  0.3216932E+04  0.7818609E-02  0.8184360E-01
       -2   -1    0    0    0  501  0.00000000000E+00  0.00000000000E+00  0.14992852357E+04  0.14992852357E+04  0.25500000920E-02 0.  1.
        2   -1    0    0  501    0  0.00000000000E+00  0.00000000000E+00 -0.17255978415E+04  0.17255978415E+04  0.25500000920E-02 0. -1.
    10030    2    1    2    0    0  0.00000000000E+00  0.00000000000E+00 -0.22631260587E+03  0.32248830772E+04  0.32169323067E+04 0.  0.
        4    1    3    3  502    0  0.35132752806E+02 -0.15368912617E+04 -0.58749877333E+03  0.16457294681E+04  0.12699999809E+01 0. -1.
       -4    1    3    3    0  502 -0.35132752806E+02  0.15368912617E+04  0.36118616747E+03  0.15791536091E+04  0.12699999809E+01 0.  1.
</event>
<event>
 5   0  0.2783875E-07  0.3151641E+04  0.7818609E-02  0.8201707E-01
        3   -1    0    0  501    0  0.00000000000E+00  0.00000000000E+00  0.13509537028E+04  0.13509537066E+04  0.10100000352E+00 0.  1.
       -3   -1    0    0    0  501  0.00000000000E+00  0.00000000000E+00 -0.18381165129E+04  0.18381165157E+04  0.10100000352E+00 0. -1.
    10030    2    1    2    0    0  0.00000000000E+00  0.00000000000E+00 -0.48716281016E+03  0.31890702223E+04  0.31516410454E+04 0.  0.
        2    1    3    3  502    0  0.59570602930E+02  0.76591079144E+03 -0.16358002123E+04  0.18072106495E+04  0.25500000920E-02 0. -1.
       -2    1    3    3    0  502 -0.59570602930E+02 -0.76591079144E+03  0.11486374021E+04  0.13818595727E+04  0.25500000920E-02 0.  1.
</event>
<event>
 5   0  0.8838951E-07  0.3196093E+04  0.7818609E-02  0.8189850E-01
        2   -1    0    0  501    0  0.00000000000E+00  0.00000000000E+00  0.17165403492E+04  0.17165403492E+04  0.25500000920E-02 0. -1.
       -2   -1    0    0    0  501  0.00000000000E+00  0.00000000000E+00 -0.14877320185E+04  0.14877320185E+04  0.25500000920E-02 0.  1.
    10030    2    1    2    0    0  0.00000000000E+00  0.00000000000E+00  0.22880833063E+03  0.32042723677E+04  0.31960926385E+04 0.  0.
        2    1    3    3  502    0 -0.15853609305E+04 -0.41613152502E+02 -0.82697828744E+02  0.15880616692E+04  0.25500000920E-02 0.  1.
       -2    1    3    3    0  502  0.15853609305E+04  0.41613152502E+02  0.31150615937E+03  0.16162106984E+04  0.25500000920E-02 0. -1.
</event>
<event>
 5   0  0.2783875E-07  0.3213885E+04  0.7818609E-02  0.8185160E-01
       -1   -1    0    0    0  501  0.00000000000E+00  0.00000000000E+00  0.22931221156E+04  0.22931221156E+04  0.50400001928E-02 0.  1.
        1   -1    0    0  501    0  0.00000000000E+00  0.00000000000E+00 -0.11260910252E+04  0.11260910252E+04  0.50400001928E-02 0. -1.
    10030    2    1    2    0    0  0.00000000000E+00  0.00000000000E+00  0.11670310904E+04  0.34192131408E+04  0.32138850223E+04 0.  0.
        2    1    3    3  502    0 -0.10341032844E+04  0.69090143668E+03 -0.49911765313E+03  0.13400868739E+04  0.25500000920E-02 0.  1.
       -2    1    3    3    0  502  0.10341032844E+04 -0.69090143668E+03  0.16661487435E+04  0.20791262669E+04  0.25500000920E-02 0. -1.
</event>
<event>
 5   0  0.2997105E-07  0.3205049E+04  0.7818609E-02  0.8187485E-01
        1   -1    0    0  501    0  0.00000000000E+00  0.00000000000E+00  0.17133920006E+04  0.17133920006E+04  0.50400001928E-02 0. -1.
       -1   -1    0    0    0  501  0.00000000000E+00  0.00000000000E+00 -0.14988312623E+04  0.14988312623E+04  0.50400001928E-02 0.  1.
    10030    2    1    2    0    0  0.00000000000E+00  0.00000000000E+00  0.21456073822E+03  0.32122232629E+04  0.32050494505E+04 0.  0.
        3    1    3    3  502    0  0.31875770033E+03  0.10989834548E+04 -0.10171552259E+04  0.15310048560E+04  0.10100000352E+00 0.  1.
       -3    1    3    3    0  502 -0.31875770033E+03 -0.10989834548E+04  0.12317159641E+04  0.16812184069E+04  0.10100000352E+00 0. -1.
</event>
<event>
 5   0  0.8488469E-07  0.3195208E+04  0.7818609E-02  0.8190084E-01
        2   -1    0    0  501    0  0.00000000000E+00  0.00000000000E+00  0.12752264515E+04  0.12752264515E+04  0.25500000920E-02 0. -1.
       -2   -1    0    0    0  501  0.00000000000E+00  0.00000000000E+00 -0.20014790032E+04  0.20014790032E+04  0.25500000920E-02 0.  1.
    10030    2    1    2    0    0  0.00000000000E+00  0.00000000000E+00 -0.72625255171E+03  0.32767054546E+04  0.31952082667E+04 0.  0.
        3    1    3    3  502    0  0.14609614576E+04 -0.56683332553E+03 -0.44343039784E+02  0.15676972650E+04  0.10100000352E+00 0. -1.
       -3    1    3    3    0  502 -0.14609614576E+04  0.56683332553E+03 -0.68190951192E+03  0.17090081896E+04  0.10100000352E+00 0.  1.
</event>
<event>
 5   0  0.8195618E-07  0.3198068E+04  0.7818609E-02  0.8189328E-01
       -2   -1    0    0    0  501  0.00000000000E+00  0.00000000000E+00  0.12958778981E+04  0.12958778981E+04  0.25500000920E-02 0. -1.
        2   -1    0    0  501    0  0.00000000000E+00  0.00000000000E+00 -0.19731101941E+04  0.19731101941E+04  0.25500000920E-02 0.  1.
    10030    2    1    2    0    0  0.00000000000E+00  0.00000000000E+00 -0.67723229598E+03  0.32689880921E+04  0.31980680987E+04 0.  0.
        1    1    3    3  502    0  0.71467244841E+03  0.10307538809E+04  0.67519458114E+03  0.14244641076E+04  0.50400001928E-02 0. -1.
       -1    1    3    3    0  502 -0.71467244841E+03 -0.10307538809E+04 -0.13524268771E+04  0.18445239845E+04  0.50400001928E-02 0.  1.
</event>
<event>
 5   0  0.2891204E-07  0.3214795E+04  0.7818609E-02  0.8184921E-01
        1   -1    0    0  501    0  0.00000000000E+00  0.00000000000E+00  0.12412000966E+04  0.12412000966E+04  0.50400001928E-02 0. -1.
       -1   -1    0    0    0  501  0.00000000000E+00  0.00000000000E+00 -0.20816354465E+04  0.20816354465E+04  0.50400001928E-02 0.  1.
    10030    2    1    2    0    0  0.00000000000E+00  0.00000000000E+00 -0.84043534982E+03  0.33228355431E+04  0.32147946232E+04 0.  0.
        4    1    3    3  502    0  0.80043086896E+03 -0.59986911896E+03 -0.17207537488E+04  0.19903586644E+04  0.12699999809E+01 0.  1.
       -4    1    3    3    0  502 -0.80043086896E+03  0.59986911896E+03  0.88031839899E+03  0.13324768787E+04  0.12699999809E+01 0. -1.
</event>
<event>
 5   0  0.2891204E-07  0.3206560E+04  0.7818609E-02  0.8187087E-01
       -1   -1    0    0    0  501  0.00000000000E+00  0.00000000000E+00  0.14786914373E+04  0.14786914373E+04  0.50400001928E-02 0. -1.
        1   -1    0    0  501    0  0.00000000000E+00  0.00000000000E+00 -0.17383654452E+04  0.17383654452E+04  0.50400001928E-02 0.  1.
    10030    2    1    2    0    0  0.00000000000E+00  0.00000000000E+00 -0.25967400791E+03  0.32170568825E+04  0.32065595885E+04 0.  0.
        4    1    3    3  502    0  0.13548864093E+04  0.79463873904E+03 -0.45234943804E+03  0.16345609608E+04  0.12699999809E+01 0.  1.
       -4    1    3    3    0  502 -0.13548864093E+04 -0.79463873904E+03  0.19267543013E+03  0.15824959216E+04  0.12699999809E+01 0. -1.
</event>
<event>
 5   0  0.3075756E-07  0.3193514E+04  0.7818609E-02  0.8190532E-01
        1   -1    0    0  501    0  0.00000000000E+00  0.00000000000E+00  0.14477681512E+04  0.14477681512E+04  0.50400001928E-02 0.  1.
       -1   -1    0    0    0  501  0.00000000000E+00  0.00000000000E+00 -0.17610785604E+04  0.17610785604E+04  0.50400001928E-02 0. -1.
    10030    2    1    2    0    0  0.00000000000E+00  0.00000000000E+00 -0.31331040925E+03  0.32088467116E+04  0.31935143347E+04 0.  0.
        5    1    3    3  502    0  0.61586123968E+02 -0.14548967869E+04  0.50154232263E+03  0.15401572331E+04  0.46999998093E+01 0.  1.
       -5    1    3    3    0  502 -0.61586123968E+02  0.14548967869E+04 -0.81485273188E+03  0.16686894785E+04  0.46999998093E+01 0. -1.
</event>
<event>
 5   0  0.8335929E-07  0.3194371E+04  0.7818609E-02  0.8190305E-01
       -2   -1    0    0    0  501  0.00000000000E+00  0.00000000000E+00  0.13584338361E+04  0.13584338361E+04  0.25500000920E-02 0.  1.
        2   -1    0    0  501    0  0.00000000000E+00  0.00000000000E+00 -0.18778993706E+04  0.18778993706E+04  0.25500000920E-02 0. -1.
    10030    2    1    2    0    0  0.00000000000E+00  0.00000000000E+00 -0.51946553453E+03  0.32363332067E+04  0.31943713283E+04 0.  0.
        4    1    3    3  502    0 -0.14556030830E+01  0.12933438277E+04 -0.12091987208E+04  0.17705658798E+04  0.12699999809E+01 0. -1.
       -4    1    3    3    0  502  0.14556030830E+01 -0.12933438277E+04  0.68973318623E+03  0.14657673269E+04  0.12699999809E+01 0.  1.
</event>
<event>
 5   0  0.3075756E-07  0.3189433E+04  0.7818609E-02  0.8191613E-01
       -1   -1    0    0    0  501  0.00000000000E+00  0.00000000000E+00  0.36890983837E+04  0.36890983837E+04  0.50400001928E-02 0. -1.
        1   -1    0    0  501    0  0.00000000000E+00  0.00000000000E+00 -0.68936104842E+03  0.68936104844E+03  0.50400001928E-02 0.  1.
    10030    2    1    2    0    0  0.00000000000E+00  0.00000000000E+00  0.29997373352E+04  0.43784594321E+04  0.31894330089E+04 0.  0.
        5    1    3    3  502    0 -0.86019428429E+02  0.90822167023E+03 -0.29573968203E+03  0.95903597110E+03  0.46999998093E+01 0.  1.
       -5    1    3    3    0  502  0.86019428429E+02 -0.90822167023E+03  0.32954770173E+04  0.34194234610E+04  0.46999998093E+01 0. -1.
</event>
<event>
 5   0  0.8488469E-07  0.3187594E+04  0.7818609E-02  0.8192101E-01
       -2   -1    0    0    0  501  0.00000000000E+00  0.00000000000E+00  0.31787017093E+04  0.31787017093E+04  0.25500000920E-02 0. -1.
        2   -1    0    0  501    0  0.00000000000E+00  0.00000000000E+00 -0.79912766172E+03  0.79912766173E+03  0.25500000920E-02 0.  1.
    10030    2    1    2    0    0  0.00000000000E+00  0.00000000000E+00  0.23795740476E+04  0.39778293710E+04  0.31875937409E+04 0.  0.
        3    1    3    3  502    0  0.92763141708E+03  0.18152374946E+03  0.27911706267E+04  0.29468770580E+04  0.10100000352E+00 0. -1.
       -3    1    3    3    0  502 -0.92763141708E+03 -0.18152374946E+03 -0.41159657911E+03  0.10309523130E+04  0.10100000352E+00 0.  1.
</event>
<event>
 5   0  0.8488469E-07  0.3221269E+04  0.7818609E-02  0.8183223E-01
       -2   -1    0    0    0  501  0.00000000000E+00  0.00000000000E+00  0.21745007748E+04  0.21745007748E+04  0.25500000920E-02 0.  1.
        2   -1    0    0  501    0  0.00000000000E+00  0.00000000000E+00 -0.11929835985E+04  0.11929835985E+04  0.25500000920E-02 0. -1.
    10030    2    1    2    0    0  0.00000000000E+00  0.00000000000E+00  0.98151717635E+03  0.33674843733E+04  0.32212691656E+04 0.  0.
        3    1    3    3  502    0  0.44914338953E+03  0.64302992751E+03  0.19613546654E+04  0.21123752995E+04  0.10100000352E+00 0.  1.
       -3    1    3    3    0  502 -0.44914338953E+03 -0.64302992751E+03 -0.97983748908E+03  0.12551090738E+04  0.10100000352E+00 0. -1.
</event>
<event>
 5   0  0.2783875E-07  0.3154170E+04  0.7818609E-02  0.8201027E-01
        3   -1    0    0  501    0  0.00000000000E+00  0.00000000000E+00  0.18810190662E+04  0.18810190689E+04  0.10100000352E+00 0.  1.
       -3   -1    0    0    0  501  0.00000000000E+00  0.00000000000E+00 -0.13222603825E+04  0.13222603864E+04  0.10100000352E+00 0. -1.
    10030    2    1    2    0    0  0.00000000000E+00  0.00000000000E+00  0.55875868367E+03  0.32032794553E+04  0.31541699387E+04 0.  0.
        1    1    3    3  502    0  0.18632734169E+03 -0.15368410977E+04 -0.26303029740E+02  0.15483185354E+04  0.50400001928E-02 0. -1.
       -1    1    3    3    0  502 -0.18632734169E+03  0.15368410977E+04  0.58506171341E+03  0.16549609198E+04  0.50400001928E-02 0.  1.
</event>
<event>
 5   0  0.3075756E-07  0.3220097E+04  0.7818609E-02  0.8183530E-01
        1   -1    0    0  501    0  0.00000000000E+00  0.00000000000E+00  0.20467664507E+04  0.20467664507E+04  0.50400001928E-02 0.  1.
       -1   -1    0    0    0  501  0.00000000000E+00  0.00000000000E+00 -0.12665129076E+04  0.12665129076E+04  0.50400001928E-02 0. -1.
    10030    2    1    2    0    0  0.00000000000E+00  0.00000000000E+00  0.78025354310E+03  0.33132793583E+04  0.32200969728E+04 0.  0.
        5    1    3    3  502    0  0.69978533737E+03 -0.78341942326E+02  0.18799195859E+04  0.20074752098E+04  0.46999998093E+01 0.  1.
       -5    1    3    3    0  502 -0.69978533737E+03  0.78341942326E+02 -0.10996660428E+04  0.13058041485E+04  0.46999998093E+01 0. -1.
</event>
<event>
 5   0  0.8488469E-07  0.3198341E+04  0.7818609E-02  0.8189255E-01
        2   -1    0    0  501    0  0.00000000000E+00  0.00000000000E+00  0.20278998042E+04  0.20278998042E+04  0.25500000920E-02 0.  1.
       -2   -1    0    0    0  501  0.00000000000E+00  0.00000000000E+00 -0.12610814820E+04  0.12610814820E+04  0.25500000920E-02 0. -1.
    10030    2    1    2    0    0  0.00000000000E+00  0.00000000000E+00  0.76681832223E+03  0.32889812862E+04  0.31983413767E+04 0.  0.
        3    1    3    3  502    0 -0.28343246208E+03 -0.78475000759E+02  0.19998513621E+04  0.20213603753E+04  0.10100000352E+00 0.  1.
       -3    1    3    3    0  502  0.28343246208E+03  0.78475000759E+02 -0.12330330398E+04  0.12676209109E+04  0.10100000352E+00 0. -1.
</event>
<event>
 5   0  0.8838951E-07  0.3118805E+04  0.7818609E-02  0.8210596E-01
        2   -1    0    0  501    0  0.00000000000E+00  0.00000000000E+00  0.19690899894E+04  0.19690899894E+04  0.25500000920E-02 0. -1.
       -2   -1    0    0    0  501  0.00000000000E+00  0.00000000000E+00 -0.12349539681E+04  0.12349539681E+04  0.25500000920E-02 0.  1.
    10030    2    1    2    0    0  0.00000000000E+00  0.00000000000E+00  0.73413602136E+03  0.32040439575E+04  0.31188045761E+04 0.  0.
        2    1    3    3  502    0  0.27482956270E+03 -0.26528328424E+03  0.19202851377E+04  0.19579074338E+04  0.25500000920E-02 0. -1.
       -2    1    3    3    0  502 -0.27482956270E+03  0.26528328424E+03 -0.11861491163E+04  0.12461365237E+04  0.25500000920E-02 0.  1.
</event>
<event>
 5   0  0.8195618E-07  0.3211923E+04  0.7818609E-02  0.8185675E-01
        2   -1    0    0  501    0  0.00000000000E+00  0.00000000000E+00  0.13894307018E+04  0.13894307018E+04  0.25500000920E-02 0.  1.
       -2   -1    0    0    0  501  0.00000000000E+00  0.00000000000E+00 -0.18562365244E+04  0.18562365244E+04  0.25500000920E-02 0. -1.
    10030    2    1    2    0    0  0.00000000000E+00  0.00000000000E+00 -0.46680582262E+03  0.32456672262E+04  0.32119227990E+04 0.  0.
        1    1    3    3  502    0 -0.12375982059E+04  0.51235388734E+03  0.66188269384E+03  0.14940697860E+04  0.50400001928E-02 0.  1.
       -1    1    3    3    0  502  0.12375982059E+04 -0.51235388734E+03 -0.11286885165E+04  0.17515974401E+04  0.50400001928E-02 0. -1.
</event>
<event>
 5   0  0.3013888E-07  0.3180576E+04  0.7818609E-02  0.8193966E-01
        1   -1    0    0  501    0  0.00000000000E+00  0.00000000000E+00  0.15156308387E+04  0.15156308388E+04  0.50400001928E-02 0.  1.
       -1   -1    0    0    0  501  0.00000000000E+00  0.00000000000E+00 -0.16686229517E+04  0.16686229517E+04  0.50400001928E-02 0. -1.
    10030    2    1    2    0    0  0.00000000000E+00  0.00000000000E+00 -0.15299211296E+03  0.31842537905E+04  0.31805763024E+04 0.  0.
        1    1    3    3  502    0 -0.10449590995E+04  0.10580387665E+04  0.48774306686E+03  0.15650172044E+04  0.50400001928E-02 0.  1.
       -1    1    3    3    0  502  0.10449590995E+04 -0.10580387665E+04 -0.64073517982E+03  0.16192365860E+04  0.50400001928E-02 0. -1.
</event>
<event>
 5   0  0.8335929E-07  0.3197619E+04  0.7818609E-02  0.8189446E-01
       -2   -1    0    0    0  501  0.00000000000E+00  0.00000000000E+00  0.89471427121E+03  0.89471427122E+03  0.25500000920E-02 0. -1.
        2   -1    0    0  501    0  0.00000000000E+00  0.00000000000E+00 -0.28569923180E+04  0.28569923180E+04  0.25500000920E-02 0.  1.
    10030    2    1    2    0    0  0.00000000000E+00  0.00000000000E+00 -0.19622780468E+04  0.37517065893E+04  0.31976189890E+04 0.  0.
        4    1    3    3  502    0 -0.35175478458E+03  0.11519136877E+04 -0.22147892877E+04  0.25210969387E+04  0.12699999809E+01 0.  1.
       -4    1    3    3    0  502  0.35175478458E+03 -0.11519136877E+04  0.25251124089E+03  0.12306096506E+04  0.12699999809E+01 0. -1.
</event>
<event>
 5   0  0.8335929E-07  0.3200759E+04  0.7818609E-02  0.8188617E-01
       -2   -1    0    0    0  501  0.00000000000E+00  0.00000000000E+00  0.14094345106E+04  0.14094345106E+04  0.25500000920E-02 0. -1.
        2   -1    0    0  501    0  0.00000000000E+00  0.00000000000E+00 -0.18171935101E+04  0.18171935101E+04  0.25500000920E-02 0.  1.
    10030    2    1    2    0    0  0.00000000000E+00  0.00000000000E+00 -0.40775899949E+03  0.32266280207E+04  0.32007594384E+04 0.  0.
        4    1    3    3  502    0 -0.48469967368E+02 -0.90599515549E+03  0.11251217341E+04  0.14453639988E+04  0.12699999809E+01 0. -1.
       -4    1    3    3    0  502  0.48469967368E+02  0.90599515549E+03 -0.15328807336E+04  0.17812640219E+04  0.12699999809E+01 0.  1.
</event>
<event>
 5   0  0.8488469E-07  0.3194925E+04  0.7818609E-02  0.8190159E-01
        2   -1    0    0  501    0  0.00000000000E+00  0.00000000000E+00  0.29059906621E+04  0.29059906621E+04  0.25500000920E-02 0.  1.
       -2   -1    0    0    0  501  0.00000000000E+00  0.00000000000E+00 -0.87814673900E+03  0.87814673901E+03  0.25500000920E-02 0. -1.
    10030    2    1    2    0    0  0.00000000000E+00  0.00000000000E+00  0.20278439231E+04  0.37841374011E+04  0.31949248652E+04 0.  0.
        3    1    3    3  502    0  0.69542743994E+02 -0.10563259206E+04 -0.40304684945E+03  0.11327433146E+04  0.10100000352E+00 0. -1.
       -3    1    3    3    0  502 -0.69542743994E+02  0.10563259206E+04  0.24308907725E+04  0.26513940865E+04  0.10100000352E+00 0.  1.
</event>
<event>
 5   0  0.2891204E-07  0.3207026E+04  0.7818609E-02  0.8186964E-01
        1   -1    0    0  501    0  0.00000000000E+00  0.00000000000E+00  0.24543292087E+04  0.24543292087E+04  0.50400001928E-02 0. -1.
       -1   -1    0    0    0  501  0.00000000000E+00  0.00000000000E+00 -0.10476403423E+04  0.10476403423E+04  0.50400001928E-02 0.  1.
    10030    2    1    2    0    0  0.00000000000E+00  0.00000000000E+00  0.14066888665E+04  0.35019695510E+04  0.32070262190E+04 0.  0.
        4    1    3    3  502    0  0.10696647408E+04 -0.69128636176E+03 -0.36052213492E+03  0.13236454640E+04  0.12699999809E+01 0.  1.
       -4    1    3    3    0  502 -0.10696647408E+04  0.69128636176E+03  0.17672110014E+04  0.21783240870E+04  0.12699999809E+01 0. -1.
</event>
<event>
 5   0  0.2783875E-07  0.3186482E+04  0.7818609E-02  0.8192396E-01
        1   -1    0    0  501    0  0.00000000000E+00  0.00000000000E+00  0.24767172545E+04  0.24767172545E+04  0.50400001928E-02 0.  1.
       -1   -1    0    0    0  501  0.00000000000E+00  0.00000000000E+00 -0.10249120328E+04  0.10249120328E+04  0.50400001928E-02 0. -1.
    10030    2    1    2    0    0  0.00000000000E+00  0.00000000000E+00  0.14518052217E+04  0.35016292872E+04  0.31864822710E+04 0.  0.
        2    1    3    3  502    0  0.12156864493E+04  0.69507295602E+03  0.15609210310E+04  0.20970203676E+04  0.25500000920E-02 0.  1.
       -2    1    3    3    0  502 -0.12156864493E+04 -0.69507295602E+03 -0.10911580929E+03  0.14046089196E+04  0.25500000920E-02 0. -1.
</event>
<event>
 5   0  0.8488469E-07  0.3201508E+04  0.7818609E-02  0.8188419E-01
        2   -1    0    0  501    0  0.00000000000E+00  0.00000000000E+00  0.19882232174E+04  0.19882232174E+04  0.25500000920E-02 0.  1.
       -2   -1    0    0    0  501  0.00000000000E+00  0.00000000000E+00 -0.12887958427E+04  0.12887958427E+04  0.25500000920E-02 0. -1.
    10030    2    1    2    0    0  0.00000000000E+00  0.00000000000E+00  0.69942737467E+03  0.32770190601E+04  0.32015082802E+04 0.  0.
        3    1    3    3  502    0 -0.27751403173E+03  0.10558169969E+04  0.15480746713E+04  0.18942805407E+04  0.10100000352E+00 0.  1.
       -3    1    3    3    0  502  0.27751403173E+03 -0.10558169969E+04 -0.84864729662E+03  0.13827385194E+04  0.10100000352E+00 0. -1.
</event>
<event>
 5   0  0.8335929E-07  0.3202149E+04  0.7818609E-02  0.8188250E-01
       -2   -1    0    0    0  501  0.00000000000E+00  0.00000000000E+00  0.12200049731E+04  0.12200049731E+04  0.25500000920E-02 0.  1.
        2   -1    0    0  501    0  0.00000000000E+00  0.00000000000E+00 -0.21011712704E+04  0.21011712704E+04  0.25500000920E-02 0. -1.
    10030    2    1    2    0    0  0.00000000000E+00  0.00000000000E+00 -0.88116629732E+03  0.33211762436E+04  0.32021489030E+04 0.  0.
        4    1    3    3  502    0  0.45589106311E+03  0.79081003570E+03 -0.18048556968E+04  0.20225535526E+04  0.12699999809E+01 0. -1.
       -4    1    3    3    0  502 -0.45589106311E+03 -0.79081003570E+03  0.92368939944E+03  0.12986226910E+04  0.12699999809E+01 0.  1.
</event>
<event>
 5   0  0.8335929E-07  0.3203204E+04  0.7818609E-02  0.8187971E-01
        2   -1    0    0  501    0  0.00000000000E+00  0.00000000000E+00  0.24922567523E+04  0.24922567523E+04  0.25500000920E-02 0.  1.
       -2   -1    0    0    0  501  0.00000000000E+00  0.00000000000E+00 -0.10292396987E+04  0.10292396988E+04  0.25500000920E-02 0. -1.
    10030    2    1    2    0    0  0.00000000000E+00  0.00000000000E+00  0.14630170536E+04  0.35214964511E+04  0.32032043887E+04 0.  0.
        4    1    3    3  502    0 -0.10746425658E+04  0.34693934076E+03 -0.51708583832E+03  0.12420156712E+04  0.12699999809E+01 0. -1.
       -4    1    3    3    0  502  0.10746425658E+04 -0.34693934076E+03  0.19801028919E+04  0.22794807799E+04  0.12699999809E+01 0.  1.
</event>
<event>
 5   0  0.2997105E-07  0.3200220E+04  0.7818609E-02  0.8188759E-01
       -1   -1    0    0    0  501  0.00000000000E+00  0.00000000000E+00  0.12184838141E+04  0.12184838141E+04  0.50400001928E-02 0. -1.
        1   -1    0    0  501    0  0.00000000000E+00  0.00000000000E+00 -0.21012609660E+04  0.21012609660E+04  0.50400001928E-02 0.  1.
    10030    2    1    2    0    0  0.00000000000E+00  0.00000000000E+00 -0.88277715186E+03  0.33197447801E+04  0.32002202901E+04 0.  0.
        3    1    3    3  502    0 -0.72941033016E+03  0.11347834888E+04 -0.13340991040E+04  0.18972594513E+04  0.10100000352E+00 0.  1.
       -3    1    3    3    0  502  0.72941033016E+03 -0.11347834888E+04  0.45132195212E+03  0.14224853288E+04  0.10100000352E+00 0. -1.
</event>
<event>
 5   0  0.3013888E-07  0.3200804E+04  0.7818609E-02  0.8188605E-01
       -1   -1    0    0    0  501  0.00000000000E+00  0.00000000000E+00  0.99698781880E+03  0.99698781881E+03  0.50400001928E-02 0. -1.
        1   -1    0    0  501    0  0.00000000000E+00  0.00000000000E+00 -0.25690254917E+04  0.25690254917E+04  0.50400001928E-02 0.  1.
    10030    2    1    2    0    0  0.00000000000E+00  0.00000000000E+00 -0.15720376729E+04  0.35660133105E+04  0.32008043498E+04 0.  0.
        1    1    3    3  502    0 -0.13512549207E+04 -0.72484736696E+03 -0.27548231559E+03  0.15579422558E+04  0.50400001928E-02 0. -1.
       -1    1    3    3    0  502  0.13512549207E+04  0.72484736696E+03 -0.12965553573E+04  0.20080710547E+04  0.50400001928E-02 0.  1.
</event>
<event>
 5   0  0.2783875E-07  0.3204980E+04  0.7818609E-02  0.8187503E-01
        1   -1    0    0  501    0  0.00000000000E+00  0.00000000000E+00  0.24394424675E+04  0.24394424675E+04  0.50400001928E-02 0.  1.
       -1   -1    0    0    0  501  0.00000000000E+00  0.00000000000E+00 -0.10526887398E+04  0.10526887398E+04  0.50400001928E-02 0. -1.
    10030    2    1    2    0    0  0.00000000000E+00  0.00000000000E+00  0.13867537277E+04  0.34921312074E+04  0.32049796362E+04 0.  0.
        2    1    3    3  502    0  0.54026316923E+03 -0.57729017953E+03  0.22121124239E+04  0.23491678568E+04  0.25500000920E-02 0.  1.
       -2    1    3    3    0  502 -0.54026316923E+03  0.57729017953E+03 -0.82535869618E+03  0.11429633506E+04  0.25500000920E-02 0. -1.
</event>
<event>
 5   0  0.8195618E-07  0.3207920E+04  0.7818609E-02  0.8186729E-01
        2   -1    0    0  501    0  0.00000000000E+00  0.00000000000E+00  0.16270836522E+04  0.16270836522E+04  0.25500000920E-02 0. -1.
       -2   -1    0    0    0  501  0.00000000000E+00  0.00000000000E+00 -0.15811652265E+04  0.15811652265E+04  0.25500000920E-02 0.  1.
    10030    2    1    2    0    0  0.00000000000E+00  0.00000000000E+00  0.45918425620E+02  0.32082488787E+04  0.32079202555E+04 0.  0.
        1    1    3    3  502    0 -0.41485872850E+03 -0.58500964574E+03  0.14577991974E+04  0.16246607492E+04  0.50400001928E-02 0. -1.
       -1    1    3    3    0  502  0.41485872850E+03  0.58500964574E+03 -0.14118807717E+04  0.15835881295E+04  0.50400001928E-02 0.  1.
</event>
<event>
 5   0  0.8335929E-07  0.3193403E+04  0.7818609E-02  0.8190562E-01
        2   -1    0    0  501    0  0.00000000000E+00  0.00000000000E+00  0.22664906321E+04  0.22664906321E+04  0.25500000920E-02 0.  1.
       -2   -1    0    0    0  501  0.00000000000E+00  0.00000000000E+00 -0.11248469663E+04  0.11248469663E+04  0.25500000920E-02 0. -1.
    10030    2    1    2    0    0  0.00000000000E+00  0.00000000000E+00  0.11416436658E+04  0.33913375985E+04  0.31934026441E+04 0.  0.
        4    1    3    3  502    0  0.10679569941E+04 -0.10378764461E+04  0.11824848637E+04  0.19015761159E+04  0.12699999809E+01 0.  1.
       -4    1    3    3    0  502 -0.10679569941E+04  0.10378764461E+04 -0.40841197931E+02  0.14897614826E+04  0.12699999809E+01 0. -1.
</event>
<event>
 5   0  0.3075756E-07  0.3170846E+04  0.7818609E-02  0.8196559E-01
       -1   -1    0    0    0  501  0.00000000000E+00  0.00000000000E+00  0.23532685992E+04  0.23532685992E+04  0.50400001928E-02 0. -1.
        1   -1    0    0  501    0  0.00000000000E+00  0.00000000000E+00 -0.10681171160E+04  0.10681171160E+04  0.50400001928E-02 0.  1.
    10030    2    1    2    0    0  0.00000000000E+00  0.00000000000E+00  0.12851514832E+04  0.34213857152E+04  0.31708462400E+04 0.  0.
        5    1    3    3  502    0  0.25961750599E+03  0.91572913388E+03 -0.72551087917E+03  0.11968079302E+04  0.46999998093E+01 0.  1.
       -5    1    3    3    0  502 -0.25961750599E+03 -0.91572913388E+03  0.20106623624E+04  0.22245777850E+04  0.46999998093E+01 0. -1.
</event>
<event>
 5   0  0.8195618E-07  0.3185952E+04  0.7818609E-02  0.8192537E-01
       -2   -1    0    0    0  501  0.00000000000E+00  0.00000000000E+00  0.93562872178E+03  0.93562872178E+03  0.25500000920E-02 0.  1.
        2   -1    0    0  501    0  0.00000000000E+00  0.00000000000E+00 -0.27121579185E+04  0.27121579185E+04  0.25500000920E-02 0. -1.
    10030    2    1    2    0    0  0.00000000000E+00  0.00000000000E+00 -0.17765291967E+04  0.36477866403E+04  0.31859521946E+04 0.  0.
        1    1    3    3  502    0 -0.59430102530E+03 -0.11521080177E+04  0.17168993457E+03  0.13076788699E+04  0.50400001928E-02 0.  1.
       -1    1    3    3    0  502  0.59430102530E+03  0.11521080177E+04 -0.19482191313E+04  0.23401077703E+04  0.50400001928E-02 0. -1.
</event>
<event>
 5   0  0.2997105E-07  0.3200120E+04  0.7818609E-02  0.8188786E-01
        1   -1    0    0  501    0  0.00000000000E+00  0.00000000000E+00  0.19252585076E+04  0.19252585076E+04  0.50400001928E-02 0. -1.
       -1   -1    0    0    0  501  0.00000000000E+00  0.00000000000E+00 -0.13297908968E+04  0.13297908968E+04  0.50400001928E-02 0.  1.
    10030    2    1    2    0    0  0.00000000000E+00  0.00000000000E+00  0.59546761088E+03  0.32550494044E+04  0.32001195211E+04 0.  0.
        3    1    3    3  502    0 -0.65635824250E+03 -0.12765582361E+04 -0.42135516416E+03  0.14959770243E+04  0.10100000352E+00 0.  1.
       -3    1    3    3    0  502  0.65635824250E+03  0.12765582361E+04  0.10168227750E+04  0.17590723801E+04  0.10100000352E+00 0. -1.
</event>
<event>
 5   0  0.3075756E-07  0.3204710E+04  0.7818609E-02  0.8187574E-01
       -1   -1    0    0    0  501  0.00000000000E+00  0.00000000000E+00  0.11839469555E+04  0.11839469555E+04  0.50400001928E-02 0. -1.
        1   -1    0    0  501    0  0.00000000000E+00  0.00000000000E+00 -0.21686291675E+04  0.21686291675E+04  0.50400001928E-02 0.  1.
    10030    2    1    2    0    0  0.00000000000E+00  0.00000000000E+00 -0.98468221205E+03  0.33525761230E+04  0.32047102212E+04 0.  0.
        5    1    3    3  502    0  0.32878837126E+03  0.13660391060E+04  0.31349598011E+03  0.14396063531E+04  0.46999998093E+01 0. -1.
       -5    1    3    3    0  502 -0.32878837126E+03 -0.13660391060E+04 -0.12981781922E+04  0.19129697700E+04  0.46999998093E+01 0.  1.
</event>
<event>
 5   0  0.3075756E-07  0.3222914E+04  0.7818609E-02  0.8182792E-01
        1   -1    0    0  501    0  0.00000000000E+00  0.00000000000E+00  0.21446711634E+04  0.21446711634E+04  0.50400001928E-02 0. -1.
       -1   -1    0    0    0  501  0.00000000000E+00  0.00000000000E+00 -0.12108118660E+04  0.12108118660E+04  0.50400001928E-02 0.  1.
    10030    2    1    2    0    0  0.00000000000E+00  0.00000000000E+00  0.93385929738E+03  0.33554830294E+04  0.32229137707E+04 0.  0.
        5    1    3    3  502    0 -0.70550403524E+03 -0.10677605722E+04 -0.55259596773E+03  0.13939989157E+04  0.46999998093E+01 0.  1.
       -5    1    3    3    0  502  0.70550403524E+03  0.10677605722E+04  0.14864552651E+04  0.19614841138E+04  0.46999998093E+01 0. -1.
</event>
<event>
 5   0  0.8802800E-07  0.3213175E+04  0.7818609E-02  0.8185346E-01
       -2   -1    0    0    0  501  0.00000000000E+00  0.00000000000E+00  0.10058663475E+04  0.10058663475E+04  0.25500000920E-02 0.  1.
        2   -1    0    0  501    0  0.00000000000E+00  0.00000000000E+00 -0.25660701174E+04  0.25660701174E+04  0.25500000920E-02 0. -1.
    10030    2    1    2    0    0  0.00000000000E+00  0.00000000000E+00 -0.15602037699E+04  0.35719364649E+04  0.32131751128E+04 0.  0.
        5    1    3    3  502    0 -0.12334747117E+04 -0.67161072927E+02  0.36178352724E+03  0.12871984636E+04  0.46999998093E+01 0.  1.
       -5    1    3    3    0  502  0.12334747117E+04  0.67161072927E+02 -0.19219872971E+04  0.22847380013E+04  0.46999998093E+01 0. -1.
</event>
<event>
 5   0  0.8802800E-07  0.3206567E+04  0.7818609E-02  0.8187085E-01
       -2   -1    0    0    0  501  0.00000000000E+00  0.00000000000E+00  0.14132453574E+04  0.14132453574E+04  0.25500000920E-02 0. -1.
        2   -1    0    0  501    0  0.00000000000E+00  0.00000000000E+00 -0.18188754011E+04  0.18188754011E+04  0.25500000920E-02 0.  1.
    10030    2    1    2    0    0  0.00000000000E+00  0.00000000000E+00 -0.40563004374E+03  0.32321207585E+04  0.32065665228E+04 0.  0.
        5    1    3    3  502    0  0.11992920494E+04  0.10618386962E+04 -0.13376882944E+03  0.16073951059E+04  0.46999998093E+01 0. -1.
       -5    1    3    3    0  502 -0.11992920494E+04 -0.10618386962E+04 -0.27186121430E+03  0.16247256527E+04  0.46999998093E+01 0.  1.
</event>
<event>
 5   0  0.8335929E-07  0.3213542E+04  0.7818609E-02  0.8185250E-01
        2   -1    0    0  501    0  0.00000000000E+00  0.00000000000E+00  0.22310523410E+04  0.22310523410E+04  0.25500000920E-02 0. -1.
       -2   -1    0    0    0  501  0.00000000000E+00  0.00000000000E+00 -0.11571729947E+04  0.11571729947E+04  0.25500000920E-02 0.  1.
    10030    2    1    2    0    0  0.00000000000E+00  0.00000000000E+00  0.10738793463E+04  0.33882253357E+04  0.32135422940E+04 0.  0.
        4    1    3    3  502    0  0.11704627489E+04 -0.10895547556E+04  0.37157239226E+03  0.16417004196E+04  0.12699999809E+01 0.  1.
       -4    1    3    3    0  502 -0.11704627489E+04  0.10895547556E+04  0.70230695404E+03  0.17465249161E+04  0.12699999809E+01 0. -1.
</event>
<event>
 5   0  0.3013888E-07  0.3204685E+04  0.7818609E-02  0.8187581E-01
       -1   -1    0    0    0  501  0.00000000000E+00  0.00000000000E+00  0.12685458832E+04  0.12685458832E+04  0.50400001928E-02 0.  1.
        1   -1    0    0  501    0  0.00000000000E+00  0.00000000000E+00 -0.20239717770E+04  0.20239717770E+04  0.50400001928E-02 0. -1.
    10030    2    1    2    0    0  0.00000000000E+00  0.00000000000E+00 -0.75542589385E+03  0.32925176602E+04  0.32046847367E+04 0.  0.
        1    1    3    3  502    0  0.89543411919E+03  0.51994243841E+03  0.87865106263E+03  0.13580022426E+04  0.50400001928E-02 0.  1.
       -1    1    3    3    0  502 -0.89543411919E+03 -0.51994243841E+03 -0.16340769565E+04  0.19345154176E+04  0.50400001928E-02 0. -1.
</event>
<event>
 5   0  0.8802800E-07  0.3202450E+04  0.7818609E-02  0.8188170E-01
        2   -1    0    0  501    0  0.00000000000E+00  0.00000000000E+00  0.25728116796E+04  0.25728116796E+04  0.25500000920E-02 0. -1.
       -2   -1    0    0    0  501  0.00000000000E+00  0.00000000000E+00 -0.99654487133E+03  0.99654487133E+03  0.25500000920E-02 0.  1.
    10030    2    1    2    0    0  0.00000000000E+00  0.00000000000E+00  0.15762668083E+04  0.35693565509E+04  0.32024504894E+04 0.  0.
        5    1    3    3  502    0  0.58723389449E+03 -0.13475484331E+04  0.80429668704E+02  0.14721485821E+04  0.46999998093E+01 0.  1.
       -5    1    3    3    0  502 -0.58723389449E+03  0.13475484331E+04  0.14958371396E+04  0.20972079688E+04  0.46999998093E+01 0. -1.
</event>
<event>
 5   0  0.3075756E-07  0.3211543E+04  0.7818609E-02  0.8185775E-01
        1   -1    0    0  501    0  0.00000000000E+00  0.00000000000E+00  0.24527469461E+04  0.24527469461E+04  0.50400001928E-02 0. -1.
       -1   -1    0    0    0  501  0.00000000000E+00  0.00000000000E+00 -0.10512712939E+04  0.10512712939E+04  0.50400001928E-02 0.  1.
    10030    2    1    2    0    0  0.00000000000E+00  0.00000000000E+00  0.14014756522E+04  0.35040182400E+04  0.32115432151E+04 0.  0.
        5    1    3    3  502    0 -0.79285332058E+02  0.32837307680E+03  0.24135318244E+04  0.24370623707E+04  0.46999998093E+01 0. -1.
       -5    1    3    3    0  502  0.79285332058E+02 -0.32837307680E+03 -0.10120561722E+04  0.10669558693E+04  0.46999998093E+01 0.  1.
</event>
<event>
 5   0  0.8488469E-07  0.3199269E+04  0.7818609E-02  0.8189010E-01
        2   -1    0    0  501    0  0.00000000000E+00  0.00000000000E+00  0.13320890339E+04  0.13320890339E+04  0.25500000920E-02 0. -1.
       -2   -1    0    0    0  501  0.00000000000E+00  0.00000000000E+00 -0.19209159898E+04  0.19209159898E+04  0.25500000920E-02 0.  1.
    10030    2    1    2    0    0  0.00000000000E+00  0.00000000000E+00 -0.58882695591E+03  0.32530050237E+04  0.31992693697E+04 0.  0.
        3    1    3    3  502    0  0.10797558038E+04  0.82768351301E+02 -0.14915190390E+04  0.18431907795E+04  0.10100000352E+00 0.  1.
       -3    1    3    3    0  502 -0.10797558038E+04 -0.82768351301E+02  0.90269208309E+03  0.14098142441E+04  0.10100000352E+00 0. -1.
</event>
<event>
 5   0  0.8802800E-07  0.3200655E+04  0.7818609E-02  0.8188644E-01
        2   -1    0    0  501    0  0.00000000000E+00  0.00000000000E+00  0.16106112061E+04  0.16106112061E+04  0.25500000920E-02 0. -1.
       -2   -1    0    0    0  501  0.00000000000E+00  0.00000000000E+00 -0.15901090155E+04  0.15901090156E+04  0.25500000920E-02 0.  1.
    10030    2    1    2    0    0  0.00000000000E+00  0.00000000000E+00  0.20502190551E+02  0.32007202217E+04  0.32006545577E+04 0.  0.
        5    1    3    3  502    0 -0.89628355260E+03 -0.13209576516E+04 -0.10276443212E+03  0.15996361907E+04  0.46999998093E+01 0. -1.
       -5    1    3    3    0  502  0.89628355260E+03  0.13209576516E+04  0.12326662267E+03  0.16010840310E+04  0.46999998093E+01 0.  1.
</event>
<event>
 5   0  0.2891204E-07  0.3192020E+04  0.7818609E-02  0.8190928E-01
        1   -1    0    0  501    0  0.00000000000E+00  0.00000000000E+00  0.15470527935E+04  0.15470527935E+04  0.50400001928E-02 0.  1.
       -1   -1    0    0    0  501  0.00000000000E+00  0.00000000000E+00 -0.16465163774E+04  0.16465163774E+04  0.50400001928E-02 0. -1.
    10030    2    1    2    0    0  0.00000000000E+00  0.00000000000E+00 -0.99463583927E+02  0.31935691709E+04  0.31920199004E+04 0.  0.
        4    1    3    3  502    0 -0.83916940271E+03  0.29015651894E+03 -0.13765919249E+04  0.16381095911E+04  0.12699999809E+01 0. -1.
       -4    1    3    3    0  502  0.83916940271E+03 -0.29015651894E+03  0.12771283410E+04  0.15554595797E+04  0.12699999809E+01 0.  1.
</event>
<event>
 5   0  0.8488469E-07  0.3204039E+04  0.7818609E-02  0.8187751E-01
       -2   -1    0    0    0  501  0.00000000000E+00  0.00000000000E+00  0.98293760360E+03  0.98293760360E+03  0.25500000920E-02 0.  1.
        2   -1    0    0  501    0  0.00000000000E+00  0.00000000000E+00 -0.26110162153E+04  0.26110162153E+04  0.25500000920E-02 0. -1.
    10030    2    1    2    0    0  0.00000000000E+00  0.00000000000E+00 -0.16280786117E+04  0.35939538189E+04  0.32040387149E+04 0.  0.
        3    1    3    3  502    0  0.24384378185E+03  0.40446710061E+03 -0.25311532549E+04  0.25748379046E+04  0.10100000352E+00 0. -1.
       -3    1    3    3    0  502 -0.24384378185E+03 -0.40446710061E+03  0.90307464314E+03  0.10191159143E+04  0.10100000352E+00 0.  1.
</event>
<event>
 5   0  0.8838951E-07  0.3146265E+04  0.7818609E-02  0.8203154E-01
        2   -1    0    0  501    0  0.00000000000E+00  0.00000000000E+00  0.15995505393E+04  0.15995505393E+04  0.25500000920E-02 0. -1.
       -2   -1    0    0    0  501  0.00000000000E+00  0.00000000000E+00 -0.15471505049E+04  0.15471505049E+04  0.25500000920E-02 0.  1.
    10030    2    1    2    0    0  0.00000000000E+00  0.00000000000E+00  0.52400034395E+02  0.31467010442E+04  0.31462647215E+04 0.  0.
        2    1    3    3  502    0  0.12791330148E+04 -0.62687206808E+03  0.69382203882E+03  0.15844680119E+04  0.25500000920E-02 0.  1.
       -2    1    3    3    0  502 -0.12791330148E+04  0.62687206808E+03 -0.64142200443E+03  0.15622330323E+04  0.25500000920E-02 0. -1.
</event>
<event>
 5   0  0.8335929E-07  0.3203343E+04  0.7818609E-02  0.8187935E-01
        2   -1    0    0  501    0  0.00000000000E+00  0.00000000000E+00  0.28425323644E+04  0.28425323644E+04  0.25500000920E-02 0.  1.
       -2   -1    0    0    0  501  0.00000000000E+00  0.00000000000E+00 -0.90248799169E+03  0.90248799170E+03  0.25500000920E-02 0. -1.
    10030    2    1    2    0    0  0.00000000000E+00  0.00000000000E+00  0.19400443727E+04  0.37450203561E+04  0.32033428321E+04 0.  0.
        4    1    3    3  502    0 -0.14953649246E+04 -0.30874768298E+03  0.15354453539E+04  0.21654180744E+04  0.12699999809E+01 0.  1.
       -4    1    3    3    0  502  0.14953649246E+04  0.30874768298E+03  0.40459901884E+03  0.15796022817E+04  0.12699999809E+01 0. -1.
</event>
<event>
 5   0  0.8488469E-07  0.3202184E+04  0.7818609E-02  0.8188241E-01
       -2   -1    0    0    0  501  0.00000000000E+00  0.00000000000E+00  0.17414989392E+04  0.17414989392E+04  0.25500000920E-02 0. -1.
        2   -1    0    0  501    0  0.00000000000E+00  0.00000000000E+00 -0.14720055384E+04  0.14720055384E+04  0.25500000920E-02 0.  1.
    10030    2    1    2    0    0  0.00000000000E+00  0.00000000000E+00  0.26949340079E+03  0.32135044776E+04  0.32021843068E+04 0.  0.
        3    1    3    3  502    0 -0.98912986066E+03  0.64642789979E+03  0.12189591008E+04  0.16976772987E+04  0.10100000352E+00 0. -1.
       -3    1    3    3    0  502  0.98912986066E+03 -0.64642789979E+03 -0.94946569998E+03  0.15158271790E+04  0.10100000352E+00 0.  1.
</event>
<event>
 5   0  0.8195618E-07  0.3197199E+04  0.7818609E-02  0.8189557E-01
       -2   -1    0    0    0  501  0.00000000000E+00  0.00000000000E+00  0.15343175723E+04  0.15343175723E+04  0.25500000920E-02 0.  1.
        2   -1    0    0  501    0  0.00000000000E+00  0.00000000000E+00 -0.16655748333E+04  0.16655748333E+04  0.25500000920E-02 0. -1.
    10030    2    1    2    0    0  0.00000000000E+00  0.00000000000E+00 -0.13125726101E+03  0.31998924056E+04  0.31971992335E+04 0.  0.
        1    1    3    3  502    0  0.29099817150E+03  0.15685250697E+04 -0.16852527487E+03  0.16041669484E+04  0.50400001928E-02 0. -1.
       -1    1    3    3    0  502 -0.29099817150E+03 -0.15685250697E+04  0.37268013857E+02  0.15957254572E+04  0.50400001928E-02 0.  1.
</event>
<event>
 5   0  0.8195618E-07  0.3204651E+04  0.7818609E-02  0.8187590E-01
        2   -1    0    0  501    0  0.00000000000E+00  0.00000000000E+00  0.14462688501E+04  0.14462688501E+04  0.25500000920E-02 0. -1.
       -2   -1    0    0    0  501  0.00000000000E+00  0.00000000000E+00 -0.17752206561E+04  0.17752206561E+04  0.25500000920E-02 0.  1.
    10030    2    1    2    0    0  0.00000000000E+00  0.00000000000E+00 -0.32895180605E+03  0.32214895062E+04  0.32046505812E+04 0.  0.
        1    1    3    3  502    0 -0.37216383095E+03 -0.15436787419E+04  0.51118646504E+02  0.15887300247E+04  0.50400001928E-02 0. -1.
       -1    1    3    3    0  502  0.37216383095E+03  0.15436787419E+04 -0.38007045256E+03  0.16327594815E+04  0.50400001928E-02 0.  1.
</event>
<event>
 5   0  0.3013888E-07  0.3199681E+04  0.7818609E-02  0.8188902E-01
       -1   -1    0    0    0  501  0.00000000000E+00  0.00000000000E+00  0.17738886543E+04  0.17738886543E+04  0.50400001928E-02 0.  1.
        1   -1    0    0  501    0  0.00000000000E+00  0.00000000000E+00 -0.14428689712E+04  0.14428689712E+04  0.50400001928E-02 0. -1.
    10030    2    1    2    0    0  0.00000000000E+00  0.00000000000E+00  0.33101968313E+03  0.32167576255E+04  0.31996805451E+04 0.  0.
        1    1    3    3  502    0 -0.11683059455E+04  0.72385108353E+02  0.12618854048E+04  0.17212010810E+04  0.50400001928E-02 0.  1.
       -1    1    3    3    0  502  0.11683059455E+04 -0.72385108353E+02 -0.93086572171E+03  0.14955565446E+04  0.50400001928E-02 0. -1.
</event>
<event>
 5   0  0.2783875E-07  0.3191169E+04  0.7818609E-02  0.8191153E-01
        1   -1    0    0  501    0  0.00000000000E+00  0.00000000000E+00  0.17908155342E+04  0.17908155342E+04  0.50400001928E-02 0. -1.
       -1   -1    0    0    0  501  0.00000000000E+00  0.00000000000E+00 -0.14216373175E+04  0.14216373175E+04  0.50400001928E-02 0.  1.
    10030    2    1    2    0    0  0.00000000000E+00  0.00000000000E+00  0.36917821674E+03  0.32124528517E+04  0.31911691852E+04 0.  0.
        2    1    3    3  502    0  0.96618530942E+03  0.64581724271E+03  0.12851769414E+04  0.17327070537E+04  0.25500000920E-02 0. -1.
       -2    1    3    3    0  502 -0.96618530942E+03 -0.64581724271E+03 -0.91599872465E+03  0.14797457980E+04  0.25500000920E-02 0.  1.
</event>
<event>
 5   0  0.8195618E-07  0.3201590E+04  0.7818609E-02  0.8188398E-01
        2   -1    0    0  501    0  0.00000000000E+00  0.00000000000E+00  0.17019896389E+04  0.17019896389E+04  0.25500000920E-02 0.  1.
       -2   -1    0    0    0  501  0.00000000000E+00  0.00000000000E+00 -0.15056165975E+04  0.15056165975E+04  0.25500000920E-02 0. -1.
    10030    2    1    2    0    0  0.00000000000E+00  0.00000000000E+00  0.19637304140E+03  0.32076062363E+04  0.32015895109E+04 0.  0.
        1    1    3    3  502    0  0.45445035495E+03  0.14106260412E+04  0.70442938156E+03  0.16409179464E+04  0.50400001928E-02 0. -1.
       -1    1    3    3    0  502 -0.45445035495E+03 -0.14106260412E+04 -0.50805634015E+03  0.15666882900E+04  0.50400001928E-02 0.  1.
</event>
<event>
 5   0  0.2997105E-07  0.3203643E+04  0.7818609E-02  0.8187856E-01
        1   -1    0    0  501    0  0.00000000000E+00  0.00000000000E+00  0.15158051736E+04  0.15158051736E+04  0.50400001928E-02 0.  1.
       -1   -1    0    0    0  501  0.00000000000E+00  0.00000000000E+00 -0.16927185225E+04  0.16927185225E+04  0.50400001928E-02 0. -1.
    10030    2    1    2    0    0  0.00000000000E+00  0.00000000000E+00 -0.17691334888E+03  0.32085236961E+04  0.32036426105E+04 0.  0.
        3    1    3    3  502    0  0.12530547280E+04 -0.44872641325E+02  0.90989296951E+03  0.15492142949E+04  0.10100000352E+00 0.  1.
       -3    1    3    3    0  502 -0.12530547280E+04  0.44872641325E+02 -0.10868063184E+04  0.16593094013E+04  0.10100000352E+00 0. -1.
</event>
<event>
 5   0  0.8802800E-07  0.3197622E+04  0.7818609E-02  0.8189445E-01
        2   -1    0    0  501    0  0.00000000000E+00  0.00000000000E+00  0.24660160790E+04  0.24660160790E+04  0.25500000920E-02 0. -1.
       -2   -1    0    0    0  501  0.00000000000E+00  0.00000000000E+00 -0.10365695115E+04  0.10365695115E+04  0.25500000920E-02 0.  1.
    10030    2    1    2    0    0  0.00000000000E+00  0.00000000000E+00  0.14294465675E+04  0.35025855905E+04  0.31976222932E+04 0.  0.
        5    1    3    3  502    0  0.53266172130E+03  0.13097999163E+04 -0.10268448849E+03  0.14176990246E+04  0.46999998093E+01 0.  1.
       -5    1    3    3    0  502 -0.53266172130E+03 -0.13097999163E+04  0.15321310560E+04  0.20848865659E+04  0.46999998093E+01 0. -1.
</event>
<event>
 5   0  0.2997105E-07  0.3197715E+04  0.7818609E-02  0.8189421E-01
        1   -1    0    0  501    0  0.00000000000E+00  0.00000000000E+00  0.82522569302E+03  0.82522569304E+03  0.50400001928E-02 0.  1.
       -1   -1    0    0    0  501  0.00000000000E+00  0.00000000000E+00 -0.30977531692E+04  0.30977531692E+04  0.50400001928E-02 0. -1.
    10030    2    1    2    0    0  0.00000000000E+00  0.00000000000E+00 -0.22725274762E+04  0.39229788623E+04  0.31977151255E+04 0.  0.
        3    1    3    3  502    0 -0.31447644299E+03  0.68682218960E+03 -0.28650280404E+04  0.29629387162E+04  0.10100000352E+00 0. -1.
       -3    1    3    3    0  502  0.31447644299E+03 -0.68682218960E+03  0.59250056420E+03  0.96004014609E+03  0.10100000352E+00 0.  1.
</event>
<event>
 5   0  0.8838951E-07  0.3105713E+04  0.7818609E-02  0.8214172E-01
        2   -1    0    0  501    0  0.00000000000E+00  0.00000000000E+00  0.13872312777E+04  0.13872312777E+04  0.25500000920E-02 0.  1.
       -2   -1    0    0    0  501  0.00000000000E+00  0.00000000000E+00 -0.17382559000E+04  0.17382559000E+04  0.25500000920E-02 0. -1.
    10030    2    1    2    0    0  0.00000000000E+00  0.00000000000E+00 -0.35102462226E+03  0.31254871777E+04  0.31057127705E+04 0.  0.
        2    1    3    3  502    0  0.13350936804E+04 -0.63859575099E+03  0.29767641390E+03  0.15095995879E+04  0.25500000920E-02 0.  1.
       -2    1    3    3    0  502 -0.13350936804E+04  0.63859575099E+03 -0.64870103616E+03  0.16158875898E+04  0.25500000920E-02 0. -1.
</event>
<event>
 5   0  0.2891204E-07  0.3198738E+04  0.7818609E-02  0.8189151E-01
        1   -1    0    0  501    0  0.00000000000E+00  0.00000000000E+00  0.23386657657E+04  0.23386657657E+04  0.50400001928E-02 0.  1.
       -1   -1    0    0    0  501  0.00000000000E+00  0.00000000000E+00 -0.10937779109E+04  0.10937779109E+04  0.50400001928E-02 0. -1.
    10030    2    1    2    0    0  0.00000000000E+00  0.00000000000E+00  0.12448878548E+04  0.34324436766E+04  0.31987378483E+04 0.  0.
        4    1    3    3  502    0 -0.14072980532E+04  0.64692561062E+03  0.10502967087E+04  0.18713966296E+04  0.12699999809E+01 0.  1.
       -4    1    3    3    0  502  0.14072980532E+04 -0.64692561062E+03  0.19459114614E+03  0.15610470471E+04  0.12699999809E+01 0. -1.
</event>
<event>
 5   0  0.3075756E-07  0.3195571E+04  0.7818609E-02  0.8189988E-01
       -1   -1    0    0    0  501  0.00000000000E+00  0.00000000000E+00  0.24986064927E+04  0.24986064927E+04  0.50400001928E-02 0.  1.
        1   -1    0    0  501    0  0.00000000000E+00  0.00000000000E+00 -0.10217367098E+04  0.10217367098E+04  0.50400001928E-02 0. -1.
    10030    2    1    2    0    0  0.00000000000E+00  0.00000000000E+00  0.14768697830E+04  0.35203432025E+04  0.31955706701E+04 0.  0.
        5    1    3    3  502    0 -0.13326009063E+04  0.86268497165E+03  0.53878295203E+03  0.16764127461E+04  0.46999998093E+01 0.  1.
       -5    1    3    3    0  502  0.13326009063E+04 -0.86268497165E+03  0.93808683092E+03  0.18439304564E+04  0.46999998093E+01 0. -1.
</event>
<event>
 5   0  0.3013888E-07  0.3206924E+04  0.7818609E-02  0.8186991E-01
       -1   -1    0    0    0  501  0.00000000000E+00  0.00000000000E+00  0.14283288769E+04  0.14283288770E+04  0.50400001928E-02 0.  1.
        1   -1    0    0  501    0  0.00000000000E+00  0.00000000000E+00 -0.18000693208E+04  0.18000693208E+04  0.50400001928E-02 0. -1.
    10030    2    1    2    0    0  0.00000000000E+00  0.00000000000E+00 -0.37174044383E+03  0.32283981977E+04  0.32069243779E+04 0.  0.
        1    1    3    3  502    0 -0.45478462234E+03  0.11339218152E+04  0.85958414380E+03  0.14938181402E+04  0.50400001928E-02 0.  1.
       -1    1    3    3    0  502  0.45478462234E+03 -0.11339218152E+04 -0.12313245876E+04  0.17345800575E+04  0.50400001928E-02 0. -1.
</event>
<event>
 5   0  0.2783875E-07  0.3195703E+04  0.7818609E-02  0.8189953E-01
       -1   -1    0    0    0  501  0.00000000000E+00  0.00000000000E+00  0.29463944676E+04  0.29463944676E+04  0.50400001928E-02 0. -1.
        1   -1    0    0  501    0  0.00000000000E+00  0.00000000000E+00 -0.86652676760E+03  0.86652676761E+03  0.50400001928E-02 0.  1.
    10030    2    1    2    0    0  0.00000000000E+00  0.00000000000E+00  0.20798677000E+04  0.38129212352E+04  0.31957031615E+04 0.  0.
        2    1    3    3  502    0  0.91403972430E+03 -0.67689271055E+03 -0.29908464749E+03  0.11760544144E+04  0.25500000920E-02 0.  1.
       -2    1    3    3    0  502 -0.91403972430E+03  0.67689271055E+03  0.23789523475E+04  0.26368668208E+04  0.25500000920E-02 0. -1.
</event>
<event>
 5   0  0.8488469E-07  0.3204858E+04  0.7818609E-02  0.8187535E-01
        2   -1    0    0  501    0  0.00000000000E+00  0.00000000000E+00  0.14151117935E+04  0.14151117935E+04  0.25500000920E-02 0. -1.
       -2   -1    0    0    0  501  0.00000000000E+00  0.00000000000E+00 -0.18145413662E+04  0.18145413662E+04  0.25500000920E-02 0.  1.
    10030    2    1    2    0    0  0.00000000000E+00  0.00000000000E+00 -0.39942957271E+03  0.32296531596E+04  0.32048581167E+04 0.  0.
        3    1    3    3  502    0  0.13389588938E+04 -0.59874566665E+03 -0.85005373531E+03  0.16952576960E+04  0.10100000352E+00 0.  1.
       -3    1    3    3    0  502 -0.13389588938E+04  0.59874566665E+03  0.45062416261E+03  0.15343954636E+04  0.10100000352E+00 0. -1.
</event>
<event>
 5   0  0.8195618E-07  0.3227039E+04  0.7818609E-02  0.8181713E-01
        2   -1    0    0  501    0  0.00000000000E+00  0.00000000000E+00  0.22618210588E+04  0.22618210588E+04  0.25500000920E-02 0.  1.
       -2   -1    0    0    0  501  0.00000000000E+00  0.00000000000E+00 -0.11510393225E+04  0.11510393225E+04  0.25500000920E-02 0. -1.
    10030    2    1    2    0    0  0.00000000000E+00  0.00000000000E+00  0.11107817364E+04  0.34128603813E+04  0.32270388774E+04 0.  0.
        1    1    3    3  502    0  0.13776470692E+04  0.60107092182E+03 -0.65120271098E+02  0.15044727814E+04  0.50400001928E-02 0.  1.
       -1    1    3    3    0  502 -0.13776470692E+04 -0.60107092182E+03  0.11759020075E+04  0.19083875999E+04  0.50400001928E-02 0. -1.
</event>
<event>
 5   0  0.2783875E-07  0.3204084E+04  0.7818609E-02  0.8187739E-01
       -1   -1    0    0    0  501  0.00000000000E+00  0.00000000000E+00  0.11554603200E+04  0.11554603200E+04  0.50400001928E-02 0.  1.
        1   -1    0    0  501    0  0.00000000000E+00  0.00000000000E+00 -0.22212261995E+04  0.22212261995E+04  0.50400001928E-02 0. -1.
    10030    2    1    2    0    0  0.00000000000E+00  0.00000000000E+00 -0.10657658795E+04  0.33766865195E+04  0.32040841033E+04 0.  0.
        2    1    3    3  502    0 -0.22270799631E+03  0.77393407390E+03  0.92662775345E+03  0.12276855444E+04  0.25500000920E-02 0.  1.
       -2    1    3    3    0  502  0.22270799631E+03 -0.77393407390E+03 -0.19923936330E+04  0.21490009751E+04  0.25500000920E-02 0. -1.
</event>
<event>
 5   0  0.2891204E-07  0.3198663E+04  0.7818609E-02  0.8189170E-01
       -1   -1    0    0    0  501  0.00000000000E+00  0.00000000000E+00  0.13248955794E+04  0.13248955794E+04  0.50400001928E-02 0.  1.
        1   -1    0    0  501    0  0.00000000000E+00  0.00000000000E+00 -0.19306138444E+04  0.19306138444E+04  0.50400001928E-02 0. -1.
    10030    2    1    2    0    0  0.00000000000E+00  0.00000000000E+00 -0.60571826501E+03  0.32555094239E+04  0.31986633134E+04 0.  0.
        4    1    3    3  502    0 -0.11789218390E+04 -0.86671902146E+03  0.35421610530E+03  0.15054996602E+04  0.12699999809E+01 0.  1.
       -4    1    3    3    0  502  0.11789218390E+04  0.86671902146E+03 -0.95993437031E+03  0.17500097637E+04  0.12699999809E+01 0. -1.
</event>
<event>
 5   0  0.2997105E-07  0.3198261E+04  0.7818609E-02  0.8189277E-01
       -1   -1    0    0    0  501  0.00000000000E+00  0.00000000000E+00  0.15705033770E+04  0.15705033770E+04  0.50400001928E-02 0.  1.
        1   -1    0    0  501    0  0.00000000000E+00  0.00000000000E+00 -0.16282792487E+04  0.16282792487E+04  0.50400001928E-02 0. -1.
    10030    2    1    2    0    0  0.00000000000E+00  0.00000000000E+00 -0.57775871672E+02  0.31987826258E+04  0.31982608142E+04 0.  0.
        3    1    3    3  502    0  0.59061223134E+02 -0.65009482573E+03 -0.14889571107E+04  0.16257628358E+04  0.10100000352E+00 0. -1.
       -3    1    3    3    0  502 -0.59061223134E+02  0.65009482573E+03  0.14311812390E+04  0.15730197900E+04  0.10100000352E+00 0.  1.
</event>
<event>
 5   0  0.2891204E-07  0.3198847E+04  0.7818609E-02  0.8189122E-01
       -1   -1    0    0    0  501  0.00000000000E+00  0.00000000000E+00  0.24044640326E+04  0.24044640326E+04  0.50400001928E-02 0.  1.
        1   -1    0    0  501    0  0.00000000000E+00  0.00000000000E+00 -0.10639194987E+04  0.10639194987E+04  0.50400001928E-02 0. -1.
    10030    2    1    2    0    0  0.00000000000E+00  0.00000000000E+00  0.13405445340E+04  0.34683835313E+04  0.31988473975E+04 0.  0.
        4    1    3    3  502    0  0.56805312044E+03  0.46453760533E+03 -0.87062732497E+03  0.11386277207E+04  0.12699999809E+01 0. -1.
       -4    1    3    3    0  502 -0.56805312044E+03 -0.46453760533E+03  0.22111718590E+04  0.23297558106E+04  0.12699999809E+01 0.  1.
</event>
<event>
 5   0  0.8838951E-07  0.3202027E+04  0.7818609E-02  0.8188282E-01
       -2   -1    0    0    0  501  0.00000000000E+00  0.00000000000E+00  0.12084482343E+04  0.12084482343E+04  0.25500000920E-02 0.  1.
        2   -1    0    0  501    0  0.00000000000E+00  0.00000000000E+00 -0.21211045025E+04  0.21211045025E+04  0.25500000920E-02 0. -1.
    10030    2    1    2    0    0  0.00000000000E+00  0.00000000000E+00 -0.91265626824E+03  0.33295527368E+04  0.32020274770E+04 0.  0.
        2    1    3    3  502    0  0.65282843794E+03 -0.96709513274E+03 -0.15962487269E+04  0.19772374575E+04  0.25500000920E-02 0. -1.
       -2    1    3    3    0  502 -0.65282843794E+03  0.96709513274E+03  0.68359245868E+03  0.13523152793E+04  0.25500000920E-02 0.  1.
</event>
<event>
 5   0  0.8195618E-07  0.3203399E+04  0.7818609E-02  0.8187920E-01
        2   -1    0    0  501    0  0.00000000000E+00  0.00000000000E+00  0.15436899510E+04  0.15436899510E+04  0.25500000920E-02 0. -1.
       -2   -1    0    0    0  501  0.00000000000E+00  0.00000000000E+00 -0.16618890489E+04  0.16618890489E+04  0.25500000920E-02 0.  1.
    10030    2    1    2    0    0  0.00000000000E+00  0.00000000000E+00 -0.11819909786E+03  0.32055789999E+04  0.32033990850E+04 0.  0.
        1    1    3    3  502    0 -0.29210262930E+03  0.70105084904E+03 -0.14702525012E+04  0.16548228474E+04  0.50400001928E-02 0.  1.
       -1    1    3    3    0  502  0.29210262930E+03 -0.70105084904E+03  0.13520534033E+04  0.15507561525E+04  0.50400001928E-02 0. -1.
</event>
<event>
 5   0  0.3013888E-07  0.3197304E+04  0.7818609E-02  0.8189529E-01
        1   -1    0    0  501    0  0.00000000000E+00  0.00000000000E+00  0.18724278650E+04  0.18724278650E+04  0.50400001928E-02 0. -1.
       -1   -1    0    0    0  501  0.00000000000E+00  0.00000000000E+00 -0.13649065028E+04  0.13649065028E+04  0.50400001928E-02 0.  1.
    10030    2    1    2    0    0  0.00000000000E+00  0.00000000000E+00  0.50752136224E+03  0.32373343678E+04  0.31973044703E+04 0.  0.
        1    1    3    3  502    0 -0.10804122776E+04 -0.33340345791E+03 -0.89053929474E+03  0.14392737025E+04  0.50400001928E-02 0.  1.
       -1    1    3    3    0  502  0.10804122776E+04  0.33340345791E+03  0.13980606570E+04  0.17980606653E+04  0.50400001928E-02 0. -1.
</event>
<event>
 5   0  0.8838951E-07  0.3190677E+04  0.7818609E-02  0.8191284E-01
        2   -1    0    0  501    0  0.00000000000E+00  0.00000000000E+00  0.24027581115E+04  0.24027581115E+04  0.25500000920E-02 0. -1.
       -2   -1    0    0    0  501  0.00000000000E+00  0.00000000000E+00 -0.10592432591E+04  0.10592432591E+04  0.25500000920E-02 0.  1.
    10030    2    1    2    0    0  0.00000000000E+00  0.00000000000E+00  0.13435148524E+04  0.34620013706E+04  0.31906772528E+04 0.  0.
        2    1    3    3  502    0  0.69653309322E+03  0.13809133020E+04  0.24730778458E+03  0.15662825536E+04  0.25500000920E-02 0. -1.
       -2    1    3    3    0  502 -0.69653309322E+03 -0.13809133020E+04  0.10962070678E+04  0.18957188170E+04  0.25500000920E-02 0.  1.
</event>
<event>
 5   0  0.2997105E-07  0.3252243E+04  0.7818609E-02  0.8175154E-01
       -1   -1    0    0    0  501  0.00000000000E+00  0.00000000000E+00  0.11327522628E+04  0.11327522628E+04  0.50400001928E-02 0.  1.
        1   -1    0    0  501    0  0.00000000000E+00  0.00000000000E+00 -0.23343779485E+04  0.23343779485E+04  0.50400001928E-02 0. -1.
    10030    2    1    2    0    0  0.00000000000E+00  0.00000000000E+00 -0.12016256856E+04  0.34671302113E+04  0.32522434740E+04 0.  0.
        3    1    3    3  502    0 -0.60921861006E+03  0.12521873851E+04 -0.14960297309E+04  0.20438261981E+04  0.10100000352E+00 0. -1.
       -3    1    3    3    0  502  0.60921861006E+03 -0.12521873851E+04  0.29440404521E+03  0.14233040133E+04  0.10100000352E+00 0.  1.
</event>
<event>
 5   0  0.8195618E-07  0.3185791E+04  0.7818609E-02  0.8192580E-01
       -2   -1    0    0    0  501  0.00000000000E+00  0.00000000000E+00  0.11904732679E+04  0.11904732679E+04  0.25500000920E-02 0.  1.
        2   -1    0    0  501    0  0.00000000000E+00  0.00000000000E+00 -0.21313501084E+04  0.21313501084E+04  0.25500000920E-02 0. -1.
    10030    2    1    2    0    0  0.00000000000E+00  0.00000000000E+00 -0.94087684055E+03  0.33218233763E+04  0.31857905320E+04 0.  0.
        1    1    3    3  502    0 -0.58379102903E+03  0.14761806100E+04 -0.33291990618E+03  0.16219607957E+04  0.50400001928E-02 0. -1.
       -1    1    3    3    0  502  0.58379102903E+03 -0.14761806100E+04 -0.60795693437E+03  0.16998625806E+04  0.50400001928E-02 0.  1.
</event>
<event>
 5   0  0.2997105E-07  0.3226359E+04  0.7818609E-02  0.8181890E-01
        1   -1    0    0  501    0  0.00000000000E+00  0.00000000000E+00  0.20075195391E+04  0.20075195391E+04  0.50400001928E-02 0. -1.
       -1   -1    0    0    0  501  0.00000000000E+00  0.00000000000E+00 -0.12962999644E+04  0.12962999644E+04  0.50400001928E-02 0.  1.
    10030    2    1    2    0    0  0.00000000000E+00  0.00000000000E+00  0.71121957469E+03  0.33038195034E+04  0.32263586329E+04 0.  0.
        3    1    3    3  502    0 -0.59195625501E+02 -0.11207175513E+04 -0.83101956340E+03  0.13964617706E+04  0.10100000352E+00 0.  1.
       -3    1    3    3    0  502  0.59195625501E+02  0.11207175513E+04  0.15422391381E+04  0.19073577328E+04  0.10100000352E+00 0. -1.
</event>
<event>
 5   0  0.8802800E-07  0.3177250E+04  0.7818609E-02  0.8194851E-01
        2   -1    0    0  501    0  0.00000000000E+00  0.00000000000E+00  0.22068388914E+04  0.22068388914E+04  0.25500000920E-02 0. -1.
       -2   -1    0    0    0  501  0.00000000000E+00  0.00000000000E+00 -0.11435949942E+04  0.11435949942E+04  0.25500000920E-02 0.  1.
    10030    2    1    2    0    0  0.00000000000E+00  0.00000000000E+00  0.10632438972E+04  0.33504338856E+04  0.31772503264E+04 0.  0.
        5    1    3    3  502    0 -0.25111806605E+03  0.77468709590E+03  0.19699744232E+04  0.21316711045E+04  0.46999998093E+01 0. -1.
       -5    1    3    3    0  502  0.25111806605E+03 -0.77468709590E+03 -0.90673052603E+03  0.12187627811E+04  0.46999998093E+01 0.  1.
</event>
<event>
 5   0  0.8195618E-07  0.3255474E+04  0.7818609E-02  0.8174318E-01
        2   -1    0    0  501    0  0.00000000000E+00  0.00000000000E+00  0.23445604803E+04  0.23445604803E+04  0.25500000920E-02 0.  1.
       -2   -1    0    0    0  501  0.00000000000E+00  0.00000000000E+00 -0.11300745853E+04  0.11300745853E+04  0.25500000920E-02 0. -1.
    10030    2    1    2    0    0  0.00000000000E+00  0.00000000000E+00  0.12144858950E+04  0.34746350656E+04  0.32554742896E+04 0.  0.
        1    1    3    3  502    0  0.87898323411E+03 -0.31497104917E+03 -0.81582414801E+03  0.12399142423E+04  0.50400001928E-02 0. -1.
       -1    1    3    3    0  502 -0.87898323411E+03  0.31497104917E+03  0.20303100430E+04  0.22347208233E+04  0.50400001928E-02 0.  1.
</event>
<event>
 5   0  0.2783875E-07  0.3198158E+04  0.7818609E-02  0.8189304E-01
       -1   -1    0    0    0  501  0.00000000000E+00  0.00000000000E+00  0.23250506757E+04  0.23250506757E+04  0.50400001928E-02 0.  1.
        1   -1    0    0  501    0  0.00000000000E+00  0.00000000000E+00 -0.10997839540E+04  0.10997839540E+04  0.50400001928E-02 0. -1.
    10030    2    1    2    0    0  0.00000000000E+00  0.00000000000E+00  0.12252667217E+04  0.34248346297E+04  0.31981578606E+04 0.  0.
        2    1    3    3  502    0  0.57359008824E+03 -0.10739067920E+03  0.22069517468E+04  0.22827996759E+04  0.25500000920E-02 0.  1.
       -2    1    3    3    0  502 -0.57359008824E+03  0.10739067920E+03 -0.98168502507E+03  0.11420349538E+04  0.25500000920E-02 0. -1.
</event>
<event>
 5   0  0.8838951E-07  0.3191766E+04  0.7818609E-02  0.8190995E-01
       -2   -1    0    0    0  501  0.00000000000E+00  0.00000000000E+00  0.12719946416E+04  0.12719946416E+04  0.25500000920E-02 0. -1.
        2   -1    0    0  501    0  0.00000000000E+00  0.00000000000E+00 -0.20022429129E+04  0.20022429129E+04  0.25500000920E-02 0.  1.
    10030    2    1    2    0    0  0.00000000000E+00  0.00000000000E+00 -0.73024827131E+03  0.32742375545E+04  0.31917658162E+04 0.  0.
        2    1    3    3  502    0  0.96811505490E+03 -0.11854985307E+04 -0.82867249782E+03  0.17405032704E+04  0.25500000920E-02 0.  1.
       -2    1    3    3    0  502 -0.96811505490E+03  0.11854985307E+04  0.98424226514E+02  0.15337342841E+04  0.25500000920E-02 0. -1.
</event>
<event>
 5   0  0.8195618E-07  0.3198710E+04  0.7818609E-02  0.8189158E-01
       -2   -1    0    0    0  501  0.00000000000E+00  0.00000000000E+00  0.11387712750E+04  0.11387712750E+04  0.25500000920E-02 0.  1.
        2   -1    0    0  501    0  0.00000000000E+00  0.00000000000E+00 -0.22462252192E+04  0.22462252192E+04  0.25500000920E-02 0. -1.
    10030    2    1    2    0    0  0.00000000000E+00  0.00000000000E+00 -0.11074539442E+04  0.33849964943E+04  0.31987102132E+04 0.  0.
        1    1    3    3  502    0 -0.43202482220E+03 -0.90075274761E+03  0.76798458790E+03  0.12600798731E+04  0.50400001928E-02 0.  1.
       -1    1    3    3    0  502  0.43202482220E+03  0.90075274761E+03 -0.18754385321E+04  0.21249166212E+04  0.50400001928E-02 0. -1.
</event>
<event>
 5   0  0.2783875E-07  0.3205141E+04  0.7818609E-02  0.8187461E-01
       -1   -1    0    0    0  501  0.00000000000E+00  0.00000000000E+00  0.14818390727E+04  0.14818390727E+04  0.50400001928E-02 0. -1.
        1   -1    0    0  501    0  0.00000000000E+00  0.00000000000E+00 -0.17331387217E+04  0.17331387217E+04  0.50400001928E-02 0.  1.
    10030    2    1    2    0    0  0.00000000000E+00  0.00000000000E+00 -0.25129964902E+03  0.32149777945E+04  0.32051412926E+04 0.  0.
        2    1    3    3  502    0 -0.11607418549E+04  0.63542268210E+03  0.78108737873E+03  0.15366135272E+04  0.25500000920E-02 0. -1.
       -2    1    3    3    0  502  0.11607418549E+04 -0.63542268210E+03 -0.10323870277E+04  0.16783642673E+04  0.25500000920E-02 0.  1.
</event>
<event>
 5   0  0.2891204E-07  0.3188194E+04  0.7818609E-02  0.8191942E-01
        1   -1    0    0  501    0  0.00000000000E+00  0.00000000000E+00  0.24033439430E+04  0.24033439430E+04  0.50400001928E-02 0. -1.
       -1   -1    0    0    0  501  0.00000000000E+00  0.00000000000E+00 -0.10573370390E+04  0.10573370390E+04  0.50400001928E-02 0.  1.
    10030    2    1    2    0    0  0.00000000000E+00  0.00000000000E+00  0.13460069040E+04  0.34606809820E+04  0.31881935753E+04 0.  0.
        4    1    3    3  502    0 -0.19712295574E+03 -0.32520639797E+03 -0.10073784027E+04  0.10767680902E+04  0.12699999809E+01 0.  1.
       -4    1    3    3    0  502  0.19712295574E+03  0.32520639797E+03  0.23533853067E+04  0.23839128918E+04  0.12699999809E+01 0. -1.
</event>
<event>
 5   0  0.8802800E-07  0.3197891E+04  0.7818609E-02  0.8189374E-01
        2   -1    0    0  501    0  0.00000000000E+00  0.00000000000E+00  0.15212326280E+04  0.15212326280E+04  0.25500000920E-02 0. -1.
       -2   -1    0    0    0  501  0.00000000000E+00  0.00000000000E+00 -0.16806284103E+04  0.16806284103E+04  0.25500000920E-02 0.  1.
    10030    2    1    2    0    0  0.00000000000E+00  0.00000000000E+00 -0.15939578225E+03  0.32018610383E+04  0.31978910384E+04 0.  0.
        5    1    3    3  502    0 -0.78621423123E+03 -0.31145889222E+03  0.12789927327E+04  0.15332918702E+04  0.46999998093E+01 0. -1.
       -5    1    3    3    0  502  0.78621423123E+03  0.31145889222E+03 -0.14383885149E+04  0.16685691681E+04  0.46999998093E+01 0.  1.
</event>
<event>
 5   0  0.2997105E-07  0.3171893E+04  0.7818609E-02  0.8196280E-01
       -1   -1    0    0    0  501  0.00000000000E+00  0.00000000000E+00  0.11893115792E+04  0.11893115792E+04  0.50400001928E-02 0. -1.
        1   -1    0    0  501    0  0.00000000000E+00  0.00000000000E+00 -0.21148586945E+04  0.21148586945E+04  0.50400001928E-02 0.  1.
    10030    2    1    2    0    0  0.00000000000E+00  0.00000000000E+00 -0.92554711529E+03  0.33041702736E+04  0.31718927685E+04 0.  0.
        3    1    3    3  502    0 -0.16224817190E+03  0.15359290225E+04 -0.83810985592E+03  0.17572224026E+04  0.10100000352E+00 0.  1.
       -3    1    3    3    0  502  0.16224817190E+03 -0.15359290225E+04 -0.87437259367E+02  0.15469478711E+04  0.10100000352E+00 0. -1.
</event>
<event>
 5   0  0.2997105E-07  0.3199821E+04  0.7818609E-02  0.8188864E-01
        1   -1    0    0  501    0  0.00000000000E+00  0.00000000000E+00  0.23263197226E+04  0.23263197226E+04  0.50400001928E-02 0.  1.
       -1   -1    0    0    0  501  0.00000000000E+00  0.00000000000E+00 -0.11003276872E+04  0.11003276872E+04  0.50400001928E-02 0. -1.
    10030    2    1    2    0    0  0.00000000000E+00  0.00000000000E+00  0.12259920354E+04  0.34266474098E+04  0.31998212451E+04 0.  0.
        3    1    3    3  502    0  0.90595826114E+03 -0.49277193840E+03 -0.69687425368E+03  0.12446759779E+04  0.10100000352E+00 0. -1.
       -3    1    3    3    0  502 -0.90595826114E+03  0.49277193840E+03  0.19228662890E+04  0.21819714320E+04  0.10100000352E+00 0.  1.
</event>
<event>
 5   0  0.8488469E-07  0.3185580E+04  0.7818609E-02  0.8192636E-01
        2   -1    0    0  501    0  0.00000000000E+00  0.00000000000E+00  0.21293663300E+04  0.21293663300E+04  0.25500000920E-02 0.  1.
       -2   -1    0    0    0  501  0.00000000000E+00  0.00000000000E+00 -0.11914249634E+04  0.11914249634E+04  0.25500000920E-02 0. -1.
    10030    2    1    2    0    0  0.00000000000E+00  0.00000000000E+00  0.93794136663E+03  0.33207912934E+04  0.31855801367E+04 0.  0.
        3    1    3    3  502    0 -0.20684553674E+03  0.53659952498E+03  0.20173629919E+04  0.20977315313E+04  0.10100000352E+00 0.  1.
       -3    1    3    3    0  502  0.20684553674E+03 -0.53659952498E+03 -0.10794216253E+04  0.12230597621E+04  0.10100000352E+00 0. -1.
</event>
<event>
 5   0  0.8802800E-07  0.3196742E+04  0.7818609E-02  0.8189678E-01
       -2   -1    0    0    0  501  0.00000000000E+00  0.00000000000E+00  0.11028193636E+04  0.11028193636E+04  0.25500000920E-02 0. -1.
        2   -1    0    0  501    0  0.00000000000E+00  0.00000000000E+00 -0.23165981622E+04  0.23165981622E+04  0.25500000920E-02 0.  1.
    10030    2    1    2    0    0  0.00000000000E+00  0.00000000000E+00 -0.12137787986E+04  0.34194175258E+04  0.31967416604E+04 0.  0.
        5    1    3    3  502    0  0.68586679403E+03 -0.73769258778E+03 -0.19343695044E+04  0.21809197791E+04  0.46999998093E+01 0.  1.
       -5    1    3    3    0  502 -0.68586679403E+03  0.73769258778E+03  0.72059070580E+03  0.12384977467E+04  0.46999998093E+01 0. -1.
</event>
<event>
 5   0  0.3075756E-07  0.3205308E+04  0.7818609E-02  0.8187417E-01
       -1   -1    0    0    0  501  0.00000000000E+00  0.00000000000E+00  0.12683410867E+04  0.12683410867E+04  0.50400001928E-02 0.  1.
        1   -1    0    0  501    0  0.00000000000E+00  0.00000000000E+00 -0.20250865345E+04  0.20250865345E+04  0.50400001928E-02 0. -1.
    10030    2    1    2    0    0  0.00000000000E+00  0.00000000000E+00 -0.75674544775E+03  0.32934276212E+04  0.32053083819E+04 0.  0.
        5    1    3    3  502    0  0.65487233933E+03  0.63640254157E+03  0.97488192080E+03  0.13357704987E+04  0.46999998093E+01 0.  1.
       -5    1    3    3    0  502 -0.65487233933E+03 -0.63640254157E+03 -0.17316273685E+04  0.19576571225E+04  0.46999998093E+01 0. -1.
</event>
<event>
 5   0  0.2783875E-07  0.3135318E+04  0.7818609E-02  0.8206111E-01
        1   -1    0    0  501    0  0.00000000000E+00  0.00000000000E+00  0.27799171643E+04  0.27799171643E+04  0.50400001928E-02 0.  1.
       -1   -1    0    0    0  501  0.00000000000E+00  0.00000000000E+00 -0.88403900486E+03  0.88403900487E+03  0.50400001928E-02 0. -1.
    10030    2    1    2    0    0  0.00000000000E+00  0.00000000000E+00  0.18958781595E+04  0.36639561692E+04  0.31353182955E+04 0.  0.
        2    1    3    3  502    0 -0.81275871809E+03 -0.23841907896E+03 -0.59361967038E+03  0.10343136391E+04  0.25500000920E-02 0. -1.
       -2    1    3    3    0  502  0.81275871809E+03  0.23841907896E+03  0.24894978299E+04  0.26296425301E+04  0.25500000920E-02 0.  1.
</event>
<event>
 5   0  0.8335929E-07  0.3193640E+04  0.7818609E-02  0.8190499E-01
       -2   -1    0    0    0  501  0.00000000000E+00  0.00000000000E+00  0.11077356040E+04  0.11077356040E+04  0.25500000920E-02 0.  1.
        2   -1    0    0  501    0  0.00000000000E+00  0.00000000000E+00 -0.23018431454E+04  0.23018431454E+04  0.25500000920E-02 0. -1.
    10030    2    1    2    0    0  0.00000000000E+00  0.00000000000E+00 -0.11941075414E+04  0.34095787494E+04  0.31936396834E+04 0.  0.
        4    1    3    3  502    0  0.85884143673E+03 -0.75600947131E+03 -0.17862225141E+04  0.21212617511E+04  0.12699999809E+01 0. -1.
       -4    1    3    3    0  502 -0.85884143673E+03  0.75600947131E+03  0.59211497266E+03  0.12883169982E+04  0.12699999809E+01 0.  1.
</event>
<event>
 5   0  0.8802800E-07  0.3197008E+04  0.7818609E-02  0.8189608E-01
       -2   -1    0    0    0  501  0.00000000000E+00  0.00000000000E+00  0.12908268215E+04  0.12908268215E+04  0.25500000920E-02 0.  1.
        2   -1    0    0  501    0  0.00000000000E+00  0.00000000000E+00 -0.19795177038E+04  0.19795177038E+04  0.25500000920E-02 0. -1.
    10030    2    1    2    0    0  0.00000000000E+00  0.00000000000E+00 -0.68869088224E+03  0.32703445253E+04  0.31970076920E+04 0.  0.
        5    1    3    3  502    0  0.26243138182E+03 -0.64628491780E+03 -0.18156144209E+04  0.19450018613E+04  0.46999998093E+01 0. -1.
       -5    1    3    3    0  502 -0.26243138182E+03  0.64628491780E+03  0.11269235386E+04  0.13253426640E+04  0.46999998093E+01 0.  1.
</event>
<event>
 5   0  0.3013888E-07  0.3171935E+04  0.7818609E-02  0.8196269E-01
       -1   -1    0    0    0  501  0.00000000000E+00  0.00000000000E+00  0.11935566413E+04  0.11935566413E+04  0.50400001928E-02 0. -1.
        1   -1    0    0  501    0  0.00000000000E+00  0.00000000000E+00 -0.21073926613E+04  0.21073926613E+04  0.50400001928E-02 0.  1.
    10030    2    1    2    0    0  0.00000000000E+00  0.00000000000E+00 -0.91383601997E+03  0.33009493026E+04  0.31719347450E+04 0.  0.
        1    1    3    3  502    0 -0.11340415525E+04  0.30496156507E+03 -0.15662199752E+04  0.19575742157E+04  0.50400001928E-02 0.  1.
       -1    1    3    3    0  502  0.11340415525E+04 -0.30496156507E+03  0.65238395525E+03  0.13433750869E+04  0.50400001928E-02 0. -1.
</event>
<event>
 5   0  0.8838951E-07  0.3199383E+04  0.7818609E-02  0.8188980E-01
        2   -1    0    0  501    0  0.00000000000E+00  0.00000000000E+00  0.15262580548E+04  0.15262580548E+04  0.25500000920E-02 0.  1.
       -2   -1    0    0    0  501  0.00000000000E+00  0.00000000000E+00 -0.16766583480E+04  0.16766583480E+04  0.25500000920E-02 0. -1.
    10030    2    1    2    0    0  0.00000000000E+00  0.00000000000E+00 -0.15040029319E+03  0.32029164028E+04  0.31993832585E+04 0.  0.
        2    1    3    3  502    0  0.14117282481E+03  0.42559527833E+02 -0.16698409357E+04  0.16763382207E+04  0.25500000920E-02 0. -1.
       -2    1    3    3    0  502 -0.14117282481E+03 -0.42559527833E+02  0.15194406425E+04  0.15265781820E+04  0.25500000920E-02 0.  1.
</event>
<event>
 5   0  0.2783875E-07  0.3198905E+04  0.7818609E-02  0.8189106E-01
       -1   -1    0    0    0  501  0.00000000000E+00  0.00000000000E+00  0.17335862998E+04  0.17335862998E+04  0.50400001928E-02 0.  1.
        1   -1    0    0  501    0  0.00000000000E+00  0.00000000000E+00 -0.14756972250E+04  0.14756972250E+04  0.50400001928E-02 0. -1.
    10030    2    1    2    0    0  0.00000000000E+00  0.00000000000E+00  0.25788907483E+03  0.32092835248E+04  0.31989051202E+04 0.  0.
        2    1    3    3  502    0 -0.40182279139E+03 -0.43640810743E+02  0.16815060830E+04  0.17294012788E+04  0.25500000920E-02 0.  1.
       -2    1    3    3    0  502  0.40182279139E+03  0.43640810743E+02 -0.14236170082E+04  0.14798822460E+04  0.25500000920E-02 0. -1.
</event>
<event>
 5   0  0.8195618E-07  0.3201707E+04  0.7818609E-02  0.8188366E-01
       -2   -1    0    0    0  501  0.00000000000E+00  0.00000000000E+00  0.18541727730E+04  0.18541727730E+04  0.25500000920E-02 0. -1.
        2   -1    0    0  501    0  0.00000000000E+00  0.00000000000E+00 -0.13821432809E+04  0.13821432809E+04  0.25500000920E-02 0.  1.
    10030    2    1    2    0    0  0.00000000000E+00  0.00000000000E+00  0.47202949202E+03  0.32363160539E+04  0.32017073194E+04 0.  0.
        1    1    3    3  502    0  0.36460038580E+03  0.59747647638E+03 -0.12192773944E+04  0.14058979144E+04  0.50400001928E-02 0.  1.
       -1    1    3    3    0  502 -0.36460038580E+03 -0.59747647638E+03  0.16913068865E+04  0.18304181395E+04  0.50400001928E-02 0. -1.
</event>
<event>
 5   0  0.2997105E-07  0.3211180E+04  0.7818609E-02  0.8185871E-01
        1   -1    0    0  501    0  0.00000000000E+00  0.00000000000E+00  0.86538205304E+03  0.86538205306E+03  0.50400001928E-02 0.  1.
       -1   -1    0    0    0  501  0.00000000000E+00  0.00000000000E+00 -0.29789380826E+04  0.29789380826E+04  0.50400001928E-02 0. -1.
    10030    2    1    2    0    0  0.00000000000E+00  0.00000000000E+00 -0.21135560296E+04  0.38443201357E+04  0.32111801904E+04 0.  0.
        3    1    3    3  502    0  0.60928863878E+03  0.14846679650E+04 -0.99754626884E+03  0.18895952425E+04  0.10100000352E+00 0.  1.
       -3    1    3    3    0  502 -0.60928863878E+03 -0.14846679650E+04 -0.11160097608E+04  0.19547248932E+04  0.10100000352E+00 0. -1.
</event>
<event>
 5   0  0.2997105E-07  0.3197245E+04  0.7818609E-02  0.8189545E-01
        1   -1    0    0  501    0  0.00000000000E+00  0.00000000000E+00  0.20017353727E+04  0.20017353727E+04  0.50400001928E-02 0. -1.
       -1   -1    0    0    0  501  0.00000000000E+00  0.00000000000E+00 -0.12766894275E+04  0.12766894275E+04  0.50400001928E-02 0.  1.
    10030    2    1    2    0    0  0.00000000000E+00  0.00000000000E+00  0.72504594523E+03  0.32784248002E+04  0.31972453062E+04 0.  0.
        3    1    3    3  502    0 -0.79179862012E+02 -0.10916386538E+04 -0.83224390999E+03  0.13749815769E+04  0.10100000352E+00 0.  1.
       -3    1    3    3    0  502  0.79179862012E+02  0.10916386538E+04  0.15572898552E+04  0.19034432233E+04  0.10100000352E+00 0. -1.
</event>
<event>
 5   0  0.8335929E-07  0.3118366E+04  0.7818609E-02  0.8210716E-01
        2   -1    0    0  501    0  0.00000000000E+00  0.00000000000E+00  0.17334844690E+04  0.17334844690E+04  0.25500000920E-02 0. -1.
       -2   -1    0    0    0  501  0.00000000000E+00  0.00000000000E+00 -0.14024072127E+04  0.14024072127E+04  0.25500000920E-02 0.  1.
    10030    2    1    2    0    0  0.00000000000E+00  0.00000000000E+00  0.33107725622E+03  0.31358916817E+04  0.31183656761E+04 0.  0.
        4    1    3    3  502    0  0.14087099391E+03  0.50429808231E+03  0.16424275763E+04  0.17238709780E+04  0.12699999809E+01 0. -1.
       -4    1    3    3    0  502 -0.14087099391E+03 -0.50429808231E+03 -0.13113503201E+04  0.14120207037E+04  0.12699999809E+01 0.  1.
</event>
<event>
 5   0  0.8195618E-07  0.3200512E+04  0.7818609E-02  0.8188682E-01
       -2   -1    0    0    0  501  0.00000000000E+00  0.00000000000E+00  0.12980184254E+04  0.12980184255E+04  0.25500000920E-02 0.  1.
        2   -1    0    0  501    0  0.00000000000E+00  0.00000000000E+00 -0.19728681118E+04  0.19728681118E+04  0.25500000920E-02 0. -1.
    10030    2    1    2    0    0  0.00000000000E+00  0.00000000000E+00 -0.67484968632E+03  0.32708865372E+04  0.32005119341E+04 0.  0.
        1    1    3    3  502    0 -0.63258952402E+02  0.10364538729E+04  0.90696145117E+03  0.13787013453E+04  0.50400001928E-02 0.  1.
       -1    1    3    3    0  502  0.63258952402E+02 -0.10364538729E+04 -0.15818111375E+04  0.18921851919E+04  0.50400001928E-02 0. -1.
</event>
<event>
 5   0  0.2783875E-07  0.3204186E+04  0.7818609E-02  0.8187713E-01
        4   -1    0    0  501    0  0.00000000000E+00  0.00000000000E+00  0.14953456628E+04  0.14953462021E+04  0.12699999809E+01 0. -1.
       -4   -1    0    0    0  501  0.00000000000E+00  0.00000000000E+00 -0.17164595182E+04  0.17164599881E+04  0.12699999809E+01 0.  1.
    10030    2    1    2    0    0  0.00000000000E+00  0.00000000000E+00 -0.22111385543E+03  0.32118061901E+04  0.32041859600E+04 0.  0.
        4    1    3    3  502    0 -0.41124330466E+03 -0.22804511771E+03 -0.16457261306E+04  0.17115904128E+04  0.12699999809E+01 0.  1.
       -4    1    3    3    0  502  0.41124330466E+03  0.22804511771E+03  0.14246122751E+04  0.15002157774E+04  0.12699999809E+01 0. -1.
</event>
<event>
 5   0  0.2891204E-07  0.3269311E+04  0.7818609E-02  0.8170748E-01
       -1   -1    0    0    0  501  0.00000000000E+00  0.00000000000E+00  0.14749856302E+04  0.14749856302E+04  0.50400001928E-02 0.  1.
        1   -1    0    0  501    0  0.00000000000E+00  0.00000000000E+00 -0.18116103082E+04  0.18116103082E+04  0.50400001928E-02 0. -1.
    10030    2    1    2    0    0  0.00000000000E+00  0.00000000000E+00 -0.33662467799E+03  0.32865959384E+04  0.32693113478E+04 0.  0.
        4    1    3    3  502    0 -0.67572438156E+03 -0.83512726123E+03  0.10702960330E+04  0.15164353575E+04  0.12699999809E+01 0.  1.
       -4    1    3    3    0  502  0.67572438156E+03  0.83512726123E+03 -0.14069207110E+04  0.17701605809E+04  0.12699999809E+01 0. -1.
</event>
<event>
 5   0  0.3075756E-07  0.3194579E+04  0.7818609E-02  0.8190250E-01
        1   -1    0    0  501    0  0.00000000000E+00  0.00000000000E+00  0.19223404767E+04  0.19223404767E+04  0.50400001928E-02 0.  1.
       -1   -1    0    0    0  501  0.00000000000E+00  0.00000000000E+00 -0.13272015316E+04  0.13272015316E+04  0.50400001928E-02 0. -1.
    10030    2    1    2    0    0  0.00000000000E+00  0.00000000000E+00  0.59513894510E+03  0.32495420083E+04  0.31945786733E+04 0.  0.
        5    1    3    3  502    0 -0.53536239557E+02  0.82358662217E+03 -0.10934935232E+04  0.13700040980E+04  0.46999998093E+01 0. -1.
       -5    1    3    3    0  502  0.53536239557E+02 -0.82358662217E+03  0.16886324683E+04  0.18795379103E+04  0.46999998093E+01 0.  1.
</event>
<event>
 5   0  0.8838951E-07  0.3198798E+04  0.7818609E-02  0.8189135E-01
        2   -1    0    0  501    0  0.00000000000E+00  0.00000000000E+00  0.26455511074E+04  0.26455511074E+04  0.25500000920E-02 0. -1.
       -2   -1    0    0    0  501  0.00000000000E+00  0.00000000000E+00 -0.96693525151E+03  0.96693525151E+03  0.25500000920E-02 0.  1.
    10030    2    1    2    0    0  0.00000000000E+00  0.00000000000E+00  0.16786158559E+04  0.36124863589E+04  0.31987976650E+04 0.  0.
        2    1    3    3  502    0  0.12327363251E+04 -0.10189889994E+04  0.85055577611E+03  0.18114697227E+04  0.25500000920E-02 0. -1.
       -2    1    3    3    0  502 -0.12327363251E+04  0.10189889994E+04  0.82806007976E+03  0.18010166362E+04  0.25500000920E-02 0.  1.
</event>
<event>
 5   0  0.2891204E-07  0.3172317E+04  0.7818609E-02  0.8196167E-01
       -1   -1    0    0    0  501  0.00000000000E+00  0.00000000000E+00  0.12372573879E+04  0.12372573879E+04  0.50400001928E-02 0.  1.
        1   -1    0    0  501    0  0.00000000000E+00  0.00000000000E+00 -0.20334482221E+04  0.20334482221E+04  0.50400001928E-02 0. -1.
    10030    2    1    2    0    0  0.00000000000E+00  0.00000000000E+00 -0.79619083423E+03  0.32707056100E+04  0.31723170306E+04 0.  0.
        4    1    3    3  502    0 -0.14117448496E+03  0.29022300780E+03  0.12030467668E+04  0.12455853104E+04  0.12699999809E+01 0.  1.
       -4    1    3    3    0  502  0.14117448496E+03 -0.29022300780E+03 -0.19992376010E+04  0.20251202996E+04  0.12699999809E+01 0. -1.
</event>
<event>
 5   0  0.8802800E-07  0.3211297E+04  0.7818609E-02  0.8185840E-01
       -2   -1    0    0    0  501  0.00000000000E+00  0.00000000000E+00  0.10843648903E+04  0.10843648903E+04  0.25500000920E-02 0.  1.
        2   -1    0    0  501    0  0.00000000000E+00  0.00000000000E+00 -0.23775276318E+04  0.23775276318E+04  0.25500000920E-02 0. -1.
    10030    2    1    2    0    0  0.00000000000E+00  0.00000000000E+00 -0.12931627415E+04  0.34618925221E+04  0.32112972392E+04 0.  0.
        5    1    3    3  502    0 -0.62394061640E+03 -0.12856645045E+04  0.14255999516E+03  0.14361687064E+04  0.46999998093E+01 0.  1.
       -5    1    3    3    0  502  0.62394061640E+03  0.12856645045E+04 -0.14357227367E+04  0.20257238157E+04  0.46999998093E+01 0. -1.
</event>
<event>
 5   0  0.3075756E-07  0.3208448E+04  0.7818609E-02  0.8186590E-01
        1   -1    0    0  501    0  0.00000000000E+00  0.00000000000E+00  0.20413473390E+04  0.20413473390E+04  0.50400001928E-02 0. -1.
       -1   -1    0    0    0  501  0.00000000000E+00  0.00000000000E+00 -0.12607037367E+04  0.12607037367E+04  0.50400001928E-02 0.  1.
    10030    2    1    2    0    0  0.00000000000E+00  0.00000000000E+00  0.78064360230E+03  0.33020510757E+04  0.32084477357E+04 0.  0.
        5    1    3    3  502    0  0.10135374337E+04 -0.37488526283E+03 -0.82989629911E+03  0.13625516677E+04  0.46999998093E+01 0.  1.
       -5    1    3    3    0  502 -0.10135374337E+04  0.37488526283E+03  0.16105399014E+04  0.19394994081E+04  0.46999998093E+01 0. -1.
</event>
<event>
 5   0  0.3013888E-07  0.3216981E+04  0.7818609E-02  0.8184347E-01
        1   -1    0    0  501    0  0.00000000000E+00  0.00000000000E+00  0.21692331753E+04  0.21692331753E+04  0.50400001928E-02 0.  1.
       -1   -1    0    0    0  501  0.00000000000E+00  0.00000000000E+00 -0.11926988526E+04  0.11926988526E+04  0.50400001928E-02 0. -1.
    10030    2    1    2    0    0  0.00000000000E+00  0.00000000000E+00  0.97653432273E+03  0.33619320279E+04  0.32169811434E+04 0.  0.
        1    1    3    3  502    0  0.25300276145E+03  0.15671175185E+04  0.75952808792E+03  0.17597586853E+04  0.50400001928E-02 0.  1.
       -1    1    3    3    0  502 -0.25300276145E+03 -0.15671175185E+04  0.21700623481E+03  0.16021733427E+04  0.50400001928E-02 0. -1.
</event>
<event>
 5   0  0.8838951E-07  0.3138521E+04  0.7818609E-02  0.8205245E-01
        2   -1    0    0  501    0  0.00000000000E+00  0.00000000000E+00  0.26012057618E+04  0.26012057618E+04  0.25500000920E-02 0. -1.
       -2   -1    0    0    0  501  0.00000000000E+00  0.00000000000E+00 -0.94670660688E+03  0.94670660688E+03  0.25500000920E-02 0.  1.
    10030    2    1    2    0    0  0.00000000000E+00  0.00000000000E+00  0.16544991550E+04  0.35479123687E+04  0.31385211043E+04 0.  0.
        2    1    3    3  502    0  0.12463451452E+04 -0.65472027832E+03  0.16108854850E+04  0.21393893777E+04  0.25500000920E-02 0. -1.
       -2    1    3    3    0  502 -0.12463451452E+04  0.65472027832E+03  0.43613669987E+02  0.14085229910E+04  0.25500000920E-02 0.  1.
</event>
<event>
 5   0  0.3075756E-07  0.3218368E+04  0.7818609E-02  0.8183983E-01
        1   -1    0    0  501    0  0.00000000000E+00  0.00000000000E+00  0.32441575971E+04  0.32441575971E+04  0.50400001928E-02 0. -1.
       -1   -1    0    0    0  501  0.00000000000E+00  0.00000000000E+00 -0.79819563900E+03  0.79819563901E+03  0.50400001928E-02 0.  1.
    10030    2    1    2    0    0  0.00000000000E+00  0.00000000000E+00  0.24459619581E+04  0.40423532362E+04  0.32183675653E+04 0.  0.
        5    1    3    3  502    0  0.98295659203E+03 -0.25386644250E+03 -0.34519071805E+03  0.10723015221E+04  0.46999998093E+01 0.  1.
       -5    1    3    3    0  502 -0.98295659203E+03  0.25386644250E+03  0.27911526762E+04  0.29700517141E+04  0.46999998093E+01 0. -1.
</event>
<event>
 5   0  0.8195618E-07  0.3196596E+04  0.7818609E-02  0.8189717E-01
       -2   -1    0    0    0  501  0.00000000000E+00  0.00000000000E+00  0.17647394671E+04  0.17647394671E+04  0.25500000920E-02 0.  1.
        2   -1    0    0  501    0  0.00000000000E+00  0.00000000000E+00 -0.14475546958E+04  0.14475546958E+04  0.25500000920E-02 0. -1.
    10030    2    1    2    0    0  0.00000000000E+00  0.00000000000E+00  0.31718477128E+03  0.32122941629E+04  0.31965962538E+04 0.  0.
        1    1    3    3  502    0  0.25895464967E+03 -0.45720066105E+03  0.16754642252E+04  0.17559243506E+04  0.50400001928E-02 0.  1.
       -1    1    3    3    0  502 -0.25895464967E+03  0.45720066105E+03 -0.13582794539E+04  0.14563698123E+04  0.50400001928E-02 0. -1.
</event>
<event>
 5   0  0.3013888E-07  0.3192920E+04  0.7818609E-02  0.8190689E-01
        1   -1    0    0  501    0  0.00000000000E+00  0.00000000000E+00  0.29062754592E+04  0.29062754592E+04  0.50400001928E-02 0.  1.
       -1   -1    0    0    0  501  0.00000000000E+00  0.00000000000E+00 -0.87695901934E+03  0.87695901936E+03  0.50400001928E-02 0. -1.
    10030    2    1    2    0    0  0.00000000000E+00  0.00000000000E+00  0.20293164399E+04  0.37832344786E+04  0.31929199656E+04 0.  0.
        1    1    3    3  502    0 -0.96443788325E+03  0.37375736142E+02  0.25214387146E+04  0.26998501010E+04  0.50400001928E-02 0.  1.
       -1    1    3    3    0  502  0.96443788325E+03 -0.37375736142E+02 -0.49212227472E+03  0.10833843776E+04  0.50400001928E-02 0. -1.
</event>
<event>
 5   0  0.2783875E-07  0.3203589E+04  0.7818609E-02  0.8187870E-01
       -1   -1    0    0    0  501  0.00000000000E+00  0.00000000000E+00  0.12205185703E+04  0.12205185703E+04  0.50400001928E-02 0.  1.
        1   -1    0    0  501    0  0.00000000000E+00  0.00000000000E+00 -0.21021770094E+04  0.21021770094E+04  0.50400001928E-02 0. -1.
    10030    2    1    2    0    0  0.00000000000E+00  0.00000000000E+00 -0.88165843912E+03  0.33226955796E+04  0.32035892857E+04 0.  0.
        2    1    3    3  502    0  0.15745623503E+04  0.28896529835E+03 -0.49762402295E+03  0.16764179690E+04  0.25500000920E-02 0.  1.
       -2    1    3    3    0  502 -0.15745623503E+04 -0.28896529835E+03 -0.38403441616E+03  0.16462776107E+04  0.25500000920E-02 0. -1.
</event>
<event>
 5   0  0.8335929E-07  0.3200159E+04  0.7818609E-02  0.8188775E-01
        2   -1    0    0  501    0  0.00000000000E+00  0.00000000000E+00  0.14842350541E+04  0.14842350541E+04  0.25500000920E-02 0.  1.
       -2   -1    0    0    0  501  0.00000000000E+00  0.00000000000E+00 -0.17249651937E+04  0.17249651937E+04  0.25500000920E-02 0. -1.
    10030    2    1    2    0    0  0.00000000000E+00  0.00000000000E+00 -0.24073013958E+03  0.32092002478E+04  0.32001586258E+04 0.  0.
        4    1    3    3  502    0  0.44302730577E+03 -0.14610256112E+04  0.35992773533E+03  0.15685721590E+04  0.12699999809E+01 0.  1.
       -4    1    3    3    0  502 -0.44302730577E+03  0.14610256112E+04 -0.60065787491E+03  0.16406280888E+04  0.12699999809E+01 0. -1.
</event>
<event>
 5   0  0.8838951E-07  0.3191669E+04  0.7818609E-02  0.8191021E-01
        2   -1    0    0  501    0  0.00000000000E+00  0.00000000000E+00  0.19360461280E+04  0.19360461280E+04  0.25500000920E-02 0.  1.
       -2   -1    0    0    0  501  0.00000000000E+00  0.00000000000E+00 -0.13154066657E+04  0.13154066657E+04  0.25500000920E-02 0. -1.
    10030    2    1    2    0    0  0.00000000000E+00  0.00000000000E+00  0.62063946232E+03  0.32514527937E+04  0.31916691444E+04 0.  0.
        2    1    3    3  502    0  0.37995481156E+03 -0.12726272087E+04 -0.59097948428E+03  0.14536858058E+04  0.25500000920E-02 0. -1.
       -2    1    3    3    0  502 -0.37995481156E+03  0.12726272087E+04  0.12116189466E+04  0.17977669879E+04  0.25500000920E-02 0.  1.
</event>
<event>
 5   0  0.8335929E-07  0.3205229E+04  0.7818609E-02  0.8187438E-01
       -2   -1    0    0    0  501  0.00000000000E+00  0.00000000000E+00  0.13152518749E+04  0.13152518749E+04  0.25500000920E-02 0.  1.
        2   -1    0    0  501    0  0.00000000000E+00  0.00000000000E+00 -0.19527611507E+04  0.19527611507E+04  0.25500000920E-02 0. -1.
    10030    2    1    2    0    0  0.00000000000E+00  0.00000000000E+00 -0.63750927578E+03  0.32680130256E+04  0.32052287061E+04 0.  0.
        4    1    3    3  502    0 -0.24274985030E+03  0.12903397335E+04  0.61819469308E+03  0.14512306533E+04  0.12699999809E+01 0.  1.
       -4    1    3    3    0  502  0.24274985030E+03 -0.12903397335E+04 -0.12557039689E+04  0.18167823722E+04  0.12699999809E+01 0. -1.
</event>
<event>
 5   0  0.2783875E-07  0.3181972E+04  0.7818609E-02  0.8193595E-01
        1   -1    0    0  501    0  0.00000000000E+00  0.00000000000E+00  0.15766237360E+04  0.15766237360E+04  0.50400001928E-02 0. -1.
       -1   -1    0    0    0  501  0.00000000000E+00  0.00000000000E+00 -0.16054791559E+04  0.16054791559E+04  0.50400001928E-02 0.  1.
    10030    2    1    2    0    0  0.00000000000E+00  0.00000000000E+00 -0.28855419916E+02  0.31821028919E+04  0.31819720582E+04 0.  0.
        2    1    3    3  502    0  0.15757061757E+04 -0.21995367747E+03 -0.17068380217E+02  0.15910753916E+04  0.25500000920E-02 0. -1.
       -2    1    3    3    0  502 -0.15757061757E+04  0.21995367747E+03 -0.11787039698E+02  0.15910275003E+04  0.25500000920E-02 0.  1.
</event>
<event>
 5   0  0.8195618E-07  0.3197491E+04  0.7818609E-02  0.8189480E-01
        2   -1    0    0  501    0  0.00000000000E+00  0.00000000000E+00  0.23171907402E+04  0.23171907402E+04  0.25500000920E-02 0. -1.
       -2   -1    0    0    0  501  0.00000000000E+00  0.00000000000E+00 -0.11030541631E+04  0.11030541631E+04  0.25500000920E-02 0.  1.
    10030    2    1    2    0    0  0.00000000000E+00  0.00000000000E+00  0.12141365771E+04  0.34202449033E+04  0.31974908242E+04 0.  0.
        1    1    3    3  502    0 -0.11085702509E+04 -0.83404140261E+03 -0.24291780557E+03  0.14083899044E+04  0.50400001928E-02 0.  1.
       -1    1    3    3    0  502  0.11085702509E+04  0.83404140261E+03  0.14570543826E+04  0.20118549989E+04  0.50400001928E-02 0. -1.
</event>
<event>
 5   0  0.2891204E-07  0.3203158E+04  0.7818609E-02  0.8187984E-01
        1   -1    0    0  501    0  0.00000000000E+00  0.00000000000E+00  0.15169878622E+04  0.15169878622E+04  0.50400001928E-02 0. -1.
       -1   -1    0    0    0  501  0.00000000000E+00  0.00000000000E+00 -0.16908869336E+04  0.16908869336E+04  0.50400001928E-02 0.  1.
    10030    2    1    2    0    0  0.00000000000E+00  0.00000000000E+00 -0.17389907144E+03  0.32078747958E+04  0.32031577886E+04 0.  0.
        4    1    3    3  502    0  0.15188276094E+04 -0.25023589396E+03  0.35596641117E+03  0.15799268997E+04  0.12699999809E+01 0.  1.
       -4    1    3    3    0  502 -0.15188276094E+04  0.25023589396E+03 -0.52986548261E+03  0.16279478961E+04  0.12699999809E+01 0. -1.
</event>
<event>
 5   0  0.2783875E-07  0.3139264E+04  0.7818609E-02  0.8205044E-01
        1   -1    0    0  501    0  0.00000000000E+00  0.00000000000E+00  0.13988006543E+04  0.13988006543E+04  0.50400001928E-02 0. -1.
       -1   -1    0    0    0  501  0.00000000000E+00  0.00000000000E+00 -0.17613266852E+04  0.17613266853E+04  0.50400001928E-02 0.  1.
    10030    2    1    2    0    0  0.00000000000E+00  0.00000000000E+00 -0.36252603096E+03  0.31601273396E+04  0.31392641939E+04 0.  0.
        2    1    3    3  502    0 -0.79716786470E+03 -0.27103587168E+03  0.11522323282E+04  0.14270866779E+04  0.25500000920E-02 0. -1.
       -2    1    3    3    0  502  0.79716786470E+03  0.27103587168E+03 -0.15147583591E+04  0.17330406616E+04  0.25500000920E-02 0.  1.
</event>
<event>
 5   0  0.3013888E-07  0.3210017E+04  0.7818609E-02  0.8186177E-01
       -1   -1    0    0    0  501  0.00000000000E+00  0.00000000000E+00  0.11471504824E+04  0.11471504824E+04  0.50400001928E-02 0.  1.
        1   -1    0    0  501    0  0.00000000000E+00  0.00000000000E+00 -0.22456091528E+04  0.22456091528E+04  0.50400001928E-02 0. -1.
    10030    2    1    2    0    0  0.00000000000E+00  0.00000000000E+00 -0.10984586704E+04  0.33927596352E+04  0.32100165874E+04 0.  0.
        1    1    3    3  502    0  0.61713165273E+03  0.26656565178E+03 -0.20896441295E+04  0.21951130521E+04  0.50400001928E-02 0. -1.
       -1    1    3    3    0  502 -0.61713165273E+03 -0.26656565178E+03  0.99118545914E+03  0.11976465831E+04  0.50400001928E-02 0.  1.
</event>
<event>
 5   0  0.8195618E-07  0.3185264E+04  0.7818609E-02  0.8192720E-01
       -2   -1    0    0    0  501  0.00000000000E+00  0.00000000000E+00  0.12898622600E+04  0.12898622600E+04  0.25500000920E-02 0. -1.
        2   -1    0    0  501    0  0.00000000000E+00  0.00000000000E+00 -0.19664703544E+04  0.19664703544E+04  0.25500000920E-02 0.  1.
    10030    2    1    2    0    0  0.00000000000E+00  0.00000000000E+00 -0.67660809442E+03  0.32563326144E+04  0.31852635028E+04 0.  0.
        1    1    3    3  502    0 -0.14477653756E+04  0.66250037383E+03 -0.29812618501E+03  0.16198180609E+04  0.50400001928E-02 0. -1.
       -1    1    3    3    0  502  0.14477653756E+04 -0.66250037383E+03 -0.37848190941E+03  0.16365145535E+04  0.50400001928E-02 0.  1.
</event>
<event>
 5   0  0.2997105E-07  0.3178422E+04  0.7818609E-02  0.8194539E-01
        1   -1    0    0  501    0  0.00000000000E+00  0.00000000000E+00  0.27675353171E+04  0.27675353171E+04  0.50400001928E-02 0.  1.
       -1   -1    0    0    0  501  0.00000000000E+00  0.00000000000E+00 -0.91257809929E+03  0.91257809930E+03  0.50400001928E-02 0. -1.
    10030    2    1    2    0    0  0.00000000000E+00  0.00000000000E+00  0.18549572178E+04  0.36801134164E+04  0.31784223253E+04 0.  0.
        3    1    3    3  502    0  0.12368351193E+04 -0.88043700550E+03  0.14713710927E+04  0.21142051310E+04  0.10100000352E+00 0.  1.
       -3    1    3    3    0  502 -0.12368351193E+04  0.88043700550E+03  0.38358612510E+03  0.15659082855E+04  0.10100000352E+00 0. -1.
</event>
<event>
 5   0  0.3075756E-07  0.3204680E+04  0.7818609E-02  0.8187582E-01
        1   -1    0    0  501    0  0.00000000000E+00  0.00000000000E+00  0.15694650676E+04  0.15694650676E+04  0.50400001928E-02 0. -1.
       -1   -1    0    0    0  501  0.00000000000E+00  0.00000000000E+00 -0.16359030912E+04  0.16359030912E+04  0.50400001928E-02 0.  1.
    10030    2    1    2    0    0  0.00000000000E+00  0.00000000000E+00 -0.66438023614E+02  0.32053681588E+04  0.32046795506E+04 0.  0.
        5    1    3    3  502    0  0.13866412342E+04 -0.59995355532E+03  0.50051769362E+03  0.15916212591E+04  0.46999998093E+01 0. -1.
       -5    1    3    3    0  502 -0.13866412342E+04  0.59995355532E+03 -0.56695571723E+03  0.16137468997E+04  0.46999998093E+01 0.  1.
</event>
<event>
 5   0  0.2997105E-07  0.3191834E+04  0.7818609E-02  0.8190977E-01
       -1   -1    0    0    0  501  0.00000000000E+00  0.00000000000E+00  0.11818389485E+04  0.11818389485E+04  0.50400001928E-02 0.  1.
        1   -1    0    0  501    0  0.00000000000E+00  0.00000000000E+00 -0.21550741584E+04  0.21550741584E+04  0.50400001928E-02 0. -1.
    10030    2    1    2    0    0  0.00000000000E+00  0.00000000000E+00 -0.97323520992E+03  0.33369131070E+04  0.31918336908E+04 0.  0.
        3    1    3    3  502    0 -0.54921485078E+03 -0.79175531038E+03 -0.18166204249E+04  0.20563616419E+04  0.10100000352E+00 0. -1.
       -3    1    3    3    0  502  0.54921485078E+03  0.79175531038E+03  0.84338521495E+03  0.12805514651E+04  0.10100000352E+00 0.  1.
</event>
<event>
 5   0  0.8838951E-07  0.3206334E+04  0.7818609E-02  0.8187146E-01
        2   -1    0    0  501    0  0.00000000000E+00  0.00000000000E+00  0.19676576235E+04  0.19676576235E+04  0.25500000920E-02 0. -1.
       -2   -1    0    0    0  501  0.00000000000E+00  0.00000000000E+00 -0.13061948155E+04  0.13061948155E+04  0.25500000920E-02 0.  1.
    10030    2    1    2    0    0  0.00000000000E+00  0.00000000000E+00  0.66146280804E+03  0.32738524390E+04  0.32063338482E+04 0.  0.
        2    1    3    3  502    0 -0.12947547490E+04  0.88407369212E+03 -0.11236158976E+02  0.15678336661E+04  0.25500000920E-02 0.  1.
       -2    1    3    3    0  502  0.12947547490E+04 -0.88407369212E+03  0.67269896702E+03  0.17060187729E+04  0.25500000920E-02 0. -1.
</event>
<event>
 5   0  0.8838951E-07  0.3196060E+04  0.7818609E-02  0.8189859E-01
       -2   -1    0    0    0  501  0.00000000000E+00  0.00000000000E+00  0.11978598799E+04  0.11978598799E+04  0.25500000920E-02 0.  1.
        2   -1    0    0  501    0  0.00000000000E+00  0.00000000000E+00 -0.21318846438E+04  0.21318846438E+04  0.25500000920E-02 0. -1.
    10030    2    1    2    0    0  0.00000000000E+00  0.00000000000E+00 -0.93402476397E+03  0.33297445237E+04  0.31960595009E+04 0.  0.
        2    1    3    3  502    0 -0.37020579285E+03  0.56452908650E+03  0.10420041700E+04  0.12415788774E+04  0.25500000920E-02 0.  1.
       -2    1    3    3    0  502  0.37020579285E+03 -0.56452908650E+03 -0.19760289339E+04  0.20881656463E+04  0.25500000920E-02 0. -1.
</event>
<event>
 5   0  0.8335929E-07  0.3286704E+04  0.7818609E-02  0.8166287E-01
       -2   -1    0    0    0  501  0.00000000000E+00  0.00000000000E+00  0.13279797759E+04  0.13279797759E+04  0.25500000920E-02 0.  1.
        2   -1    0    0  501    0  0.00000000000E+00  0.00000000000E+00 -0.20336191945E+04  0.20336191945E+04  0.25500000920E-02 0. -1.
    10030    2    1    2    0    0  0.00000000000E+00  0.00000000000E+00 -0.70563941857E+03  0.33615989704E+04  0.32867036143E+04 0.  0.
        4    1    3    3  502    0  0.26366343528E+03  0.13110947177E+04  0.62399084863E+03  0.14757553856E+04  0.12699999809E+01 0. -1.
       -4    1    3    3    0  502 -0.26366343528E+03 -0.13110947177E+04 -0.13296302672E+04  0.18858435848E+04  0.12699999809E+01 0.  1.
</event>
<event>
 5   0  0.2783875E-07  0.3182547E+04  0.7818609E-02  0.8193442E-01
        3   -1    0    0  501    0  0.00000000000E+00  0.00000000000E+00  0.24366024745E+04  0.24366024766E+04  0.10100000352E+00 0. -1.
       -3   -1    0    0    0  501  0.00000000000E+00  0.00000000000E+00 -0.10392139909E+04  0.10392139958E+04  0.10100000352E+00 0.  1.
    10030    2    1    2    0    0  0.00000000000E+00  0.00000000000E+00  0.13973884836E+04  0.34758164723E+04  0.31825470264E+04 0.  0.
        1    1    3    3  502    0 -0.12827026677E+03  0.13625849461E+03  0.24245430069E+04  0.24317541881E+04  0.50400001928E-02 0. -1.
       -1    1    3    3    0  502  0.12827026677E+03 -0.13625849461E+03 -0.10271545233E+04  0.10440622843E+04  0.50400001928E-02 0.  1.
</event>
<event>
 5   0  0.2997105E-07  0.3204643E+04  0.7818609E-02  0.8187592E-01
       -1   -1    0    0    0  501  0.00000000000E+00  0.00000000000E+00  0.11437933004E+04  0.11437933004E+04  0.50400001928E-02 0.  1.
        1   -1    0    0  501    0  0.00000000000E+00  0.00000000000E+00 -0.22446660575E+04  0.22446660575E+04  0.50400001928E-02 0. -1.
    10030    2    1    2    0    0  0.00000000000E+00  0.00000000000E+00 -0.11008727571E+04  0.33884593579E+04  0.32046428807E+04 0.  0.
        3    1    3    3  502    0 -0.13158952609E+04 -0.61263656000E+03  0.16711276381E+03  0.14611059436E+04  0.10100000352E+00 0.  1.
       -3    1    3    3    0  502  0.13158952609E+04  0.61263656000E+03 -0.12679855209E+04  0.19273534143E+04  0.10100000352E+00 0. -1.
</event>
<event>
 5   0  0.2891204E-07  0.3251994E+04  0.7818609E-02  0.8175219E-01
        1   -1    0    0  501    0  0.00000000000E+00  0.00000000000E+00  0.13600855838E+04  0.13600855838E+04  0.50400001928E-02 0. -1.
       -1   -1    0    0    0  501  0.00000000000E+00  0.00000000000E+00 -0.19438972125E+04  0.19438972125E+04  0.50400001928E-02 0.  1.
    10030    2    1    2    0    0  0.00000000000E+00  0.00000000000E+00 -0.58381162865E+03  0.33039827963E+04  0.32519942037E+04 0.  0.
        4    1    3    3  502    0 -0.11924249735E+04 -0.10950041431E+04 -0.13797940157E+03  0.16247927003E+04  0.12699999809E+01 0. -1.
       -4    1    3    3    0  502  0.11924249735E+04  0.10950041431E+04 -0.44583222709E+03  0.16791900960E+04  0.12699999809E+01 0.  1.
</event>
<event>
 5   0  0.8802800E-07  0.3198782E+04  0.7818609E-02  0.8189139E-01
       -2   -1    0    0    0  501  0.00000000000E+00  0.00000000000E+00  0.20899057452E+04  0.20899057452E+04  0.25500000920E-02 0. -1.
        2   -1    0    0  501    0  0.00000000000E+00  0.00000000000E+00 -0.12240032255E+04  0.12240032255E+04  0.25500000920E-02 0.  1.
    10030    2    1    2    0    0  0.00000000000E+00  0.00000000000E+00  0.86590251968E+03  0.33139089706E+04  0.31987818763E+04 0.  0.
        5    1    3    3  502    0  0.11297023422E+04 -0.19961636214E+03  0.15874910754E+04  0.19586281113E+04  0.46999998093E+01 0. -1.
       -5    1    3    3    0  502 -0.11297023422E+04  0.19961636214E+03 -0.72158855570E+03  0.13552808593E+04  0.46999998093E+01 0.  1.
</event>
<event>
 5   0  0.2997105E-07  0.3153706E+04  0.7818609E-02  0.8201151E-01
        1   -1    0    0  501    0  0.00000000000E+00  0.00000000000E+00  0.18959964728E+04  0.18959964728E+04  0.50400001928E-02 0. -1.
       -1   -1    0    0    0  501  0.00000000000E+00  0.00000000000E+00 -0.13114296776E+04  0.13114296776E+04  0.50400001928E-02 0.  1.
    10030    2    1    2    0    0  0.00000000000E+00  0.00000000000E+00  0.58456679516E+03  0.32074261504E+04  0.31537064182E+04 0.  0.
        3    1    3    3  502    0  0.92161169767E+03 -0.21862620271E+03  0.15744321470E+04  0.18373900331E+04  0.10100000352E+00 0. -1.
       -3    1    3    3    0  502 -0.92161169767E+03  0.21862620271E+03 -0.98986535188E+03  0.13700361174E+04  0.10100000352E+00 0.  1.
</event>
<event>
 5   0  0.2783875E-07  0.3206835E+04  0.7818609E-02  0.8187014E-01
       -1   -1    0    0    0  501  0.00000000000E+00  0.00000000000E+00  0.18106183199E+04  0.18106183200E+04  0.50400001928E-02 0. -1.
        1   -1    0    0  501    0  0.00000000000E+00  0.00000000000E+00 -0.14199280359E+04  0.14199280359E+04  0.50400001928E-02 0.  1.
    10030    2    1    2    0    0  0.00000000000E+00  0.00000000000E+00  0.39069028409E+03  0.32305463558E+04  0.32068350221E+04 0.  0.
        2    1    3    3  502    0 -0.57677588635E+03 -0.74056076032E+02 -0.13099566866E+04  0.14332275626E+04  0.25500000920E-02 0.  1.
       -2    1    3    3    0  502  0.57677588635E+03  0.74056076032E+02  0.17006469707E+04  0.17973187932E+04  0.25500000920E-02 0. -1.
</event>
<event>
 5   0  0.8488469E-07  0.3205292E+04  0.7818609E-02  0.8187421E-01
        2   -1    0    0  501    0  0.00000000000E+00  0.00000000000E+00  0.25122879376E+04  0.25122879376E+04  0.25500000920E-02 0.  1.
       -2   -1    0    0    0  501  0.00000000000E+00  0.00000000000E+00 -0.10223648110E+04  0.10223648110E+04  0.25500000920E-02 0. -1.
    10030    2    1    2    0    0  0.00000000000E+00  0.00000000000E+00  0.14899231266E+04  0.35346527486E+04  0.32052923627E+04 0.  0.
        3    1    3    3  502    0  0.67449014895E+03 -0.14378095672E+04  0.50782699187E+03  0.16673696580E+04  0.10100000352E+00 0. -1.
       -3    1    3    3    0  502 -0.67449014895E+03  0.14378095672E+04  0.98209613477E+03  0.18672830907E+04  0.10100000352E+00 0.  1.
</event>
<event>
 5   0  0.2997105E-07  0.3263281E+04  0.7818609E-02  0.8172302E-01
        1   -1    0    0  501    0  0.00000000000E+00  0.00000000000E+00  0.12624152266E+04  0.12624152267E+04  0.50400001928E-02 0. -1.
       -1   -1    0    0    0  501  0.00000000000E+00  0.00000000000E+00 -0.21088549220E+04  0.21088549220E+04  0.50400001928E-02 0.  1.
    10030    2    1    2    0    0  0.00000000000E+00  0.00000000000E+00 -0.84643969539E+03  0.33712701487E+04  0.32632809039E+04 0.  0.
        3    1    3    3  502    0 -0.95207506173E+03 -0.30301163365E+03 -0.17558638094E+04  0.20202278834E+04  0.10100000352E+00 0.  1.
       -3    1    3    3    0  502  0.95207506173E+03  0.30301163365E+03  0.90942411403E+03  0.13510422653E+04  0.10100000352E+00 0. -1.
</event>
<event>
 5   0  0.2997105E-07  0.3206222E+04  0.7818609E-02  0.8187176E-01
       -1   -1    0    0    0  501  0.00000000000E+00  0.00000000000E+00  0.11490631856E+04  0.11490631856E+04  0.50400001928E-02 0.  1.
        1   -1    0    0  501    0  0.00000000000E+00  0.00000000000E+00 -0.22365745707E+04  0.22365745707E+04  0.50400001928E-02 0. -1.
    10030    2    1    2    0    0  0.00000000000E+00  0.00000000000E+00 -0.10875113850E+04  0.33856377563E+04  0.32062223885E+04 0.  0.
        3    1    3    3  502    0 -0.10661545980E+04 -0.11965944821E+04 -0.58384749613E+03  0.17056968929E+04  0.10100000352E+00 0.  1.
       -3    1    3    3    0  502  0.10661545980E+04  0.11965944821E+04 -0.50366388891E+03  0.16799408634E+04  0.10100000352E+00 0. -1.
</event>
<event>
 5   0  0.2997105E-07  0.3207240E+04  0.7818609E-02  0.8186908E-01
        1   -1    0    0  501    0  0.00000000000E+00  0.00000000000E+00  0.22543892929E+04  0.22543892929E+04  0.50400001928E-02 0. -1.
       -1   -1    0    0    0  501  0.00000000000E+00  0.00000000000E+00 -0.11407068801E+04  0.11407068801E+04  0.50400001928E-02 0.  1.
    10030    2    1    2    0    0  0.00000000000E+00  0.00000000000E+00  0.11136824128E+04  0.33950961730E+04  0.32072401699E+04 0.  0.
        3    1    3    3  502    0  0.15052155260E+04  0.55274624919E+03  0.53579794387E+03  0.16906453332E+04  0.10100000352E+00 0.  1.
       -3    1    3    3    0  502 -0.15052155260E+04 -0.55274624919E+03  0.57788446895E+03  0.17044508398E+04  0.10100000352E+00 0. -1.
</event>
<event>
 5   0  0.2783875E-07  0.3263708E+04  0.7818609E-02  0.8172192E-01
       -4   -1    0    0    0  501  0.00000000000E+00  0.00000000000E+00  0.17783703278E+04  0.17783707813E+04  0.12699999809E+01 0.  1.
        4   -1    0    0  501    0  0.00000000000E+00  0.00000000000E+00 -0.14974076075E+04  0.14974081461E+04  0.12699999809E+01 0. -1.
    10030    2    1    2    0    0  0.00000000000E+00  0.00000000000E+00  0.28096272024E+03  0.32757789274E+04  0.32637076356E+04 0.  0.
        3    1    3    3  502    0 -0.10290360532E+03  0.13334363137E+04 -0.79801998031E+03  0.15573944439E+04  0.10100000352E+00 0. -1.
       -3    1    3    3    0  502  0.10290360532E+03 -0.13334363137E+04  0.10789827006E+04  0.17183844835E+04  0.10100000352E+00 0.  1.
</event>
<event>
 5   0  0.2891204E-07  0.3217612E+04  0.7818609E-02  0.8184181E-01
        1   -1    0    0  501    0  0.00000000000E+00  0.00000000000E+00  0.14440569194E+04  0.14440569194E+04  0.50400001928E-02 0. -1.
       -1   -1    0    0    0  501  0.00000000000E+00  0.00000000000E+00 -0.17923505342E+04  0.17923505342E+04  0.50400001928E-02 0.  1.
    10030    2    1    2    0    0  0.00000000000E+00  0.00000000000E+00 -0.34829361482E+03  0.32364074537E+04  0.32176116553E+04 0.  0.
        4    1    3    3  502    0 -0.13387520947E+04  0.87313654715E+02 -0.10672376561E+04  0.17143158031E+04  0.12699999809E+01 0. -1.
       -4    1    3    3    0  502  0.13387520947E+04 -0.87313654715E+02  0.71894404130E+03  0.15220916506E+04  0.12699999809E+01 0.  1.
</event>
<event>
 5   0  0.2891204E-07  0.3205654E+04  0.7818609E-02  0.8187326E-01
       -1   -1    0    0    0  501  0.00000000000E+00  0.00000000000E+00  0.11448027927E+04  0.11448027927E+04  0.50400001928E-02 0.  1.
        1   -1    0    0  501    0  0.00000000000E+00  0.00000000000E+00 -0.22441021933E+04  0.22441021933E+04  0.50400001928E-02 0. -1.
    10030    2    1    2    0    0  0.00000000000E+00  0.00000000000E+00 -0.10992994006E+04  0.33889049860E+04  0.32056540413E+04 0.  0.
        4    1    3    3  502    0  0.11066327270E+04  0.28512270730E+03 -0.17377835622E+04  0.20798615994E+04  0.12699999809E+01 0. -1.
       -4    1    3    3    0  502 -0.11066327270E+04 -0.28512270730E+03  0.63848416159E+03  0.13090433867E+04  0.12699999809E+01 0.  1.
</event>
<event>
 5   0  0.8488469E-07  0.3204226E+04  0.7818609E-02  0.8187702E-01
        2   -1    0    0  501    0  0.00000000000E+00  0.00000000000E+00  0.15181853125E+04  0.15181853125E+04  0.25500000920E-02 0. -1.
       -2   -1    0    0    0  501  0.00000000000E+00  0.00000000000E+00 -0.16906798351E+04  0.16906798351E+04  0.25500000920E-02 0.  1.
    10030    2    1    2    0    0  0.00000000000E+00  0.00000000000E+00 -0.17249452263E+03  0.32088651476E+04  0.32042255187E+04 0.  0.
        3    1    3    3  502    0  0.44618391656E+03  0.10887441671E+04 -0.11751677129E+04  0.16629681634E+04  0.10100000352E+00 0.  1.
       -3    1    3    3    0  502 -0.44618391656E+03 -0.10887441671E+04  0.10026731903E+04  0.15458969842E+04  0.10100000352E+00 0. -1.
</event>
<event>
 5   0  0.8335929E-07  0.3202680E+04  0.7818609E-02  0.8188110E-01
        2   -1    0    0  501    0  0.00000000000E+00  0.00000000000E+00  0.15531464341E+04  0.15531464341E+04  0.25500000920E-02 0.  1.
       -2   -1    0    0    0  501  0.00000000000E+00  0.00000000000E+00 -0.16510294507E+04  0.16510294507E+04  0.25500000920E-02 0. -1.
    10030    2    1    2    0    0  0.00000000000E+00  0.00000000000E+00 -0.97883016572E+02  0.32041758849E+04  0.32026804424E+04 0.  0.
        4    1    3    3  502    0 -0.58861667324E+03 -0.11826386845E+04  0.85656952727E+03  0.15744258680E+04  0.12699999809E+01 0.  1.
       -4    1    3    3    0  502  0.58861667324E+03  0.11826386845E+04 -0.95445254384E+03  0.16297500168E+04  0.12699999809E+01 0. -1.
</event>
<event>
 5   0  0.8335929E-07  0.3216275E+04  0.7818609E-02  0.8184532E-01
        2   -1    0    0  501    0  0.00000000000E+00  0.00000000000E+00  0.23365234274E+04  0.23365234274E+04  0.25500000920E-02 0. -1.
       -2   -1    0    0    0  501  0.00000000000E+00  0.00000000000E+00 -0.11068178358E+04  0.11068178358E+04  0.25500000920E-02 0.  1.
    10030    2    1    2    0    0  0.00000000000E+00  0.00000000000E+00  0.12297055915E+04  0.34433412632E+04  0.32162747415E+04 0.  0.
        4    1    3    3  502    0  0.39577526332E+03 -0.81107446562E+03 -0.81014025473E+03  0.12127690188E+04  0.12699999809E+01 0.  1.
       -4    1    3    3    0  502 -0.39577526332E+03  0.81107446562E+03  0.20398458463E+04  0.22305722444E+04  0.12699999809E+01 0. -1.
</event>
<event>
 5   0  0.3075756E-07  0.3205454E+04  0.7818609E-02  0.8187378E-01
       -1   -1    0    0    0  501  0.00000000000E+00  0.00000000000E+00  0.16369719505E+04  0.16369719505E+04  0.50400001928E-02 0.  1.
        1   -1    0    0  501    0  0.00000000000E+00  0.00000000000E+00 -0.15691981158E+04  0.15691981158E+04  0.50400001928E-02 0. -1.
    10030    2    1    2    0    0  0.00000000000E+00  0.00000000000E+00  0.67773834665E+02  0.32061700663E+04  0.32054536654E+04 0.  0.
        5    1    3    3  502    0  0.74411249928E+03  0.90566939899E+03  0.11271868978E+04  0.16261958260E+04  0.46999998093E+01 0.  1.
       -5    1    3    3    0  502 -0.74411249928E+03 -0.90566939899E+03 -0.10594130631E+04  0.15799742403E+04  0.46999998093E+01 0. -1.
</event>
<event>
 5   0  0.2997105E-07  0.3200559E+04  0.7818609E-02  0.8188670E-01
       -1   -1    0    0    0  501  0.00000000000E+00  0.00000000000E+00  0.11461884042E+04  0.11461884042E+04  0.50400001928E-02 0.  1.
        1   -1    0    0  501    0  0.00000000000E+00  0.00000000000E+00 -0.22342695980E+04  0.22342695980E+04  0.50400001928E-02 0. -1.
    10030    2    1    2    0    0  0.00000000000E+00  0.00000000000E+00 -0.10880811939E+04  0.33804580022E+04  0.32005586419E+04 0.  0.
        3    1    3    3  502    0  0.13347172176E+04  0.18153308485E+03  0.36850760517E+03  0.13965035543E+04  0.10100000352E+00 0.  1.
       -3    1    3    3    0  502 -0.13347172176E+04 -0.18153308485E+03 -0.14565887990E+04  0.19839544479E+04  0.10100000352E+00 0. -1.
</event>
<event>
 5   0  0.8335929E-07  0.3209930E+04  0.7818609E-02  0.8186200E-01
       -2   -1    0    0    0  501  0.00000000000E+00  0.00000000000E+00  0.24603112358E+04  0.24603112359E+04  0.25500000920E-02 0. -1.
        2   -1    0    0  501    0  0.00000000000E+00  0.00000000000E+00 -0.10469867225E+04  0.10469867225E+04  0.25500000920E-02 0.  1.
    10030    2    1    2    0    0  0.00000000000E+00  0.00000000000E+00  0.14133245133E+04  0.35072979584E+04  0.32099303402E+04 0.  0.
        4    1    3    3  502    0  0.21014631392E+03  0.14797221550E+04  0.67516988925E+02  0.14960946781E+04  0.12699999809E+01 0. -1.
       -4    1    3    3    0  502 -0.21014631392E+03 -0.14797221550E+04  0.13458075244E+04  0.20112032803E+04  0.12699999809E+01 0.  1.
</event>
<event>
 5   0  0.8802800E-07  0.3222653E+04  0.7818609E-02  0.8182860E-01
       -2   -1    0    0    0  501  0.00000000000E+00  0.00000000000E+00  0.14105243452E+04  0.14105243452E+04  0.25500000920E-02 0.  1.
        2   -1    0    0  501    0  0.00000000000E+00  0.00000000000E+00 -0.18407146369E+04  0.18407146369E+04  0.25500000920E-02 0. -1.
    10030    2    1    2    0    0  0.00000000000E+00  0.00000000000E+00 -0.43019029172E+03  0.32512389820E+04  0.32226528251E+04 0.  0.
        5    1    3    3  502    0  0.23051011070E+03 -0.76567235154E+03  0.11962282143E+04  0.14388791095E+04  0.46999998093E+01 0.  1.
       -5    1    3    3    0  502 -0.23051011070E+03  0.76567235154E+03 -0.16264185060E+04  0.18123598726E+04  0.46999998093E+01 0. -1.
</event>
<event>
 5   0  0.3075756E-07  0.3206174E+04  0.7818609E-02  0.8187188E-01
       -1   -1    0    0    0  501  0.00000000000E+00  0.00000000000E+00  0.26765652829E+04  0.26765652830E+04  0.50400001928E-02 0.  1.
        1   -1    0    0  501    0  0.00000000000E+00  0.00000000000E+00 -0.96014423558E+03  0.96014423559E+03  0.50400001928E-02 0. -1.
    10030    2    1    2    0    0  0.00000000000E+00  0.00000000000E+00  0.17164210474E+04  0.36367095185E+04  0.32061744978E+04 0.  0.
        5    1    3    3  502    0 -0.94210436885E+03 -0.71473320451E+03 -0.36947078152E+03  0.12389249145E+04  0.46999998093E+01 0. -1.
       -5    1    3    3    0  502  0.94210436885E+03  0.71473320451E+03  0.20858918289E+04  0.23977846040E+04  0.46999998093E+01 0.  1.
</event>
<event>
 5   0  0.2997105E-07  0.3195573E+04  0.7818609E-02  0.8189987E-01
        1   -1    0    0  501    0  0.00000000000E+00  0.00000000000E+00  0.26107985623E+04  0.26107985623E+04  0.50400001928E-02 0.  1.
       -1   -1    0    0    0  501  0.00000000000E+00  0.00000000000E+00 -0.97783160227E+03  0.97783160228E+03  0.50400001928E-02 0. -1.
    10030    2    1    2    0    0  0.00000000000E+00  0.00000000000E+00  0.16329669601E+04  0.35886301646E+04  0.31955727758E+04 0.  0.
        3    1    3    3  502    0  0.61142086696E+03 -0.13847091955E+04  0.13909356658E+04  0.20557132751E+04  0.10100000352E+00 0.  1.
       -3    1    3    3    0  502 -0.61142086696E+03  0.13847091955E+04  0.24203129426E+03  0.15329168896E+04  0.10100000352E+00 0. -1.
</event>
<event>
 5   0  0.8838951E-07  0.3201144E+04  0.7818609E-02  0.8188515E-01
       -2   -1    0    0    0  501  0.00000000000E+00  0.00000000000E+00  0.13415944247E+04  0.13415944247E+04  0.25500000920E-02 0.  1.
        2   -1    0    0  501    0  0.00000000000E+00  0.00000000000E+00 -0.19095414110E+04  0.19095414110E+04  0.25500000920E-02 0. -1.
    10030    2    1    2    0    0  0.00000000000E+00  0.00000000000E+00 -0.56794698626E+03  0.32511358357E+04  0.32011436149E+04 0.  0.
        2    1    3    3  502    0  0.22796683882E+03 -0.80396451173E+03  0.11024468509E+04  0.13833715607E+04  0.25500000920E-02 0.  1.
       -2    1    3    3    0  502 -0.22796683882E+03  0.80396451173E+03 -0.16703938372E+04  0.18677642750E+04  0.25500000920E-02 0. -1.
</event>
<event>
 5   0  0.8802800E-07  0.3210063E+04  0.7818609E-02  0.8186164E-01
       -2   -1    0    0    0  501  0.00000000000E+00  0.00000000000E+00  0.19294526981E+04  0.19294526981E+04  0.25500000920E-02 0.  1.
        2   -1    0    0  501    0  0.00000000000E+00  0.00000000000E+00 -0.13351593886E+04  0.13351593886E+04  0.25500000920E-02 0. -1.
    10030    2    1    2    0    0  0.00000000000E+00  0.00000000000E+00  0.59429330946E+03  0.32646120867E+04  0.32100634789E+04 0.  0.
        5    1    3    3  502    0 -0.76823453111E+03  0.61153652657E+03  0.15883447643E+04  0.18673570624E+04  0.46999998093E+01 0.  1.
       -5    1    3    3    0  502  0.76823453111E+03 -0.61153652657E+03 -0.99405145482E+03  0.13972550243E+04  0.46999998093E+01 0. -1.
</event>
<event>
 5   0  0.8195618E-07  0.3195084E+04  0.7818609E-02  0.8190117E-01
       -2   -1    0    0    0  501  0.00000000000E+00  0.00000000000E+00  0.16429392188E+04  0.16429392188E+04  0.25500000920E-02 0. -1.
        2   -1    0    0  501    0  0.00000000000E+00  0.00000000000E+00 -0.15533994340E+04  0.15533994340E+04  0.25500000920E-02 0.  1.
    10030    2    1    2    0    0  0.00000000000E+00  0.00000000000E+00  0.89539784742E+02  0.31963386528E+04  0.31950842571E+04 0.  0.
        1    1    3    3  502    0  0.33018360875E+03  0.15532604896E+04 -0.12994542786E+03  0.15932749851E+04  0.50400001928E-02 0.  1.
       -1    1    3    3    0  502 -0.33018360875E+03 -0.15532604896E+04  0.21948521260E+03  0.16030636677E+04  0.50400001928E-02 0. -1.
</event>
<event>
 5   0  0.8335929E-07  0.3196705E+04  0.7818609E-02  0.8189688E-01
        2   -1    0    0  501    0  0.00000000000E+00  0.00000000000E+00  0.23018271783E+04  0.23018271783E+04  0.25500000920E-02 0.  1.
       -2   -1    0    0    0  501  0.00000000000E+00  0.00000000000E+00 -0.11098707097E+04  0.11098707097E+04  0.25500000920E-02 0. -1.
    10030    2    1    2    0    0  0.00000000000E+00  0.00000000000E+00  0.11919564686E+04  0.34116978880E+04  0.31967049060E+04 0.  0.
        4    1    3    3  502    0  0.72497997611E+03 -0.88455431224E+03 -0.59567093897E+03  0.12895184285E+04  0.12699999809E+01 0. -1.
       -4    1    3    3    0  502 -0.72497997611E+03  0.88455431224E+03  0.17876274076E+04  0.21221794595E+04  0.12699999809E+01 0.  1.
</event>
<event>
 5   0  0.8802800E-07  0.3196845E+04  0.7818609E-02  0.8189651E-01
       -2   -1    0    0    0  501  0.00000000000E+00  0.00000000000E+00  0.11575931611E+04  0.11575931611E+04  0.25500000920E-02 0. -1.
        2   -1    0    0  501    0  0.00000000000E+00  0.00000000000E+00 -0.22071264391E+04  0.22071264391E+04  0.25500000920E-02 0.  1.
    10030    2    1    2    0    0  0.00000000000E+00  0.00000000000E+00 -0.10495332780E+04  0.33647196003E+04  0.31968449895E+04 0.  0.
        5    1    3    3  502    0 -0.14363425702E+04  0.65558865106E+02 -0.12596845918E+04  0.19115975791E+04  0.46999998093E+01 0.  1.
       -5    1    3    3    0  502  0.14363425702E+04 -0.65558865106E+02  0.21015131377E+03  0.14531220212E+04  0.46999998093E+01 0. -1.
</event>
<event>
 5   0  0.8488469E-07  0.3193291E+04  0.7818609E-02  0.8190591E-01
        2   -1    0    0  501    0  0.00000000000E+00  0.00000000000E+00  0.19046362095E+04  0.19046362095E+04  0.25500000920E-02 0.  1.
       -2   -1    0    0    0  501  0.00000000000E+00  0.00000000000E+00 -0.13384590053E+04  0.13384590053E+04  0.25500000920E-02 0. -1.
    10030    2    1    2    0    0  0.00000000000E+00  0.00000000000E+00  0.56617720412E+03  0.32430952148E+04  0.31932913970E+04 0.  0.
        3    1    3    3  502    0  0.12784322703E+04  0.41949766316E+01  0.12544951660E+04  0.17911350589E+04  0.10100000352E+00 0.  1.
       -3    1    3    3    0  502 -0.12784322703E+04 -0.41949766316E+01 -0.68831796188E+03  0.14519601559E+04  0.10100000352E+00 0. -1.
</event>
<event>
 5   0  0.2783875E-07  0.3207299E+04  0.7818609E-02  0.8186892E-01
        1   -1    0    0  501    0  0.00000000000E+00  0.00000000000E+00  0.11243163666E+04  0.11243163666E+04  0.50400001928E-02 0.  1.
       -1   -1    0    0    0  501  0.00000000000E+00  0.00000000000E+00 -0.22873379262E+04  0.22873379262E+04  0.50400001928E-02 0. -1.
    10030    2    1    2    0    0  0.00000000000E+00  0.00000000000E+00 -0.11630215596E+04  0.34116542928E+04  0.32072988425E+04 0.  0.
        2    1    3    3  502    0 -0.90068429754E+03 -0.36555108240E+03  0.77523006157E+03  0.12433187226E+04  0.25500000920E-02 0.  1.
       -2    1    3    3    0  502  0.90068429754E+03  0.36555108240E+03 -0.19382516212E+04  0.21683355701E+04  0.25500000920E-02 0. -1.
</event>
<event>
 5   0  0.8802800E-07  0.3207709E+04  0.7818609E-02  0.8186784E-01
       -2   -1    0    0    0  501  0.00000000000E+00  0.00000000000E+00  0.31830611911E+04  0.31830611911E+04  0.25500000920E-02 0. -1.
        2   -1    0    0  501    0  0.00000000000E+00  0.00000000000E+00 -0.80813679640E+03  0.80813679640E+03  0.25500000920E-02 0.  1.
    10030    2    1    2    0    0  0.00000000000E+00  0.00000000000E+00  0.23749243947E+04  0.39911979875E+04  0.32077087609E+04 0.  0.
        5    1    3    3  502    0  0.59066502342E+03 -0.70291525415E+03 -0.44878912932E+03  0.10219632073E+04  0.46999998093E+01 0.  1.
       -5    1    3    3    0  502 -0.59066502342E+03  0.70291525415E+03  0.28237135241E+04  0.29692347803E+04  0.46999998093E+01 0. -1.
</event>
<event>
 5   0  0.3075756E-07  0.3160554E+04  0.7818609E-02  0.8199313E-01
        1   -1    0    0  501    0  0.00000000000E+00  0.00000000000E+00  0.13990711288E+04  0.13990711288E+04  0.50400001928E-02 0. -1.
       -1   -1    0    0    0  501  0.00000000000E+00  0.00000000000E+00 -0.17849525680E+04  0.17849525680E+04  0.50400001928E-02 0.  1.
    10030    2    1    2    0    0  0.00000000000E+00  0.00000000000E+00 -0.38588143919E+03  0.31840236968E+04  0.31605541313E+04 0.  0.
        5    1    3    3  502    0 -0.68197478175E+03 -0.12388786896E+04  0.51752198232E+03  0.15059087298E+04  0.46999998093E+01 0.  1.
       -5    1    3    3    0  502  0.68197478175E+03  0.12388786896E+04 -0.90340342152E+03  0.16781149670E+04  0.46999998093E+01 0. -1.
</event>
<event>
 5   0  0.3075756E-07  0.3166666E+04  0.7818609E-02  0.8197676E-01
       -1   -1    0    0    0  501  0.00000000000E+00  0.00000000000E+00  0.13044643417E+04  0.13044643417E+04  0.50400001928E-02 0.  1.
        1   -1    0    0  501    0  0.00000000000E+00  0.00000000000E+00 -0.19218184662E+04  0.19218184662E+04  0.50400001928E-02 0. -1.
    10030    2    1    2    0    0  0.00000000000E+00  0.00000000000E+00 -0.61735412447E+03  0.32262828079E+04  0.31666661714E+04 0.  0.
        5    1    3    3  502    0  0.13651314473E+04  0.31910481587E+03  0.44105022698E+03  0.14696799463E+04  0.46999998093E+01 0.  1.
       -5    1    3    3    0  502 -0.13651314473E+04 -0.31910481587E+03 -0.10584043514E+04  0.17566028615E+04  0.46999998093E+01 0. -1.
</event>
<event>
 5   0  0.3075756E-07  0.3196944E+04  0.7818609E-02  0.8189625E-01
       -1   -1    0    0    0  501  0.00000000000E+00  0.00000000000E+00  0.14149060317E+04  0.14149060317E+04  0.50400001928E-02 0.  1.
        1   -1    0    0  501    0  0.00000000000E+00  0.00000000000E+00 -0.18058536870E+04  0.18058536870E+04  0.50400001928E-02 0. -1.
    10030    2    1    2    0    0  0.00000000000E+00  0.00000000000E+00 -0.39094765529E+03  0.32207597187E+04  0.31969443374E+04 0.  0.
        5    1    3    3  502    0 -0.69100381406E+03  0.10326453913E+04  0.81762584928E+03  0.14874060961E+04  0.46999998093E+01 0.  1.
       -5    1    3    3    0  502  0.69100381406E+03 -0.10326453913E+04 -0.12085735046E+04  0.17333536227E+04  0.46999998093E+01 0. -1.
</event>
<event>
 5   0  0.3013888E-07  0.3198256E+04  0.7818609E-02  0.8189278E-01
       -1   -1    0    0    0  501  0.00000000000E+00  0.00000000000E+00  0.12905284219E+04  0.12905284219E+04  0.50400001928E-02 0. -1.
        1   -1    0    0  501    0  0.00000000000E+00  0.00000000000E+00 -0.19815222137E+04  0.19815222137E+04  0.50400001928E-02 0.  1.
    10030    2    1    2    0    0  0.00000000000E+00  0.00000000000E+00 -0.69099379183E+03  0.32720506356E+04  0.31982562345E+04 0.  0.
        1    1    3    3  502    0 -0.36584717799E+03  0.34388669816E+03 -0.18987865456E+04  0.19640500412E+04  0.50400001928E-02 0.  1.
       -1    1    3    3    0  502  0.36584717799E+03 -0.34388669816E+03  0.12077927537E+04  0.13080005944E+04  0.50400001928E-02 0. -1.
</event>
<event>
 5   0  0.8488469E-07  0.3181453E+04  0.7818609E-02  0.8193733E-01
       -2   -1    0    0    0  501  0.00000000000E+00  0.00000000000E+00  0.13321030893E+04  0.13321030893E+04  0.25500000920E-02 0.  1.
        2   -1    0    0  501    0  0.00000000000E+00  0.00000000000E+00 -0.18995603395E+04  0.18995603395E+04  0.25500000920E-02 0. -1.
    10030    2    1    2    0    0  0.00000000000E+00  0.00000000000E+00 -0.56745725018E+03  0.32316634288E+04  0.31814526220E+04 0.  0.
        3    1    3    3  502    0 -0.78256741590E+03 -0.10305727394E+04  0.65603105496E+03  0.14508165587E+04  0.10100000352E+00 0.  1.
       -3    1    3    3    0  502  0.78256741590E+03  0.10305727394E+04 -0.12234883051E+04  0.17808468701E+04  0.10100000352E+00 0. -1.
</event>
<event>
 5   0  0.8802800E-07  0.3272831E+04  0.7818609E-02  0.8169843E-01
       -2   -1    0    0    0  501  0.00000000000E+00  0.00000000000E+00  0.93358216693E+03  0.93358216694E+03  0.25500000920E-02 0.  1.
        2   -1    0    0  501    0  0.00000000000E+00  0.00000000000E+00 -0.28683661420E+04  0.28683661420E+04  0.25500000920E-02 0. -1.
    10030    2    1    2    0    0  0.00000000000E+00  0.00000000000E+00 -0.19347839751E+04  0.38019483090E+04  0.32728308716E+04 0.  0.
        5    1    3    3  502    0 -0.99939875221E+03 -0.12550809068E+04 -0.13416722153E+04  0.20914426533E+04  0.46999998093E+01 0. -1.
       -5    1    3    3    0  502  0.99939875221E+03  0.12550809068E+04 -0.59311175981E+03  0.17105056557E+04  0.46999998093E+01 0.  1.
</event>
<event>
 5   0  0.2891204E-07  0.3182740E+04  0.7818609E-02  0.8193390E-01
       -1   -1    0    0    0  501  0.00000000000E+00  0.00000000000E+00  0.12769261818E+04  0.12769261818E+04  0.50400001928E-02 0. -1.
        1   -1    0    0  501    0  0.00000000000E+00  0.00000000000E+00 -0.19832457667E+04  0.19832457667E+04  0.50400001928E-02 0.  1.
    10030    2    1    2    0    0  0.00000000000E+00  0.00000000000E+00 -0.70631958492E+03  0.32601719485E+04  0.31827399796E+04 0.  0.
        4    1    3    3  502    0  0.81179115934E+03 -0.41121706466E+03  0.98411006046E+03  0.13403650938E+04  0.12699999809E+01 0. -1.
       -4    1    3    3    0  502 -0.81179115934E+03  0.41121706466E+03 -0.16904296454E+04  0.19198068547E+04  0.12699999809E+01 0.  1.
</event>
<event>
 5   0  0.8335929E-07  0.3213474E+04  0.7818609E-02  0.8185268E-01
       -2   -1    0    0    0  501  0.00000000000E+00  0.00000000000E+00  0.19271941250E+04  0.19271941250E+04  0.25500000920E-02 0.  1.
        2   -1    0    0  501    0  0.00000000000E+00  0.00000000000E+00 -0.13395663285E+04  0.13395663285E+04  0.25500000920E-02 0. -1.
    10030    2    1    2    0    0  0.00000000000E+00  0.00000000000E+00  0.58762779650E+03  0.32667604535E+04  0.32134743555E+04 0.  0.
        4    1    3    3  502    0  0.61397097270E+03  0.38678898905E+02  0.18027266300E+04  0.19048048005E+04  0.12699999809E+01 0.  1.
       -4    1    3    3    0  502 -0.61397097270E+03 -0.38678898905E+02 -0.12150988335E+04  0.13619556530E+04  0.12699999809E+01 0. -1.
</event>
<event>
 5   0  0.8838951E-07  0.3191118E+04  0.7818609E-02  0.8191167E-01
        2   -1    0    0  501    0  0.00000000000E+00  0.00000000000E+00  0.14476962377E+04  0.14476962377E+04  0.25500000920E-02 0.  1.
       -2   -1    0    0    0  501  0.00000000000E+00  0.00000000000E+00 -0.17585239452E+04  0.17585239452E+04  0.25500000920E-02 0. -1.
    10030    2    1    2    0    0  0.00000000000E+00  0.00000000000E+00 -0.31082770752E+03  0.32062201829E+04  0.31911179855E+04 0.  0.
        2    1    3    3  502    0  0.14975441498E+04  0.28388589190E+03  0.31860148906E+03  0.15571565717E+04  0.25500000920E-02 0.  1.
       -2    1    3    3    0  502 -0.14975441498E+04 -0.28388589190E+03 -0.62942919657E+03  0.16490636111E+04  0.25500000920E-02 0. -1.
</event>
<event>
 5   0  0.3013888E-07  0.3175840E+04  0.7818609E-02  0.8195227E-01
        1   -1    0    0  501    0  0.00000000000E+00  0.00000000000E+00  0.10160848100E+04  0.10160848100E+04  0.50400001928E-02 0. -1.
       -1   -1    0    0    0  501  0.00000000000E+00  0.00000000000E+00 -0.24815737075E+04  0.24815737075E+04  0.50400001928E-02 0.  1.
    10030    2    1    2    0    0  0.00000000000E+00  0.00000000000E+00 -0.14654888975E+04  0.34976585175E+04  0.31758396364E+04 0.  0.
        1    1    3    3  502    0 -0.13910038926E+03  0.10890229097E+04  0.53075413164E+03  0.12194341985E+04  0.50400001928E-02 0. -1.
       -1    1    3    3    0  502  0.13910038926E+03 -0.10890229097E+04 -0.19962430292E+04  0.22782243190E+04  0.50400001928E-02 0.  1.
</event>
<event>
 5   0  0.8802800E-07  0.3180504E+04  0.7818609E-02  0.8193985E-01
        2   -1    0    0  501    0  0.00000000000E+00  0.00000000000E+00  0.16860189881E+04  0.16860189881E+04  0.25500000920E-02 0. -1.
       -2   -1    0    0    0  501  0.00000000000E+00  0.00000000000E+00 -0.14999248841E+04  0.14999248841E+04  0.25500000920E-02 0.  1.
    10030    2    1    2    0    0  0.00000000000E+00  0.00000000000E+00  0.18609410404E+03  0.31859438722E+04  0.31805042590E+04 0.  0.
        5    1    3    3  502    0 -0.10173758147E+04 -0.79746110118E+03 -0.83475625032E+03  0.15387780359E+04  0.46999998093E+01 0.  1.
       -5    1    3    3    0  502  0.10173758147E+04  0.79746110118E+03  0.10208503544E+04  0.16471658363E+04  0.46999998093E+01 0. -1.
</event>
<event>
 5   0  0.2997105E-07  0.3201652E+04  0.7818609E-02  0.8188381E-01
        1   -1    0    0  501    0  0.00000000000E+00  0.00000000000E+00  0.12538615556E+04  0.12538615556E+04  0.50400001928E-02 0.  1.
       -1   -1    0    0    0  501  0.00000000000E+00  0.00000000000E+00 -0.20438015528E+04  0.20438015529E+04  0.50400001928E-02 0. -1.
    10030    2    1    2    0    0  0.00000000000E+00  0.00000000000E+00 -0.78993999721E+03  0.32976631085E+04  0.32016521950E+04 0.  0.
        3    1    3    3  502    0 -0.21121401070E+03 -0.31421048165E+03 -0.19970249547E+04  0.20325964344E+04  0.10100000352E+00 0. -1.
       -3    1    3    3    0  502  0.21121401070E+03  0.31421048165E+03  0.12070849575E+04  0.12650666741E+04  0.10100000352E+00 0.  1.
</event>
<event>
 5   0  0.8335929E-07  0.3158778E+04  0.7818609E-02  0.8199789E-01
        2   -1    0    0  501    0  0.00000000000E+00  0.00000000000E+00  0.18327713818E+04  0.18327713818E+04  0.25500000920E-02 0.  1.
       -2   -1    0    0    0  501  0.00000000000E+00  0.00000000000E+00 -0.13610372390E+04  0.13610372390E+04  0.25500000920E-02 0. -1.
    10030    2    1    2    0    0  0.00000000000E+00  0.00000000000E+00  0.47173414277E+03  0.31938086209E+04  0.31587783090E+04 0.  0.
        4    1    3    3  502    0  0.13601027138E+04  0.26268779312E+02 -0.57546498020E+03  0.14770683793E+04  0.12699999809E+01 0. -1.
       -4    1    3    3    0  502 -0.13601027138E+04 -0.26268779312E+02  0.10471991230E+04  0.17167402415E+04  0.12699999809E+01 0.  1.
</event>
<event>
 5   0  0.8802800E-07  0.3230410E+04  0.7818609E-02  0.8180832E-01
        2   -1    0    0  501    0  0.00000000000E+00  0.00000000000E+00  0.12460754506E+04  0.12460754506E+04  0.25500000920E-02 0. -1.
       -2   -1    0    0    0  501  0.00000000000E+00  0.00000000000E+00 -0.20936834210E+04  0.20936834210E+04  0.25500000920E-02 0.  1.
    10030    2    1    2    0    0  0.00000000000E+00  0.00000000000E+00 -0.84760797040E+03  0.33397588715E+04  0.32304101982E+04 0.  0.
        5    1    3    3  502    0 -0.48846841173E+03 -0.10223363929E+04  0.76628794419E+03  0.13678422398E+04  0.46999998093E+01 0. -1.
       -5    1    3    3    0  502  0.48846841173E+03  0.10223363929E+04 -0.16138959146E+04  0.19719166318E+04  0.46999998093E+01 0.  1.
</event>
<event>
 5   0  0.3013888E-07  0.3198755E+04  0.7818609E-02  0.8189146E-01
        1   -1    0    0  501    0  0.00000000000E+00  0.00000000000E+00  0.12780820653E+04  0.12780820653E+04  0.50400001928E-02 0.  1.
       -1   -1    0    0    0  501  0.00000000000E+00  0.00000000000E+00 -0.20014435070E+04  0.20014435070E+04  0.50400001928E-02 0. -1.
    10030    2    1    2    0    0  0.00000000000E+00  0.00000000000E+00 -0.72336144171E+03  0.32795255723E+04  0.31987554148E+04 0.  0.
        1    1    3    3  502    0  0.26990530510E+03 -0.12482613510E+04 -0.13488025123E+04  0.18574911820E+04  0.50400001928E-02 0. -1.
       -1    1    3    3    0  502 -0.26990530510E+03  0.12482613510E+04  0.62544107059E+03  0.14220343902E+04  0.50400001928E-02 0.  1.
</event>
<event>
 5   0  0.3013888E-07  0.3202865E+04  0.7818609E-02  0.8188061E-01
        1   -1    0    0  501    0  0.00000000000E+00  0.00000000000E+00  0.19511277061E+04  0.19511277061E+04  0.50400001928E-02 0.  1.
       -1   -1    0    0    0  501  0.00000000000E+00  0.00000000000E+00 -0.13144119823E+04  0.13144119823E+04  0.50400001928E-02 0. -1.
    10030    2    1    2    0    0  0.00000000000E+00  0.00000000000E+00  0.63671572381E+03  0.32655396884E+04  0.32028647401E+04 0.  0.
        1    1    3    3  502    0 -0.12363774210E+04 -0.14819163752E+03 -0.70832056090E+03  0.14325878353E+04  0.50400001928E-02 0. -1.
       -1    1    3    3    0  502  0.12363774210E+04  0.14819163752E+03  0.13450362847E+04  0.18329518531E+04  0.50400001928E-02 0.  1.
</event>
<event>
 5   0  0.2997105E-07  0.3174054E+04  0.7818609E-02  0.8195703E-01
       -1   -1    0    0    0  501  0.00000000000E+00  0.00000000000E+00  0.94264777129E+03  0.94264777131E+03  0.50400001928E-02 0.  1.
        1   -1    0    0  501    0  0.00000000000E+00  0.00000000000E+00 -0.26718936357E+04  0.26718936357E+04  0.50400001928E-02 0. -1.
    10030    2    1    2    0    0  0.00000000000E+00  0.00000000000E+00 -0.17292458644E+04  0.36145414070E+04  0.31740539257E+04 0.  0.
        3    1    3    3  502    0  0.12552050252E+04  0.55001736395E+03  0.46823085462E+02  0.13712225084E+04  0.10100000352E+00 0.  1.
       -3    1    3    3    0  502 -0.12552050252E+04 -0.55001736395E+03 -0.17760689498E+04  0.22433188986E+04  0.10100000352E+00 0. -1.
</event>
<event>
 5   0  0.8335929E-07  0.3191639E+04  0.7818609E-02  0.8191029E-01
        2   -1    0    0  501    0  0.00000000000E+00  0.00000000000E+00  0.17835758729E+04  0.17835758729E+04  0.25500000920E-02 0. -1.
       -2   -1    0    0    0  501  0.00000000000E+00  0.00000000000E+00 -0.14278277645E+04  0.14278277645E+04  0.25500000920E-02 0.  1.
    10030    2    1    2    0    0  0.00000000000E+00  0.00000000000E+00  0.35574810842E+03  0.32114036374E+04  0.31916385456E+04 0.  0.
        4    1    3    3  502    0  0.20654180781E+03  0.15582715861E+04 -0.99089867707E+02  0.15750207202E+04  0.12699999809E+01 0.  1.
       -4    1    3    3    0  502 -0.20654180781E+03 -0.15582715861E+04  0.45483797613E+03  0.16363829172E+04  0.12699999809E+01 0. -1.
</event>
<event>
 5   0  0.8195618E-07  0.3175835E+04  0.7818609E-02  0.8195228E-01
        2   -1    0    0  501    0  0.00000000000E+00  0.00000000000E+00  0.87553999867E+03  0.87553999868E+03  0.25500000920E-02 0.  1.
       -2   -1    0    0    0  501  0.00000000000E+00  0.00000000000E+00 -0.28799168502E+04  0.28799168502E+04  0.25500000920E-02 0. -1.
    10030    2    1    2    0    0  0.00000000000E+00  0.00000000000E+00 -0.20043768515E+04  0.37554568489E+04  0.31758352572E+04 0.  0.
        1    1    3    3  502    0 -0.88950380385E+03 -0.82718958725E+03  0.20722665167E+03  0.12322347648E+04  0.50400001928E-02 0.  1.
       -1    1    3    3    0  502  0.88950380385E+03  0.82718958725E+03 -0.22116035032E+04  0.25232220841E+04  0.50400001928E-02 0. -1.
</event>
<event>
 5   0  0.8802800E-07  0.3186252E+04  0.7818609E-02  0.8192458E-01
        2   -1    0    0  501    0  0.00000000000E+00  0.00000000000E+00  0.25948707524E+04  0.25948707524E+04  0.25500000920E-02 0. -1.
       -2   -1    0    0    0  501  0.00000000000E+00  0.00000000000E+00 -0.97810269744E+03  0.97810269745E+03  0.25500000920E-02 0.  1.
    10030    2    1    2    0    0  0.00000000000E+00  0.00000000000E+00  0.16167680550E+04  0.35729734498E+04  0.31862517681E+04 0.  0.
        5    1    3    3  502    0 -0.64369772786E+03 -0.11917576111E+04 -0.13209549831E+03  0.13609203794E+04  0.46999998093E+01 0.  1.
       -5    1    3    3    0  502  0.64369772786E+03  0.11917576111E+04  0.17488635533E+04  0.22120530704E+04  0.46999998093E+01 0. -1.
</event>
<event>
 5   0  0.2783875E-07  0.3213411E+04  0.7818609E-02  0.8185284E-01
        1   -1    0    0  501    0  0.00000000000E+00  0.00000000000E+00  0.25040263644E+04  0.25040263644E+04  0.50400001928E-02 0. -1.
       -1   -1    0    0    0  501  0.00000000000E+00  0.00000000000E+00 -0.10309403315E+04  0.10309403315E+04  0.50400001928E-02 0.  1.
    10030    2    1    2    0    0  0.00000000000E+00  0.00000000000E+00  0.14730860329E+04  0.35349666959E+04  0.32134105061E+04 0.  0.
        2    1    3    3  502    0 -0.91664913534E+03  0.63749316024E+03  0.20075172604E+04  0.22971218334E+04  0.25500000920E-02 0. -1.
       -2    1    3    3    0  502  0.91664913534E+03 -0.63749316024E+03 -0.53443122750E+03  0.12378448625E+04  0.25500000920E-02 0.  1.
</event>
<event>
 5   0  0.3075756E-07  0.3206094E+04  0.7818609E-02  0.8187210E-01
       -1   -1    0    0    0  501  0.00000000000E+00  0.00000000000E+00  0.16279639791E+04  0.16279639791E+04  0.50400001928E-02 0. -1.
        1   -1    0    0  501    0  0.00000000000E+00  0.00000000000E+00 -0.15785112987E+04  0.15785112987E+04  0.50400001928E-02 0.  1.
    10030    2    1    2    0    0  0.00000000000E+00  0.00000000000E+00  0.49452680435E+02  0.32064752778E+04  0.32060939069E+04 0.  0.
        5    1    3    3  502    0 -0.67186430916E+03 -0.14513920168E+04  0.13335329465E+03  0.16049129657E+04  0.46999998093E+01 0.  1.
       -5    1    3    3    0  502  0.67186430916E+03  0.14513920168E+04 -0.83900614219E+02  0.16015623121E+04  0.46999998093E+01 0. -1.
</event>
<event>
 5   0  0.8335929E-07  0.3201409E+04  0.7818609E-02  0.8188445E-01
        2   -1    0    0  501    0  0.00000000000E+00  0.00000000000E+00  0.18133396276E+04  0.18133396276E+04  0.25500000920E-02 0. -1.
       -2   -1    0    0    0  501  0.00000000000E+00  0.00000000000E+00 -0.14130028757E+04  0.14130028757E+04  0.25500000920E-02 0.  1.
    10030    2    1    2    0    0  0.00000000000E+00  0.00000000000E+00  0.40033675194E+03  0.32263425033E+04  0.32014085077E+04 0.  0.
        4    1    3    3  502    0 -0.50432054729E+03  0.12363983194E+03  0.17261033470E+04  0.18025150207E+04  0.12699999809E+01 0. -1.
       -4    1    3    3    0  502  0.50432054729E+03 -0.12363983194E+03 -0.13257665951E+04  0.14238274825E+04  0.12699999809E+01 0.  1.
</event>
<event>
 5   0  0.2997105E-07  0.3209536E+04  0.7818609E-02  0.8186303E-01
        1   -1    0    0  501    0  0.00000000000E+00  0.00000000000E+00  0.24286544265E+04  0.24286544265E+04  0.50400001928E-02 0. -1.
       -1   -1    0    0    0  501  0.00000000000E+00  0.00000000000E+00 -0.10603732939E+04  0.10603732939E+04  0.50400001928E-02 0.  1.
    10030    2    1    2    0    0  0.00000000000E+00  0.00000000000E+00  0.13682811325E+04  0.34890277204E+04  0.32095359752E+04 0.  0.
        3    1    3    3  502    0  0.14030772983E+04 -0.53117622881E+03  0.13034014762E+04  0.19873674822E+04  0.10100000352E+00 0. -1.
       -3    1    3    3    0  502 -0.14030772983E+04  0.53117622881E+03  0.64879656332E+02  0.15016602382E+04  0.10100000352E+00 0.  1.
</event>
<event>
 5   0  0.8335929E-07  0.3198717E+04  0.7818609E-02  0.8189156E-01
        2   -1    0    0  501    0  0.00000000000E+00  0.00000000000E+00  0.26128778243E+04  0.26128778243E+04  0.25500000920E-02 0. -1.
       -2   -1    0    0    0  501  0.00000000000E+00  0.00000000000E+00 -0.97897725740E+03  0.97897725740E+03  0.25500000920E-02 0.  1.
    10030    2    1    2    0    0  0.00000000000E+00  0.00000000000E+00  0.16339005669E+04  0.35918550817E+04  0.31987172219E+04 0.  0.
        4    1    3    3  502    0 -0.14178581736E+04 -0.73657901005E+03  0.73694841634E+03  0.17595354557E+04  0.12699999809E+01 0. -1.
       -4    1    3    3    0  502  0.14178581736E+04  0.73657901005E+03  0.89695215059E+03  0.18323196260E+04  0.12699999809E+01 0.  1.
</event>
<event>
 5   0  0.2997105E-07  0.3212546E+04  0.7818609E-02  0.8185512E-01
       -1   -1    0    0    0  501  0.00000000000E+00  0.00000000000E+00  0.12712276807E+04  0.12712276807E+04  0.50400001928E-02 0.  1.
        1   -1    0    0  501    0  0.00000000000E+00  0.00000000000E+00 -0.20296235608E+04  0.20296235608E+04  0.50400001928E-02 0. -1.
    10030    2    1    2    0    0  0.00000000000E+00  0.00000000000E+00 -0.75839588015E+03  0.33008512415E+04  0.32125464367E+04 0.  0.
        3    1    3    3  502    0  0.28741318782E+03  0.11156593884E+04  0.77085912970E+03  0.13861911916E+04  0.10100000352E+00 0.  1.
       -3    1    3    3    0  502 -0.28741318782E+03 -0.11156593884E+04 -0.15292550098E+04  0.19146600500E+04  0.10100000352E+00 0. -1.
</event>
<event>
 5   0  0.3013888E-07  0.3210241E+04  0.7818609E-02  0.8186118E-01
        1   -1    0    0  501    0  0.00000000000E+00  0.00000000000E+00  0.14524510496E+04  0.14524510496E+04  0.50400001928E-02 0.  1.
       -1   -1    0    0    0  501  0.00000000000E+00  0.00000000000E+00 -0.17738373179E+04  0.17738373179E+04  0.50400001928E-02 0. -1.
    10030    2    1    2    0    0  0.00000000000E+00  0.00000000000E+00 -0.32138626831E+03  0.32262883676E+04  0.32102410341E+04 0.  0.
        1    1    3    3  502    0 -0.71463036270E+03  0.45843789960E+02  0.12830161130E+04  0.14693292873E+04  0.50400001928E-02 0.  1.
       -1    1    3    3    0  502  0.71463036270E+03 -0.45843789960E+02 -0.16044023813E+04  0.17569590802E+04  0.50400001928E-02 0. -1.
</event>
<event>
 5   0  0.8335929E-07  0.3194310E+04  0.7818609E-02  0.8190322E-01
       -2   -1    0    0    0  501  0.00000000000E+00  0.00000000000E+00  0.11070925651E+04  0.11070925651E+04  0.25500000920E-02 0.  1.
        2   -1    0    0  501    0  0.00000000000E+00  0.00000000000E+00 -0.23041468043E+04  0.23041468043E+04  0.25500000920E-02 0. -1.
    10030    2    1    2    0    0  0.00000000000E+00  0.00000000000E+00 -0.11970542392E+04  0.34112393694E+04  0.31943098133E+04 0.  0.
        4    1    3    3  502    0 -0.94131919802E+03 -0.33140228370E+03 -0.19302055381E+04  0.21729252952E+04  0.12699999809E+01 0. -1.
       -4    1    3    3    0  502  0.94131919802E+03  0.33140228370E+03  0.73315129893E+03  0.12383140741E+04  0.12699999809E+01 0.  1.
</event>
<event>
 5   0  0.8195618E-07  0.3213381E+04  0.7818609E-02  0.8185292E-01
        2   -1    0    0  501    0  0.00000000000E+00  0.00000000000E+00  0.19492030495E+04  0.19492030495E+04  0.25500000920E-02 0. -1.
       -2   -1    0    0    0  501  0.00000000000E+00  0.00000000000E+00 -0.13243639289E+04  0.13243639289E+04  0.25500000920E-02 0.  1.
    10030    2    1    2    0    0  0.00000000000E+00  0.00000000000E+00  0.62483912061E+03  0.32735669785E+04  0.32133809042E+04 0.  0.
        1    1    3    3  502    0 -0.83339166837E+03  0.12571765179E+04 -0.25150030218E+03  0.15291457982E+04  0.50400001928E-02 0. -1.
       -1    1    3    3    0  502  0.83339166837E+03 -0.12571765179E+04  0.87633942278E+03  0.17444211802E+04  0.50400001928E-02 0.  1.
</event>
<event>
 5   0  0.8335929E-07  0.3163699E+04  0.7818609E-02  0.8198471E-01
        2   -1    0    0  501    0  0.00000000000E+00  0.00000000000E+00  0.27413859463E+04  0.27413859463E+04  0.25500000920E-02 0.  1.
       -2   -1    0    0    0  501  0.00000000000E+00  0.00000000000E+00 -0.91276721488E+03  0.91276721488E+03  0.25500000920E-02 0. -1.
    10030    2    1    2    0    0  0.00000000000E+00  0.00000000000E+00  0.18286187314E+04  0.36541531612E+04  0.31636986045E+04 0.  0.
        4    1    3    3  502    0 -0.34272236329E+03 -0.41160969401E+03  0.26334611966E+04  0.26873780243E+04  0.12699999809E+01 0.  1.
       -4    1    3    3    0  502  0.34272236329E+03  0.41160969401E+03 -0.80484246523E+03  0.96677513685E+03  0.12699999809E+01 0. -1.
</event>
<event>
 5   0  0.8335929E-07  0.3210189E+04  0.7818609E-02  0.8186131E-01
       -2   -1    0    0    0  501  0.00000000000E+00  0.00000000000E+00  0.11641014031E+04  0.11641014031E+04  0.25500000920E-02 0. -1.
        2   -1    0    0  501    0  0.00000000000E+00  0.00000000000E+00 -0.22131479907E+04  0.22131479907E+04  0.25500000920E-02 0.  1.
    10030    2    1    2    0    0  0.00000000000E+00  0.00000000000E+00 -0.10490465875E+04  0.33772493938E+04  0.32101892039E+04 0.  0.
        4    1    3    3  502    0 -0.13940303826E+04  0.60245413457E+03 -0.10712356842E+04  0.18584453707E+04  0.12699999809E+01 0.  1.
       -4    1    3    3    0  502  0.13940303826E+04 -0.60245413457E+03  0.22189096642E+02  0.15188040231E+04  0.12699999809E+01 0. -1.
</event>
<event>
 5   0  0.3013888E-07  0.3193775E+04  0.7818609E-02  0.8190463E-01
       -1   -1    0    0    0  501  0.00000000000E+00  0.00000000000E+00  0.19971900425E+04  0.19971900425E+04  0.50400001928E-02 0. -1.
        1   -1    0    0  501    0  0.00000000000E+00  0.00000000000E+00 -0.12768190708E+04  0.12768190708E+04  0.50400001928E-02 0.  1.
    10030    2    1    2    0    0  0.00000000000E+00  0.00000000000E+00  0.72037097167E+03  0.32740091133E+04  0.31937754049E+04 0.  0.
        1    1    3    3  502    0 -0.97711380403E+03 -0.82984861194E+03 -0.61591695724E+03  0.14222354949E+04  0.50400001928E-02 0.  1.
       -1    1    3    3    0  502  0.97711380403E+03  0.82984861194E+03  0.13362879289E+04  0.18517736184E+04  0.50400001928E-02 0. -1.
</event>
<event>
 5   0  0.2997105E-07  0.3200817E+04  0.7818609E-02  0.8188601E-01
       -1   -1    0    0    0  501  0.00000000000E+00  0.00000000000E+00  0.24418151337E+04  0.24418151337E+04  0.50400001928E-02 0. -1.
        1   -1    0    0  501    0  0.00000000000E+00  0.00000000000E+00 -0.10489360382E+04  0.10489360382E+04  0.50400001928E-02 0.  1.
    10030    2    1    2    0    0  0.00000000000E+00  0.00000000000E+00  0.13928790955E+04  0.34907511719E+04  0.32008173284E+04 0.  0.
        3    1    3    3  502    0 -0.28422143882E+03 -0.15327763370E+04  0.30153054138E+03  0.15877990437E+04  0.10100000352E+00 0.  1.
       -3    1    3    3    0  502  0.28422143882E+03  0.15327763370E+04  0.10913485541E+04  0.19029521282E+04  0.10100000352E+00 0. -1.
</event>
<event>
 5   0  0.8838951E-07  0.3200493E+04  0.7818609E-02  0.8188687E-01
        2   -1    0    0  501    0  0.00000000000E+00  0.00000000000E+00  0.21761150307E+04  0.21761150307E+04  0.25500000920E-02 0.  1.
       -2   -1    0    0    0  501  0.00000000000E+00  0.00000000000E+00 -0.11767711411E+04  0.11767711411E+04  0.25500000920E-02 0. -1.
    10030    2    1    2    0    0  0.00000000000E+00  0.00000000000E+00  0.99934388965E+03  0.33528861718E+04  0.32004933169E+04 0.  0.
        2    1    3    3  502    0 -0.25860710220E+03 -0.11039038762E+04 -0.68339527549E+03  0.13238241967E+04  0.25500000920E-02 0. -1.
       -2    1    3    3    0  502  0.25860710220E+03  0.11039038762E+04  0.16827391651E+04  0.20290619752E+04  0.25500000920E-02 0.  1.
</event>
<event>
 5   0  0.2783875E-07  0.3206170E+04  0.7818609E-02  0.8187190E-01
       -1   -1    0    0    0  501  0.00000000000E+00  0.00000000000E+00  0.14920496528E+04  0.14920496528E+04  0.50400001928E-02 0.  1.
        1   -1    0    0  501    0  0.00000000000E+00  0.00000000000E+00 -0.17223828657E+04  0.17223828657E+04  0.50400001928E-02 0. -1.
    10030    2    1    2    0    0  0.00000000000E+00  0.00000000000E+00 -0.23033321283E+03  0.32144325185E+04  0.32061695256E+04 0.  0.
        2    1    3    3  502    0 -0.79254161619E+03  0.11539713052E+04  0.66794104084E+03  0.15511019376E+04  0.25500000920E-02 0.  1.
       -2    1    3    3    0  502  0.79254161619E+03 -0.11539713052E+04 -0.89827425367E+03  0.16633305809E+04  0.25500000920E-02 0. -1.
</event>
<event>
 5   0  0.2891204E-07  0.3203677E+04  0.7818609E-02  0.8187847E-01
        1   -1    0    0  501    0  0.00000000000E+00  0.00000000000E+00  0.24180819662E+04  0.24180819662E+04  0.50400001928E-02 0.  1.
       -1   -1    0    0    0  501  0.00000000000E+00  0.00000000000E+00 -0.10611246526E+04  0.10611246526E+04  0.50400001928E-02 0. -1.
    10030    2    1    2    0    0  0.00000000000E+00  0.00000000000E+00  0.13569573136E+04  0.34792066188E+04  0.32036768790E+04 0.  0.
        4    1    3    3  502    0 -0.95879264989E+03  0.66851725106E+02 -0.71318915465E+03  0.11968261703E+04  0.12699999809E+01 0. -1.
       -4    1    3    3    0  502  0.95879264989E+03 -0.66851725106E+02  0.20701464683E+04  0.22823804485E+04  0.12699999809E+01 0.  1.
</event>
<event>
 5   0  0.2891204E-07  0.3223457E+04  0.7818609E-02  0.8182650E-01
       -1   -1    0    0    0  501  0.00000000000E+00  0.00000000000E+00  0.15296749136E+04  0.15296749136E+04  0.50400001928E-02 0.  1.
        1   -1    0    0  501    0  0.00000000000E+00  0.00000000000E+00 -0.16981830511E+04  0.16981830512E+04  0.50400001928E-02 0. -1.
    10030    2    1    2    0    0  0.00000000000E+00  0.00000000000E+00 -0.16850813752E+03  0.32278579648E+04  0.32234565374E+04 0.  0.
        4    1    3    3  502    0  0.15879084659E+03 -0.10086113588E+04 -0.13330153852E+04  0.16791197206E+04  0.12699999809E+01 0. -1.
       -4    1    3    3    0  502 -0.15879084659E+03  0.10086113588E+04  0.11645072477E+04  0.15487382442E+04  0.12699999809E+01 0.  1.
</event>
<event>
 5   0  0.8838951E-07  0.3205174E+04  0.7818609E-02  0.8187452E-01
       -2   -1    0    0    0  501  0.00000000000E+00  0.00000000000E+00  0.17034206204E+04  0.17034206204E+04  0.25500000920E-02 0. -1.
        2   -1    0    0  501    0  0.00000000000E+00  0.00000000000E+00 -0.15077221739E+04  0.15077221739E+04  0.25500000920E-02 0.  1.
    10030    2    1    2    0    0  0.00000000000E+00  0.00000000000E+00  0.19569844646E+03  0.32111427943E+04  0.32051739678E+04 0.  0.
        2    1    3    3  502    0  0.15711652391E+04  0.20990327995E+03 -0.13852540321E+03  0.15911658879E+04  0.25500000920E-02 0. -1.
       -2    1    3    3    0  502 -0.15711652391E+04 -0.20990327995E+03  0.33422384967E+03  0.16199769064E+04  0.25500000920E-02 0.  1.
</event>
<event>
 5   0  0.3013888E-07  0.3197013E+04  0.7818609E-02  0.8189606E-01
        1   -1    0    0  501    0  0.00000000000E+00  0.00000000000E+00  0.25451858506E+04  0.25451858506E+04  0.50400001928E-02 0.  1.
       -1   -1    0    0    0  501  0.00000000000E+00  0.00000000000E+00 -0.10039436093E+04  0.10039436093E+04  0.50400001928E-02 0. -1.
    10030    2    1    2    0    0  0.00000000000E+00  0.00000000000E+00  0.15412422413E+04  0.35491294599E+04  0.31970130242E+04 0.  0.
        1    1    3    3  502    0  0.75280620704E+03 -0.64515988058E+03  0.21626288174E+04  0.23790569264E+04  0.50400001928E-02 0.  1.
       -1    1    3    3    0  502 -0.75280620704E+03  0.64515988058E+03 -0.62138657611E+03  0.11700725336E+04  0.50400001928E-02 0. -1.
</event>
<event>
 5   0  0.8838951E-07  0.3184456E+04  0.7818609E-02  0.8192934E-01
       -2   -1    0    0    0  501  0.00000000000E+00  0.00000000000E+00  0.93147734085E+03  0.93147734085E+03  0.25500000920E-02 0. -1.
        2   -1    0    0  501    0  0.00000000000E+00  0.00000000000E+00 -0.27216873093E+04  0.27216873093E+04  0.25500000920E-02 0.  1.
    10030    2    1    2    0    0  0.00000000000E+00  0.00000000000E+00 -0.17902099684E+04  0.36531646501E+04  0.31844560336E+04 0.  0.
        2    1    3    3  502    0  0.24551202715E+03 -0.49101453787E+03  0.81947576494E+03  0.98636299668E+03  0.25500000920E-02 0. -1.
       -2    1    3    3    0  502 -0.24551202715E+03  0.49101453787E+03 -0.26096857334E+04  0.26668016535E+04  0.25500000920E-02 0.  1.
</event>
<event>
 5   0  0.8838951E-07  0.3219870E+04  0.7818609E-02  0.8183589E-01
       -2   -1    0    0    0  501  0.00000000000E+00  0.00000000000E+00  0.13547209526E+04  0.13547209526E+04  0.25500000920E-02 0. -1.
        2   -1    0    0  501    0  0.00000000000E+00  0.00000000000E+00 -0.19132286763E+04  0.19132286763E+04  0.25500000920E-02 0.  1.
    10030    2    1    2    0    0  0.00000000000E+00  0.00000000000E+00 -0.55850772365E+03  0.32679496289E+04  0.32198701681E+04 0.  0.
        2    1    3    3  502    0 -0.42797116245E+03 -0.11068162912E+04 -0.13834745121E+04  0.18226912366E+04  0.25500000920E-02 0.  1.
       -2    1    3    3    0  502  0.42797116245E+03  0.11068162912E+04  0.82496678845E+03  0.14452583923E+04  0.25500000920E-02 0. -1.
</event>
<event>
 5   0  0.8838951E-07  0.3177757E+04  0.7818609E-02  0.8194716E-01
        2   -1    0    0  501    0  0.00000000000E+00  0.00000000000E+00  0.15414977483E+04  0.15414977483E+04  0.25500000920E-02 0.  1.
       -2   -1    0    0    0  501  0.00000000000E+00  0.00000000000E+00 -0.16377157757E+04  0.16377157757E+04  0.25500000920E-02 0. -1.
    10030    2    1    2    0    0  0.00000000000E+00  0.00000000000E+00 -0.96218027376E+02  0.31792135240E+04  0.31777571843E+04 0.  0.
        2    1    3    3  502    0  0.11229164502E+03 -0.87800207311E+03  0.12719797329E+04  0.15496546373E+04  0.25500000920E-02 0.  1.
       -2    1    3    3    0  502 -0.11229164502E+03  0.87800207311E+03 -0.13681977603E+04  0.16295588867E+04  0.25500000920E-02 0. -1.
</event>
<event>
 5   0  0.8195618E-07  0.3193218E+04  0.7818609E-02  0.8190611E-01
        2   -1    0    0  501    0  0.00000000000E+00  0.00000000000E+00  0.19647990111E+04  0.19647990111E+04  0.25500000920E-02 0.  1.
       -2   -1    0    0    0  501  0.00000000000E+00  0.00000000000E+00 -0.12974150457E+04  0.12974150457E+04  0.25500000920E-02 0. -1.
    10030    2    1    2    0    0  0.00000000000E+00  0.00000000000E+00  0.66738396537E+03  0.32622140569E+04  0.31932176868E+04 0.  0.
        1    1    3    3  502    0  0.70869650916E+03 -0.13946759389E+04  0.77559352200E+01  0.15644270105E+04  0.50400001928E-02 0. -1.
       -1    1    3    3    0  502 -0.70869650916E+03  0.13946759389E+04  0.65962803015E+03  0.16977870464E+04  0.50400001928E-02 0.  1.
</event>
<event>
 5   0  0.2783875E-07  0.3202469E+04  0.7818609E-02  0.8188165E-01
        1   -1    0    0  501    0  0.00000000000E+00  0.00000000000E+00  0.16507108079E+04  0.16507108079E+04  0.50400001928E-02 0. -1.
       -1   -1    0    0    0  501  0.00000000000E+00  0.00000000000E+00 -0.15532409743E+04  0.15532409743E+04  0.50400001928E-02 0.  1.
    10030    2    1    2    0    0  0.00000000000E+00  0.00000000000E+00  0.97469833588E+02  0.32039517822E+04  0.32024688373E+04 0.  0.
        2    1    3    3  502    0 -0.49983729870E+03  0.61304728448E+02 -0.14719544811E+04  0.15557138520E+04  0.25500000920E-02 0.  1.
       -2    1    3    3    0  502  0.49983729870E+03 -0.61304728448E+02  0.15694243147E+04  0.16482379302E+04  0.25500000920E-02 0. -1.
</event>
<event>
 5   0  0.8335929E-07  0.3119566E+04  0.7818609E-02  0.8210389E-01
       -2   -1    0    0    0  501  0.00000000000E+00  0.00000000000E+00  0.14114238007E+04  0.14114238007E+04  0.25500000920E-02 0.  1.
        2   -1    0    0  501    0  0.00000000000E+00  0.00000000000E+00 -0.17237372246E+04  0.17237372246E+04  0.25500000920E-02 0. -1.
    10030    2    1    2    0    0  0.00000000000E+00  0.00000000000E+00 -0.31231342389E+03  0.31351610252E+04  0.31195664730E+04 0.  0.
        4    1    3    3  502    0  0.88308133523E+03  0.53801334225E+03 -0.13297403907E+04  0.16844886822E+04  0.12699999809E+01 0. -1.
       -4    1    3    3    0  502 -0.88308133523E+03 -0.53801334225E+03  0.10174269668E+04  0.14506723430E+04  0.12699999809E+01 0.  1.
</event>
<event>
 5   0  0.8802800E-07  0.3196570E+04  0.7818609E-02  0.8189723E-01
        2   -1    0    0  501    0  0.00000000000E+00  0.00000000000E+00  0.28032660568E+04  0.28032660568E+04  0.25500000920E-02 0.  1.
       -2   -1    0    0    0  501  0.00000000000E+00  0.00000000000E+00 -0.91126407916E+03  0.91126407917E+03  0.25500000920E-02 0. -1.
    10030    2    1    2    0    0  0.00000000000E+00  0.00000000000E+00  0.18920019776E+04  0.37145301359E+04  0.31965704509E+04 0.  0.
        5    1    3    3  502    0 -0.11370685419E+04 -0.76349333926E+03 -0.11284447984E+02  0.13696701708E+04  0.46999998093E+01 0. -1.
       -5    1    3    3    0  502  0.11370685419E+04  0.76349333926E+03  0.19032864256E+04  0.23448599651E+04  0.46999998093E+01 0.  1.
</event>
<event>
 5   0  0.2997105E-07  0.3258676E+04  0.7818609E-02  0.8173491E-01
       -1   -1    0    0    0  501  0.00000000000E+00  0.00000000000E+00  0.16146537370E+04  0.16146537370E+04  0.50400001928E-02 0.  1.
        1   -1    0    0  501    0  0.00000000000E+00  0.00000000000E+00 -0.16441553624E+04  0.16441553624E+04  0.50400001928E-02 0. -1.
    10030    2    1    2    0    0  0.00000000000E+00  0.00000000000E+00 -0.29501625362E+02  0.32588090994E+04  0.32586755593E+04 0.  0.
        3    1    3    3  502    0 -0.32310123871E+03  0.17866877811E+02  0.15821953223E+04  0.16149475793E+04  0.10100000352E+00 0.  1.
       -3    1    3    3    0  502  0.32310123871E+03 -0.17866877811E+02 -0.16116969477E+04  0.16438615201E+04  0.10100000352E+00 0. -1.
</event>
<event>
 5   0  0.8802800E-07  0.3204980E+04  0.7818609E-02  0.8187503E-01
       -2   -1    0    0    0  501  0.00000000000E+00  0.00000000000E+00  0.20366408950E+04  0.20366408950E+04  0.25500000920E-02 0. -1.
        2   -1    0    0  501    0  0.00000000000E+00  0.00000000000E+00 -0.12608874590E+04  0.12608874590E+04  0.25500000920E-02 0.  1.
    10030    2    1    2    0    0  0.00000000000E+00  0.00000000000E+00  0.77575343596E+03  0.32975283540E+04  0.32049804761E+04 0.  0.
        5    1    3    3  502    0 -0.13247008180E+04  0.36553137731E+03 -0.46024904278E+03  0.14492400479E+04  0.46999998093E+01 0.  1.
       -5    1    3    3    0  502  0.13247008180E+04 -0.36553137731E+03  0.12360024787E+04  0.18482883061E+04  0.46999998093E+01 0. -1.
</event>
<event>
 5   0  0.3075756E-07  0.3191276E+04  0.7818609E-02  0.8191125E-01
       -1   -1    0    0    0  501  0.00000000000E+00  0.00000000000E+00  0.20691328084E+04  0.20691328084E+04  0.50400001928E-02 0. -1.
        1   -1    0    0  501    0  0.00000000000E+00  0.00000000000E+00 -0.12304962228E+04  0.12304962228E+04  0.50400001928E-02 0.  1.
    10030    2    1    2    0    0  0.00000000000E+00  0.00000000000E+00  0.83863658558E+03  0.32996290312E+04  0.31912756730E+04 0.  0.
        5    1    3    3  502    0  0.12112959891E+03  0.77604920697E+03 -0.10167650934E+04  0.12848183126E+04  0.46999998093E+01 0.  1.
       -5    1    3    3    0  502 -0.12112959891E+03 -0.77604920697E+03  0.18554016790E+04  0.20148107186E+04  0.46999998093E+01 0. -1.
</event>
<event>
 5   0  0.8802800E-07  0.3190340E+04  0.7818609E-02  0.8191373E-01
       -2   -1    0    0    0  501  0.00000000000E+00  0.00000000000E+00  0.16397834523E+04  0.16397834523E+04  0.25500000920E-02 0.  1.
        2   -1    0    0  501    0  0.00000000000E+00  0.00000000000E+00 -0.15517703635E+04  0.15517703635E+04  0.25500000920E-02 0. -1.
    10030    2    1    2    0    0  0.00000000000E+00  0.00000000000E+00  0.88013088735E+02  0.31915538158E+04  0.31903400219E+04 0.  0.
        5    1    3    3  502    0  0.57417939441E+03 -0.13234563713E+04  0.72494644690E+03  0.16145551042E+04  0.46999998093E+01 0.  1.
       -5    1    3    3    0  502 -0.57417939441E+03  0.13234563713E+04 -0.63693335817E+03  0.15769987116E+04  0.46999998093E+01 0. -1.
</event>
<event>
 5   0  0.8838951E-07  0.3214050E+04  0.7818609E-02  0.8185116E-01
       -2   -1    0    0    0  501  0.00000000000E+00  0.00000000000E+00  0.86126289428E+03  0.86126289428E+03  0.25500000920E-02 0.  1.
        2   -1    0    0  501    0  0.00000000000E+00  0.00000000000E+00 -0.29985383328E+04  0.29985383328E+04  0.25500000920E-02 0. -1.
    10030    2    1    2    0    0  0.00000000000E+00  0.00000000000E+00 -0.21372754385E+04  0.38598012270E+04  0.32140502816E+04 0.  0.
        2    1    3    3  502    0 -0.42509493818E+03 -0.94758546470E+03  0.40409047912E+03  0.11144115195E+04  0.25500000920E-02 0.  1.
       -2    1    3    3    0  502  0.42509493818E+03  0.94758546470E+03 -0.25413659176E+04  0.27453897076E+04  0.25500000920E-02 0. -1.
</event>
<event>
 5   0  0.3013888E-07  0.3224941E+04  0.7818609E-02  0.8182261E-01
        1   -1    0    0  501    0  0.00000000000E+00  0.00000000000E+00  0.18325580612E+04  0.18325580612E+04  0.50400001928E-02 0.  1.
       -1   -1    0    0    0  501  0.00000000000E+00  0.00000000000E+00 -0.14188152119E+04  0.14188152120E+04  0.50400001928E-02 0. -1.
    10030    2    1    2    0    0  0.00000000000E+00  0.00000000000E+00  0.41374284929E+03  0.32513732732E+04  0.32249410873E+04 0.  0.
        1    1    3    3  502    0  0.92188861902E+03  0.11196609757E+04  0.91730423240E+03  0.17160904351E+04  0.50400001928E-02 0.  1.
       -1    1    3    3    0  502 -0.92188861902E+03 -0.11196609757E+04 -0.50356138312E+03  0.15352828381E+04  0.50400001928E-02 0. -1.
</event>
<event>
 5   0  0.2997105E-07  0.3202655E+04  0.7818609E-02  0.8188116E-01
       -1   -1    0    0    0  501  0.00000000000E+00  0.00000000000E+00  0.15674740975E+04  0.15674740975E+04  0.50400001928E-02 0.  1.
        1   -1    0    0  501    0  0.00000000000E+00  0.00000000000E+00 -0.16359119023E+04  0.16359119023E+04  0.50400001928E-02 0. -1.
    10030    2    1    2    0    0  0.00000000000E+00  0.00000000000E+00 -0.68437804816E+02  0.32033859999E+04  0.32026548567E+04 0.  0.
        3    1    3    3  502    0  0.97434775270E+02  0.14823401515E+04  0.56376677918E+03  0.15889175094E+04  0.10100000352E+00 0.  1.
       -3    1    3    3    0  502 -0.97434775270E+02 -0.14823401515E+04 -0.63220458400E+03  0.16144684904E+04  0.10100000352E+00 0. -1.
</event>
<event>
 5   0  0.8335929E-07  0.3199841E+04  0.7818609E-02  0.8188859E-01
       -2   -1    0    0    0  501  0.00000000000E+00  0.00000000000E+00  0.17951480949E+04  0.17951480949E+04  0.25500000920E-02 0. -1.
        2   -1    0    0  501    0  0.00000000000E+00  0.00000000000E+00 -0.14259245557E+04  0.14259245557E+04  0.25500000920E-02 0.  1.
    10030    2    1    2    0    0  0.00000000000E+00  0.00000000000E+00  0.36922353924E+03  0.32210726506E+04  0.31998410896E+04 0.  0.
        4    1    3    3  502    0 -0.10574388723E+02 -0.11450729403E+04  0.13093617537E+04  0.17394636160E+04  0.12699999809E+01 0. -1.
       -4    1    3    3    0  502  0.10574388723E+02  0.11450729403E+04 -0.94013821447E+03  0.14816090346E+04  0.12699999809E+01 0.  1.
</event>
<event>
 5   0  0.8335929E-07  0.3192788E+04  0.7818609E-02  0.8190725E-01
        2   -1    0    0  501    0  0.00000000000E+00  0.00000000000E+00  0.16795993487E+04  0.16795993487E+04  0.25500000920E-02 0.  1.
       -2   -1    0    0    0  501  0.00000000000E+00  0.00000000000E+00 -0.15173102685E+04  0.15173102685E+04  0.25500000920E-02 0. -1.
    10030    2    1    2    0    0  0.00000000000E+00  0.00000000000E+00  0.16228908026E+03  0.31969096172E+04  0.31927877091E+04 0.  0.
        4    1    3    3  502    0 -0.10526223132E+03 -0.12020236436E+04  0.11277359108E+04  0.16515843529E+04  0.12699999809E+01 0.  1.
       -4    1    3    3    0  502  0.10526223132E+03  0.12020236436E+04 -0.96544683055E+03  0.15453252644E+04  0.12699999809E+01 0. -1.
</event>
<event>
 5   0  0.8195618E-07  0.3199849E+04  0.7818609E-02  0.8188857E-01
        2   -1    0    0  501    0  0.00000000000E+00  0.00000000000E+00  0.23560528969E+04  0.23560528969E+04  0.25500000920E-02 0.  1.
       -2   -1    0    0    0  501  0.00000000000E+00  0.00000000000E+00 -0.10864605137E+04  0.10864605137E+04  0.25500000920E-02 0. -1.
    10030    2    1    2    0    0  0.00000000000E+00  0.00000000000E+00  0.12695923831E+04  0.34425134106E+04  0.31998490219E+04 0.  0.
        1    1    3    3  502    0 -0.12979513631E+04 -0.76477209210E+03  0.12143557994E+04  0.19349971838E+04  0.50400001928E-02 0.  1.
       -1    1    3    3    0  502  0.12979513631E+04  0.76477209210E+03  0.55236583704E+02  0.15075162268E+04  0.50400001928E-02 0. -1.
</event>
<event>
 5   0  0.8802800E-07  0.3213720E+04  0.7818609E-02  0.8185203E-01
       -2   -1    0    0    0  501  0.00000000000E+00  0.00000000000E+00  0.15375453580E+04  0.15375453580E+04  0.25500000920E-02 0. -1.
        2   -1    0    0  501    0  0.00000000000E+00  0.00000000000E+00 -0.16792991598E+04  0.16792991598E+04  0.25500000920E-02 0.  1.
    10030    2    1    2    0    0  0.00000000000E+00  0.00000000000E+00 -0.14175380179E+03  0.32168445177E+04  0.32137197313E+04 0.  0.
        5    1    3    3  502    0 -0.55424092174E+03 -0.15079937719E+04 -0.43494819642E+02  0.16072156373E+04  0.46999998093E+01 0.  1.
       -5    1    3    3    0  502  0.55424092174E+03  0.15079937719E+04 -0.98258982150E+02  0.16096288805E+04  0.46999998093E+01 0. -1.
</event>
<event>
 5   0  0.2997105E-07  0.3254672E+04  0.7818609E-02  0.8174526E-01
       -1   -1    0    0    0  501  0.00000000000E+00  0.00000000000E+00  0.14307660528E+04  0.14307660528E+04  0.50400001928E-02 0. -1.
        1   -1    0    0  501    0  0.00000000000E+00  0.00000000000E+00 -0.18509127041E+04  0.18509127041E+04  0.50400001928E-02 0.  1.
    10030    2    1    2    0    0  0.00000000000E+00  0.00000000000E+00 -0.42014665132E+03  0.32816787569E+04  0.32546723729E+04 0.  0.
        3    1    3    3  502    0 -0.85445447781E+03 -0.23152267148E+03 -0.15868808343E+04  0.18171092413E+04  0.10100000352E+00 0.  1.
       -3    1    3    3    0  502  0.85445447781E+03  0.23152267148E+03  0.11667341830E+04  0.14645695156E+04  0.10100000352E+00 0. -1.
</event>
<event>
 5   0  0.3013888E-07  0.3231489E+04  0.7818609E-02  0.8180550E-01
       -1   -1    0    0    0  501  0.00000000000E+00  0.00000000000E+00  0.19888047471E+04  0.19888047471E+04  0.50400001928E-02 0. -1.
        1   -1    0    0  501    0  0.00000000000E+00  0.00000000000E+00 -0.13126632226E+04  0.13126632227E+04  0.50400001928E-02 0.  1.
    10030    2    1    2    0    0  0.00000000000E+00  0.00000000000E+00  0.67614152442E+03  0.33014679697E+04  0.32314893461E+04 0.  0.
        1    1    3    3  502    0  0.22409427508E+03 -0.73853687101E+03 -0.11121672600E+04  0.13537248495E+04  0.50400001928E-02 0.  1.
       -1    1    3    3    0  502 -0.22409427508E+03  0.73853687101E+03  0.17883087844E+04  0.19477431202E+04  0.50400001928E-02 0. -1.
</event>
<event>
 5   0  0.8838951E-07  0.3201750E+04  0.7818609E-02  0.8188355E-01
       -2   -1    0    0    0  501  0.00000000000E+00  0.00000000000E+00  0.12074377241E+04  0.12074377241E+04  0.25500000920E-02 0. -1.
        2   -1    0    0  501    0  0.00000000000E+00  0.00000000000E+00 -0.21225119068E+04  0.21225119068E+04  0.25500000920E-02 0.  1.
    10030    2    1    2    0    0  0.00000000000E+00  0.00000000000E+00 -0.91507418265E+03  0.33299496309E+04  0.32017501127E+04 0.  0.
        2    1    3    3  502    0  0.79913199721E+03 -0.11257010382E+04 -0.13005385858E+04  0.18966326449E+04  0.25500000920E-02 0.  1.
       -2    1    3    3    0  502 -0.79913199721E+03  0.11257010382E+04  0.38546440319E+03  0.14333169860E+04  0.25500000920E-02 0. -1.
</event>
<event>
 5   0  0.3075756E-07  0.3201851E+04  0.7818609E-02  0.8188329E-01
        1   -1    0    0  501    0  0.00000000000E+00  0.00000000000E+00  0.14928665132E+04  0.14928665133E+04  0.50400001928E-02 0. -1.
       -1   -1    0    0    0  501  0.00000000000E+00  0.00000000000E+00 -0.17168058071E+04  0.17168058071E+04  0.50400001928E-02 0.  1.
    10030    2    1    2    0    0  0.00000000000E+00  0.00000000000E+00 -0.22393929380E+03  0.32096723203E+04  0.32018506518E+04 0.  0.
        5    1    3    3  502    0  0.85899745651E+03 -0.12774721427E+04  0.32856732682E+03  0.15740998329E+04  0.46999998093E+01 0. -1.
       -5    1    3    3    0  502 -0.85899745651E+03  0.12774721427E+04 -0.55250662062E+03  0.16355724874E+04  0.46999998093E+01 0.  1.
</event>
<event>
 5   0  0.3013888E-07  0.3127855E+04  0.7818609E-02  0.8208135E-01
       -1   -1    0    0    0  501  0.00000000000E+00  0.00000000000E+00  0.11672037322E+04  0.11672037322E+04  0.50400001928E-02 0. -1.
        1   -1    0    0  501    0  0.00000000000E+00  0.00000000000E+00 -0.20954952456E+04  0.20954952456E+04  0.50400001928E-02 0.  1.
    10030    2    1    2    0    0  0.00000000000E+00  0.00000000000E+00 -0.92829151336E+03  0.32626989779E+04  0.31278554133E+04 0.  0.
        1    1    3    3  502    0  0.10187608131E+04  0.55893222549E+03 -0.15559746284E+04  0.19419927577E+04  0.50400001928E-02 0. -1.
       -1    1    3    3    0  502 -0.10187608131E+04 -0.55893222549E+03  0.62768311503E+03  0.13207062201E+04  0.50400001928E-02 0.  1.
</event>
<event>
 5   0  0.2783875E-07  0.3139188E+04  0.7818609E-02  0.8205065E-01
        1   -1    0    0  501    0  0.00000000000E+00  0.00000000000E+00  0.20846639454E+04  0.20846639454E+04  0.50400001928E-02 0. -1.
       -1   -1    0    0    0  501  0.00000000000E+00  0.00000000000E+00 -0.11817851541E+04  0.11817851541E+04  0.50400001928E-02 0.  1.
    10030    2    1    2    0    0  0.00000000000E+00  0.00000000000E+00  0.90287879125E+03  0.32664490995E+04  0.31391877306E+04 0.  0.
        2    1    3    3  502    0 -0.10028551953E+04 -0.73308333872E+03 -0.54687967091E+03  0.13572793002E+04  0.25500000920E-02 0.  1.
       -2    1    3    3    0  502  0.10028551953E+04  0.73308333872E+03  0.14497584622E+04  0.19091697994E+04  0.25500000920E-02 0. -1.
</event>
<event>
 5   0  0.8838951E-07  0.3194528E+04  0.7818609E-02  0.8190264E-01
       -2   -1    0    0    0  501  0.00000000000E+00  0.00000000000E+00  0.13346938619E+04  0.13346938619E+04  0.25500000920E-02 0. -1.
        2   -1    0    0  501    0  0.00000000000E+00  0.00000000000E+00 -0.19114893277E+04  0.19114893277E+04  0.25500000920E-02 0.  1.
    10030    2    1    2    0    0  0.00000000000E+00  0.00000000000E+00 -0.57679546575E+03  0.32461831896E+04  0.31945284928E+04 0.  0.
        2    1    3    3  502    0 -0.59086930729E+03  0.10502816632E+04 -0.13536979427E+04  0.18123786112E+04  0.25500000920E-02 0.  1.
       -2    1    3    3    0  502  0.59086930729E+03 -0.10502816632E+04  0.77690247692E+03  0.14338045784E+04  0.25500000920E-02 0. -1.
</event>
<event>
 5   0  0.8488469E-07  0.3193213E+04  0.7818609E-02  0.8190612E-01
        2   -1    0    0  501    0  0.00000000000E+00  0.00000000000E+00  0.29533756702E+04  0.29533756702E+04  0.25500000920E-02 0.  1.
       -2   -1    0    0    0  501  0.00000000000E+00  0.00000000000E+00 -0.86313152578E+03  0.86313152579E+03  0.25500000920E-02 0. -1.
    10030    2    1    2    0    0  0.00000000000E+00  0.00000000000E+00  0.20902441444E+04  0.38165071960E+04  0.31932125820E+04 0.  0.
        3    1    3    3  502    0  0.15587648965E+04  0.34339567370E+03  0.10911493956E+04  0.19334620774E+04  0.10100000352E+00 0.  1.
       -3    1    3    3    0  502 -0.15587648965E+04 -0.34339567370E+03  0.99909474886E+03  0.18830451186E+04  0.10100000352E+00 0. -1.
</event>
<event>
 5   0  0.3075756E-07  0.3196881E+04  0.7818609E-02  0.8189641E-01
        1   -1    0    0  501    0  0.00000000000E+00  0.00000000000E+00  0.12008726868E+04  0.12008726868E+04  0.50400001928E-02 0.  1.
       -1   -1    0    0    0  501  0.00000000000E+00  0.00000000000E+00 -0.21276296563E+04  0.21276296563E+04  0.50400001928E-02 0. -1.
    10030    2    1    2    0    0  0.00000000000E+00  0.00000000000E+00 -0.92675696952E+03  0.33285023432E+04  0.31968811939E+04 0.  0.
        5    1    3    3  502    0  0.68282766018E+03  0.61340709467E+03  0.89911254002E+03  0.12848919515E+04  0.46999998093E+01 0.  1.
       -5    1    3    3    0  502 -0.68282766018E+03 -0.61340709467E+03 -0.18258695095E+04  0.20436103917E+04  0.46999998093E+01 0. -1.
</event>
<event>
 5   0  0.3013888E-07  0.3197547E+04  0.7818609E-02  0.8189465E-01
       -1   -1    0    0    0  501  0.00000000000E+00  0.00000000000E+00  0.18982766519E+04  0.18982766519E+04  0.50400001928E-02 0.  1.
        1   -1    0    0  501    0  0.00000000000E+00  0.00000000000E+00 -0.13465244968E+04  0.13465244968E+04  0.50400001928E-02 0. -1.
    10030    2    1    2    0    0  0.00000000000E+00  0.00000000000E+00  0.55175215509E+03  0.32448011487E+04  0.31975465679E+04 0.  0.
        1    1    3    3  502    0  0.20005676570E+03 -0.99613690662E+03 -0.97677508043E+03  0.14093973904E+04  0.50400001928E-02 0. -1.
       -1    1    3    3    0  502 -0.20005676570E+03  0.99613690662E+03  0.15285272355E+04  0.18354037583E+04  0.50400001928E-02 0.  1.
</event>
<event>
 5   0  0.2997105E-07  0.3200858E+04  0.7818609E-02  0.8188591E-01
        1   -1    0    0  501    0  0.00000000000E+00  0.00000000000E+00  0.23909498130E+04  0.23909498130E+04  0.50400001928E-02 0. -1.
       -1   -1    0    0    0  501  0.00000000000E+00  0.00000000000E+00 -0.10712781287E+04  0.10712781287E+04  0.50400001928E-02 0.  1.
    10030    2    1    2    0    0  0.00000000000E+00  0.00000000000E+00  0.13196716843E+04  0.34622279417E+04  0.32008575360E+04 0.  0.
        3    1    3    3  502    0 -0.15228035812E+04 -0.41575868733E+03  0.94516809600E+03  0.18398719447E+04  0.10100000352E+00 0. -1.
       -3    1    3    3    0  502  0.15228035812E+04  0.41575868733E+03  0.37450358835E+03  0.16223559970E+04  0.10100000352E+00 0.  1.
</event>
<event>
 5   0  0.8802800E-07  0.3182209E+04  0.7818609E-02  0.8193532E-01
        2   -1    0    0  501    0  0.00000000000E+00  0.00000000000E+00  0.19527634236E+04  0.19527634236E+04  0.25500000920E-02 0.  1.
       -2   -1    0    0    0  501  0.00000000000E+00  0.00000000000E+00 -0.12964257881E+04  0.12964257881E+04  0.25500000920E-02 0. -1.
    10030    2    1    2    0    0  0.00000000000E+00  0.00000000000E+00  0.65633763546E+03  0.32491892117E+04  0.31822085792E+04 0.  0.
        5    1    3    3  502    0  0.39900383236E+03  0.14886241748E+04 -0.75610062917E+02  0.15430310961E+04  0.46999998093E+01 0. -1.
       -5    1    3    3    0  502 -0.39900383236E+03 -0.14886241748E+04  0.73194769838E+03  0.17061581155E+04  0.46999998093E+01 0.  1.
</event>
<event>
 5   0  0.2783875E-07  0.3171450E+04  0.7818609E-02  0.8196398E-01
        3   -1    0    0  501    0  0.00000000000E+00  0.00000000000E+00  0.16750236095E+04  0.16750236125E+04  0.10100000352E+00 0. -1.
       -3   -1    0    0    0  501  0.00000000000E+00  0.00000000000E+00 -0.15011875211E+04  0.15011875245E+04  0.10100000352E+00 0.  1.
    10030    2    1    2    0    0  0.00000000000E+00  0.00000000000E+00  0.17383608837E+03  0.31762111370E+04  0.31714504886E+04 0.  0.
        3    1    3    3  502    0  0.26384246485E+03  0.15142831580E+04 -0.30335680850E+03  0.15667455736E+04  0.10100000352E+00 0. -1.
       -3    1    3    3    0  502 -0.26384246485E+03 -0.15142831580E+04  0.47719289687E+03  0.16094655635E+04  0.10100000352E+00 0.  1.
</event>
<event>
 5   0  0.8838951E-07  0.3197995E+04  0.7818609E-02  0.8189347E-01
        2   -1    0    0  501    0  0.00000000000E+00  0.00000000000E+00  0.21814222039E+04  0.21814222039E+04  0.25500000920E-02 0.  1.
       -2   -1    0    0    0  501  0.00000000000E+00  0.00000000000E+00 -0.11720760682E+04  0.11720760682E+04  0.25500000920E-02 0. -1.
    10030    2    1    2    0    0  0.00000000000E+00  0.00000000000E+00  0.10093461358E+04  0.33534982721E+04  0.31979948466E+04 0.  0.
        2    1    3    3  502    0  0.91013063761E+03  0.11556988915E+04  0.11618985430E+04  0.18745628636E+04  0.25500000920E-02 0.  1.
       -2    1    3    3    0  502 -0.91013063761E+03 -0.11556988915E+04 -0.15255240726E+03  0.14789354085E+04  0.25500000920E-02 0. -1.
</event>
<event>
 5   0  0.8838951E-07  0.3134013E+04  0.7818609E-02  0.8206465E-01
        2   -1    0    0  501    0  0.00000000000E+00  0.00000000000E+00  0.11022338965E+04  0.11022338965E+04  0.25500000920E-02 0.  1.
       -2   -1    0    0    0  501  0.00000000000E+00  0.00000000000E+00 -0.22277569800E+04  0.22277569800E+04  0.25500000920E-02 0. -1.
    10030    2    1    2    0    0  0.00000000000E+00  0.00000000000E+00 -0.11255230835E+04  0.33299908765E+04  0.31340129269E+04 0.  0.
        2    1    3    3  502    0 -0.19118791322E+03 -0.12489928568E+04 -0.15475253698E+04  0.19978415214E+04  0.25500000920E-02 0. -1.
       -2    1    3    3    0  502  0.19118791322E+03  0.12489928568E+04  0.42200228624E+03  0.13321493551E+04  0.25500000920E-02 0.  1.
</event>
<event>
 5   0  0.8802800E-07  0.3194007E+04  0.7818609E-02  0.8190402E-01
        2   -1    0    0  501    0  0.00000000000E+00  0.00000000000E+00  0.24088503010E+04  0.24088503010E+04  0.25500000920E-02 0. -1.
       -2   -1    0    0    0  501  0.00000000000E+00  0.00000000000E+00 -0.10587706493E+04  0.10587706493E+04  0.25500000920E-02 0.  1.
    10030    2    1    2    0    0  0.00000000000E+00  0.00000000000E+00  0.13500796517E+04  0.34676209503E+04  0.31940068862E+04 0.  0.
        5    1    3    3  502    0  0.77800411621E+02 -0.14846774704E+04  0.41921449548E+02  0.14873128766E+04  0.46999998093E+01 0.  1.
       -5    1    3    3    0  502 -0.77800411621E+02  0.14846774704E+04  0.13081582021E+04  0.19803080737E+04  0.46999998093E+01 0. -1.
</event>
<event>
 5   0  0.8195618E-07  0.3197745E+04  0.7818609E-02  0.8189413E-01
        2   -1    0    0  501    0  0.00000000000E+00  0.00000000000E+00  0.26280033753E+04  0.26280033753E+04  0.25500000920E-02 0. -1.
       -2   -1    0    0    0  501  0.00000000000E+00  0.00000000000E+00 -0.97275083781E+03  0.97275083781E+03  0.25500000920E-02 0.  1.
    10030    2    1    2    0    0  0.00000000000E+00  0.00000000000E+00  0.16552525375E+04  0.36007542131E+04  0.31977445083E+04 0.  0.
        1    1    3    3  502    0 -0.19334698741E+03 -0.14552245606E+04  0.11427897426E+03  0.14724541633E+04  0.50400001928E-02 0. -1.
       -1    1    3    3    0  502  0.19334698741E+03  0.14552245606E+04  0.15409735632E+04  0.21283000497E+04  0.50400001928E-02 0.  1.
</event>
<event>
 5   0  0.8838951E-07  0.3193269E+04  0.7818609E-02  0.8190597E-01
       -2   -1    0    0    0  501  0.00000000000E+00  0.00000000000E+00  0.16629327227E+04  0.16629327227E+04  0.25500000920E-02 0.  1.
        2   -1    0    0  501    0  0.00000000000E+00  0.00000000000E+00 -0.15329794478E+04  0.15329794478E+04  0.25500000920E-02 0. -1.
    10030    2    1    2    0    0  0.00000000000E+00  0.00000000000E+00  0.12995327493E+03  0.31959121705E+04  0.31932689752E+04 0.  0.
        2    1    3    3  502    0 -0.11522651940E+03  0.45652150536E+03  0.15918713494E+04  0.16600432008E+04  0.25500000920E-02 0.  1.
       -2    1    3    3    0  502  0.11522651940E+03 -0.45652150536E+03 -0.14619180745E+04  0.15358689697E+04  0.25500000920E-02 0. -1.
</event>
<event>
 5   0  0.8195618E-07  0.3205374E+04  0.7818609E-02  0.8187399E-01
       -2   -1    0    0    0  501  0.00000000000E+00  0.00000000000E+00  0.15267956465E+04  0.15267956465E+04  0.25500000920E-02 0.  1.
        2   -1    0    0  501    0  0.00000000000E+00  0.00000000000E+00 -0.16823502553E+04  0.16823502553E+04  0.25500000920E-02 0. -1.
    10030    2    1    2    0    0  0.00000000000E+00  0.00000000000E+00 -0.15555460883E+03  0.32091459019E+04  0.32053736417E+04 0.  0.
        1    1    3    3  502    0  0.41303824313E+03 -0.17951042917E+03 -0.16176968150E+04  0.16792163559E+04  0.50400001928E-02 0. -1.
       -1    1    3    3    0  502 -0.41303824313E+03  0.17951042917E+03  0.14621422062E+04  0.15299295460E+04  0.50400001928E-02 0.  1.
</event>
<event>
 5   0  0.2891204E-07  0.3275893E+04  0.7818609E-02  0.8169057E-01
        1   -1    0    0  501    0  0.00000000000E+00  0.00000000000E+00  0.20830436490E+04  0.20830436491E+04  0.50400001928E-02 0. -1.
       -1   -1    0    0    0  501  0.00000000000E+00  0.00000000000E+00 -0.12879559077E+04  0.12879559077E+04  0.50400001928E-02 0.  1.
    10030    2    1    2    0    0  0.00000000000E+00  0.00000000000E+00  0.79508774139E+03  0.33709995567E+04  0.32758927783E+04 0.  0.
        4    1    3    3  502    0  0.62026662543E+03 -0.87794837506E+03  0.16692807542E+04  0.19854530680E+04  0.12699999809E+01 0. -1.
       -4    1    3    3    0  502 -0.62026662543E+03  0.87794837506E+03 -0.87419301281E+03  0.13855464887E+04  0.12699999809E+01 0.  1.
</event>
<event>
 5   0  0.2891204E-07  0.2991390E+04  0.7818609E-02  0.8246194E-01
        1   -1    0    0  501    0  0.00000000000E+00  0.00000000000E+00  0.19889838826E+04  0.19889838826E+04  0.50400001928E-02 0. -1.
       -1   -1    0    0    0  501  0.00000000000E+00  0.00000000000E+00 -0.11247471865E+04  0.11247471865E+04  0.50400001928E-02 0.  1.
    10030    2    1    2    0    0  0.00000000000E+00  0.00000000000E+00  0.86423669605E+03  0.31137310691E+04  0.29913903296E+04 0.  0.
        4    1    3    3  502    0 -0.76912332968E+02 -0.52152639946E+03 -0.10248398172E+04  0.11524771391E+04  0.12699999809E+01 0.  1.
       -4    1    3    3    0  502  0.76912332968E+02  0.52152639946E+03  0.18890765132E+04  0.19612539300E+04  0.12699999809E+01 0. -1.
</event>
<event>
 5   0  0.2891204E-07  0.3185241E+04  0.7818609E-02  0.8192726E-01
       -1   -1    0    0    0  501  0.00000000000E+00  0.00000000000E+00  0.18350295905E+04  0.18350295905E+04  0.50400001928E-02 0. -1.
        1   -1    0    0  501    0  0.00000000000E+00  0.00000000000E+00 -0.13822337373E+04  0.13822337373E+04  0.50400001928E-02 0.  1.
    10030    2    1    2    0    0  0.00000000000E+00  0.00000000000E+00  0.45279585313E+03  0.32172633278E+04  0.31852408443E+04 0.  0.
        4    1    3    3  502    0  0.10843729917E+04  0.69352082385E+03 -0.72090200361E+03  0.14753091981E+04  0.12699999809E+01 0.  1.
       -4    1    3    3    0  502 -0.10843729917E+04 -0.69352082385E+03  0.11736978567E+04  0.17419541297E+04  0.12699999809E+01 0. -1.
</event>
<event>
 5   0  0.8335929E-07  0.3184867E+04  0.7818609E-02  0.8192825E-01
        2   -1    0    0  501    0  0.00000000000E+00  0.00000000000E+00  0.13870403997E+04  0.13870403997E+04  0.25500000920E-02 0. -1.
       -2   -1    0    0    0  501  0.00000000000E+00  0.00000000000E+00 -0.18282406638E+04  0.18282406638E+04  0.25500000920E-02 0.  1.
    10030    2    1    2    0    0  0.00000000000E+00  0.00000000000E+00 -0.44120026406E+03  0.32152810635E+04  0.31848665034E+04 0.  0.
        4    1    3    3  502    0  0.86190303327E+03 -0.86716580219E+03  0.80943185859E+03  0.14662997353E+04  0.12699999809E+01 0. -1.
       -4    1    3    3    0  502 -0.86190303327E+03  0.86716580219E+03 -0.12506321226E+04  0.17489813282E+04  0.12699999809E+01 0.  1.
</event>
<event>
 5   0  0.3075756E-07  0.3198461E+04  0.7818609E-02  0.8189224E-01
       -1   -1    0    0    0  501  0.00000000000E+00  0.00000000000E+00  0.14075763414E+04  0.14075763414E+04  0.50400001928E-02 0. -1.
        1   -1    0    0  501    0  0.00000000000E+00  0.00000000000E+00 -0.18169803688E+04  0.18169803688E+04  0.50400001928E-02 0.  1.
    10030    2    1    2    0    0  0.00000000000E+00  0.00000000000E+00 -0.40940402741E+03  0.32245567102E+04  0.31984612424E+04 0.  0.
        5    1    3    3  502    0 -0.25867069073E+03 -0.11309260785E+04  0.90501115565E+03  0.14713842473E+04  0.46999998093E+01 0. -1.
       -5    1    3    3    0  502  0.25867069073E+03  0.11309260785E+04 -0.13144151831E+04  0.17531724629E+04  0.46999998093E+01 0.  1.
</event>
<event>
 5   0  0.2783875E-07  0.3215304E+04  0.7818609E-02  0.8184787E-01
       -1   -1    0    0    0  501  0.00000000000E+00  0.00000000000E+00  0.16035952167E+04  0.16035952167E+04  0.50400001928E-02 0. -1.
        1   -1    0    0  501    0  0.00000000000E+00  0.00000000000E+00 -0.16117192577E+04  0.16117192577E+04  0.50400001928E-02 0.  1.
    10030    2    1    2    0    0  0.00000000000E+00  0.00000000000E+00 -0.81240409928E+01  0.32153144744E+04  0.32153042110E+04 0.  0.
        2    1    3    3  502    0  0.52703016623E+03 -0.15167639788E+04  0.74751483964E+02  0.16074581014E+04  0.25500000920E-02 0. -1.
       -2    1    3    3    0  502 -0.52703016623E+03  0.15167639788E+04 -0.82875524957E+02  0.16078563730E+04  0.25500000920E-02 0.  1.
</event>
<event>
 5   0  0.2891204E-07  0.3206095E+04  0.7818609E-02  0.8187209E-01
        1   -1    0    0  501    0  0.00000000000E+00  0.00000000000E+00  0.25270755658E+04  0.25270755658E+04  0.50400001928E-02 0. -1.
       -1   -1    0    0    0  501  0.00000000000E+00  0.00000000000E+00 -0.10168912539E+04  0.10168912539E+04  0.50400001928E-02 0.  1.
    10030    2    1    2    0    0  0.00000000000E+00  0.00000000000E+00  0.15101843119E+04  0.35439668197E+04  0.32060948463E+04 0.  0.
        4    1    3    3  502    0 -0.13420081449E+04 -0.34300021803E+03  0.16470519367E+04  0.21520726534E+04  0.12699999809E+01 0. -1.
       -4    1    3    3    0  502  0.13420081449E+04  0.34300021803E+03 -0.13686762475E+03  0.13918941663E+04  0.12699999809E+01 0.  1.
</event>
<event>
 5   0  0.2891204E-07  0.3204005E+04  0.7818609E-02  0.8187760E-01
        1   -1    0    0  501    0  0.00000000000E+00  0.00000000000E+00  0.12721037670E+04  0.12721037670E+04  0.50400001928E-02 0.  1.
       -1   -1    0    0    0  501  0.00000000000E+00  0.00000000000E+00 -0.20174546713E+04  0.20174546713E+04  0.50400001928E-02 0. -1.
    10030    2    1    2    0    0  0.00000000000E+00  0.00000000000E+00 -0.74535090432E+03  0.32895584383E+04  0.32040047985E+04 0.  0.
        4    1    3    3  502    0 -0.12149863313E+04 -0.46859016042E+02  0.69826023433E+03  0.14021257149E+04  0.12699999809E+01 0.  1.
       -4    1    3    3    0  502  0.12149863313E+04  0.46859016042E+02 -0.14436111387E+04  0.18874327234E+04  0.12699999809E+01 0. -1.
</event>
<event>
 5   0  0.8488469E-07  0.3198519E+04  0.7818609E-02  0.8189209E-01
        2   -1    0    0  501    0  0.00000000000E+00  0.00000000000E+00  0.19767660483E+04  0.19767660483E+04  0.25500000920E-02 0. -1.
       -2   -1    0    0    0  501  0.00000000000E+00  0.00000000000E+00 -0.12938457531E+04  0.12938457531E+04  0.25500000920E-02 0.  1.
    10030    2    1    2    0    0  0.00000000000E+00  0.00000000000E+00  0.68292029517E+03  0.32706118013E+04  0.31985186299E+04 0.  0.
        3    1    3    3  502    0  0.79840378858E+03 -0.24689695551E+03 -0.10528067934E+04  0.13441759077E+04  0.10100000352E+00 0.  1.
       -3    1    3    3    0  502 -0.79840378858E+03  0.24689695551E+03  0.17357270886E+04  0.19264358937E+04  0.10100000352E+00 0. -1.
</event>
<event>
 5   0  0.2783875E-07  0.3213331E+04  0.7818609E-02  0.8185305E-01
       -1   -1    0    0    0  501  0.00000000000E+00  0.00000000000E+00  0.22574409947E+04  0.22574409947E+04  0.50400001928E-02 0. -1.
        1   -1    0    0  501    0  0.00000000000E+00  0.00000000000E+00 -0.11434958005E+04  0.11434958005E+04  0.50400001928E-02 0.  1.
    10030    2    1    2    0    0  0.00000000000E+00  0.00000000000E+00  0.11139451942E+04  0.34009367952E+04  0.32133311671E+04 0.  0.
        2    1    3    3  502    0 -0.42873001143E+03  0.33938284343E+03 -0.10419868408E+04  0.11767441155E+04  0.25500000920E-02 0.  1.
       -2    1    3    3    0  502  0.42873001143E+03 -0.33938284343E+03  0.21559320350E+04  0.22241926797E+04  0.25500000920E-02 0. -1.
</event>
<event>
 5   0  0.8488469E-07  0.3197952E+04  0.7818609E-02  0.8189358E-01
        2   -1    0    0  501    0  0.00000000000E+00  0.00000000000E+00  0.15786477112E+04  0.15786477112E+04  0.25500000920E-02 0. -1.
       -2   -1    0    0    0  501  0.00000000000E+00  0.00000000000E+00 -0.16195659523E+04  0.16195659523E+04  0.25500000920E-02 0.  1.
    10030    2    1    2    0    0  0.00000000000E+00  0.00000000000E+00 -0.40918241160E+02  0.31982136635E+04  0.31979518969E+04 0.  0.
        3    1    3    3  502    0  0.92934638118E+02 -0.81459186902E+03 -0.13933523575E+04  0.16166717547E+04  0.10100000352E+00 0.  1.
       -3    1    3    3    0  502 -0.92934638118E+02  0.81459186902E+03  0.13524341163E+04  0.15815419088E+04  0.10100000352E+00 0. -1.
</event>
<event>
 5   0  0.3075756E-07  0.3190219E+04  0.7818609E-02  0.8191405E-01
        1   -1    0    0  501    0  0.00000000000E+00  0.00000000000E+00  0.18545673373E+04  0.18545673373E+04  0.50400001928E-02 0.  1.
       -1   -1    0    0    0  501  0.00000000000E+00  0.00000000000E+00 -0.13719504726E+04  0.13719504727E+04  0.50400001928E-02 0. -1.
    10030    2    1    2    0    0  0.00000000000E+00  0.00000000000E+00  0.48261686465E+03  0.32265178100E+04  0.31902191367E+04 0.  0.
        5    1    3    3  502    0  0.87111554832E+03 -0.11688876030E+03 -0.11049445543E+04  0.14118887488E+04  0.46999998093E+01 0. -1.
       -5    1    3    3    0  502 -0.87111554832E+03  0.11688876030E+03  0.15875614189E+04  0.18146290612E+04  0.46999998093E+01 0.  1.
</event>
<event>
 5   0  0.8488469E-07  0.3197452E+04  0.7818609E-02  0.8189490E-01
       -2   -1    0    0    0  501  0.00000000000E+00  0.00000000000E+00  0.11130919982E+04  0.11130919982E+04  0.25500000920E-02 0. -1.
        2   -1    0    0  501    0  0.00000000000E+00  0.00000000000E+00 -0.22962392001E+04  0.22962392001E+04  0.25500000920E-02 0.  1.
    10030    2    1    2    0    0  0.00000000000E+00  0.00000000000E+00 -0.11831472020E+04  0.34093311983E+04  0.31974524107E+04 0.  0.
        3    1    3    3  502    0 -0.11797350273E+04 -0.73076408284E+03 -0.14379855061E+04  0.19983976595E+04  0.10100000352E+00 0. -1.
       -3    1    3    3    0  502  0.11797350273E+04  0.73076408284E+03  0.25483830419E+03  0.14109335388E+04  0.10100000352E+00 0.  1.
</event>
<event>
 5   0  0.2997105E-07  0.3200866E+04  0.7818609E-02  0.8188588E-01
        1   -1    0    0  501    0  0.00000000000E+00  0.00000000000E+00  0.12578258343E+04  0.12578258344E+04  0.50400001928E-02 0. -1.
       -1   -1    0    0    0  501  0.00000000000E+00  0.00000000000E+00 -0.20363597306E+04  0.20363597306E+04  0.50400001928E-02 0.  1.
    10030    2    1    2    0    0  0.00000000000E+00  0.00000000000E+00 -0.77853389628E+03  0.32941855650E+04  0.32008660561E+04 0.  0.
        3    1    3    3  502    0  0.11994951607E+04 -0.10209767234E+04 -0.97807650282E+02  0.15782105236E+04  0.10100000352E+00 0. -1.
       -3    1    3    3    0  502 -0.11994951607E+04  0.10209767234E+04 -0.68072624599E+03  0.17159750413E+04  0.10100000352E+00 0.  1.
</event>
<event>
 5   0  0.3075756E-07  0.3193953E+04  0.7818609E-02  0.8190416E-01
        1   -1    0    0  501    0  0.00000000000E+00  0.00000000000E+00  0.20811305146E+04  0.20811305146E+04  0.50400001928E-02 0.  1.
       -1   -1    0    0    0  501  0.00000000000E+00  0.00000000000E+00 -0.12254558168E+04  0.12254558168E+04  0.50400001928E-02 0. -1.
    10030    2    1    2    0    0  0.00000000000E+00  0.00000000000E+00  0.85567469782E+03  0.33065863314E+04  0.31939527202E+04 0.  0.
        5    1    3    3  502    0  0.64767253688E+03  0.11423511764E+04 -0.51298156515E+03  0.14098291036E+04  0.46999998093E+01 0. -1.
       -5    1    3    3    0  502 -0.64767253688E+03 -0.11423511764E+04  0.13686562630E+04  0.18967572278E+04  0.46999998093E+01 0.  1.
</event>
<event>
 5   0  0.8488469E-07  0.3201890E+04  0.7818609E-02  0.8188318E-01
        2   -1    0    0  501    0  0.00000000000E+00  0.00000000000E+00  0.14652471971E+04  0.14652471971E+04  0.25500000920E-02 0.  1.
       -2   -1    0    0    0  501  0.00000000000E+00  0.00000000000E+00 -0.17492098139E+04  0.17492098139E+04  0.25500000920E-02 0. -1.
    10030    2    1    2    0    0  0.00000000000E+00  0.00000000000E+00 -0.28396261682E+03  0.32144570111E+04  0.32018899276E+04 0.  0.
        3    1    3    3  502    0 -0.18170708513E+03  0.80203171237E+02 -0.17367926337E+04  0.17481128900E+04  0.10100000352E+00 0. -1.
       -3    1    3    3    0  502  0.18170708513E+03 -0.80203171237E+02  0.14528300168E+04  0.14663441211E+04  0.10100000352E+00 0.  1.
</event>
<event>
 5   0  0.3013888E-07  0.3207375E+04  0.7818609E-02  0.8186872E-01
        1   -1    0    0  501    0  0.00000000000E+00  0.00000000000E+00  0.15823052799E+04  0.15823052799E+04  0.50400001928E-02 0.  1.
       -1   -1    0    0    0  501  0.00000000000E+00  0.00000000000E+00 -0.16253585057E+04  0.16253585057E+04  0.50400001928E-02 0. -1.
    10030    2    1    2    0    0  0.00000000000E+00  0.00000000000E+00 -0.43053225849E+02  0.32076637856E+04  0.32073748427E+04 0.  0.
        1    1    3    3  502    0 -0.21421059569E+03  0.11498675633E+04 -0.11187725489E+04  0.16185591150E+04  0.50400001928E-02 0. -1.
       -1    1    3    3    0  502  0.21421059569E+03 -0.11498675633E+04  0.10757193231E+04  0.15891046707E+04  0.50400001928E-02 0.  1.
</event>
<event>
 5   0  0.2783875E-07  0.3119345E+04  0.7818609E-02  0.8210449E-01
       -1   -1    0    0    0  501  0.00000000000E+00  0.00000000000E+00  0.16412651878E+04  0.16412651878E+04  0.50400001928E-02 0. -1.
        1   -1    0    0  501    0  0.00000000000E+00  0.00000000000E+00 -0.14821362287E+04  0.14821362287E+04  0.50400001928E-02 0.  1.
    10030    2    1    2    0    0  0.00000000000E+00  0.00000000000E+00  0.15912895910E+03  0.31234014165E+04  0.31193451849E+04 0.  0.
        2    1    3    3  502    0 -0.51581532707E+03 -0.58808072551E+03  0.14306426786E+04  0.16305345335E+04  0.25500000920E-02 0. -1.
       -2    1    3    3    0  502  0.51581532707E+03  0.58808072551E+03 -0.12715137195E+04  0.14928668829E+04  0.25500000920E-02 0.  1.
</event>
<event>
 5   0  0.8838951E-07  0.3194332E+04  0.7818609E-02  0.8190316E-01
        2   -1    0    0  501    0  0.00000000000E+00  0.00000000000E+00  0.11679018990E+04  0.11679018990E+04  0.25500000920E-02 0. -1.
       -2   -1    0    0    0  501  0.00000000000E+00  0.00000000000E+00 -0.21842063727E+04  0.21842063727E+04  0.25500000920E-02 0.  1.
    10030    2    1    2    0    0  0.00000000000E+00  0.00000000000E+00 -0.10163044737E+04  0.33521082717E+04  0.31943317114E+04 0.  0.
        2    1    3    3  502    0  0.81679811969E+03  0.68160929765E+03 -0.17582904952E+04  0.20550756357E+04  0.25500000920E-02 0.  1.
       -2    1    3    3    0  502 -0.81679811969E+03 -0.68160929765E+03  0.74198602146E+03  0.12970326361E+04  0.25500000920E-02 0. -1.
</event>
<event>
 5   0  0.8838951E-07  0.3207682E+04  0.7818609E-02  0.8186791E-01
       -2   -1    0    0    0  501  0.00000000000E+00  0.00000000000E+00  0.19799361473E+04  0.19799361473E+04  0.25500000920E-02 0.  1.
        2   -1    0    0  501    0  0.00000000000E+00  0.00000000000E+00 -0.12991866923E+04  0.12991866923E+04  0.25500000920E-02 0. -1.
    10030    2    1    2    0    0  0.00000000000E+00  0.00000000000E+00  0.68074945496E+03  0.32791228396E+04  0.32076824620E+04 0.  0.
        2    1    3    3  502    0  0.11098011115E+04 -0.10600641068E+04 -0.13573645583E+03  0.15407202222E+04  0.25500000920E-02 0.  1.
       -2    1    3    3    0  502 -0.11098011115E+04  0.10600641068E+04  0.81648591079E+03  0.17384026174E+04  0.25500000920E-02 0. -1.
</event>
<event>
 5   0  0.8335929E-07  0.3131249E+04  0.7818609E-02  0.8207214E-01
        2   -1    0    0  501    0  0.00000000000E+00  0.00000000000E+00  0.19690280164E+04  0.19690280164E+04  0.25500000920E-02 0.  1.
       -2   -1    0    0    0  501  0.00000000000E+00  0.00000000000E+00 -0.12448679872E+04  0.12448679872E+04  0.25500000920E-02 0. -1.
    10030    2    1    2    0    0  0.00000000000E+00  0.00000000000E+00  0.72416002921E+03  0.32138960036E+04  0.31312489160E+04 0.  0.
        4    1    3    3  502    0 -0.99463555722E+03  0.51699768221E+03  0.14839021312E+04  0.18597187000E+04  0.12699999809E+01 0.  1.
       -4    1    3    3    0  502  0.99463555722E+03 -0.51699768221E+03 -0.75974210203E+03  0.13541773036E+04  0.12699999809E+01 0. -1.
</event>
<event>
 5   0  0.8195618E-07  0.3024452E+04  0.7818609E-02  0.8236783E-01
        2   -1    0    0  501    0  0.00000000000E+00  0.00000000000E+00  0.12467721079E+04  0.12467721079E+04  0.25500000920E-02 0. -1.
       -2   -1    0    0    0  501  0.00000000000E+00  0.00000000000E+00 -0.18341986680E+04  0.18341986680E+04  0.25500000920E-02 0.  1.
    10030    2    1    2    0    0  0.00000000000E+00  0.00000000000E+00 -0.58742656004E+03  0.30809707759E+04  0.30244521749E+04 0.  0.
        1    1    3    3  502    0  0.11841346487E+04 -0.34592922235E+03 -0.11846924634E+04  0.17103619869E+04  0.50400001928E-02 0.  1.
       -1    1    3    3    0  502 -0.11841346487E+04  0.34592922235E+03  0.59726590341E+03  0.13706087890E+04  0.50400001928E-02 0. -1.
</event>
<event>
 5   0  0.2783875E-07  0.3171163E+04  0.7818609E-02  0.8196475E-01
        4   -1    0    0  501    0  0.00000000000E+00  0.00000000000E+00  0.12583855099E+04  0.12583861508E+04  0.12699999809E+01 0. -1.
       -4   -1    0    0    0  501  0.00000000000E+00  0.00000000000E+00 -0.19978512606E+04  0.19978516643E+04  0.12699999809E+01 0.  1.
    10030    2    1    2    0    0  0.00000000000E+00  0.00000000000E+00 -0.73946575066E+03  0.32562378150E+04  0.31711630535E+04 0.  0.
        2    1    3    3  502    0  0.63507072147E+03 -0.32567166279E+03  0.10841230239E+04  0.12979597776E+04  0.25500000920E-02 0. -1.
       -2    1    3    3    0  502 -0.63507072147E+03  0.32567166279E+03 -0.18235887746E+04  0.19582780375E+04  0.25500000920E-02 0.  1.
</event>
<event>
 5   0  0.8335929E-07  0.3204578E+04  0.7818609E-02  0.8187609E-01
       -2   -1    0    0    0  501  0.00000000000E+00  0.00000000000E+00  0.16351809255E+04  0.16351809255E+04  0.25500000920E-02 0.  1.
        2   -1    0    0  501    0  0.00000000000E+00  0.00000000000E+00 -0.15700588565E+04  0.15700588565E+04  0.25500000920E-02 0. -1.
    10030    2    1    2    0    0  0.00000000000E+00  0.00000000000E+00  0.65122068975E+02  0.32052397820E+04  0.32045781589E+04 0.  0.
        4    1    3    3  502    0 -0.41774667894E+03  0.10095162126E+04  0.12048496931E+04  0.16264377231E+04  0.12699999809E+01 0.  1.
       -4    1    3    3    0  502  0.41774667894E+03 -0.10095162126E+04 -0.11397276241E+04  0.15788020589E+04  0.12699999809E+01 0. -1.
</event>
<event>
 5   0  0.8195618E-07  0.3213379E+04  0.7818609E-02  0.8185293E-01
       -2   -1    0    0    0  501  0.00000000000E+00  0.00000000000E+00  0.17672143176E+04  0.17672143176E+04  0.25500000920E-02 0.  1.
        2   -1    0    0  501    0  0.00000000000E+00  0.00000000000E+00 -0.14607460529E+04  0.14607460529E+04  0.25500000920E-02 0. -1.
    10030    2    1    2    0    0  0.00000000000E+00  0.00000000000E+00  0.30646826470E+03  0.32279603705E+04  0.32133791181E+04 0.  0.
        1    1    3    3  502    0 -0.13532209262E+04 -0.21295705452E+02 -0.71659976139E+03  0.15313966175E+04  0.50400001928E-02 0. -1.
       -1    1    3    3    0  502  0.13532209262E+04  0.21295705452E+02  0.10230680261E+04  0.16965637530E+04  0.50400001928E-02 0.  1.
</event>
<event>
 5   0  0.2783875E-07  0.3237708E+04  0.7818609E-02  0.8178929E-01
        3   -1    0    0  501    0  0.00000000000E+00  0.00000000000E+00  0.14077422250E+04  0.14077422286E+04  0.10100000352E+00 0.  1.
       -3   -1    0    0    0  501  0.00000000000E+00  0.00000000000E+00 -0.18616253045E+04  0.18616253073E+04  0.10100000352E+00 0. -1.
    10030    2    1    2    0    0  0.00000000000E+00  0.00000000000E+00 -0.45388307957E+03  0.32693675359E+04  0.32377081763E+04 0.  0.
        5    1    3    3  502    0  0.10401519601E+04 -0.10041480845E+04 -0.96237425630E+03  0.17367831687E+04  0.46999998093E+01 0. -1.
       -5    1    3    3    0  502 -0.10401519601E+04  0.10041480845E+04  0.50849117673E+03  0.15325843672E+04  0.46999998093E+01 0.  1.
</event>
<event>
 5   0  0.2783875E-07  0.3199393E+04  0.7818609E-02  0.8188977E-01
       -3   -1    0    0    0  501  0.00000000000E+00  0.00000000000E+00  0.17261525308E+04  0.17261525337E+04  0.10100000352E+00 0. -1.
        3   -1    0    0  501    0  0.00000000000E+00  0.00000000000E+00 -0.14825046143E+04  0.14825046177E+04  0.10100000352E+00 0.  1.
    10030    2    1    2    0    0  0.00000000000E+00  0.00000000000E+00  0.24364791648E+03  0.32086571515E+04  0.31993931313E+04 0.  0.
        5    1    3    3  502    0 -0.63861110536E+03  0.18029360143E+03  0.15816062512E+04  0.17151764780E+04  0.46999998093E+01 0. -1.
       -5    1    3    3    0  502  0.63861110536E+03 -0.18029360143E+03 -0.13379583348E+04  0.14934806735E+04  0.46999998093E+01 0.  1.
</event>
<event>
 5   0  0.2997105E-07  0.3202680E+04  0.7818609E-02  0.8188110E-01
       -1   -1    0    0    0  501  0.00000000000E+00  0.00000000000E+00  0.17985224579E+04  0.17985224579E+04  0.50400001928E-02 0.  1.
        1   -1    0    0  501    0  0.00000000000E+00  0.00000000000E+00 -0.14257762345E+04  0.14257762345E+04  0.50400001928E-02 0. -1.
    10030    2    1    2    0    0  0.00000000000E+00  0.00000000000E+00  0.37274622335E+03  0.32242986924E+04  0.32026804884E+04 0.  0.
        3    1    3    3  502    0 -0.33237103325E+03  0.15352344118E+04  0.49972212281E+03  0.16483741726E+04  0.10100000352E+00 0.  1.
       -3    1    3    3    0  502  0.33237103325E+03 -0.15352344118E+04 -0.12697589947E+03  0.15759245198E+04  0.10100000352E+00 0. -1.
</event>
<event>
 5   0  0.8802800E-07  0.3199194E+04  0.7818609E-02  0.8189030E-01
       -2   -1    0    0    0  501  0.00000000000E+00  0.00000000000E+00  0.19187435713E+04  0.19187435713E+04  0.25500000920E-02 0.  1.
        2   -1    0    0  501    0  0.00000000000E+00  0.00000000000E+00 -0.13335340197E+04  0.13335340197E+04  0.25500000920E-02 0. -1.
    10030    2    1    2    0    0  0.00000000000E+00  0.00000000000E+00  0.58520955158E+03  0.32522775911E+04  0.31991935406E+04 0.  0.
        5    1    3    3  502    0 -0.70822253678E+03  0.71729939334E+03  0.15552239212E+04  0.18533324354E+04  0.46999998093E+01 0.  1.
       -5    1    3    3    0  502  0.70822253678E+03 -0.71729939334E+03 -0.97001436958E+03  0.13989451556E+04  0.46999998093E+01 0. -1.
</event>
<event>
 5   0  0.2891204E-07  0.3209275E+04  0.7818609E-02  0.8186372E-01
       -1   -1    0    0    0  501  0.00000000000E+00  0.00000000000E+00  0.22547585756E+04  0.22547585756E+04  0.50400001928E-02 0. -1.
        1   -1    0    0  501    0  0.00000000000E+00  0.00000000000E+00 -0.11419679697E+04  0.11419679697E+04  0.50400001928E-02 0.  1.
    10030    2    1    2    0    0  0.00000000000E+00  0.00000000000E+00  0.11127906059E+04  0.33967265453E+04  0.32092753529E+04 0.  0.
        4    1    3    3  502    0 -0.11240765016E+04  0.49971197315E+03 -0.53412597983E+03  0.13411011195E+04  0.12699999809E+01 0.  1.
       -4    1    3    3    0  502  0.11240765016E+04 -0.49971197315E+03  0.16469165858E+04  0.20556254257E+04  0.12699999809E+01 0. -1.
</event>
<event>
 5   0  0.8195618E-07  0.3184337E+04  0.7818609E-02  0.8192966E-01
        2   -1    0    0  501    0  0.00000000000E+00  0.00000000000E+00  0.10211441749E+04  0.10211441749E+04  0.25500000920E-02 0. -1.
       -2   -1    0    0    0  501  0.00000000000E+00  0.00000000000E+00 -0.24825096173E+04  0.24825096173E+04  0.25500000920E-02 0.  1.
    10030    2    1    2    0    0  0.00000000000E+00  0.00000000000E+00 -0.14613654425E+04  0.35036537922E+04  0.31843368131E+04 0.  0.
        1    1    3    3  502    0  0.64625428843E+03 -0.10709044509E+04 -0.18146203001E+04  0.22039346138E+04  0.50400001928E-02 0.  1.
       -1    1    3    3    0  502 -0.64625428843E+03  0.10709044509E+04  0.35325485762E+03  0.12997191784E+04  0.50400001928E-02 0. -1.
</event>
<event>
 5   0  0.8838951E-07  0.3201407E+04  0.7818609E-02  0.8188446E-01
       -2   -1    0    0    0  501  0.00000000000E+00  0.00000000000E+00  0.10197912659E+04  0.10197912659E+04  0.25500000920E-02 0. -1.
        2   -1    0    0  501    0  0.00000000000E+00  0.00000000000E+00 -0.25125262105E+04  0.25125262105E+04  0.25500000920E-02 0.  1.
    10030    2    1    2    0    0  0.00000000000E+00  0.00000000000E+00 -0.14927349446E+04  0.35323174764E+04  0.32014073685E+04 0.  0.
        2    1    3    3  502    0 -0.10524824092E+04  0.11905678986E+04 -0.95883635796E+03  0.18559467407E+04  0.25500000920E-02 0. -1.
       -2    1    3    3    0  502  0.10524824092E+04 -0.11905678986E+04 -0.53389858667E+03  0.16763707357E+04  0.25500000920E-02 0.  1.
</event>
<event>
 5   0  0.3075756E-07  0.3180286E+04  0.7818609E-02  0.8194043E-01
       -1   -1    0    0    0  501  0.00000000000E+00  0.00000000000E+00  0.12380741279E+04  0.12380741279E+04  0.50400001928E-02 0.  1.
        1   -1    0    0  501    0  0.00000000000E+00  0.00000000000E+00 -0.20423284702E+04  0.20423284702E+04  0.50400001928E-02 0. -1.
    10030    2    1    2    0    0  0.00000000000E+00  0.00000000000E+00 -0.80425434228E+03  0.32804025981E+04  0.31802855467E+04 0.  0.
        5    1    3    3  502    0  0.76581101176E+03 -0.13790181077E+04 -0.60938675592E+03  0.16910150074E+04  0.46999998093E+01 0.  1.
       -5    1    3    3    0  502 -0.76581101176E+03  0.13790181077E+04 -0.19486758637E+03  0.15893875906E+04  0.46999998093E+01 0. -1.
</event>
<event>
 5   0  0.8335929E-07  0.3199407E+04  0.7818609E-02  0.8188974E-01
        2   -1    0    0  501    0  0.00000000000E+00  0.00000000000E+00  0.15613413455E+04  0.15613413456E+04  0.25500000920E-02 0.  1.
       -2   -1    0    0    0  501  0.00000000000E+00  0.00000000000E+00 -0.16390083986E+04  0.16390083986E+04  0.25500000920E-02 0. -1.
    10030    2    1    2    0    0  0.00000000000E+00  0.00000000000E+00 -0.77667053098E+02  0.32003497442E+04  0.31994071817E+04 0.  0.
        4    1    3    3  502    0 -0.13457858623E+03  0.12847514528E+04 -0.98269631146E+03  0.16230808189E+04  0.12699999809E+01 0. -1.
       -4    1    3    3    0  502  0.13457858623E+03 -0.12847514528E+04  0.90502925836E+03  0.15772689253E+04  0.12699999809E+01 0.  1.
</event>
<event>
 5   0  0.8802800E-07  0.3208393E+04  0.7818609E-02  0.8186604E-01
       -2   -1    0    0    0  501  0.00000000000E+00  0.00000000000E+00  0.93604162900E+03  0.93604162900E+03  0.25500000920E-02 0.  1.
        2   -1    0    0  501    0  0.00000000000E+00  0.00000000000E+00 -0.27492860341E+04  0.27492860341E+04  0.25500000920E-02 0. -1.
    10030    2    1    2    0    0  0.00000000000E+00  0.00000000000E+00 -0.18132444051E+04  0.36853276631E+04  0.32083928550E+04 0.  0.
        5    1    3    3  502    0 -0.20133764051E+03  0.11472791520E+03 -0.27299515296E+04  0.27397731263E+04  0.46999998093E+01 0. -1.
       -5    1    3    3    0  502  0.20133764051E+03 -0.11472791520E+03  0.91670712445E+03  0.94555453678E+03  0.46999998093E+01 0.  1.
</event>
<event>
 5   0  0.2891204E-07  0.3175069E+04  0.7818609E-02  0.8195433E-01
       -1   -1    0    0    0  501  0.00000000000E+00  0.00000000000E+00  0.15737475015E+04  0.15737475015E+04  0.50400001928E-02 0.  1.
        1   -1    0    0  501    0  0.00000000000E+00  0.00000000000E+00 -0.16014425002E+04  0.16014425002E+04  0.50400001928E-02 0. -1.
    10030    2    1    2    0    0  0.00000000000E+00  0.00000000000E+00 -0.27694998773E+02  0.31751900017E+04  0.31750692172E+04 0.  0.
        4    1    3    3  502    0 -0.10531597457E+04 -0.10494242637E+04 -0.57049043551E+03  0.15924502144E+04  0.12699999809E+01 0. -1.
       -4    1    3    3    0  502  0.10531597457E+04  0.10494242637E+04  0.54279543674E+03  0.15827397873E+04  0.12699999809E+01 0.  1.
</event>
<event>
 5   0  0.8195618E-07  0.3099907E+04  0.7818609E-02  0.8215763E-01
        2   -1    0    0  501    0  0.00000000000E+00  0.00000000000E+00  0.26359930696E+04  0.26359930696E+04  0.25500000920E-02 0.  1.
       -2   -1    0    0    0  501  0.00000000000E+00  0.00000000000E+00 -0.91136669848E+03  0.91136669848E+03  0.25500000920E-02 0. -1.
    10030    2    1    2    0    0  0.00000000000E+00  0.00000000000E+00  0.17246263711E+04  0.35473597681E+04  0.30999072896E+04 0.  0.
        1    1    3    3  502    0  0.87460117787E+02 -0.13019222773E+04  0.18195384390E+04  0.22390558321E+04  0.50400001928E-02 0.  1.
       -1    1    3    3    0  502 -0.87460117787E+02  0.13019222773E+04 -0.94912067876E+02  0.13083039360E+04  0.50400001928E-02 0. -1.
</event>
<event>
 5   0  0.3075756E-07  0.3197770E+04  0.7818609E-02  0.8189406E-01
        1   -1    0    0  501    0  0.00000000000E+00  0.00000000000E+00  0.28060246101E+04  0.28060246101E+04  0.50400001928E-02 0. -1.
       -1   -1    0    0    0  501  0.00000000000E+00  0.00000000000E+00 -0.91105183205E+03  0.91105183207E+03  0.50400001928E-02 0.  1.
    10030    2    1    2    0    0  0.00000000000E+00  0.00000000000E+00  0.18949727780E+04  0.37170764421E+04  0.31977703869E+04 0.  0.
        5    1    3    3  502    0  0.51263330922E+03  0.13423972103E+04  0.13249107061E+03  0.14430520274E+04  0.46999998093E+01 0.  1.
       -5    1    3    3    0  502 -0.51263330922E+03 -0.13423972103E+04  0.17624817074E+04  0.22740244147E+04  0.46999998093E+01 0. -1.
</event>
<event>
 5   0  0.2997105E-07  0.3194946E+04  0.7818609E-02  0.8190153E-01
       -1   -1    0    0    0  501  0.00000000000E+00  0.00000000000E+00  0.15695665734E+04  0.15695665734E+04  0.50400001928E-02 0. -1.
        1   -1    0    0  501    0  0.00000000000E+00  0.00000000000E+00 -0.16258760907E+04  0.16258760907E+04  0.50400001928E-02 0.  1.
    10030    2    1    2    0    0  0.00000000000E+00  0.00000000000E+00 -0.56309517354E+02  0.31954426641E+04  0.31949464875E+04 0.  0.
        3    1    3    3  502    0  0.84969991732E+03  0.87421134812E+03 -0.10606354375E+04  0.16159155213E+04  0.10100000352E+00 0.  1.
       -3    1    3    3    0  502 -0.84969991732E+03 -0.87421134812E+03  0.10043259201E+04  0.15795271428E+04  0.10100000352E+00 0. -1.
</event>
<event>
 5   0  0.2997105E-07  0.3206618E+04  0.7818609E-02  0.8187072E-01
       -1   -1    0    0    0  501  0.00000000000E+00  0.00000000000E+00  0.13785042233E+04  0.13785042233E+04  0.50400001928E-02 0.  1.
        1   -1    0    0  501    0  0.00000000000E+00  0.00000000000E+00 -0.18647747512E+04  0.18647747512E+04  0.50400001928E-02 0. -1.
    10030    2    1    2    0    0  0.00000000000E+00  0.00000000000E+00 -0.48627052797E+03  0.32432789745E+04  0.32066180752E+04 0.  0.
        3    1    3    3  502    0 -0.13669690882E+03  0.12086535874E+04 -0.12996205222E+04  0.17800401825E+04  0.10100000352E+00 0. -1.
       -3    1    3    3    0  502  0.13669690882E+03 -0.12086535874E+04  0.81334999421E+03  0.14632387920E+04  0.10100000352E+00 0.  1.
</event>
<event>
 5   0  0.2891204E-07  0.3182598E+04  0.7818609E-02  0.8193428E-01
       -1   -1    0    0    0  501  0.00000000000E+00  0.00000000000E+00  0.12722847453E+04  0.12722847453E+04  0.50400001928E-02 0.  1.
        1   -1    0    0  501    0  0.00000000000E+00  0.00000000000E+00 -0.19903027389E+04  0.19903027389E+04  0.50400001928E-02 0. -1.
    10030    2    1    2    0    0  0.00000000000E+00  0.00000000000E+00 -0.71801799360E+03  0.32625874842E+04  0.31825975637E+04 0.  0.
        4    1    3    3  502    0  0.66276067057E+03 -0.14437591447E+04 -0.45373281028E+03  0.16521402030E+04  0.12699999809E+01 0. -1.
       -4    1    3    3    0  502 -0.66276067057E+03  0.14437591447E+04 -0.26428518331E+03  0.16104472812E+04  0.12699999809E+01 0.  1.
</event>
<event>
 5   0  0.8488469E-07  0.3201334E+04  0.7818609E-02  0.8188465E-01
        2   -1    0    0  501    0  0.00000000000E+00  0.00000000000E+00  0.12152211877E+04  0.12152211877E+04  0.25500000920E-02 0. -1.
       -2   -1    0    0    0  501  0.00000000000E+00  0.00000000000E+00 -0.21083694776E+04  0.21083694776E+04  0.25500000920E-02 0.  1.
    10030    2    1    2    0    0  0.00000000000E+00  0.00000000000E+00 -0.89314828994E+03  0.33235906653E+04  0.32013342598E+04 0.  0.
        3    1    3    3  502    0  0.13160238900E+04  0.68192021345E+03  0.18082309305E+03  0.14931949162E+04  0.10100000352E+00 0. -1.
       -3    1    3    3    0  502 -0.13160238900E+04 -0.68192021345E+03 -0.10739713830E+04  0.18303957491E+04  0.10100000352E+00 0.  1.
</event>
<event>
 5   0  0.2783875E-07  0.3189836E+04  0.7818609E-02  0.8191507E-01
       -3   -1    0    0    0  501  0.00000000000E+00  0.00000000000E+00  0.17145240588E+04  0.17145240617E+04  0.10100000352E+00 0.  1.
        3   -1    0    0  501    0  0.00000000000E+00  0.00000000000E+00 -0.14836560256E+04  0.14836560290E+04  0.10100000352E+00 0. -1.
    10030    2    1    2    0    0  0.00000000000E+00  0.00000000000E+00  0.23086803315E+03  0.31981800908E+04  0.31898363350E+04 0.  0.
        1    1    3    3  502    0 -0.24925236288E+03 -0.13477091031E+04 -0.70236946212E+03  0.15400550082E+04  0.50400001928E-02 0. -1.
       -1    1    3    3    0  502  0.24925236288E+03  0.13477091031E+04  0.93323749526E+03  0.16581250826E+04  0.50400001928E-02 0.  1.
</event>
<event>
 5   0  0.8488469E-07  0.3199853E+04  0.7818609E-02  0.8188856E-01
        2   -1    0    0  501    0  0.00000000000E+00  0.00000000000E+00  0.20057094698E+04  0.20057094698E+04  0.25500000920E-02 0.  1.
       -2   -1    0    0    0  501  0.00000000000E+00  0.00000000000E+00 -0.12762389575E+04  0.12762389575E+04  0.25500000920E-02 0. -1.
    10030    2    1    2    0    0  0.00000000000E+00  0.00000000000E+00  0.72947051234E+03  0.32819484273E+04  0.31998528483E+04 0.  0.
        3    1    3    3  502    0  0.65200753151E+03 -0.32040658596E+03 -0.10973158916E+04  0.13160077422E+04  0.10100000352E+00 0. -1.
       -3    1    3    3    0  502 -0.65200753151E+03  0.32040658596E+03  0.18267864039E+04  0.19659406851E+04  0.10100000352E+00 0.  1.
</event>
<event>
 5   0  0.8802800E-07  0.3204942E+04  0.7818609E-02  0.8187513E-01
       -2   -1    0    0    0  501  0.00000000000E+00  0.00000000000E+00  0.16155675481E+04  0.16155675481E+04  0.25500000920E-02 0. -1.
        2   -1    0    0  501    0  0.00000000000E+00  0.00000000000E+00 -0.15894806914E+04  0.15894806914E+04  0.25500000920E-02 0.  1.
    10030    2    1    2    0    0  0.00000000000E+00  0.00000000000E+00  0.26086856709E+02  0.32050482395E+04  0.32049420733E+04 0.  0.
        5    1    3    3  502    0 -0.28671084457E+02  0.10671625909E+04  0.12081701711E+04  0.16122516177E+04  0.46999998093E+01 0. -1.
       -5    1    3    3    0  502  0.28671084457E+02 -0.10671625909E+04 -0.11820833144E+04  0.15927966218E+04  0.46999998093E+01 0.  1.
</event>
<event>
 5   0  0.2783875E-07  0.3212879E+04  0.7818609E-02  0.8185424E-01
       -1   -1    0    0    0  501  0.00000000000E+00  0.00000000000E+00  0.15739075073E+04  0.15739075073E+04  0.50400001928E-02 0. -1.
        1   -1    0    0  501    0  0.00000000000E+00  0.00000000000E+00 -0.16396439900E+04  0.16396439900E+04  0.50400001928E-02 0.  1.
    10030    2    1    2    0    0  0.00000000000E+00  0.00000000000E+00 -0.65736482739E+02  0.32135514974E+04  0.32128790735E+04 0.  0.
        2    1    3    3  502    0  0.25916930044E+03 -0.84056732844E+03 -0.13773689844E+04  0.16342788865E+04  0.25500000920E-02 0.  1.
       -2    1    3    3    0  502 -0.25916930044E+03  0.84056732844E+03  0.13116325016E+04  0.15792726108E+04  0.25500000920E-02 0. -1.
</event>
<event>
 5   0  0.2891204E-07  0.3200461E+04  0.7818609E-02  0.8188695E-01
        1   -1    0    0  501    0  0.00000000000E+00  0.00000000000E+00  0.24733789689E+04  0.24733789689E+04  0.50400001928E-02 0. -1.
       -1   -1    0    0    0  501  0.00000000000E+00  0.00000000000E+00 -0.10353196607E+04  0.10353196608E+04  0.50400001928E-02 0.  1.
    10030    2    1    2    0    0  0.00000000000E+00  0.00000000000E+00  0.14380593082E+04  0.35086986297E+04  0.32004611387E+04 0.  0.
        4    1    3    3  502    0  0.73078799450E+03 -0.49740763111E+03  0.21813904545E+04  0.23537058806E+04  0.12699999809E+01 0. -1.
       -4    1    3    3    0  502 -0.73078799450E+03  0.49740763111E+03 -0.74333114634E+03  0.11549927491E+04  0.12699999809E+01 0.  1.
</event>
<event>
 5   0  0.8838951E-07  0.3147633E+04  0.7818609E-02  0.8202786E-01
       -2   -1    0    0    0  501  0.00000000000E+00  0.00000000000E+00  0.13988155725E+04  0.13988155725E+04  0.25500000920E-02 0.  1.
        2   -1    0    0  501    0  0.00000000000E+00  0.00000000000E+00 -0.17707111988E+04  0.17707111988E+04  0.25500000920E-02 0. -1.
    10030    2    1    2    0    0  0.00000000000E+00  0.00000000000E+00 -0.37189562635E+03  0.31695267713E+04  0.31476330150E+04 0.  0.
        2    1    3    3  502    0 -0.14116107333E+04  0.66680935696E+03 -0.38637705845E+03  0.16082807007E+04  0.25500000920E-02 0. -1.
       -2    1    3    3    0  502  0.14116107333E+04 -0.66680935696E+03  0.14481432101E+02  0.15612460706E+04  0.25500000920E-02 0.  1.
</event>
<event>
 5   0  0.8488469E-07  0.3203406E+04  0.7818609E-02  0.8187918E-01
        2   -1    0    0  501    0  0.00000000000E+00  0.00000000000E+00  0.13570561338E+04  0.13570561338E+04  0.25500000920E-02 0.  1.
       -2   -1    0    0    0  501  0.00000000000E+00  0.00000000000E+00 -0.18904537316E+04  0.18904537316E+04  0.25500000920E-02 0. -1.
    10030    2    1    2    0    0  0.00000000000E+00  0.00000000000E+00 -0.53339759782E+03  0.32475098654E+04  0.32034055829E+04 0.  0.
        3    1    3    3  502    0 -0.13369803364E+04  0.67884024183E+03 -0.83757827407E+03  0.17175208498E+04  0.10100000352E+00 0. -1.
       -3    1    3    3    0  502  0.13369803364E+04 -0.67884024183E+03  0.30418067625E+03  0.15299890156E+04  0.10100000352E+00 0.  1.
</event>
<event>
 5   0  0.3013888E-07  0.3198390E+04  0.7818609E-02  0.8189242E-01
       -1   -1    0    0    0  501  0.00000000000E+00  0.00000000000E+00  0.18979574892E+04  0.18979574892E+04  0.50400001928E-02 0. -1.
        1   -1    0    0  501    0  0.00000000000E+00  0.00000000000E+00 -0.13474617613E+04  0.13474617613E+04  0.50400001928E-02 0.  1.
    10030    2    1    2    0    0  0.00000000000E+00  0.00000000000E+00  0.55049572786E+03  0.32454192506E+04  0.31983903085E+04 0.  0.
        1    1    3    3  502    0 -0.62376332153E+03 -0.68470961524E+03  0.15980720584E+04  0.18470902096E+04  0.50400001928E-02 0. -1.
       -1    1    3    3    0  502  0.62376332153E+03  0.68470961524E+03 -0.10475763305E+04  0.13983290410E+04  0.50400001928E-02 0.  1.
</event>
<event>
 5   0  0.8802800E-07  0.3202559E+04  0.7818609E-02  0.8188142E-01
       -2   -1    0    0    0  501  0.00000000000E+00  0.00000000000E+00  0.11372825417E+04  0.11372825417E+04  0.25500000920E-02 0.  1.
        2   -1    0    0  501    0  0.00000000000E+00  0.00000000000E+00 -0.22545808743E+04  0.22545808743E+04  0.25500000920E-02 0. -1.
    10030    2    1    2    0    0  0.00000000000E+00  0.00000000000E+00 -0.11172983325E+04  0.33918634160E+04  0.32025586441E+04 0.  0.
        5    1    3    3  502    0 -0.13947659669E+04 -0.27715757450E+03 -0.13382904192E+04  0.19527497944E+04  0.46999998093E+01 0. -1.
       -5    1    3    3    0  502  0.13947659669E+04  0.27715757450E+03  0.22099208669E+03  0.14391136216E+04  0.46999998093E+01 0.  1.
</event>
<event>
 5   0  0.2891204E-07  0.3198050E+04  0.7818609E-02  0.8189332E-01
        1   -1    0    0  501    0  0.00000000000E+00  0.00000000000E+00  0.80632574418E+03  0.80632574420E+03  0.50400001928E-02 0.  1.
       -1   -1    0    0    0  501  0.00000000000E+00  0.00000000000E+00 -0.31710282034E+04  0.31710282034E+04  0.50400001928E-02 0. -1.
    10030    2    1    2    0    0  0.00000000000E+00  0.00000000000E+00 -0.23647024592E+04  0.39773539476E+04  0.31980504536E+04 0.  0.
        4    1    3    3  502    0  0.75341113036E+03 -0.84729419113E+03  0.21994742531E+03  0.11549520598E+04  0.12699999809E+01 0.  1.
       -4    1    3    3    0  502 -0.75341113036E+03  0.84729419113E+03 -0.25846498845E+04  0.28224018878E+04  0.12699999809E+01 0. -1.
</event>
<event>
 5   0  0.3075756E-07  0.3177738E+04  0.7818609E-02  0.8194721E-01
       -1   -1    0    0    0  501  0.00000000000E+00  0.00000000000E+00  0.12045199117E+04  0.12045199117E+04  0.50400001928E-02 0. -1.
        1   -1    0    0  501    0  0.00000000000E+00  0.00000000000E+00 -0.20958596473E+04  0.20958596473E+04  0.50400001928E-02 0.  1.
    10030    2    1    2    0    0  0.00000000000E+00  0.00000000000E+00 -0.89133973563E+03  0.33003795591E+04  0.31777379863E+04 0.  0.
        5    1    3    3  502    0 -0.12280793657E+03 -0.15403392646E+04 -0.82974713063E+03  0.17539182507E+04  0.46999998093E+01 0.  1.
       -5    1    3    3    0  502  0.12280793657E+03  0.15403392646E+04 -0.61592605004E+02  0.15464613084E+04  0.46999998093E+01 0. -1.
</event>
<event>
 5   0  0.8838951E-07  0.3194926E+04  0.7818609E-02  0.8190159E-01
       -2   -1    0    0    0  501  0.00000000000E+00  0.00000000000E+00  0.15859214909E+04  0.15859214909E+04  0.25500000920E-02 0.  1.
        2   -1    0    0  501    0  0.00000000000E+00  0.00000000000E+00 -0.16090881396E+04  0.16090881396E+04  0.25500000920E-02 0. -1.
    10030    2    1    2    0    0  0.00000000000E+00  0.00000000000E+00 -0.23166648686E+02  0.31950096305E+04  0.31949256400E+04 0.  0.
        2    1    3    3  502    0 -0.38077301898E+02  0.37894683259E+03 -0.15630224709E+04  0.16087541227E+04  0.25500000920E-02 0. -1.
       -2    1    3    3    0  502  0.38077301898E+02 -0.37894683259E+03  0.15398558222E+04  0.15862555078E+04  0.25500000920E-02 0.  1.
</event>
<event>
 5   0  0.3013888E-07  0.3178424E+04  0.7818609E-02  0.8194539E-01
        1   -1    0    0  501    0  0.00000000000E+00  0.00000000000E+00  0.21014288939E+04  0.21014288939E+04  0.50400001928E-02 0.  1.
       -1   -1    0    0    0  501  0.00000000000E+00  0.00000000000E+00 -0.12018466217E+04  0.12018466217E+04  0.50400001928E-02 0. -1.
    10030    2    1    2    0    0  0.00000000000E+00  0.00000000000E+00  0.89958227224E+03  0.33032755156E+04  0.31784242743E+04 0.  0.
        1    1    3    3  502    0 -0.10417772526E+04 -0.90413277146E+03 -0.37041107348E+03  0.14282717794E+04  0.50400001928E-02 0. -1.
       -1    1    3    3    0  502  0.10417772526E+04  0.90413277146E+03  0.12699933457E+04  0.18750037362E+04  0.50400001928E-02 0.  1.
</event>
<event>
 5   0  0.2783875E-07  0.3197254E+04  0.7818609E-02  0.8189543E-01
        1   -1    0    0  501    0  0.00000000000E+00  0.00000000000E+00  0.23085814695E+04  0.23085814695E+04  0.50400001928E-02 0.  1.
       -1   -1    0    0    0  501  0.00000000000E+00  0.00000000000E+00 -0.11070035527E+04  0.11070035527E+04  0.50400001928E-02 0. -1.
    10030    2    1    2    0    0  0.00000000000E+00  0.00000000000E+00  0.12015779168E+04  0.34155850222E+04  0.31972537519E+04 0.  0.
        2    1    3    3  502    0  0.14074288571E+04  0.45898733097E+03 -0.43807500439E+02  0.14810281749E+04  0.25500000920E-02 0. -1.
       -2    1    3    3    0  502 -0.14074288571E+04 -0.45898733097E+03  0.12453854172E+04  0.19345568473E+04  0.25500000920E-02 0.  1.
</event>
<event>
 5   0  0.8802800E-07  0.3198844E+04  0.7818609E-02  0.8189122E-01
        2   -1    0    0  501    0  0.00000000000E+00  0.00000000000E+00  0.20961870590E+04  0.20961870590E+04  0.25500000920E-02 0.  1.
       -2   -1    0    0    0  501  0.00000000000E+00  0.00000000000E+00 -0.12203831687E+04  0.12203831687E+04  0.25500000920E-02 0. -1.
    10030    2    1    2    0    0  0.00000000000E+00  0.00000000000E+00  0.87580389027E+03  0.33165702277E+04  0.31988444197E+04 0.  0.
        5    1    3    3  502    0  0.10808040152E+04  0.10437896653E+04 -0.13044666096E+03  0.15082017789E+04  0.46999998093E+01 0. -1.
       -5    1    3    3    0  502 -0.10808040152E+04 -0.10437896653E+04  0.10062505512E+04  0.18083684488E+04  0.46999998093E+01 0.  1.
</event>
<event>
 5   0  0.8335929E-07  0.3069483E+04  0.7818609E-02  0.8224163E-01
        2   -1    0    0  501    0  0.00000000000E+00  0.00000000000E+00  0.15573906261E+04  0.15573906261E+04  0.25500000920E-02 0.  1.
       -2   -1    0    0    0  501  0.00000000000E+00  0.00000000000E+00 -0.15124219925E+04  0.15124219925E+04  0.25500000920E-02 0. -1.
    10030    2    1    2    0    0  0.00000000000E+00  0.00000000000E+00  0.44968633583E+02  0.30698126185E+04  0.30694832358E+04 0.  0.
        4    1    3    3  502    0 -0.32642939083E+03  0.62273827886E+03  0.13868415097E+04  0.15548923105E+04  0.12699999809E+01 0.  1.
       -4    1    3    3    0  502  0.32642939083E+03 -0.62273827886E+03 -0.13418728761E+04  0.15149203081E+04  0.12699999809E+01 0. -1.
</event>
<event>
 5   0  0.2783875E-07  0.3192286E+04  0.7818609E-02  0.8190857E-01
       -1   -1    0    0    0  501  0.00000000000E+00  0.00000000000E+00  0.14068859062E+04  0.14068859062E+04  0.50400001928E-02 0. -1.
        1   -1    0    0  501    0  0.00000000000E+00  0.00000000000E+00 -0.18108592412E+04  0.18108592412E+04  0.50400001928E-02 0.  1.
    10030    2    1    2    0    0  0.00000000000E+00  0.00000000000E+00 -0.40397333496E+03  0.32177451474E+04  0.31922859174E+04 0.  0.
        2    1    3    3  502    0  0.20809225876E+02 -0.10430285524E+04 -0.14196486035E+04  0.17617445168E+04  0.25500000920E-02 0.  1.
       -2    1    3    3    0  502 -0.20809225876E+02  0.10430285524E+04  0.10156752686E+04  0.14560006306E+04  0.25500000920E-02 0. -1.
</event>
<event>
 5   0  0.2997105E-07  0.3196743E+04  0.7818609E-02  0.8189678E-01
        1   -1    0    0  501    0  0.00000000000E+00  0.00000000000E+00  0.26163834538E+04  0.26163834538E+04  0.50400001928E-02 0.  1.
       -1   -1    0    0    0  501  0.00000000000E+00  0.00000000000E+00 -0.97645924036E+03  0.97645924037E+03  0.50400001928E-02 0. -1.
    10030    2    1    2    0    0  0.00000000000E+00  0.00000000000E+00  0.16399242135E+04  0.35928426942E+04  0.31967432176E+04 0.  0.
        3    1    3    3  502    0  0.78337960425E+02 -0.14662948142E+04  0.15295690821E+04  0.21203157561E+04  0.10100000352E+00 0.  1.
       -3    1    3    3    0  502 -0.78337960425E+02  0.14662948142E+04  0.11035513136E+03  0.14725269381E+04  0.10100000352E+00 0. -1.
</event>
<event>
 5   0  0.2783875E-07  0.3227835E+04  0.7818609E-02  0.8181504E-01
       -1   -1    0    0    0  501  0.00000000000E+00  0.00000000000E+00  0.18455971655E+04  0.18455971655E+04  0.50400001928E-02 0.  1.
        1   -1    0    0  501    0  0.00000000000E+00  0.00000000000E+00 -0.14113210055E+04  0.14113210055E+04  0.50400001928E-02 0. -1.
    10030    2    1    2    0    0  0.00000000000E+00  0.00000000000E+00  0.43427616006E+03  0.32569181710E+04  0.32278352172E+04 0.  0.
        2    1    3    3  502    0 -0.76125918821E+03 -0.13160064243E+04  0.76362819417E+03  0.17013278577E+04  0.25500000920E-02 0.  1.
       -2    1    3    3    0  502  0.76125918821E+03  0.13160064243E+04 -0.32935203412E+03  0.15555903133E+04  0.25500000920E-02 0. -1.
</event>
<event>
 5   0  0.8488469E-07  0.3203205E+04  0.7818609E-02  0.8187971E-01
        2   -1    0    0  501    0  0.00000000000E+00  0.00000000000E+00  0.17257223121E+04  0.17257223121E+04  0.25500000920E-02 0.  1.
       -2   -1    0    0    0  501  0.00000000000E+00  0.00000000000E+00 -0.14864094010E+04  0.14864094010E+04  0.25500000920E-02 0. -1.
    10030    2    1    2    0    0  0.00000000000E+00  0.00000000000E+00  0.23931291111E+03  0.32121317131E+04  0.32032045631E+04 0.  0.
        3    1    3    3  502    0 -0.11890200691E+04  0.98875498494E+03 -0.29830811751E+03  0.15749263120E+04  0.10100000352E+00 0. -1.
       -3    1    3    3    0  502  0.11890200691E+04 -0.98875498494E+03  0.53762102861E+03  0.16372054011E+04  0.10100000352E+00 0.  1.
</event>
<event>
 5   0  0.3075756E-07  0.3170689E+04  0.7818609E-02  0.8196601E-01
       -1   -1    0    0    0  501  0.00000000000E+00  0.00000000000E+00  0.25621418336E+04  0.25621418336E+04  0.50400001928E-02 0. -1.
        1   -1    0    0  501    0  0.00000000000E+00  0.00000000000E+00 -0.98094406921E+03  0.98094406922E+03  0.50400001928E-02 0.  1.
    10030    2    1    2    0    0  0.00000000000E+00  0.00000000000E+00  0.15811977644E+04  0.35430859028E+04  0.31706894116E+04 0.  0.
        5    1    3    3  502    0 -0.12819675607E+04 -0.20579672557E+02 -0.25134814356E+03  0.13065459536E+04  0.46999998093E+01 0.  1.
       -5    1    3    3    0  502  0.12819675607E+04  0.20579672557E+02  0.18325459079E+04  0.22365399492E+04  0.46999998093E+01 0. -1.
</event>
<event>
 5   0  0.2891204E-07  0.3193233E+04  0.7818609E-02  0.8190607E-01
       -1   -1    0    0    0  501  0.00000000000E+00  0.00000000000E+00  0.21292779624E+04  0.21292779624E+04  0.50400001928E-02 0.  1.
        1   -1    0    0  501    0  0.00000000000E+00  0.00000000000E+00 -0.11972062317E+04  0.11972062317E+04  0.50400001928E-02 0. -1.
    10030    2    1    2    0    0  0.00000000000E+00  0.00000000000E+00  0.93207173077E+03  0.33264841941E+04  0.31932333743E+04 0.  0.
        4    1    3    3  502    0 -0.88985038789E+03  0.10004500898E+04  0.13720702310E+04  0.19171104367E+04  0.12699999809E+01 0.  1.
       -4    1    3    3    0  502  0.88985038789E+03 -0.10004500898E+04 -0.43999850021E+03  0.14093737574E+04  0.12699999809E+01 0. -1.
</event>
<event>
 5   0  0.2997105E-07  0.3189411E+04  0.7818609E-02  0.8191619E-01
       -1   -1    0    0    0  501  0.00000000000E+00  0.00000000000E+00  0.17339048935E+04  0.17339048935E+04  0.50400001928E-02 0. -1.
        1   -1    0    0  501    0  0.00000000000E+00  0.00000000000E+00 -0.14666814685E+04  0.14666814685E+04  0.50400001928E-02 0.  1.
    10030    2    1    2    0    0  0.00000000000E+00  0.00000000000E+00  0.26722342500E+03  0.32005863620E+04  0.31894113410E+04 0.  0.
        3    1    3    3  502    0  0.71891600092E+03  0.45021478998E+01 -0.12948313157E+04  0.14810295852E+04  0.10100000352E+00 0.  1.
       -3    1    3    3    0  502 -0.71891600092E+03 -0.45021478998E+01  0.15620547407E+04  0.17195567769E+04  0.10100000352E+00 0. -1.
</event>
<event>
 5   0  0.8195618E-07  0.3195154E+04  0.7818609E-02  0.8190098E-01
        2   -1    0    0  501    0  0.00000000000E+00  0.00000000000E+00  0.17234563763E+04  0.17234563763E+04  0.25500000920E-02 0.  1.
       -2   -1    0    0    0  501  0.00000000000E+00  0.00000000000E+00 -0.14808919636E+04  0.14808919636E+04  0.25500000920E-02 0. -1.
    10030    2    1    2    0    0  0.00000000000E+00  0.00000000000E+00  0.24256441279E+03  0.32043483399E+04  0.31951542669E+04 0.  0.
        1    1    3    3  502    0  0.68543764694E+03 -0.86197001155E+03  0.12819523512E+04  0.16900351770E+04  0.50400001928E-02 0.  1.
       -1    1    3    3    0  502 -0.68543764694E+03  0.86197001155E+03 -0.10393879385E+04  0.15143131629E+04  0.50400001928E-02 0. -1.
</event>
<event>
 5   0  0.3013888E-07  0.3181448E+04  0.7818609E-02  0.8193734E-01
        1   -1    0    0  501    0  0.00000000000E+00  0.00000000000E+00  0.16345225575E+04  0.16345225575E+04  0.50400001928E-02 0.  1.
       -1   -1    0    0    0  501  0.00000000000E+00  0.00000000000E+00 -0.15480994240E+04  0.15480994240E+04  0.50400001928E-02 0. -1.
    10030    2    1    2    0    0  0.00000000000E+00  0.00000000000E+00  0.86423133458E+02  0.31826219815E+04  0.31814483682E+04 0.  0.
        1    1    3    3  502    0 -0.14429667138E+04 -0.66298431792E+03 -0.50108894055E+02  0.15887769020E+04  0.50400001928E-02 0.  1.
       -1    1    3    3    0  502  0.14429667138E+04  0.66298431792E+03  0.13653202751E+03  0.15938450795E+04  0.50400001928E-02 0. -1.
</event>
<event>
 5   0  0.8488469E-07  0.3215190E+04  0.7818609E-02  0.8184817E-01
       -2   -1    0    0    0  501  0.00000000000E+00  0.00000000000E+00  0.95297900998E+03  0.95297900998E+03  0.25500000920E-02 0.  1.
        2   -1    0    0  501    0  0.00000000000E+00  0.00000000000E+00 -0.27118762599E+04  0.27118762599E+04  0.25500000920E-02 0. -1.
    10030    2    1    2    0    0  0.00000000000E+00  0.00000000000E+00 -0.17588972499E+04  0.36648552698E+04  0.32151896699E+04 0.  0.
        3    1    3    3  502    0 -0.66100741186E+03 -0.82494070693E+02  0.78826138148E+03  0.10320329869E+04  0.10100000352E+00 0.  1.
       -3    1    3    3    0  502  0.66100741186E+03  0.82494070693E+02 -0.25471586314E+04  0.26328222830E+04  0.10100000352E+00 0. -1.
</event>
<event>
 5   0  0.8488469E-07  0.3185607E+04  0.7818609E-02  0.8192629E-01
       -2   -1    0    0    0  501  0.00000000000E+00  0.00000000000E+00  0.14068218139E+04  0.14068218139E+04  0.25500000920E-02 0.  1.
        2   -1    0    0  501    0  0.00000000000E+00  0.00000000000E+00 -0.18033723921E+04  0.18033723921E+04  0.25500000920E-02 0. -1.
    10030    2    1    2    0    0  0.00000000000E+00  0.00000000000E+00 -0.39655057816E+03  0.32101942059E+04  0.31856073956E+04 0.  0.
        3    1    3    3  502    0 -0.18501835868E+03 -0.86094960018E+03  0.11392052764E+04  0.14398800919E+04  0.10100000352E+00 0.  1.
       -3    1    3    3    0  502  0.18501835868E+03  0.86094960018E+03 -0.15357558546E+04  0.17703141140E+04  0.10100000352E+00 0. -1.
</event>
<event>
 5   0  0.8335929E-07  0.3200527E+04  0.7818609E-02  0.8188678E-01
        2   -1    0    0  501    0  0.00000000000E+00  0.00000000000E+00  0.30167164267E+04  0.30167164267E+04  0.25500000920E-02 0. -1.
       -2   -1    0    0    0  501  0.00000000000E+00  0.00000000000E+00 -0.84888445349E+03  0.84888445349E+03  0.25500000920E-02 0.  1.
    10030    2    1    2    0    0  0.00000000000E+00  0.00000000000E+00  0.21678319732E+04  0.38656008802E+04  0.32005272536E+04 0.  0.
        4    1    3    3  502    0 -0.41329176903E+03  0.13662338808E+04  0.19577474417E+04  0.24228457982E+04  0.12699999809E+01 0. -1.
       -4    1    3    3    0  502  0.41329176903E+03 -0.13662338808E+04  0.21008453147E+03  0.14427550820E+04  0.12699999809E+01 0.  1.
</event>
<event>
 5   0  0.2997105E-07  0.3172946E+04  0.7818609E-02  0.8195999E-01
        1   -1    0    0  501    0  0.00000000000E+00  0.00000000000E+00  0.19609122907E+04  0.19609122907E+04  0.50400001928E-02 0. -1.
       -1   -1    0    0    0  501  0.00000000000E+00  0.00000000000E+00 -0.12835336576E+04  0.12835336576E+04  0.50400001928E-02 0.  1.
    10030    2    1    2    0    0  0.00000000000E+00  0.00000000000E+00  0.67737863304E+03  0.32444459483E+04  0.31729462175E+04 0.  0.
        3    1    3    3  502    0  0.52542581901E+03  0.14220909400E+04  0.81664281609E+03  0.17220105784E+04  0.10100000352E+00 0.  1.
       -3    1    3    3    0  502 -0.52542581901E+03 -0.14220909400E+04 -0.13926418305E+03  0.15224353699E+04  0.10100000352E+00 0. -1.
</event>
<event>
 5   0  0.8335929E-07  0.3212559E+04  0.7818609E-02  0.8185508E-01
        2   -1    0    0  501    0  0.00000000000E+00  0.00000000000E+00  0.24118872200E+04  0.24118872200E+04  0.25500000920E-02 0.  1.
       -2   -1    0    0    0  501  0.00000000000E+00  0.00000000000E+00 -0.10697571735E+04  0.10697571735E+04  0.25500000920E-02 0. -1.
    10030    2    1    2    0    0  0.00000000000E+00  0.00000000000E+00  0.13421300465E+04  0.34816443935E+04  0.32125588899E+04 0.  0.
        4    1    3    3  502    0  0.13347799674E+04  0.63112725048E+03 -0.14513394378E+02  0.14765403547E+04  0.12699999809E+01 0. -1.
       -4    1    3    3    0  502 -0.13347799674E+04 -0.63112725048E+03  0.13566434409E+04  0.20051040387E+04  0.12699999809E+01 0.  1.
</event>
<event>
 5   0  0.3075756E-07  0.3193462E+04  0.7818609E-02  0.8190546E-01
        1   -1    0    0  501    0  0.00000000000E+00  0.00000000000E+00  0.83282680521E+03  0.83282680522E+03  0.50400001928E-02 0.  1.
       -1   -1    0    0    0  501  0.00000000000E+00  0.00000000000E+00 -0.30613214285E+04  0.30613214285E+04  0.50400001928E-02 0. -1.
    10030    2    1    2    0    0  0.00000000000E+00  0.00000000000E+00 -0.22284946233E+04  0.38941482337E+04  0.31934624125E+04 0.  0.
        5    1    3    3  502    0 -0.17655890767E+03  0.15787929760E+04 -0.91850159895E+03  0.18350551997E+04  0.46999998093E+01 0.  1.
       -5    1    3    3    0  502  0.17655890767E+03 -0.15787929760E+04 -0.13099930243E+04  0.20590930340E+04  0.46999998093E+01 0. -1.
</event>
<event>
 5   0  0.8195618E-07  0.3197250E+04  0.7818609E-02  0.8189544E-01
        2   -1    0    0  501    0  0.00000000000E+00  0.00000000000E+00  0.16981226858E+04  0.16981226859E+04  0.25500000920E-02 0.  1.
       -2   -1    0    0    0  501  0.00000000000E+00  0.00000000000E+00 -0.15049568518E+04  0.15049568518E+04  0.25500000920E-02 0. -1.
    10030    2    1    2    0    0  0.00000000000E+00  0.00000000000E+00  0.19316583402E+03  0.32030795377E+04  0.31972496752E+04 0.  0.
        1    1    3    3  502    0  0.64923321555E+03  0.36748801931E+03  0.15130386834E+04  0.16869609569E+04  0.50400001928E-02 0.  1.
       -1    1    3    3    0  502 -0.64923321555E+03 -0.36748801931E+03 -0.13198728494E+04  0.15161185808E+04  0.50400001928E-02 0. -1.
</event>
<event>
 5   0  0.2783875E-07  0.3192200E+04  0.7818609E-02  0.8190880E-01
        1   -1    0    0  501    0  0.00000000000E+00  0.00000000000E+00  0.19240526223E+04  0.19240526224E+04  0.50400001928E-02 0. -1.
       -1   -1    0    0    0  501  0.00000000000E+00  0.00000000000E+00 -0.13240463785E+04  0.13240463785E+04  0.50400001928E-02 0.  1.
    10030    2    1    2    0    0  0.00000000000E+00  0.00000000000E+00  0.60000624385E+03  0.32480990009E+04  0.31921998100E+04 0.  0.
        2    1    3    3  502    0  0.37793224539E+03 -0.91762840024E+03 -0.97195107341E+03  0.13890873090E+04  0.25500000920E-02 0.  1.
       -2    1    3    3    0  502 -0.37793224539E+03  0.91762840024E+03  0.15719573173E+04  0.18590116918E+04  0.25500000920E-02 0. -1.
</event>
<event>
 5   0  0.8802800E-07  0.3216245E+04  0.7818609E-02  0.8184540E-01
       -2   -1    0    0    0  501  0.00000000000E+00  0.00000000000E+00  0.11746495900E+04  0.11746495900E+04  0.25500000920E-02 0. -1.
        2   -1    0    0  501    0  0.00000000000E+00  0.00000000000E+00 -0.22015571736E+04  0.22015571736E+04  0.25500000920E-02 0.  1.
    10030    2    1    2    0    0  0.00000000000E+00  0.00000000000E+00 -0.10269075836E+04  0.33762067636E+04  0.32162451594E+04 0.  0.
        5    1    3    3  502    0 -0.15067611210E+04 -0.36400963872E+03 -0.96276517675E+03  0.18247660037E+04  0.46999998093E+01 0.  1.
       -5    1    3    3    0  502  0.15067611210E+04  0.36400963872E+03 -0.64142406812E+02  0.15514407598E+04  0.46999998093E+01 0. -1.
</event>
<event>
 5   0  0.2997105E-07  0.3190468E+04  0.7818609E-02  0.8191339E-01
       -1   -1    0    0    0  501  0.00000000000E+00  0.00000000000E+00  0.12845841516E+04  0.12845841516E+04  0.50400001928E-02 0. -1.
        1   -1    0    0  501    0  0.00000000000E+00  0.00000000000E+00 -0.19810081937E+04  0.19810081937E+04  0.50400001928E-02 0.  1.
    10030    2    1    2    0    0  0.00000000000E+00  0.00000000000E+00 -0.69642404209E+03  0.32655923453E+04  0.31904681348E+04 0.  0.
        3    1    3    3  502    0 -0.92302051119E+03  0.73862035770E+03 -0.14445276646E+04  0.18665977287E+04  0.10100000352E+00 0.  1.
       -3    1    3    3    0  502  0.92302051119E+03 -0.73862035770E+03  0.74810362253E+03  0.13989946165E+04  0.10100000352E+00 0. -1.
</event>
<event>
 5   0  0.2997105E-07  0.3193496E+04  0.7818609E-02  0.8190537E-01
       -1   -1    0    0    0  501  0.00000000000E+00  0.00000000000E+00  0.89352158021E+03  0.89352158022E+03  0.50400001928E-02 0. -1.
        1   -1    0    0  501    0  0.00000000000E+00  0.00000000000E+00 -0.28534326933E+04  0.28534326933E+04  0.50400001928E-02 0.  1.
    10030    2    1    2    0    0  0.00000000000E+00  0.00000000000E+00 -0.19599111131E+04  0.37469542735E+04  0.31934956954E+04 0.  0.
        3    1    3    3  502    0 -0.95566915300E+03  0.47945754534E+03  0.41150105677E+03  0.11456509930E+04  0.10100000352E+00 0. -1.
       -3    1    3    3    0  502  0.95566915300E+03 -0.47945754534E+03 -0.23714121698E+04  0.26013032805E+04  0.10100000352E+00 0.  1.
</event>
<event>
 5   0  0.2783875E-07  0.3204557E+04  0.7818609E-02  0.8187615E-01
       -3   -1    0    0    0  501  0.00000000000E+00  0.00000000000E+00  0.13246988880E+04  0.13246988919E+04  0.10100000352E+00 0.  1.
        3   -1    0    0  501    0  0.00000000000E+00  0.00000000000E+00 -0.19380226021E+04  0.19380226047E+04  0.10100000352E+00 0. -1.
    10030    2    1    2    0    0  0.00000000000E+00  0.00000000000E+00 -0.61332371401E+03  0.32627214966E+04  0.32045570031E+04 0.  0.
        3    1    3    3  502    0 -0.54487207046E+03 -0.14670028933E+04 -0.65687208987E+03  0.16971929810E+04  0.10100000352E+00 0. -1.
       -3    1    3    3    0  502  0.54487207046E+03  0.14670028933E+04  0.43548375864E+02  0.15655285156E+04  0.10100000352E+00 0.  1.
</event>
<event>
 5   0  0.3013888E-07  0.3208396E+04  0.7818609E-02  0.8186603E-01
       -1   -1    0    0    0  501  0.00000000000E+00  0.00000000000E+00  0.14371137121E+04  0.14371137121E+04  0.50400001928E-02 0.  1.
        1   -1    0    0  501    0  0.00000000000E+00  0.00000000000E+00 -0.17907082091E+04  0.17907082091E+04  0.50400001928E-02 0. -1.
    10030    2    1    2    0    0  0.00000000000E+00  0.00000000000E+00 -0.35359449698E+03  0.32278219213E+04  0.32083960614E+04 0.  0.
        1    1    3    3  502    0  0.22835730636E+03 -0.15321040547E+04  0.24281492008E+03  0.15679441888E+04  0.50400001928E-02 0.  1.
       -1    1    3    3    0  502 -0.22835730636E+03  0.15321040547E+04 -0.59640941706E+03  0.16598777324E+04  0.50400001928E-02 0. -1.
</event>
<event>
 5   0  0.2783875E-07  0.3180054E+04  0.7818609E-02  0.8194105E-01
        1   -1    0    0  501    0  0.00000000000E+00  0.00000000000E+00  0.25378268868E+04  0.25378268868E+04  0.50400001928E-02 0. -1.
       -1   -1    0    0    0  501  0.00000000000E+00  0.00000000000E+00 -0.99620129505E+03  0.99620129507E+03  0.50400001928E-02 0.  1.
    10030    2    1    2    0    0  0.00000000000E+00  0.00000000000E+00  0.15416255917E+04  0.35340281819E+04  0.31800543588E+04 0.  0.
        2    1    3    3  502    0  0.22736715119E+02  0.87308745399E+03 -0.70576223990E+03  0.11228975910E+04  0.25500000920E-02 0.  1.
       -2    1    3    3    0  502 -0.22736715119E+02 -0.87308745399E+03  0.22473878316E+04  0.24111305909E+04  0.25500000920E-02 0. -1.
</event>
<event>
 5   0  0.3075756E-07  0.3187334E+04  0.7818609E-02  0.8192170E-01
       -1   -1    0    0    0  501  0.00000000000E+00  0.00000000000E+00  0.12429671404E+04  0.12429671404E+04  0.50400001928E-02 0.  1.
        1   -1    0    0  501    0  0.00000000000E+00  0.00000000000E+00 -0.20433157073E+04  0.20433157073E+04  0.50400001928E-02 0. -1.
    10030    2    1    2    0    0  0.00000000000E+00  0.00000000000E+00 -0.80034856693E+03  0.32862828477E+04  0.31873338587E+04 0.  0.
        5    1    3    3  502    0  0.98019720786E+01 -0.15802711565E+04 -0.18787128009E+03  0.15914366826E+04  0.46999998093E+01 0.  1.
       -5    1    3    3    0  502 -0.98019720786E+01  0.15802711565E+04 -0.61247728685E+03  0.16948461652E+04  0.46999998093E+01 0. -1.
</event>
<event>
 5   0  0.8802800E-07  0.3202819E+04  0.7818609E-02  0.8188073E-01
        2   -1    0    0  501    0  0.00000000000E+00  0.00000000000E+00  0.19955572683E+04  0.19955572683E+04  0.25500000920E-02 0.  1.
       -2   -1    0    0    0  501  0.00000000000E+00  0.00000000000E+00 -0.12851111461E+04  0.12851111461E+04  0.25500000920E-02 0. -1.
    10030    2    1    2    0    0  0.00000000000E+00  0.00000000000E+00  0.71044612222E+03  0.32806684143E+04  0.32028193131E+04 0.  0.
        5    1    3    3  502    0  0.62631566386E+03 -0.11090993095E+04 -0.63899717310E+03  0.14250305492E+04  0.46999998093E+01 0. -1.
       -5    1    3    3    0  502 -0.62631566386E+03  0.11090993095E+04  0.13494432953E+04  0.18556378651E+04  0.46999998093E+01 0.  1.
</event>
<event>
 5   0  0.3075756E-07  0.3198451E+04  0.7818609E-02  0.8189226E-01
        1   -1    0    0  501    0  0.00000000000E+00  0.00000000000E+00  0.92984364018E+03  0.92984364020E+03  0.50400001928E-02 0.  1.
       -1   -1    0    0    0  501  0.00000000000E+00  0.00000000000E+00 -0.27504863780E+04  0.27504863780E+04  0.50400001928E-02 0. -1.
    10030    2    1    2    0    0  0.00000000000E+00  0.00000000000E+00 -0.18206427378E+04  0.36803300182E+04  0.31984510414E+04 0.  0.
        5    1    3    3  502    0 -0.36668088685E+03  0.72454645335E+02  0.87887023096E+03  0.95505995691E+03  0.46999998093E+01 0.  1.
       -5    1    3    3    0  502  0.36668088685E+03 -0.72454645335E+02 -0.26995129688E+04  0.27252700613E+04  0.46999998093E+01 0. -1.
</event>
<event>
 5   0  0.8195618E-07  0.3199396E+04  0.7818609E-02  0.8188977E-01
       -2   -1    0    0    0  501  0.00000000000E+00  0.00000000000E+00  0.13912580926E+04  0.13912580926E+04  0.25500000920E-02 0.  1.
        2   -1    0    0  501    0  0.00000000000E+00  0.00000000000E+00 -0.18393661315E+04  0.18393661315E+04  0.25500000920E-02 0. -1.
    10030    2    1    2    0    0  0.00000000000E+00  0.00000000000E+00 -0.44810803898E+03  0.32306242241E+04  0.31993955777E+04 0.  0.
        1    1    3    3  502    0  0.76742006712E+03  0.13748097987E+04  0.61544953198E+02  0.15756977259E+04  0.50400001928E-02 0.  1.
       -1    1    3    3    0  502 -0.76742006712E+03 -0.13748097987E+04 -0.50965299218E+03  0.16549264982E+04  0.50400001928E-02 0. -1.
</event>
<event>
 5   0  0.3013888E-07  0.3183176E+04  0.7818609E-02  0.8193274E-01
       -1   -1    0    0    0  501  0.00000000000E+00  0.00000000000E+00  0.17047477823E+04  0.17047477823E+04  0.50400001928E-02 0. -1.
        1   -1    0    0  501    0  0.00000000000E+00  0.00000000000E+00 -0.14859398109E+04  0.14859398109E+04  0.50400001928E-02 0.  1.
    10030    2    1    2    0    0  0.00000000000E+00  0.00000000000E+00  0.21880797134E+03  0.31906875932E+04  0.31831761480E+04 0.  0.
        1    1    3    3  502    0 -0.48276824395E+03 -0.69753828317E+03  0.14592546232E+04  0.16879125834E+04  0.50400001928E-02 0. -1.
       -1    1    3    3    0  502  0.48276824395E+03  0.69753828317E+03 -0.12404466519E+04  0.15027750098E+04  0.50400001928E-02 0.  1.
</event>
<event>
 5   0  0.8335929E-07  0.3203643E+04  0.7818609E-02  0.8187856E-01
        2   -1    0    0  501    0  0.00000000000E+00  0.00000000000E+00  0.16365125321E+04  0.16365125321E+04  0.25500000920E-02 0.  1.
       -2   -1    0    0    0  501  0.00000000000E+00  0.00000000000E+00 -0.15678656460E+04  0.15678656460E+04  0.25500000920E-02 0. -1.
    10030    2    1    2    0    0  0.00000000000E+00  0.00000000000E+00  0.68646886106E+02  0.32043781781E+04  0.32036427880E+04 0.  0.
        4    1    3    3  502    0  0.53346015633E+03  0.82909858975E+03  0.12970893628E+04  0.16292411233E+04  0.12699999809E+01 0. -1.
       -4    1    3    3    0  502 -0.53346015633E+03 -0.82909858975E+03 -0.12284424767E+04  0.15751370548E+04  0.12699999809E+01 0.  1.
</event>
<event>
 5   0  0.8488469E-07  0.3197625E+04  0.7818609E-02  0.8189445E-01
       -2   -1    0    0    0  501  0.00000000000E+00  0.00000000000E+00  0.13079802029E+04  0.13079802029E+04  0.25500000920E-02 0.  1.
        2   -1    0    0  501    0  0.00000000000E+00  0.00000000000E+00 -0.19543121303E+04  0.19543121303E+04  0.25500000920E-02 0. -1.
    10030    2    1    2    0    0  0.00000000000E+00  0.00000000000E+00 -0.64633192739E+03  0.32622923332E+04  0.31976251042E+04 0.  0.
        3    1    3    3  502    0  0.81450738870E+03 -0.83791474200E+03 -0.14364155065E+04  0.18517054081E+04  0.10100000352E+00 0. -1.
       -3    1    3    3    0  502 -0.81450738870E+03  0.83791474200E+03  0.79008357908E+03  0.14105869251E+04  0.10100000352E+00 0.  1.
</event>
<event>
 5   0  0.2997105E-07  0.3198299E+04  0.7818609E-02  0.8189267E-01
        1   -1    0    0  501    0  0.00000000000E+00  0.00000000000E+00  0.17290300858E+04  0.17290300858E+04  0.50400001928E-02 0.  1.
       -1   -1    0    0    0  501  0.00000000000E+00  0.00000000000E+00 -0.14790250690E+04  0.14790250690E+04  0.50400001928E-02 0. -1.
    10030    2    1    2    0    0  0.00000000000E+00  0.00000000000E+00  0.25000501687E+03  0.32080551548E+04  0.31982988240E+04 0.  0.
        3    1    3    3  502    0  0.17978180338E+03  0.49153859414E+03 -0.13906818188E+04  0.14859096937E+04  0.10100000352E+00 0. -1.
       -3    1    3    3    0  502 -0.17978180338E+03 -0.49153859414E+03  0.16406868357E+04  0.17221454611E+04  0.10100000352E+00 0.  1.
</event>
<event>
 5   0  0.3075756E-07  0.3192670E+04  0.7818609E-02  0.8190756E-01
        1   -1    0    0  501    0  0.00000000000E+00  0.00000000000E+00  0.15301280729E+04  0.15301280730E+04  0.50400001928E-02 0. -1.
       -1   -1    0    0    0  501  0.00000000000E+00  0.00000000000E+00 -0.16654068498E+04  0.16654068498E+04  0.50400001928E-02 0.  1.
    10030    2    1    2    0    0  0.00000000000E+00  0.00000000000E+00 -0.13527877684E+03  0.31955349227E+04  0.31926702139E+04 0.  0.
        5    1    3    3  502    0  0.96437341658E+03  0.92106653364E+03 -0.94585704693E+03  0.16349456533E+04  0.46999998093E+01 0.  1.
       -5    1    3    3    0  502 -0.96437341658E+03 -0.92106653364E+03  0.81057827009E+03  0.15605892695E+04  0.46999998093E+01 0. -1.
</event>
<event>
 5   0  0.2783875E-07  0.3212907E+04  0.7818609E-02  0.8185417E-01
       -1   -1    0    0    0  501  0.00000000000E+00  0.00000000000E+00  0.18211747425E+04  0.18211747425E+04  0.50400001928E-02 0.  1.
        1   -1    0    0  501    0  0.00000000000E+00  0.00000000000E+00 -0.14170488514E+04  0.14170488514E+04  0.50400001928E-02 0. -1.
    10030    2    1    2    0    0  0.00000000000E+00  0.00000000000E+00  0.40412589111E+03  0.32382235939E+04  0.32129074541E+04 0.  0.
        2    1    3    3  502    0 -0.12062750451E+04 -0.94353873226E+03 -0.28686641055E+03  0.15580940797E+04  0.25500000920E-02 0. -1.
       -2    1    3    3    0  502  0.12062750451E+04  0.94353873226E+03  0.69099230167E+03  0.16801295142E+04  0.25500000920E-02 0.  1.
</event>
<event>
 5   0  0.8488469E-07  0.3206942E+04  0.7818609E-02  0.8186986E-01
        2   -1    0    0  501    0  0.00000000000E+00  0.00000000000E+00  0.19001862781E+04  0.19001862781E+04  0.25500000920E-02 0. -1.
       -2   -1    0    0    0  501  0.00000000000E+00  0.00000000000E+00 -0.13530876817E+04  0.13530876817E+04  0.25500000920E-02 0.  1.
    10030    2    1    2    0    0  0.00000000000E+00  0.00000000000E+00  0.54709859643E+03  0.32532739597E+04  0.32069416245E+04 0.  0.
        3    1    3    3  502    0 -0.14660193704E+04 -0.20637193882E+03  0.89833406045E+03  0.17317061719E+04  0.10100000352E+00 0. -1.
       -3    1    3    3    0  502  0.14660193704E+04  0.20637193882E+03 -0.35123546402E+03  0.15215677878E+04  0.10100000352E+00 0.  1.
</event>
<event>
 5   0  0.8838951E-07  0.3188963E+04  0.7818609E-02  0.8191738E-01
        2   -1    0    0  501    0  0.00000000000E+00  0.00000000000E+00  0.13653218742E+04  0.13653218742E+04  0.25500000920E-02 0.  1.
       -2   -1    0    0    0  501  0.00000000000E+00  0.00000000000E+00 -0.18621035888E+04  0.18621035888E+04  0.25500000920E-02 0. -1.
    10030    2    1    2    0    0  0.00000000000E+00  0.00000000000E+00 -0.49678171462E+03  0.32274254630E+04  0.31889626914E+04 0.  0.
        2    1    3    3  502    0 -0.12141474755E+04  0.43175926192E+03  0.70197752641E+03  0.14674272043E+04  0.25500000920E-02 0.  1.
       -2    1    3    3    0  502  0.12141474755E+04 -0.43175926192E+03 -0.11987592410E+04  0.17599982586E+04  0.25500000920E-02 0. -1.
</event>
<event>
 5   0  0.8488469E-07  0.3201461E+04  0.7818609E-02  0.8188432E-01
       -2   -1    0    0    0  501  0.00000000000E+00  0.00000000000E+00  0.26908066965E+04  0.26908066965E+04  0.25500000920E-02 0. -1.
        2   -1    0    0  501    0  0.00000000000E+00  0.00000000000E+00 -0.95225628695E+03  0.95225628696E+03  0.25500000920E-02 0.  1.
    10030    2    1    2    0    0  0.00000000000E+00  0.00000000000E+00  0.17385504096E+04  0.36430629835E+04  0.32014606627E+04 0.  0.
        3    1    3    3  502    0  0.44530395744E+03 -0.11599025601E+04  0.20177853766E+04  0.23696260041E+04  0.10100000352E+00 0. -1.
       -3    1    3    3    0  502 -0.44530395744E+03  0.11599025601E+04 -0.27923496699E+03  0.12734369794E+04  0.10100000352E+00 0.  1.
</event>
<event>
 5   0  0.8838951E-07  0.3199878E+04  0.7818609E-02  0.8188849E-01
        2   -1    0    0  501    0  0.00000000000E+00  0.00000000000E+00  0.25843599164E+04  0.25843599164E+04  0.25500000920E-02 0.  1.
       -2   -1    0    0    0  501  0.00000000000E+00  0.00000000000E+00 -0.99049873983E+03  0.99049873984E+03  0.25500000920E-02 0. -1.
    10030    2    1    2    0    0  0.00000000000E+00  0.00000000000E+00  0.15938611766E+04  0.35748586562E+04  0.31998782730E+04 0.  0.
        2    1    3    3  502    0 -0.12781590866E+03  0.70680315091E+02  0.25768963967E+04  0.25810322843E+04  0.25500000920E-02 0.  1.
       -2    1    3    3    0  502  0.12781590866E+03 -0.70680315091E+02 -0.98303522014E+03  0.99382637190E+03  0.25500000920E-02 0. -1.
</event>
<event>
 5   0  0.8488469E-07  0.3252637E+04  0.7818609E-02  0.8175053E-01
        2   -1    0    0  501    0  0.00000000000E+00  0.00000000000E+00  0.27595035321E+04  0.27595035321E+04  0.25500000920E-02 0.  1.
       -2   -1    0    0    0  501  0.00000000000E+00  0.00000000000E+00 -0.95847385363E+03  0.95847385363E+03  0.25500000920E-02 0. -1.
    10030    2    1    2    0    0  0.00000000000E+00  0.00000000000E+00  0.18010296785E+04  0.37179773858E+04  0.32526370745E+04 0.  0.
        3    1    3    3  502    0  0.34754054256E+03  0.80182289775E+03 -0.66728096087E+03  0.10995309359E+04  0.10100000352E+00 0. -1.
       -3    1    3    3    0  502 -0.34754054256E+03 -0.80182289775E+03  0.24683106394E+04  0.26184464499E+04  0.10100000352E+00 0.  1.
</event>
<event>
 5   0  0.8802800E-07  0.3221329E+04  0.7818609E-02  0.8183207E-01
       -2   -1    0    0    0  501  0.00000000000E+00  0.00000000000E+00  0.11629495782E+04  0.11629495782E+04  0.25500000920E-02 0. -1.
        2   -1    0    0  501    0  0.00000000000E+00  0.00000000000E+00 -0.22307419982E+04  0.22307419982E+04  0.25500000920E-02 0.  1.
    10030    2    1    2    0    0  0.00000000000E+00  0.00000000000E+00 -0.10677924200E+04  0.33936915764E+04  0.32213292075E+04 0.  0.
        5    1    3    3  502    0  0.11972755361E+04 -0.75130814362E+03  0.27961674206E+03  0.14408817607E+04  0.46999998093E+01 0.  1.
       -5    1    3    3    0  502 -0.11972755361E+04  0.75130814362E+03 -0.13474091621E+04  0.19528098156E+04  0.46999998093E+01 0. -1.
</event>
<event>
 5   0  0.8335929E-07  0.3153604E+04  0.7818609E-02  0.8201179E-01
       -2   -1    0    0    0  501  0.00000000000E+00  0.00000000000E+00  0.16017176403E+04  0.16017176403E+04  0.25500000920E-02 0.  1.
        2   -1    0    0  501    0  0.00000000000E+00  0.00000000000E+00 -0.15522739144E+04  0.15522739144E+04  0.25500000920E-02 0. -1.
    10030    2    1    2    0    0  0.00000000000E+00  0.00000000000E+00  0.49443725893E+02  0.31539915547E+04  0.31536039772E+04 0.  0.
        4    1    3    3  502    0  0.42879630406E+03 -0.12250883458E+04 -0.87070664728E+03  0.15629585420E+04  0.12699999809E+01 0. -1.
       -4    1    3    3    0  502 -0.42879630406E+03  0.12250883458E+04  0.92015037318E+03  0.15910330127E+04  0.12699999809E+01 0.  1.
</event>
<event>
 5   0  0.8335929E-07  0.3178721E+04  0.7818609E-02  0.8194460E-01
        2   -1    0    0  501    0  0.00000000000E+00  0.00000000000E+00  0.15679675085E+04  0.15679675085E+04  0.25500000920E-02 0.  1.
       -2   -1    0    0    0  501  0.00000000000E+00  0.00000000000E+00 -0.16110454017E+04  0.16110454017E+04  0.25500000920E-02 0. -1.
    10030    2    1    2    0    0  0.00000000000E+00  0.00000000000E+00 -0.43077893283E+02  0.31790129102E+04  0.31787210287E+04 0.  0.
        4    1    3    3  502    0 -0.11834706552E+04  0.99102148782E+03 -0.40017488750E+03  0.15946372423E+04  0.12699999809E+01 0. -1.
       -4    1    3    3    0  502  0.11834706552E+04 -0.99102148782E+03  0.35709699422E+03  0.15843756679E+04  0.12699999809E+01 0.  1.
</event>
<event>
 5   0  0.3013888E-07  0.3203130E+04  0.7818609E-02  0.8187991E-01
        1   -1    0    0  501    0  0.00000000000E+00  0.00000000000E+00  0.13890031687E+04  0.13890031687E+04  0.50400001928E-02 0. -1.
       -1   -1    0    0    0  501  0.00000000000E+00  0.00000000000E+00 -0.18466561063E+04  0.18466561063E+04  0.50400001928E-02 0.  1.
    10030    2    1    2    0    0  0.00000000000E+00  0.00000000000E+00 -0.45765293756E+03  0.32356592750E+04  0.32031304583E+04 0.  0.
        1    1    3    3  502    0  0.14303144396E+04 -0.39060048493E+03  0.38283325332E+03  0.15313162426E+04  0.50400001928E-02 0. -1.
       -1    1    3    3    0  502 -0.14303144396E+04  0.39060048493E+03 -0.84048619089E+03  0.17043430324E+04  0.50400001928E-02 0.  1.
</event>
<event>
 5   0  0.8838951E-07  0.3204059E+04  0.7818609E-02  0.8187746E-01
       -2   -1    0    0    0  501  0.00000000000E+00  0.00000000000E+00  0.13892405055E+04  0.13892405055E+04  0.25500000920E-02 0. -1.
        2   -1    0    0  501    0  0.00000000000E+00  0.00000000000E+00 -0.18474113959E+04  0.18474113959E+04  0.25500000920E-02 0.  1.
    10030    2    1    2    0    0  0.00000000000E+00  0.00000000000E+00 -0.45817089039E+03  0.32366519013E+04  0.32040591389E+04 0.  0.
        2    1    3    3  502    0 -0.33540526640E+03  0.15373360715E+04  0.74974501229E+02  0.15752841221E+04  0.25500000920E-02 0.  1.
       -2    1    3    3    0  502  0.33540526640E+03 -0.15373360715E+04 -0.53314539162E+03  0.16613677793E+04  0.25500000920E-02 0. -1.
</event>
<event>
 5   0  0.3075756E-07  0.3213556E+04  0.7818609E-02  0.8185246E-01
        1   -1    0    0  501    0  0.00000000000E+00  0.00000000000E+00  0.19135475052E+04  0.19135475052E+04  0.50400001928E-02 0.  1.
       -1   -1    0    0    0  501  0.00000000000E+00  0.00000000000E+00 -0.13491879351E+04  0.13491879351E+04  0.50400001928E-02 0. -1.
    10030    2    1    2    0    0  0.00000000000E+00  0.00000000000E+00  0.56435957008E+03  0.32627354402E+04  0.32135557921E+04 0.  0.
        5    1    3    3  502    0 -0.48937875358E+03  0.15252799888E+04  0.40956909435E+03  0.16534024138E+04  0.46999998093E+01 0.  1.
       -5    1    3    3    0  502  0.48937875358E+03 -0.15252799888E+04  0.15479047573E+03  0.16093330265E+04  0.46999998093E+01 0. -1.
</event>
<event>
 5   0  0.2891204E-07  0.3161530E+04  0.7818609E-02  0.8199051E-01
       -1   -1    0    0    0  501  0.00000000000E+00  0.00000000000E+00  0.14435468556E+04  0.14435468556E+04  0.50400001928E-02 0.  1.
        1   -1    0    0  501    0  0.00000000000E+00  0.00000000000E+00 -0.17310267260E+04  0.17310267260E+04  0.50400001928E-02 0. -1.
    10030    2    1    2    0    0  0.00000000000E+00  0.00000000000E+00 -0.28747987037E+03  0.31745735816E+04  0.31615301278E+04 0.  0.
        4    1    3    3  502    0 -0.47220105341E+03 -0.69699590115E+03 -0.14871833367E+04  0.17089449994E+04  0.12699999809E+01 0. -1.
       -4    1    3    3    0  502  0.47220105341E+03  0.69699590115E+03  0.11997034663E+04  0.14656285822E+04  0.12699999809E+01 0.  1.
</event>
<event>
 5   0  0.3075756E-07  0.3218391E+04  0.7818609E-02  0.8183977E-01
        1   -1    0    0  501    0  0.00000000000E+00  0.00000000000E+00  0.13622724970E+04  0.13622724970E+04  0.50400001928E-02 0.  1.
       -1   -1    0    0    0  501  0.00000000000E+00  0.00000000000E+00 -0.19008754499E+04  0.19008754499E+04  0.50400001928E-02 0. -1.
    10030    2    1    2    0    0  0.00000000000E+00  0.00000000000E+00 -0.53860295293E+03  0.32631479470E+04  0.32183911171E+04 0.  0.
        5    1    3    3  502    0 -0.12239108938E+04  0.91375439039E+03  0.24428328772E+03  0.15468035999E+04  0.46999998093E+01 0. -1.
       -5    1    3    3    0  502  0.12239108938E+04 -0.91375439039E+03 -0.78288624065E+03  0.17163443471E+04  0.46999998093E+01 0.  1.
</event>
<event>
 5   0  0.8195618E-07  0.3201720E+04  0.7818609E-02  0.8188363E-01
       -2   -1    0    0    0  501  0.00000000000E+00  0.00000000000E+00  0.16737469841E+04  0.16737469841E+04  0.25500000920E-02 0.  1.
        2   -1    0    0  501    0  0.00000000000E+00  0.00000000000E+00 -0.15311470139E+04  0.15311470139E+04  0.25500000920E-02 0. -1.
    10030    2    1    2    0    0  0.00000000000E+00  0.00000000000E+00  0.14259997020E+03  0.32048939979E+04  0.32017199731E+04 0.  0.
        1    1    3    3  502    0  0.83013246006E+02  0.22014013729E+03 -0.15137469236E+04  0.15319212212E+04  0.50400001928E-02 0. -1.
       -1    1    3    3    0  502 -0.83013246006E+02 -0.22014013729E+03  0.16563468938E+04  0.16729727768E+04  0.50400001928E-02 0.  1.
</event>
<event>
 5   0  0.8488469E-07  0.3251051E+04  0.7818609E-02  0.8175463E-01
        2   -1    0    0  501    0  0.00000000000E+00  0.00000000000E+00  0.20333059983E+04  0.20333059983E+04  0.25500000920E-02 0. -1.
       -2   -1    0    0    0  501  0.00000000000E+00  0.00000000000E+00 -0.12995253145E+04  0.12995253145E+04  0.25500000920E-02 0.  1.
    10030    2    1    2    0    0  0.00000000000E+00  0.00000000000E+00  0.73378068383E+03  0.33328313127E+04  0.32510506713E+04 0.  0.
        3    1    3    3  502    0 -0.97126141256E+03  0.10834404211E+03 -0.96472480459E+03  0.13732374601E+04  0.10100000352E+00 0.  1.
       -3    1    3    3    0  502  0.97126141256E+03 -0.10834404211E+03  0.16985054884E+04  0.19595938527E+04  0.10100000352E+00 0. -1.
</event>
<event>
 5   0  0.8802800E-07  0.3190170E+04  0.7818609E-02  0.8191418E-01
        2   -1    0    0  501    0  0.00000000000E+00  0.00000000000E+00  0.26305338271E+04  0.26305338271E+04  0.25500000920E-02 0. -1.
       -2   -1    0    0    0  501  0.00000000000E+00  0.00000000000E+00 -0.96721639246E+03  0.96721639246E+03  0.25500000920E-02 0.  1.
    10030    2    1    2    0    0  0.00000000000E+00  0.00000000000E+00  0.16633174346E+04  0.35977502196E+04  0.31901695494E+04 0.  0.
        5    1    3    3  502    0 -0.12628337663E+04  0.94715681169E+03  0.10898599430E+04  0.19182470990E+04  0.46999998093E+01 0. -1.
       -5    1    3    3    0  502  0.12628337663E+04 -0.94715681169E+03  0.57345749163E+03  0.16795031206E+04  0.46999998093E+01 0.  1.
</event>
<event>
 5   0  0.3075756E-07  0.3189552E+04  0.7818609E-02  0.8191582E-01
        1   -1    0    0  501    0  0.00000000000E+00  0.00000000000E+00  0.29759368543E+04  0.29759368543E+04  0.50400001928E-02 0.  1.
       -1   -1    0    0    0  501  0.00000000000E+00  0.00000000000E+00 -0.85462515018E+03  0.85462515020E+03  0.50400001928E-02 0. -1.
    10030    2    1    2    0    0  0.00000000000E+00  0.00000000000E+00  0.21213117041E+04  0.38305620045E+04  0.31895519943E+04 0.  0.
        5    1    3    3  502    0 -0.97521651547E+03 -0.93466388425E+03  0.42557153340E+02  0.13514721713E+04  0.46999998093E+01 0. -1.
       -5    1    3    3    0  502  0.97521651547E+03  0.93466388425E+03  0.20787545508E+04  0.24790898332E+04  0.46999998093E+01 0.  1.
</event>
<event>
 5   0  0.8488469E-07  0.3218799E+04  0.7818609E-02  0.8183870E-01
        2   -1    0    0  501    0  0.00000000000E+00  0.00000000000E+00  0.18382332051E+04  0.18382332051E+04  0.25500000920E-02 0. -1.
       -2   -1    0    0    0  501  0.00000000000E+00  0.00000000000E+00 -0.14090525882E+04  0.14090525882E+04  0.25500000920E-02 0.  1.
    10030    2    1    2    0    0  0.00000000000E+00  0.00000000000E+00  0.42918061696E+03  0.32472857933E+04  0.32187993136E+04 0.  0.
        3    1    3    3  502    0  0.12183730960E+04 -0.72752690524E+03  0.98054526800E+03  0.17248760627E+04  0.10100000352E+00 0. -1.
       -3    1    3    3    0  502 -0.12183730960E+04  0.72752690524E+03 -0.55136465105E+03  0.15224097305E+04  0.10100000352E+00 0.  1.
</event>
<event>
 5   0  0.8335929E-07  0.3082028E+04  0.7818609E-02  0.8220688E-01
       -2   -1    0    0    0  501  0.00000000000E+00  0.00000000000E+00  0.12698685003E+04  0.12698685003E+04  0.25500000920E-02 0. -1.
        2   -1    0    0  501    0  0.00000000000E+00  0.00000000000E+00 -0.18700546948E+04  0.18700546948E+04  0.25500000920E-02 0.  1.
    10030    2    1    2    0    0  0.00000000000E+00  0.00000000000E+00 -0.60018619451E+03  0.31399231952E+04  0.30820276124E+04 0.  0.
        4    1    3    3  502    0  0.27517064591E+03  0.10888061758E+04 -0.13751425010E+04  0.17754538248E+04  0.12699999809E+01 0.  1.
       -4    1    3    3    0  502 -0.27517064591E+03 -0.10888061758E+04  0.77495630653E+03  0.13644693704E+04  0.12699999809E+01 0. -1.
</event>
<event>
 5   0  0.8802800E-07  0.3191865E+04  0.7818609E-02  0.8190969E-01
       -2   -1    0    0    0  501  0.00000000000E+00  0.00000000000E+00  0.14992079320E+04  0.14992079320E+04  0.25500000920E-02 0. -1.
        2   -1    0    0  501    0  0.00000000000E+00  0.00000000000E+00 -0.16988978700E+04  0.16988978700E+04  0.25500000920E-02 0.  1.
    10030    2    1    2    0    0  0.00000000000E+00  0.00000000000E+00 -0.19968993803E+03  0.31981058019E+04  0.31918653870E+04 0.  0.
        5    1    3    3  502    0 -0.23863966131E+03  0.12364813153E+04  0.88245136118E+03  0.15377182531E+04  0.46999998093E+01 0. -1.
       -5    1    3    3    0  502  0.23863966131E+03 -0.12364813153E+04 -0.10821412992E+04  0.16603875489E+04  0.46999998093E+01 0.  1.
</event>
<event>
 5   0  0.3075756E-07  0.3082873E+04  0.7818609E-02  0.8220454E-01
        1   -1    0    0  501    0  0.00000000000E+00  0.00000000000E+00  0.32556546100E+04  0.32556546100E+04  0.50400001928E-02 0.  1.
       -1   -1    0    0    0  501  0.00000000000E+00  0.00000000000E+00 -0.72981529790E+03  0.72981529792E+03  0.50400001928E-02 0. -1.
    10030    2    1    2    0    0  0.00000000000E+00  0.00000000000E+00  0.25258393121E+04  0.39854699079E+04  0.30828730361E+04 0.  0.
        5    1    3    3  502    0  0.10866503987E+04  0.86863880902E+03  0.40474302191E+03  0.14488552285E+04  0.46999998093E+01 0. -1.
       -5    1    3    3    0  502 -0.10866503987E+04 -0.86863880902E+03  0.21210962902E+04  0.25366146794E+04  0.46999998093E+01 0.  1.
</event>
<event>
 5   0  0.8488469E-07  0.3205896E+04  0.7818609E-02  0.8187262E-01
       -2   -1    0    0    0  501  0.00000000000E+00  0.00000000000E+00  0.96930929566E+03  0.96930929566E+03  0.25500000920E-02 0.  1.
        2   -1    0    0  501    0  0.00000000000E+00  0.00000000000E+00 -0.26507969057E+04  0.26507969057E+04  0.25500000920E-02 0. -1.
    10030    2    1    2    0    0  0.00000000000E+00  0.00000000000E+00 -0.16814876101E+04  0.36201062014E+04  0.32058958696E+04 0.  0.
        3    1    3    3  502    0  0.11502697466E+04  0.90524057994E+03 -0.10298368450E+03  0.14673740651E+04  0.10100000352E+00 0.  1.
       -3    1    3    3    0  502 -0.11502697466E+04 -0.90524057994E+03 -0.15785039256E+04  0.21527321363E+04  0.10100000352E+00 0. -1.
</event>
<event>
 5   0  0.8195618E-07  0.3211593E+04  0.7818609E-02  0.8185762E-01
       -2   -1    0    0    0  501  0.00000000000E+00  0.00000000000E+00  0.12554690361E+04  0.12554690361E+04  0.25500000920E-02 0. -1.
        2   -1    0    0  501    0  0.00000000000E+00  0.00000000000E+00 -0.20538798559E+04  0.20538798559E+04  0.25500000920E-02 0.  1.
    10030    2    1    2    0    0  0.00000000000E+00  0.00000000000E+00 -0.79841081983E+03  0.33093488920E+04  0.32115931019E+04 0.  0.
        1    1    3    3  502    0  0.13242370570E+04 -0.34574923883E+03 -0.12646732282E+04  0.18634765074E+04  0.50400001928E-02 0.  1.
       -1    1    3    3    0  502 -0.13242370570E+04  0.34574923883E+03  0.46626240839E+03  0.14458723847E+04  0.50400001928E-02 0. -1.
</event>
<event>
 5   0  0.8335929E-07  0.3208489E+04  0.7818609E-02  0.8186579E-01
       -2   -1    0    0    0  501  0.00000000000E+00  0.00000000000E+00  0.11058358688E+04  0.11058358688E+04  0.25500000920E-02 0. -1.
        2   -1    0    0  501    0  0.00000000000E+00  0.00000000000E+00 -0.23272894810E+04  0.23272894810E+04  0.25500000920E-02 0.  1.
    10030    2    1    2    0    0  0.00000000000E+00  0.00000000000E+00 -0.12214536122E+04  0.34331253498E+04  0.32084888562E+04 0.  0.
        4    1    3    3  502    0 -0.68927587530E+03  0.79021067198E+02 -0.21584604605E+04  0.22672226917E+04  0.12699999809E+01 0.  1.
       -4    1    3    3    0  502  0.68927587530E+03 -0.79021067198E+02  0.93700684832E+03  0.11659026580E+04  0.12699999809E+01 0. -1.
</event>
<event>
 5   0  0.8195618E-07  0.3190847E+04  0.7818609E-02  0.8191239E-01
        2   -1    0    0  501    0  0.00000000000E+00  0.00000000000E+00  0.15254485065E+04  0.15254485065E+04  0.25500000920E-02 0. -1.
       -2   -1    0    0    0  501  0.00000000000E+00  0.00000000000E+00 -0.16686085778E+04  0.16686085778E+04  0.25500000920E-02 0.  1.
    10030    2    1    2    0    0  0.00000000000E+00  0.00000000000E+00 -0.14316007128E+03  0.31940570842E+04  0.31908471996E+04 0.  0.
        1    1    3    3  502    0 -0.12823680947E+04 -0.33518099594E+03 -0.96048361001E+03  0.16368698774E+04  0.50400001928E-02 0.  1.
       -1    1    3    3    0  502  0.12823680947E+04  0.33518099594E+03  0.81732353872E+03  0.15571872069E+04  0.50400001928E-02 0. -1.
</event>
<event>
 5   0  0.8488469E-07  0.3180916E+04  0.7818609E-02  0.8193876E-01
       -2   -1    0    0    0  501  0.00000000000E+00  0.00000000000E+00  0.16606572936E+04  0.16606572936E+04  0.25500000920E-02 0.  1.
        2   -1    0    0  501    0  0.00000000000E+00  0.00000000000E+00 -0.15232259603E+04  0.15232259603E+04  0.25500000920E-02 0. -1.
    10030    2    1    2    0    0  0.00000000000E+00  0.00000000000E+00  0.13743133331E+03  0.31838832539E+04  0.31809157805E+04 0.  0.
        3    1    3    3  502    0 -0.93977635383E+03  0.23844577148E+03 -0.11932222941E+04  0.15374704662E+04  0.10100000352E+00 0. -1.
       -3    1    3    3    0  502  0.93977635383E+03 -0.23844577148E+03  0.13306536274E+04  0.16464127877E+04  0.10100000352E+00 0.  1.
</event>
<event>
 5   0  0.8838951E-07  0.3194847E+04  0.7818609E-02  0.8190179E-01
       -2   -1    0    0    0  501  0.00000000000E+00  0.00000000000E+00  0.17387946559E+04  0.17387946559E+04  0.25500000920E-02 0. -1.
        2   -1    0    0  501    0  0.00000000000E+00  0.00000000000E+00 -0.14675467505E+04  0.14675467505E+04  0.25500000920E-02 0.  1.
    10030    2    1    2    0    0  0.00000000000E+00  0.00000000000E+00  0.27124790543E+03  0.32063414064E+04  0.31948473811E+04 0.  0.
        2    1    3    3  502    0 -0.13695549294E+04 -0.24087273290E+03 -0.65337366634E+03  0.15364236154E+04  0.25500000920E-02 0.  1.
       -2    1    3    3    0  502  0.13695549294E+04  0.24087273290E+03  0.92462157177E+03  0.16699177911E+04  0.25500000920E-02 0. -1.
</event>
<event>
 5   0  0.8195618E-07  0.3196206E+04  0.7818609E-02  0.8189820E-01
       -2   -1    0    0    0  501  0.00000000000E+00  0.00000000000E+00  0.15695620102E+04  0.15695620102E+04  0.25500000920E-02 0.  1.
        2   -1    0    0  501    0  0.00000000000E+00  0.00000000000E+00 -0.16271632372E+04  0.16271632372E+04  0.25500000920E-02 0. -1.
    10030    2    1    2    0    0  0.00000000000E+00  0.00000000000E+00 -0.57601227057E+02  0.31967252474E+04  0.31962062521E+04 0.  0.
        1    1    3    3  502    0 -0.46459621236E+02  0.64430010810E+02 -0.16251875669E+04  0.16271276380E+04  0.50400001928E-02 0. -1.
       -1    1    3    3    0  502  0.46459621236E+02 -0.64430010810E+02  0.15675863398E+04  0.15695976094E+04  0.50400001928E-02 0.  1.
</event>
<event>
 5   0  0.8838951E-07  0.3208289E+04  0.7818609E-02  0.8186632E-01
        2   -1    0    0  501    0  0.00000000000E+00  0.00000000000E+00  0.20703874632E+04  0.20703874632E+04  0.25500000920E-02 0.  1.
       -2   -1    0    0    0  501  0.00000000000E+00  0.00000000000E+00 -0.12428974121E+04  0.12428974121E+04  0.25500000920E-02 0. -1.
    10030    2    1    2    0    0  0.00000000000E+00  0.00000000000E+00  0.82749005110E+03  0.33132848754E+04  0.32082887777E+04 0.  0.
        2    1    3    3  502    0 -0.11820018454E+04 -0.76181901803E+03  0.12108751991E+04  0.18557250137E+04  0.25500000920E-02 0.  1.
       -2    1    3    3    0  502  0.11820018454E+04  0.76181901803E+03 -0.38338514799E+03  0.14575598617E+04  0.25500000920E-02 0. -1.
</event>
<event>
 5   0  0.3013888E-07  0.3183591E+04  0.7818609E-02  0.8193164E-01
        1   -1    0    0  501    0  0.00000000000E+00  0.00000000000E+00  0.25748040359E+04  0.25748040359E+04  0.50400001928E-02 0. -1.
       -1   -1    0    0    0  501  0.00000000000E+00  0.00000000000E+00 -0.98407984209E+03  0.98407984210E+03  0.50400001928E-02 0.  1.
    10030    2    1    2    0    0  0.00000000000E+00  0.00000000000E+00  0.15907241938E+04  0.35588838780E+04  0.31835908965E+04 0.  0.
        1    1    3    3  502    0  0.10873582970E+04 -0.48619391062E+03 -0.38509337257E+03  0.12518104850E+04  0.50400001928E-02 0.  1.
       -1    1    3    3    0  502 -0.10873582970E+04  0.48619391062E+03  0.19758175664E+04  0.23070733929E+04  0.50400001928E-02 0. -1.
</event>
<event>
 5   0  0.2783875E-07  0.3214653E+04  0.7818609E-02  0.8184958E-01
        1   -1    0    0  501    0  0.00000000000E+00  0.00000000000E+00  0.17196012965E+04  0.17196012965E+04  0.50400001928E-02 0. -1.
       -1   -1    0    0    0  501  0.00000000000E+00  0.00000000000E+00 -0.15023826492E+04  0.15023826492E+04  0.50400001928E-02 0.  1.
    10030    2    1    2    0    0  0.00000000000E+00  0.00000000000E+00  0.21721864728E+03  0.32219839457E+04  0.32146534192E+04 0.  0.
        2    1    3    3  502    0  0.11143505052E+04  0.41872198143E+03  0.11910693171E+04  0.16839689024E+04  0.25500000920E-02 0. -1.
       -2    1    3    3    0  502 -0.11143505052E+04 -0.41872198143E+03 -0.97385066986E+03  0.15380150433E+04  0.25500000920E-02 0.  1.
</event>
<event>
 5   0  0.2891204E-07  0.3165450E+04  0.7818609E-02  0.8198002E-01
        1   -1    0    0  501    0  0.00000000000E+00  0.00000000000E+00  0.30579697032E+04  0.30579697032E+04  0.50400001928E-02 0.  1.
       -1   -1    0    0    0  501  0.00000000000E+00  0.00000000000E+00 -0.81917676036E+03  0.81917676037E+03  0.50400001928E-02 0. -1.
    10030    2    1    2    0    0  0.00000000000E+00  0.00000000000E+00  0.22387929428E+04  0.38771464636E+04  0.31654495509E+04 0.  0.
        4    1    3    3  502    0 -0.15714472402E+04  0.10804388011E+03  0.93005699521E+03  0.18292423393E+04  0.12699999809E+01 0.  1.
       -4    1    3    3    0  502  0.15714472402E+04 -0.10804388011E+03  0.13087359476E+04  0.20479041242E+04  0.12699999809E+01 0. -1.
</event>
<event>
 5   0  0.3075756E-07  0.3194142E+04  0.7818609E-02  0.8190366E-01
       -1   -1    0    0    0  501  0.00000000000E+00  0.00000000000E+00  0.14501945919E+04  0.14501945919E+04  0.50400001928E-02 0. -1.
        1   -1    0    0  501    0  0.00000000000E+00  0.00000000000E+00 -0.17588226629E+04  0.17588226630E+04  0.50400001928E-02 0.  1.
    10030    2    1    2    0    0  0.00000000000E+00  0.00000000000E+00 -0.30862807102E+03  0.32090172549E+04  0.31941415836E+04 0.  0.
        5    1    3    3  502    0  0.10321066369E+04 -0.10595270899E+04 -0.75942402998E+03  0.16627052389E+04  0.46999998093E+01 0.  1.
       -5    1    3    3    0  502 -0.10321066369E+04  0.10595270899E+04  0.45079595896E+03  0.15463120160E+04  0.46999998093E+01 0. -1.
</event>
<event>
 5   0  0.8488469E-07  0.3186934E+04  0.7818609E-02  0.8192276E-01
       -2   -1    0    0    0  501  0.00000000000E+00  0.00000000000E+00  0.10601530381E+04  0.10601530381E+04  0.25500000920E-02 0. -1.
        2   -1    0    0  501    0  0.00000000000E+00  0.00000000000E+00 -0.23950665141E+04  0.23950665141E+04  0.25500000920E-02 0.  1.
    10030    2    1    2    0    0  0.00000000000E+00  0.00000000000E+00 -0.13349134760E+04  0.34552195522E+04  0.31869339758E+04 0.  0.
        3    1    3    3  502    0  0.78966178055E+03 -0.12501828184E+04 -0.13112589969E+04  0.19763408041E+04  0.10100000352E+00 0.  1.
       -3    1    3    3    0  502 -0.78966178055E+03  0.12501828184E+04 -0.23654479094E+02  0.14788787481E+04  0.10100000352E+00 0. -1.
</event>
<event>
 5   0  0.8488469E-07  0.3201629E+04  0.7818609E-02  0.8188387E-01
       -2   -1    0    0    0  501  0.00000000000E+00  0.00000000000E+00  0.16607675477E+04  0.16607675477E+04  0.25500000920E-02 0. -1.
        2   -1    0    0  501    0  0.00000000000E+00  0.00000000000E+00 -0.15430258685E+04  0.15430258685E+04  0.25500000920E-02 0.  1.
    10030    2    1    2    0    0  0.00000000000E+00  0.00000000000E+00  0.11774167915E+03  0.32037934162E+04  0.32016291401E+04 0.  0.
        3    1    3    3  502    0  0.12705918997E+04  0.71582746284E+03  0.71946446035E+03  0.16261739920E+04  0.10100000352E+00 0. -1.
       -3    1    3    3    0  502 -0.12705918997E+04 -0.71582746284E+03 -0.60172278119E+03  0.15776194243E+04  0.10100000352E+00 0.  1.
</event>
<event>
 5   0  0.2997105E-07  0.3166960E+04  0.7818609E-02  0.8197598E-01
        1   -1    0    0  501    0  0.00000000000E+00  0.00000000000E+00  0.20152124724E+04  0.20152124724E+04  0.50400001928E-02 0.  1.
       -1   -1    0    0    0  501  0.00000000000E+00  0.00000000000E+00 -0.12442406641E+04  0.12442406641E+04  0.50400001928E-02 0. -1.
    10030    2    1    2    0    0  0.00000000000E+00  0.00000000000E+00  0.77097180834E+03  0.32594531366E+04  0.31669602492E+04 0.  0.
        3    1    3    3  502    0  0.12396053735E+04 -0.12254649378E+02  0.13994689478E+04  0.18695681331E+04  0.10100000352E+00 0.  1.
       -3    1    3    3    0  502 -0.12396053735E+04  0.12254649378E+02 -0.62849713944E+03  0.13898850035E+04  0.10100000352E+00 0. -1.
</event>
<event>
 5   0  0.2891204E-07  0.3192537E+04  0.7818609E-02  0.8190791E-01
       -1   -1    0    0    0  501  0.00000000000E+00  0.00000000000E+00  0.18179559036E+04  0.18179559036E+04  0.50400001928E-02 0.  1.
        1   -1    0    0  501    0  0.00000000000E+00  0.00000000000E+00 -0.14016144387E+04  0.14016144387E+04  0.50400001928E-02 0. -1.
    10030    2    1    2    0    0  0.00000000000E+00  0.00000000000E+00  0.41634146489E+03  0.32195703422E+04  0.31925370747E+04 0.  0.
        4    1    3    3  502    0 -0.45627936265E+03 -0.24949837501E+03 -0.13137908261E+04  0.14129714235E+04  0.12699999809E+01 0. -1.
       -4    1    3    3    0  502  0.45627936265E+03  0.24949837501E+03  0.17301322910E+04  0.18065989187E+04  0.12699999809E+01 0.  1.
</event>
<event>
 5   0  0.3075756E-07  0.3205735E+04  0.7818609E-02  0.8187304E-01
        1   -1    0    0  501    0  0.00000000000E+00  0.00000000000E+00  0.24540971537E+04  0.24540971537E+04  0.50400001928E-02 0. -1.
       -1   -1    0    0    0  501  0.00000000000E+00  0.00000000000E+00 -0.10468958650E+04  0.10468958650E+04  0.50400001928E-02 0.  1.
    10030    2    1    2    0    0  0.00000000000E+00  0.00000000000E+00  0.14072012887E+04  0.35009930187E+04  0.32057349626E+04 0.  0.
        5    1    3    3  502    0  0.10245639355E+04  0.22807617985E+03 -0.61933791406E+03  0.12187499922E+04  0.46999998093E+01 0.  1.
       -5    1    3    3    0  502 -0.10245639355E+04 -0.22807617985E+03  0.20265392028E+04  0.22822430265E+04  0.46999998093E+01 0. -1.
</event>
<event>
 5   0  0.8335929E-07  0.3094917E+04  0.7818609E-02  0.8217134E-01
        2   -1    0    0  501    0  0.00000000000E+00  0.00000000000E+00  0.22059604561E+04  0.22059604561E+04  0.25500000920E-02 0. -1.
       -2   -1    0    0    0  501  0.00000000000E+00  0.00000000000E+00 -0.10855260491E+04  0.10855260492E+04  0.25500000920E-02 0.  1.
    10030    2    1    2    0    0  0.00000000000E+00  0.00000000000E+00  0.11204344070E+04  0.32914865053E+04  0.30949168251E+04 0.  0.
        4    1    3    3  502    0 -0.34068293606E+03 -0.13447276121E+04  0.12895338720E+04  0.18940053943E+04  0.12699999809E+01 0. -1.
       -4    1    3    3    0  502  0.34068293606E+03  0.13447276121E+04 -0.16909946508E+03  0.13974811110E+04  0.12699999809E+01 0.  1.
</event>
<event>
 5   0  0.8335929E-07  0.3215086E+04  0.7818609E-02  0.8184844E-01
        2   -1    0    0  501    0  0.00000000000E+00  0.00000000000E+00  0.18007369342E+04  0.18007369342E+04  0.25500000920E-02 0. -1.
       -2   -1    0    0    0  501  0.00000000000E+00  0.00000000000E+00 -0.14350757577E+04  0.14350757577E+04  0.25500000920E-02 0.  1.
    10030    2    1    2    0    0  0.00000000000E+00  0.00000000000E+00  0.36566117647E+03  0.32358126919E+04  0.32150856413E+04 0.  0.
        4    1    3    3  502    0 -0.65497921114E+03 -0.51370401279E+02 -0.12937869402E+04  0.14510420203E+04  0.12699999809E+01 0.  1.
       -4    1    3    3    0  502  0.65497921114E+03  0.51370401279E+02  0.16594481167E+04  0.17847706716E+04  0.12699999809E+01 0. -1.
</event>
<event>
 5   0  0.8488469E-07  0.3209550E+04  0.7818609E-02  0.8186300E-01
       -2   -1    0    0    0  501  0.00000000000E+00  0.00000000000E+00  0.91386248274E+03  0.91386248275E+03  0.25500000920E-02 0.  1.
        2   -1    0    0  501    0  0.00000000000E+00  0.00000000000E+00 -0.28180414088E+04  0.28180414088E+04  0.25500000920E-02 0. -1.
    10030    2    1    2    0    0  0.00000000000E+00  0.00000000000E+00 -0.19041789261E+04  0.37319038916E+04  0.32095496995E+04 0.  0.
        3    1    3    3  502    0 -0.69525909625E+03 -0.81035966458E+03  0.44089973855E+03  0.11551885502E+04  0.10100000352E+00 0.  1.
       -3    1    3    3    0  502  0.69525909625E+03  0.81035966458E+03 -0.23450786646E+04  0.25767153414E+04  0.10100000352E+00 0. -1.
</event>
<event>
 5   0  0.3013888E-07  0.3187444E+04  0.7818609E-02  0.8192141E-01
        1   -1    0    0  501    0  0.00000000000E+00  0.00000000000E+00  0.18058217952E+04  0.18058217952E+04  0.50400001928E-02 0. -1.
       -1   -1    0    0    0  501  0.00000000000E+00  0.00000000000E+00 -0.14065340694E+04  0.14065340694E+04  0.50400001928E-02 0.  1.
    10030    2    1    2    0    0  0.00000000000E+00  0.00000000000E+00  0.39928772582E+03  0.32123558646E+04  0.31874440407E+04 0.  0.
        1    1    3    3  502    0 -0.13130978749E+04 -0.83180709748E+03 -0.15498810936E+03  0.15620980732E+04  0.50400001928E-02 0. -1.
       -1    1    3    3    0  502  0.13130978749E+04  0.83180709748E+03  0.55427583518E+03  0.16502577913E+04  0.50400001928E-02 0.  1.
</event>
<event>
 5   0  0.8335929E-07  0.3207396E+04  0.7818609E-02  0.8186867E-01
        2   -1    0    0  501    0  0.00000000000E+00  0.00000000000E+00  0.21813017034E+04  0.21813017034E+04  0.25500000920E-02 0.  1.
       -2   -1    0    0    0  501  0.00000000000E+00  0.00000000000E+00 -0.11790426138E+04  0.11790426138E+04  0.25500000920E-02 0. -1.
    10030    2    1    2    0    0  0.00000000000E+00  0.00000000000E+00  0.10022590896E+04  0.33603443173E+04  0.32073962412E+04 0.  0.
        4    1    3    3  502    0  0.60764657475E+03  0.97512452650E+03 -0.67103585151E+03  0.13305611331E+04  0.12699999809E+01 0. -1.
       -4    1    3    3    0  502 -0.60764657475E+03 -0.97512452650E+03  0.16732949411E+04  0.20297831842E+04  0.12699999809E+01 0.  1.
</event>
<event>
 5   0  0.2891204E-07  0.3175281E+04  0.7818609E-02  0.8195376E-01
        1   -1    0    0  501    0  0.00000000000E+00  0.00000000000E+00  0.19024348941E+04  0.19024348942E+04  0.50400001928E-02 0. -1.
       -1   -1    0    0    0  501  0.00000000000E+00  0.00000000000E+00 -0.13249345947E+04  0.13249345947E+04  0.50400001928E-02 0.  1.
    10030    2    1    2    0    0  0.00000000000E+00  0.00000000000E+00  0.57750029945E+03  0.32273694889E+04  0.31752806524E+04 0.  0.
        4    1    3    3  502    0 -0.83770162332E+03 -0.45447030035E+03 -0.10018486000E+04  0.13827470824E+04  0.12699999809E+01 0.  1.
       -4    1    3    3    0  502  0.83770162332E+03  0.45447030035E+03  0.15793488994E+04  0.18446224065E+04  0.12699999809E+01 0. -1.
</event>
<event>
 5   0  0.8195618E-07  0.3231115E+04  0.7818609E-02  0.8180648E-01
        2   -1    0    0  501    0  0.00000000000E+00  0.00000000000E+00  0.15092118714E+04  0.15092118714E+04  0.25500000920E-02 0.  1.
       -2   -1    0    0    0  501  0.00000000000E+00  0.00000000000E+00 -0.17293963380E+04  0.17293963380E+04  0.25500000920E-02 0. -1.
    10030    2    1    2    0    0  0.00000000000E+00  0.00000000000E+00 -0.22018446656E+03  0.32386082093E+04  0.32311146582E+04 0.  0.
        1    1    3    3  502    0  0.14275539966E+04 -0.61882287071E+03  0.32585707356E+03  0.15896650562E+04  0.50400001928E-02 0. -1.
       -1    1    3    3    0  502 -0.14275539966E+04  0.61882287071E+03 -0.54604154012E+03  0.16489431531E+04  0.50400001928E-02 0.  1.
</event>
<event>
 5   0  0.8802800E-07  0.3187287E+04  0.7818609E-02  0.8192183E-01
       -2   -1    0    0    0  501  0.00000000000E+00  0.00000000000E+00  0.17977621957E+04  0.17977621957E+04  0.25500000920E-02 0. -1.
        2   -1    0    0  501    0  0.00000000000E+00  0.00000000000E+00 -0.14127002355E+04  0.14127002355E+04  0.25500000920E-02 0.  1.
    10030    2    1    2    0    0  0.00000000000E+00  0.00000000000E+00  0.38506196019E+03  0.32104624312E+04  0.31872866688E+04 0.  0.
        5    1    3    3  502    0  0.67498696713E+03  0.11828989959E+04 -0.64102455546E+03  0.15052547993E+04  0.46999998093E+01 0. -1.
       -5    1    3    3    0  502 -0.67498696713E+03 -0.11828989959E+04  0.10260865157E+04  0.17052076319E+04  0.46999998093E+01 0.  1.
</event>
<event>
 5   0  0.2891204E-07  0.3194453E+04  0.7818609E-02  0.8190284E-01
       -1   -1    0    0    0  501  0.00000000000E+00  0.00000000000E+00  0.25341000052E+04  0.25341000052E+04  0.50400001928E-02 0. -1.
        1   -1    0    0  501    0  0.00000000000E+00  0.00000000000E+00 -0.10067213149E+04  0.10067213149E+04  0.50400001928E-02 0.  1.
    10030    2    1    2    0    0  0.00000000000E+00  0.00000000000E+00  0.15273786903E+04  0.35408213202E+04  0.31944529982E+04 0.  0.
        4    1    3    3  502    0  0.10434985260E+04 -0.10971112894E+04  0.20003594597E+03  0.15272715370E+04  0.12699999809E+01 0.  1.
       -4    1    3    3    0  502 -0.10434985260E+04  0.10971112894E+04  0.13273427443E+04  0.20135497831E+04  0.12699999809E+01 0. -1.
</event>
<event>
 5   0  0.3013888E-07  0.3205006E+04  0.7818609E-02  0.8187496E-01
       -1   -1    0    0    0  501  0.00000000000E+00  0.00000000000E+00  0.11509472849E+04  0.11509472849E+04  0.50400001928E-02 0.  1.
        1   -1    0    0  501    0  0.00000000000E+00  0.00000000000E+00 -0.22312199726E+04  0.22312199726E+04  0.50400001928E-02 0. -1.
    10030    2    1    2    0    0  0.00000000000E+00  0.00000000000E+00 -0.10802726877E+04  0.33821672574E+04  0.32050064395E+04 0.  0.
        1    1    3    3  502    0 -0.80981881352E+03  0.82608281278E+03 -0.17103978836E+04  0.20648680937E+04  0.50400001928E-02 0.  1.
       -1    1    3    3    0  502  0.80981881352E+03 -0.82608281278E+03  0.63012519586E+03  0.13172991637E+04  0.50400001928E-02 0. -1.
</event>
<event>
 5   0  0.2891204E-07  0.3200596E+04  0.7818609E-02  0.8188660E-01
        1   -1    0    0  501    0  0.00000000000E+00  0.00000000000E+00  0.22236599057E+04  0.22236599057E+04  0.50400001928E-02 0. -1.
       -1   -1    0    0    0  501  0.00000000000E+00  0.00000000000E+00 -0.11516839458E+04  0.11516839458E+04  0.50400001928E-02 0.  1.
    10030    2    1    2    0    0  0.00000000000E+00  0.00000000000E+00  0.10719759600E+04  0.33753438515E+04  0.32005958285E+04 0.  0.
        4    1    3    3  502    0 -0.15421347731E+04 -0.32815849776E+03  0.24701229494E+03  0.15958960946E+04  0.12699999809E+01 0.  1.
       -4    1    3    3    0  502  0.15421347731E+04  0.32815849776E+03  0.82496366501E+03  0.17794477569E+04  0.12699999809E+01 0. -1.
</event>
<event>
 5   0  0.8335929E-07  0.3225711E+04  0.7818609E-02  0.8182060E-01
       -2   -1    0    0    0  501  0.00000000000E+00  0.00000000000E+00  0.11460498151E+04  0.11460498151E+04  0.25500000920E-02 0.  1.
        2   -1    0    0  501    0  0.00000000000E+00  0.00000000000E+00 -0.22697995849E+04  0.22697995849E+04  0.25500000920E-02 0. -1.
    10030    2    1    2    0    0  0.00000000000E+00  0.00000000000E+00 -0.11237497698E+04  0.34158494000E+04  0.32257113290E+04 0.  0.
        4    1    3    3  502    0 -0.13528052878E+03 -0.15368504897E+04 -0.63955229325E+02  0.15441185619E+04  0.12699999809E+01 0. -1.
       -4    1    3    3    0  502  0.13528052878E+03  0.15368504897E+04 -0.10597945405E+04  0.18717308380E+04  0.12699999809E+01 0.  1.
</event>
<event>
 5   0  0.3013888E-07  0.3198631E+04  0.7818609E-02  0.8189179E-01
        1   -1    0    0  501    0  0.00000000000E+00  0.00000000000E+00  0.24307234003E+04  0.24307234003E+04  0.50400001928E-02 0.  1.
       -1   -1    0    0    0  501  0.00000000000E+00  0.00000000000E+00 -0.10522837787E+04  0.10522837787E+04  0.50400001928E-02 0. -1.
    10030    2    1    2    0    0  0.00000000000E+00  0.00000000000E+00  0.13784396216E+04  0.34830071790E+04  0.31986314602E+04 0.  0.
        1    1    3    3  502    0  0.28309072910E+03 -0.56516426141E+02  0.24021190549E+04  0.24194029060E+04  0.50400001928E-02 0.  1.
       -1    1    3    3    0  502 -0.28309072910E+03  0.56516426141E+02 -0.10236794333E+04  0.10636042730E+04  0.50400001928E-02 0. -1.
</event>
<event>
 5   0  0.8195618E-07  0.3203044E+04  0.7818609E-02  0.8188014E-01
        2   -1    0    0  501    0  0.00000000000E+00  0.00000000000E+00  0.16746793204E+04  0.16746793204E+04  0.25500000920E-02 0. -1.
       -2   -1    0    0    0  501  0.00000000000E+00  0.00000000000E+00 -0.15315602313E+04  0.15315602313E+04  0.25500000920E-02 0.  1.
    10030    2    1    2    0    0  0.00000000000E+00  0.00000000000E+00  0.14311908917E+03  0.32062395517E+04  0.32030437071E+04 0.  0.
        1    1    3    3  502    0 -0.60637423198E+03 -0.11941959018E+04 -0.80742745479E+03  0.15638838371E+04  0.50400001928E-02 0.  1.
       -1    1    3    3    0  502  0.60637423198E+03  0.11941959018E+04  0.95054654396E+03  0.16423557146E+04  0.50400001928E-02 0. -1.
</event>
<event>
 5   0  0.2783875E-07  0.3198137E+04  0.7818609E-02  0.8189309E-01
       -3   -1    0    0    0  501  0.00000000000E+00  0.00000000000E+00  0.24306689780E+04  0.24306689801E+04  0.10100000352E+00 0.  1.
        3   -1    0    0  501    0  0.00000000000E+00  0.00000000000E+00 -0.10519822111E+04  0.10519822159E+04  0.10100000352E+00 0. -1.
    10030    2    1    2    0    0  0.00000000000E+00  0.00000000000E+00  0.13786867669E+04  0.34826511960E+04  0.31981372941E+04 0.  0.
        5    1    3    3  502    0  0.49805185208E+03  0.83395846460E+03 -0.69387722287E+03  0.11937462287E+04  0.46999998093E+01 0. -1.
       -5    1    3    3    0  502 -0.49805185208E+03 -0.83395846460E+03  0.20725639898E+04  0.22889049674E+04  0.46999998093E+01 0.  1.
</event>
<event>
 5   0  0.3075756E-07  0.3174505E+04  0.7818609E-02  0.8195583E-01
        1   -1    0    0  501    0  0.00000000000E+00  0.00000000000E+00  0.24215307134E+04  0.24215307134E+04  0.50400001928E-02 0.  1.
       -1   -1    0    0    0  501  0.00000000000E+00  0.00000000000E+00 -0.10404040994E+04  0.10404040994E+04  0.50400001928E-02 0. -1.
    10030    2    1    2    0    0  0.00000000000E+00  0.00000000000E+00  0.13811266140E+04  0.34619348127E+04  0.31745049888E+04 0.  0.
        5    1    3    3  502    0  0.27153763006E+03  0.87796104340E+03  0.21018796243E+04  0.22940070452E+04  0.46999998093E+01 0. -1.
       -5    1    3    3    0  502 -0.27153763006E+03 -0.87796104340E+03 -0.72075301033E+03  0.11679277675E+04  0.46999998093E+01 0.  1.
</event>
<event>
 5   0  0.8488469E-07  0.3120660E+04  0.7818609E-02  0.8210091E-01
       -2   -1    0    0    0  501  0.00000000000E+00  0.00000000000E+00  0.85842631575E+03  0.85842631576E+03  0.25500000920E-02 0. -1.
        2   -1    0    0  501    0  0.00000000000E+00  0.00000000000E+00 -0.28361541411E+04  0.28361541411E+04  0.25500000920E-02 0.  1.
    10030    2    1    2    0    0  0.00000000000E+00  0.00000000000E+00 -0.19777278254E+04  0.36945804569E+04  0.31206597702E+04 0.  0.
        3    1    3    3  502    0 -0.11061511854E+04 -0.37426805060E+03  0.23634418181E+03  0.11914300655E+04  0.10100000352E+00 0. -1.
       -3    1    3    3    0  502  0.11061511854E+04  0.37426805060E+03 -0.22140720072E+04  0.25031503914E+04  0.10100000352E+00 0.  1.
</event>
<event>
 5   0  0.3013888E-07  0.3031693E+04  0.7818609E-02  0.8234738E-01
       -1   -1    0    0    0  501  0.00000000000E+00  0.00000000000E+00  0.15537486365E+04  0.15537486365E+04  0.50400001928E-02 0.  1.
        1   -1    0    0  501    0  0.00000000000E+00  0.00000000000E+00 -0.14788691011E+04  0.14788691011E+04  0.50400001928E-02 0. -1.
    10030    2    1    2    0    0  0.00000000000E+00  0.00000000000E+00  0.74879535393E+02  0.30326177376E+04  0.30316931569E+04 0.  0.
        1    1    3    3  502    0  0.53632889329E+03  0.12255084426E+04 -0.67570908683E+03  0.14987002351E+04  0.50400001928E-02 0. -1.
       -1    1    3    3    0  502 -0.53632889329E+03 -0.12255084426E+04  0.75058862222E+03  0.15339175025E+04  0.50400001928E-02 0.  1.
</event>
<event>
 5   0  0.3075756E-07  0.3203036E+04  0.7818609E-02  0.8188016E-01
       -1   -1    0    0    0  501  0.00000000000E+00  0.00000000000E+00  0.18163842795E+04  0.18163842795E+04  0.50400001928E-02 0. -1.
        1   -1    0    0  501    0  0.00000000000E+00  0.00000000000E+00 -0.14120693060E+04  0.14120693060E+04  0.50400001928E-02 0.  1.
    10030    2    1    2    0    0  0.00000000000E+00  0.00000000000E+00  0.40431497349E+03  0.32284535854E+04  0.32030363650E+04 0.  0.
        5    1    3    3  502    0  0.17197159857E+03 -0.95722372020E+03  0.14846485497E+04  0.17748393976E+04  0.46999998093E+01 0. -1.
       -5    1    3    3    0  502 -0.17197159857E+03  0.95722372020E+03 -0.10803335762E+04  0.14536141878E+04  0.46999998093E+01 0.  1.
</event>
<event>
 5   0  0.8802800E-07  0.3210276E+04  0.7818609E-02  0.8186109E-01
        2   -1    0    0  501    0  0.00000000000E+00  0.00000000000E+00  0.16413538396E+04  0.16413538396E+04  0.25500000920E-02 0.  1.
       -2   -1    0    0    0  501  0.00000000000E+00  0.00000000000E+00 -0.15697213122E+04  0.15697213122E+04  0.25500000920E-02 0. -1.
    10030    2    1    2    0    0  0.00000000000E+00  0.00000000000E+00  0.71632527417E+02  0.32110751518E+04  0.32102760646E+04 0.  0.
        5    1    3    3  502    0  0.15688968755E+04  0.21385714811E+03  0.29908080358E+03  0.16114104700E+04  0.46999998093E+01 0.  1.
       -5    1    3    3    0  502 -0.15688968755E+04 -0.21385714811E+03 -0.22744827616E+03  0.15996646818E+04  0.46999998093E+01 0. -1.
</event>
<event>
 5   0  0.3013888E-07  0.3187018E+04  0.7818609E-02  0.8192254E-01
        1   -1    0    0  501    0  0.00000000000E+00  0.00000000000E+00  0.18019648491E+04  0.18019648492E+04  0.50400001928E-02 0.  1.
       -1   -1    0    0    0  501  0.00000000000E+00  0.00000000000E+00 -0.14091676513E+04  0.14091676513E+04  0.50400001928E-02 0. -1.
    10030    2    1    2    0    0  0.00000000000E+00  0.00000000000E+00  0.39279719788E+03  0.32111325004E+04  0.31870177748E+04 0.  0.
        1    1    3    3  502    0  0.80771707468E+03  0.13673807348E+04  0.32828450931E+03  0.16216990059E+04  0.50400001928E-02 0. -1.
       -1    1    3    3    0  502 -0.80771707468E+03 -0.13673807348E+04  0.64512688566E+02  0.15894334946E+04  0.50400001928E-02 0.  1.
</event>
<event>
 5   0  0.3075756E-07  0.3204726E+04  0.7818609E-02  0.8187570E-01
        1   -1    0    0  501    0  0.00000000000E+00  0.00000000000E+00  0.13998026480E+04  0.13998026480E+04  0.50400001928E-02 0. -1.
       -1   -1    0    0    0  501  0.00000000000E+00  0.00000000000E+00 -0.18342356758E+04  0.18342356758E+04  0.50400001928E-02 0.  1.
    10030    2    1    2    0    0  0.00000000000E+00  0.00000000000E+00 -0.43443302777E+03  0.32340383238E+04  0.32047264820E+04 0.  0.
        5    1    3    3  502    0 -0.87931045511E+03 -0.13053151668E+04  0.86386169818E+02  0.15762357759E+04  0.46999998093E+01 0. -1.
       -5    1    3    3    0  502  0.87931045511E+03  0.13053151668E+04 -0.52081919759E+03  0.16578025478E+04  0.46999998093E+01 0.  1.
</event>
<event>
 5   0  0.2997105E-07  0.3204929E+04  0.7818609E-02  0.8187517E-01
       -1   -1    0    0    0  501  0.00000000000E+00  0.00000000000E+00  0.10599107666E+04  0.10599107666E+04  0.50400001928E-02 0. -1.
        1   -1    0    0  501    0  0.00000000000E+00  0.00000000000E+00 -0.24227443944E+04  0.24227443944E+04  0.50400001928E-02 0.  1.
    10030    2    1    2    0    0  0.00000000000E+00  0.00000000000E+00 -0.13628336278E+04  0.34826551611E+04  0.32049292463E+04 0.  0.
        3    1    3    3  502    0 -0.15432317065E+04 -0.23658924862E+03 -0.10737496749E+04  0.18948553895E+04  0.10100000352E+00 0. -1.
       -3    1    3    3    0  502  0.15432317065E+04  0.23658924862E+03 -0.28908395291E+03  0.15877997716E+04  0.10100000352E+00 0.  1.
</event>
<event>
 5   0  0.8335929E-07  0.3129180E+04  0.7818609E-02  0.8207775E-01
       -2   -1    0    0    0  501  0.00000000000E+00  0.00000000000E+00  0.12043110453E+04  0.12043110453E+04  0.25500000920E-02 0.  1.
        2   -1    0    0  501    0  0.00000000000E+00  0.00000000000E+00 -0.20326496514E+04  0.20326496514E+04  0.25500000920E-02 0. -1.
    10030    2    1    2    0    0  0.00000000000E+00  0.00000000000E+00 -0.82833860610E+03  0.32369606966E+04  0.31291803568E+04 0.  0.
        4    1    3    3  502    0  0.11614830520E+04 -0.69683737878E+03 -0.12242883384E+04  0.18257899005E+04  0.12699999809E+01 0. -1.
       -4    1    3    3    0  502 -0.11614830520E+04  0.69683737878E+03  0.39594973226E+03  0.14111707961E+04  0.12699999809E+01 0.  1.
</event>
<event>
 5   0  0.2783875E-07  0.3184746E+04  0.7818609E-02  0.8192857E-01
        1   -1    0    0  501    0  0.00000000000E+00  0.00000000000E+00  0.12568403880E+04  0.12568403880E+04  0.50400001928E-02 0.  1.
       -1   -1    0    0    0  501  0.00000000000E+00  0.00000000000E+00 -0.20174811564E+04  0.20174811564E+04  0.50400001928E-02 0. -1.
    10030    2    1    2    0    0  0.00000000000E+00  0.00000000000E+00 -0.76064076840E+03  0.32743215444E+04  0.31847460177E+04 0.  0.
        2    1    3    3  502    0  0.30235284354E+03  0.15501198299E+04 -0.17122092671E+03  0.15885859545E+04  0.25500000920E-02 0. -1.
       -2    1    3    3    0  502 -0.30235284354E+03 -0.15501198299E+04 -0.58941984168E+03  0.16857355899E+04  0.25500000920E-02 0.  1.
</event>
<event>
 5   0  0.2783875E-07  0.3204827E+04  0.7818609E-02  0.8187544E-01
       -3   -1    0    0    0  501  0.00000000000E+00  0.00000000000E+00  0.25444765639E+04  0.25444765659E+04  0.10100000352E+00 0. -1.
        3   -1    0    0  501    0  0.00000000000E+00  0.00000000000E+00 -0.10091384626E+04  0.10091384677E+04  0.10100000352E+00 0.  1.
    10030    2    1    2    0    0  0.00000000000E+00  0.00000000000E+00  0.15353381013E+04  0.35536150336E+04  0.32048270970E+04 0.  0.
        3    1    3    3  502    0  0.54706422080E+03 -0.13285888277E+04  0.15543161495E+04  0.21166781139E+04  0.10100000352E+00 0. -1.
       -3    1    3    3    0  502 -0.54706422080E+03  0.13285888277E+04 -0.18978048223E+02  0.14369369197E+04  0.10100000352E+00 0.  1.
</event>
<event>
 5   0  0.8195618E-07  0.3208108E+04  0.7818609E-02  0.8186679E-01
       -2   -1    0    0    0  501  0.00000000000E+00  0.00000000000E+00  0.10415017869E+04  0.10415017869E+04  0.25500000920E-02 0.  1.
        2   -1    0    0  501    0  0.00000000000E+00  0.00000000000E+00 -0.24704606957E+04  0.24704606957E+04  0.25500000920E-02 0. -1.
    10030    2    1    2    0    0  0.00000000000E+00  0.00000000000E+00 -0.14289589087E+04  0.35119624826E+04  0.32081079964E+04 0.  0.
        1    1    3    3  502    0 -0.22281693461E+03  0.14623490502E+04 -0.35335369126E+02  0.14796488500E+04  0.50400001928E-02 0.  1.
       -1    1    3    3    0  502  0.22281693461E+03 -0.14623490502E+04 -0.13936235396E+04  0.20323136326E+04  0.50400001928E-02 0. -1.
</event>
<event>
 5   0  0.8335929E-07  0.3206286E+04  0.7818609E-02  0.8187159E-01
        2   -1    0    0  501    0  0.00000000000E+00  0.00000000000E+00  0.15516900786E+04  0.15516900786E+04  0.25500000920E-02 0. -1.
       -2   -1    0    0    0  501  0.00000000000E+00  0.00000000000E+00 -0.16563018332E+04  0.16563018332E+04  0.25500000920E-02 0.  1.
    10030    2    1    2    0    0  0.00000000000E+00  0.00000000000E+00 -0.10461175459E+03  0.32079919118E+04  0.32062857775E+04 0.  0.
        4    1    3    3  502    0  0.86464945621E+03  0.57275901620E+03 -0.12754104346E+04  0.16438810670E+04  0.12699999809E+01 0.  1.
       -4    1    3    3    0  502 -0.86464945621E+03 -0.57275901620E+03  0.11707986801E+04  0.15641108448E+04  0.12699999809E+01 0. -1.
</event>
<event>
 5   0  0.8335929E-07  0.3164960E+04  0.7818609E-02  0.8198133E-01
       -2   -1    0    0    0  501  0.00000000000E+00  0.00000000000E+00  0.15863162480E+04  0.15863162480E+04  0.25500000920E-02 0. -1.
        2   -1    0    0  501    0  0.00000000000E+00  0.00000000000E+00 -0.15786530708E+04  0.15786530708E+04  0.25500000920E-02 0.  1.
    10030    2    1    2    0    0  0.00000000000E+00  0.00000000000E+00  0.76631772015E+01  0.31649693188E+04  0.31649600416E+04 0.  0.
        4    1    3    3  502    0  0.12308423937E+04  0.82184904213E+03 -0.55637765544E+03  0.15811282536E+04  0.12699999809E+01 0. -1.
       -4    1    3    3    0  502 -0.12308423937E+04 -0.82184904213E+03  0.56404083264E+03  0.15838410652E+04  0.12699999809E+01 0.  1.
</event>
<event>
 5   0  0.8335929E-07  0.3141669E+04  0.7818609E-02  0.8204394E-01
        2   -1    0    0  501    0  0.00000000000E+00  0.00000000000E+00  0.19930194163E+04  0.19930194163E+04  0.25500000920E-02 0.  1.
       -2   -1    0    0    0  501  0.00000000000E+00  0.00000000000E+00 -0.12380819296E+04  0.12380819296E+04  0.25500000920E-02 0. -1.
    10030    2    1    2    0    0  0.00000000000E+00  0.00000000000E+00  0.75493748674E+03  0.32311013459E+04  0.31416691898E+04 0.  0.
        4    1    3    3  502    0 -0.11540269443E+03 -0.28794947737E+03  0.19612025598E+04  0.19855854998E+04  0.12699999809E+01 0.  1.
       -4    1    3    3    0  502  0.11540269443E+03  0.28794947737E+03 -0.12062650731E+04  0.12455158461E+04  0.12699999809E+01 0. -1.
</event>
<event>
 5   0  0.8488469E-07  0.3203081E+04  0.7818609E-02  0.8188004E-01
       -2   -1    0    0    0  501  0.00000000000E+00  0.00000000000E+00  0.11236329154E+04  0.11236329154E+04  0.25500000920E-02 0. -1.
        2   -1    0    0  501    0  0.00000000000E+00  0.00000000000E+00 -0.22827130324E+04  0.22827130324E+04  0.25500000920E-02 0.  1.
    10030    2    1    2    0    0  0.00000000000E+00  0.00000000000E+00 -0.11590801170E+04  0.34063459479E+04  0.32030807044E+04 0.  0.
        3    1    3    3  502    0 -0.48943736163E+03  0.14631084063E+04 -0.10365756564E+04  0.18586888500E+04  0.10100000352E+00 0. -1.
       -3    1    3    3    0  502  0.48943736163E+03 -0.14631084063E+04 -0.12250446063E+03  0.15476570979E+04  0.10100000352E+00 0.  1.
</event>
<event>
 5   0  0.2997105E-07  0.3199429E+04  0.7818609E-02  0.8188968E-01
       -1   -1    0    0    0  501  0.00000000000E+00  0.00000000000E+00  0.17032490912E+04  0.17032490912E+04  0.50400001928E-02 0. -1.
        1   -1    0    0  501    0  0.00000000000E+00  0.00000000000E+00 -0.15024735848E+04  0.15024735848E+04  0.50400001928E-02 0.  1.
    10030    2    1    2    0    0  0.00000000000E+00  0.00000000000E+00  0.20077550642E+03  0.32057226760E+04  0.31994291790E+04 0.  0.
        3    1    3    3  502    0 -0.29113539389E+03  0.91114624267E+03 -0.11843745193E+04  0.15223962380E+04  0.10100000352E+00 0.  1.
       -3    1    3    3    0  502  0.29113539389E+03 -0.91114624267E+03  0.13851500257E+04  0.16833264381E+04  0.10100000352E+00 0. -1.
</event>
<event>
 5   0  0.2891204E-07  0.3237656E+04  0.7818609E-02  0.8178942E-01
        1   -1    0    0  501    0  0.00000000000E+00  0.00000000000E+00  0.15728815270E+04  0.15728815270E+04  0.50400001928E-02 0.  1.
       -1   -1    0    0    0  501  0.00000000000E+00  0.00000000000E+00 -0.16661168763E+04  0.16661168763E+04  0.50400001928E-02 0. -1.
    10030    2    1    2    0    0  0.00000000000E+00  0.00000000000E+00 -0.93235349296E+02  0.32389984032E+04  0.32376562242E+04 0.  0.
        4    1    3    3  502    0  0.10673647891E+04 -0.30473356709E+03 -0.12254408728E+04  0.16534319113E+04  0.12699999809E+01 0. -1.
       -4    1    3    3    0  502 -0.10673647891E+04  0.30473356709E+03  0.11322055235E+04  0.15855664919E+04  0.12699999809E+01 0.  1.
</event>
<event>
 5   0  0.8488469E-07  0.3201989E+04  0.7818609E-02  0.8188292E-01
        2   -1    0    0  501    0  0.00000000000E+00  0.00000000000E+00  0.17730788651E+04  0.17730788651E+04  0.25500000920E-02 0.  1.
       -2   -1    0    0    0  501  0.00000000000E+00  0.00000000000E+00 -0.14456112772E+04  0.14456112772E+04  0.25500000920E-02 0. -1.
    10030    2    1    2    0    0  0.00000000000E+00  0.00000000000E+00  0.32746758784E+03  0.32186901423E+04  0.32019886338E+04 0.  0.
        3    1    3    3  502    0 -0.12172090142E+04 -0.93049222438E+03 -0.30319874395E+03  0.15618396372E+04  0.10100000352E+00 0. -1.
       -3    1    3    3    0  502  0.12172090142E+04  0.93049222438E+03  0.63066633179E+03  0.16568505051E+04  0.10100000352E+00 0.  1.
</event>
<event>
 5   0  0.8838951E-07  0.3198953E+04  0.7818609E-02  0.8189094E-01
       -2   -1    0    0    0  501  0.00000000000E+00  0.00000000000E+00  0.14504854799E+04  0.14504854799E+04  0.25500000920E-02 0. -1.
        2   -1    0    0  501    0  0.00000000000E+00  0.00000000000E+00 -0.17637715070E+04  0.17637715070E+04  0.25500000920E-02 0.  1.
    10030    2    1    2    0    0  0.00000000000E+00  0.00000000000E+00 -0.31328602706E+03  0.32142569869E+04  0.31989529292E+04 0.  0.
        2    1    3    3  502    0 -0.43301983801E+03  0.12300518453E+04  0.77395806163E+03  0.15164250075E+04  0.25500000920E-02 0. -1.
       -2    1    3    3    0  502  0.43301983801E+03 -0.12300518453E+04 -0.10872440887E+04  0.16978319795E+04  0.25500000920E-02 0.  1.
</event>
<event>
 5   0  0.3013888E-07  0.3213943E+04  0.7818609E-02  0.8185145E-01
        1   -1    0    0  501    0  0.00000000000E+00  0.00000000000E+00  0.17747410865E+04  0.17747410865E+04  0.50400001928E-02 0. -1.
       -1   -1    0    0    0  501  0.00000000000E+00  0.00000000000E+00 -0.14550610338E+04  0.14550610338E+04  0.50400001928E-02 0.  1.
    10030    2    1    2    0    0  0.00000000000E+00  0.00000000000E+00  0.31968005266E+03  0.32298021203E+04  0.32139425010E+04 0.  0.
        1    1    3    3  502    0  0.33654449876E+03 -0.13974189838E+04  0.88193614191E+03  0.16863728456E+04  0.50400001928E-02 0. -1.
       -1    1    3    3    0  502 -0.33654449876E+03  0.13974189838E+04 -0.56225608925E+03  0.15434292747E+04  0.50400001928E-02 0.  1.
</event>
<event>
 5   0  0.8195618E-07  0.3212823E+04  0.7818609E-02  0.8185439E-01
       -2   -1    0    0    0  501  0.00000000000E+00  0.00000000000E+00  0.21879556326E+04  0.21879556326E+04  0.25500000920E-02 0.  1.
        2   -1    0    0  501    0  0.00000000000E+00  0.00000000000E+00 -0.11794381228E+04  0.11794381228E+04  0.25500000920E-02 0. -1.
    10030    2    1    2    0    0  0.00000000000E+00  0.00000000000E+00  0.10085175098E+04  0.33673937555E+04  0.32128232346E+04 0.  0.
        1    1    3    3  502    0  0.93717698816E+03 -0.12179470258E+04  0.99459372389E+03  0.18305497372E+04  0.50400001928E-02 0.  1.
       -1    1    3    3    0  502 -0.93717698816E+03  0.12179470258E+04  0.13923785946E+02  0.15368440183E+04  0.50400001928E-02 0. -1.
</event>
<event>
 5   0  0.2783875E-07  0.3191981E+04  0.7818609E-02  0.8190938E-01
        1   -1    0    0  501    0  0.00000000000E+00  0.00000000000E+00  0.19143273063E+04  0.19143273063E+04  0.50400001928E-02 0.  1.
       -1   -1    0    0    0  501  0.00000000000E+00  0.00000000000E+00 -0.13305906813E+04  0.13305906813E+04  0.50400001928E-02 0. -1.
    10030    2    1    2    0    0  0.00000000000E+00  0.00000000000E+00  0.58373662506E+03  0.32449179876E+04  0.31919812498E+04 0.  0.
        2    1    3    3  502    0  0.13402356991E+04 -0.23452902999E+03 -0.55620337072E+03  0.14698972021E+04  0.25500000920E-02 0. -1.
       -2    1    3    3    0  502 -0.13402356991E+04  0.23452902999E+03  0.11399399958E+04  0.17750207855E+04  0.25500000920E-02 0.  1.
</event>
<event>
 5   0  0.8802800E-07  0.3216933E+04  0.7818609E-02  0.8184360E-01
       -2   -1    0    0    0  501  0.00000000000E+00  0.00000000000E+00  0.19881697750E+04  0.19881697750E+04  0.25500000920E-02 0.  1.
        2   -1    0    0  501    0  0.00000000000E+00  0.00000000000E+00 -0.13012793369E+04  0.13012793369E+04  0.25500000920E-02 0. -1.
    10030    2    1    2    0    0  0.00000000000E+00  0.00000000000E+00  0.68689043811E+03  0.32894491119E+04  0.32169328538E+04 0.  0.
        5    1    3    3  502    0  0.42648779827E+00 -0.65085683666E+03 -0.11606051177E+04  0.13306544002E+04  0.46999998093E+01 0. -1.
       -5    1    3    3    0  502 -0.42648779827E+00  0.65085683666E+03  0.18474955558E+04  0.19587947116E+04  0.46999998093E+01 0.  1.
</event>
<event>
 5   0  0.2783875E-07  0.3196650E+04  0.7818609E-02  0.8189702E-01
       -1   -1    0    0    0  501  0.00000000000E+00  0.00000000000E+00  0.27874375162E+04  0.27874375162E+04  0.50400001928E-02 0. -1.
        1   -1    0    0  501    0  0.00000000000E+00  0.00000000000E+00 -0.91648455372E+03  0.91648455373E+03  0.50400001928E-02 0.  1.
    10030    2    1    2    0    0  0.00000000000E+00  0.00000000000E+00  0.18709529624E+04  0.37039220699E+04  0.31966503894E+04 0.  0.
        2    1    3    3  502    0  0.11070615285E+04 -0.89497095305E+03  0.93463678609E+02  0.14266371977E+04  0.25500000920E-02 0.  1.
       -2    1    3    3    0  502 -0.11070615285E+04  0.89497095305E+03  0.17774892838E+04  0.22772848721E+04  0.25500000920E-02 0. -1.
</event>
<event>
 5   0  0.2997105E-07  0.3097244E+04  0.7818609E-02  0.8216495E-01
        1   -1    0    0  501    0  0.00000000000E+00  0.00000000000E+00  0.19213399055E+04  0.19213399055E+04  0.50400001928E-02 0. -1.
       -1   -1    0    0    0  501  0.00000000000E+00  0.00000000000E+00 -0.12482071649E+04  0.12482071649E+04  0.50400001928E-02 0.  1.
    10030    2    1    2    0    0  0.00000000000E+00  0.00000000000E+00  0.67313274057E+03  0.31695470704E+04  0.30972440887E+04 0.  0.
        3    1    3    3  502    0 -0.17173257953E+03 -0.60464785332E+03  0.17849290622E+04  0.18923696448E+04  0.10100000352E+00 0. -1.
       -3    1    3    3    0  502  0.17173257953E+03  0.60464785332E+03 -0.11117963216E+04  0.12771774256E+04  0.10100000352E+00 0.  1.
</event>
<event>
 5   0  0.3075756E-07  0.3198786E+04  0.7818609E-02  0.8189138E-01
        1   -1    0    0  501    0  0.00000000000E+00  0.00000000000E+00  0.15262648880E+04  0.15262648880E+04  0.50400001928E-02 0. -1.
       -1   -1    0    0    0  501  0.00000000000E+00  0.00000000000E+00 -0.16760252219E+04  0.16760252219E+04  0.50400001928E-02 0.  1.
    10030    2    1    2    0    0  0.00000000000E+00  0.00000000000E+00 -0.14976033393E+03  0.32022901099E+04  0.31987862995E+04 0.  0.
        5    1    3    3  502    0 -0.87867866461E+03 -0.13098379282E+04 -0.34028329754E+03  0.16135570664E+04  0.46999998093E+01 0. -1.
       -5    1    3    3    0  502  0.87867866461E+03  0.13098379282E+04  0.19052296361E+03  0.15887330435E+04  0.46999998093E+01 0.  1.
</event>
<event>
 5   0  0.8195618E-07  0.3201527E+04  0.7818609E-02  0.8188414E-01
        2   -1    0    0  501    0  0.00000000000E+00  0.00000000000E+00  0.17708962255E+04  0.17708962255E+04  0.25500000920E-02 0.  1.
       -2   -1    0    0    0  501  0.00000000000E+00  0.00000000000E+00 -0.14469755154E+04  0.14469755154E+04  0.25500000920E-02 0. -1.
    10030    2    1    2    0    0  0.00000000000E+00  0.00000000000E+00  0.32392071017E+03  0.32178717409E+04  0.32015268099E+04 0.  0.
        1    1    3    3  502    0 -0.47631594004E+03  0.11069927933E+04  0.12209682618E+04  0.17155388120E+04  0.50400001928E-02 0.  1.
       -1    1    3    3    0  502  0.47631594004E+03 -0.11069927933E+04 -0.89704755166E+03  0.15023329289E+04  0.50400001928E-02 0. -1.
</event>
<event>
 5   0  0.2997105E-07  0.3176970E+04  0.7818609E-02  0.8194926E-01
       -1   -1    0    0    0  501  0.00000000000E+00  0.00000000000E+00  0.15800725438E+04  0.15800725438E+04  0.50400001928E-02 0.  1.
        1   -1    0    0  501    0  0.00000000000E+00  0.00000000000E+00 -0.15969420862E+04  0.15969420862E+04  0.50400001928E-02 0. -1.
    10030    2    1    2    0    0  0.00000000000E+00  0.00000000000E+00 -0.16869542331E+02  0.31770146300E+04  0.31769698421E+04 0.  0.
        3    1    3    3  502    0  0.64170079794E+03 -0.12443031648E+04 -0.75892123633E+03  0.15924923024E+04  0.10100000352E+00 0. -1.
       -3    1    3    3    0  502 -0.64170079794E+03  0.12443031648E+04  0.74205169400E+03  0.15845223276E+04  0.10100000352E+00 0.  1.
</event>
<event>
 5   0  0.8838951E-07  0.3196237E+04  0.7818609E-02  0.8189812E-01
       -2   -1    0    0    0  501  0.00000000000E+00  0.00000000000E+00  0.26616840239E+04  0.26616840239E+04  0.25500000920E-02 0. -1.
        2   -1    0    0  501    0  0.00000000000E+00  0.00000000000E+00 -0.95953669449E+03  0.95953669450E+03  0.25500000920E-02 0.  1.
    10030    2    1    2    0    0  0.00000000000E+00  0.00000000000E+00  0.17021473294E+04  0.36212207184E+04  0.31962374693E+04 0.  0.
        2    1    3    3  502    0  0.21433018318E+03  0.61871320975E+03 -0.80058367436E+03  0.10342522337E+04  0.25500000920E-02 0.  1.
       -2    1    3    3    0  502 -0.21433018318E+03 -0.61871320975E+03  0.25027310038E+04  0.25869684847E+04  0.25500000920E-02 0. -1.
</event>
<event>
 5   0  0.2891204E-07  0.3199415E+04  0.7818609E-02  0.8188972E-01
       -1   -1    0    0    0  501  0.00000000000E+00  0.00000000000E+00  0.10754150911E+04  0.10754150911E+04  0.50400001928E-02 0. -1.
        1   -1    0    0  501    0  0.00000000000E+00  0.00000000000E+00 -0.23796064935E+04  0.23796064935E+04  0.50400001928E-02 0.  1.
    10030    2    1    2    0    0  0.00000000000E+00  0.00000000000E+00 -0.13041914025E+04  0.34550215846E+04  0.31994154053E+04 0.  0.
        4    1    3    3  502    0  0.10536566833E+04 -0.11483489734E+04 -0.10417036678E+04  0.18745788635E+04  0.12699999809E+01 0.  1.
       -4    1    3    3    0  502 -0.10536566833E+04  0.11483489734E+04 -0.26248773470E+03  0.15804427211E+04  0.12699999809E+01 0. -1.
</event>
<event>
 5   0  0.3075756E-07  0.3199588E+04  0.7818609E-02  0.8188926E-01
        1   -1    0    0  501    0  0.00000000000E+00  0.00000000000E+00  0.10739239369E+04  0.10739239369E+04  0.50400001928E-02 0. -1.
       -1   -1    0    0    0  501  0.00000000000E+00  0.00000000000E+00 -0.23831674622E+04  0.23831674622E+04  0.50400001928E-02 0.  1.
    10030    2    1    2    0    0  0.00000000000E+00  0.00000000000E+00 -0.13092435253E+04  0.34570913991E+04  0.31995878380E+04 0.  0.
        5    1    3    3  502    0 -0.36159490151E+03 -0.15179090162E+03  0.10211773461E+04  0.10938997270E+04  0.46999998093E+01 0. -1.
       -5    1    3    3    0  502  0.36159490151E+03  0.15179090162E+03 -0.23304208714E+04  0.23631916720E+04  0.46999998093E+01 0.  1.
</event>
<event>
 5   0  0.8802800E-07  0.3137565E+04  0.7818609E-02  0.8205504E-01
        2   -1    0    0  501    0  0.00000000000E+00  0.00000000000E+00  0.15914974258E+04  0.15914974258E+04  0.25500000920E-02 0. -1.
       -2   -1    0    0    0  501  0.00000000000E+00  0.00000000000E+00 -0.15463914327E+04  0.15463914327E+04  0.25500000920E-02 0.  1.
    10030    2    1    2    0    0  0.00000000000E+00  0.00000000000E+00  0.45105993144E+02  0.31378888585E+04  0.31375646508E+04 0.  0.
        5    1    3    3  502    0 -0.14654402841E+04  0.53279175447E+03  0.19483110729E+03  0.15714208635E+04  0.46999998093E+01 0.  1.
       -5    1    3    3    0  502  0.14654402841E+04 -0.53279175447E+03 -0.14972511415E+03  0.15664679951E+04  0.46999998093E+01 0. -1.
</event>
<event>
 5   0  0.3075756E-07  0.3175068E+04  0.7818609E-02  0.8195433E-01
        1   -1    0    0  501    0  0.00000000000E+00  0.00000000000E+00  0.18451129881E+04  0.18451129881E+04  0.50400001928E-02 0. -1.
       -1   -1    0    0    0  501  0.00000000000E+00  0.00000000000E+00 -0.13659131320E+04  0.13659131320E+04  0.50400001928E-02 0.  1.
    10030    2    1    2    0    0  0.00000000000E+00  0.00000000000E+00  0.47919985616E+03  0.32110261201E+04  0.31750679114E+04 0.  0.
        5    1    3    3  502    0  0.15073484826E+04 -0.25772977150E+03  0.67071147902E+03  0.16698503110E+04  0.46999998093E+01 0. -1.
       -5    1    3    3    0  502 -0.15073484826E+04  0.25772977150E+03 -0.19151162286E+03  0.15411758091E+04  0.46999998093E+01 0.  1.
</event>
<event>
 5   0  0.2783875E-07  0.3191102E+04  0.7818609E-02  0.8191171E-01
       -1   -1    0    0    0  501  0.00000000000E+00  0.00000000000E+00  0.16805980721E+04  0.16805980721E+04  0.50400001928E-02 0. -1.
        1   -1    0    0  501    0  0.00000000000E+00  0.00000000000E+00 -0.15148077736E+04  0.15148077736E+04  0.50400001928E-02 0.  1.
    10030    2    1    2    0    0  0.00000000000E+00  0.00000000000E+00  0.16579029852E+03  0.31954058458E+04  0.31911020191E+04 0.  0.
        2    1    3    3  502    0 -0.59554010579E+03  0.14768649288E+04 -0.17164532696E+02  0.15925114307E+04  0.25500000920E-02 0. -1.
       -2    1    3    3    0  502  0.59554010579E+03 -0.14768649288E+04  0.18295483122E+03  0.16028944151E+04  0.25500000920E-02 0.  1.
</event>
<event>
 5   0  0.8195618E-07  0.3205424E+04  0.7818609E-02  0.8187386E-01
        2   -1    0    0  501    0  0.00000000000E+00  0.00000000000E+00  0.26954544325E+04  0.26954544325E+04  0.25500000920E-02 0. -1.
       -2   -1    0    0    0  501  0.00000000000E+00  0.00000000000E+00 -0.95296935818E+03  0.95296935819E+03  0.25500000920E-02 0.  1.
    10030    2    1    2    0    0  0.00000000000E+00  0.00000000000E+00  0.17424850743E+04  0.36484237907E+04  0.32054238288E+04 0.  0.
        1    1    3    3  502    0  0.52660900595E+03  0.13031029831E+04 -0.54629337119E+01  0.14054978738E+04  0.50400001928E-02 0.  1.
       -1    1    3    3    0  502 -0.52660900595E+03 -0.13031029831E+04  0.17479480080E+04  0.22429259168E+04  0.50400001928E-02 0. -1.
</event>
<event>
 5   0  0.2891204E-07  0.3191798E+04  0.7818609E-02  0.8190987E-01
       -1   -1    0    0    0  501  0.00000000000E+00  0.00000000000E+00  0.18637214041E+04  0.18637214041E+04  0.50400001928E-02 0.  1.
        1   -1    0    0  501    0  0.00000000000E+00  0.00000000000E+00 -0.13665632416E+04  0.13665632416E+04  0.50400001928E-02 0. -1.
    10030    2    1    2    0    0  0.00000000000E+00  0.00000000000E+00  0.49715816254E+03  0.32302846457E+04  0.31917977150E+04 0.  0.
        4    1    3    3  502    0 -0.79973246813E+03 -0.10213608800E+04  0.11893802765E+04  0.17599366815E+04  0.12699999809E+01 0.  1.
       -4    1    3    3    0  502  0.79973246813E+03  0.10213608800E+04 -0.69222211398E+03  0.14703479642E+04  0.12699999809E+01 0. -1.
</event>
<event>
 5   0  0.8195618E-07  0.3217887E+04  0.7818609E-02  0.8184109E-01
        2   -1    0    0  501    0  0.00000000000E+00  0.00000000000E+00  0.17379956265E+04  0.17379956265E+04  0.25500000920E-02 0. -1.
       -2   -1    0    0    0  501  0.00000000000E+00  0.00000000000E+00 -0.14894738433E+04  0.14894738433E+04  0.25500000920E-02 0.  1.
    10030    2    1    2    0    0  0.00000000000E+00  0.00000000000E+00  0.24852178320E+03  0.32274694697E+04  0.32178869000E+04 0.  0.
        1    1    3    3  502    0 -0.71981208521E+03 -0.81172885144E+03 -0.10674127208E+04  0.15219734172E+04  0.50400001928E-02 0.  1.
       -1    1    3    3    0  502  0.71981208521E+03  0.81172885144E+03  0.13159345040E+04  0.17054960525E+04  0.50400001928E-02 0. -1.
</event>
<event>
 5   0  0.8195618E-07  0.3196934E+04  0.7818609E-02  0.8189627E-01
       -2   -1    0    0    0  501  0.00000000000E+00  0.00000000000E+00  0.10900353657E+04  0.10900353657E+04  0.25500000920E-02 0. -1.
        2   -1    0    0  501    0  0.00000000000E+00  0.00000000000E+00 -0.23440490268E+04  0.23440490268E+04  0.25500000920E-02 0.  1.
    10030    2    1    2    0    0  0.00000000000E+00  0.00000000000E+00 -0.12540136611E+04  0.34340843925E+04  0.31969337423E+04 0.  0.
        1    1    3    3  502    0 -0.51240905270E+03 -0.14819602001E+04 -0.96039635180E+03  0.18387849860E+04  0.50400001928E-02 0.  1.
       -1    1    3    3    0  502  0.51240905270E+03  0.14819602001E+04 -0.29361730927E+03  0.15952994065E+04  0.50400001928E-02 0. -1.
</event>
<event>
 5   0  0.2891204E-07  0.3199525E+04  0.7818609E-02  0.8188943E-01
       -1   -1    0    0    0  501  0.00000000000E+00  0.00000000000E+00  0.12432766386E+04  0.12432766386E+04  0.50400001928E-02 0. -1.
        1   -1    0    0  501    0  0.00000000000E+00  0.00000000000E+00 -0.20584639708E+04  0.20584639708E+04  0.50400001928E-02 0.  1.
    10030    2    1    2    0    0  0.00000000000E+00  0.00000000000E+00 -0.81518733220E+03  0.33017406094E+04  0.31995250687E+04 0.  0.
        4    1    3    3  502    0  0.85844982351E+03  0.78642591883E+03  0.72465346424E+03  0.13713227488E+04  0.12699999809E+01 0. -1.
       -4    1    3    3    0  502 -0.85844982351E+03 -0.78642591883E+03 -0.15398407964E+04  0.19304178606E+04  0.12699999809E+01 0.  1.
</event>
<event>
 5   0  0.2997105E-07  0.3205455E+04  0.7818609E-02  0.8187378E-01
       -1   -1    0    0    0  501  0.00000000000E+00  0.00000000000E+00  0.26187501934E+04  0.26187501934E+04  0.50400001928E-02 0. -1.
        1   -1    0    0  501    0  0.00000000000E+00  0.00000000000E+00 -0.98090149892E+03  0.98090149894E+03  0.50400001928E-02 0.  1.
    10030    2    1    2    0    0  0.00000000000E+00  0.00000000000E+00  0.16378486944E+04  0.35996516923E+04  0.32054553436E+04 0.  0.
        3    1    3    3  502    0  0.15610740104E+04  0.34770732753E+03  0.70177075626E+03  0.17465207288E+04  0.10100000352E+00 0.  1.
       -3    1    3    3    0  502 -0.15610740104E+04 -0.34770732753E+03  0.93607793816E+03  0.18531309635E+04  0.10100000352E+00 0. -1.
</event>
<event>
 5   0  0.8335929E-07  0.3196605E+04  0.7818609E-02  0.8189714E-01
        2   -1    0    0  501    0  0.00000000000E+00  0.00000000000E+00  0.18464823881E+04  0.18464823881E+04  0.25500000920E-02 0. -1.
       -2   -1    0    0    0  501  0.00000000000E+00  0.00000000000E+00 -0.13834798665E+04  0.13834798665E+04  0.25500000920E-02 0.  1.
    10030    2    1    2    0    0  0.00000000000E+00  0.00000000000E+00  0.46300252160E+03  0.32299622547E+04  0.31966052042E+04 0.  0.
        4    1    3    3  502    0  0.18732402731E+03 -0.50699689718E+03 -0.12883334244E+04  0.13971187388E+04  0.12699999809E+01 0.  1.
       -4    1    3    3    0  502 -0.18732402731E+03  0.50699689718E+03  0.17513359460E+04  0.18328435159E+04  0.12699999809E+01 0. -1.
</event>
<event>
 5   0  0.2891204E-07  0.3224662E+04  0.7818609E-02  0.8182334E-01
       -1   -1    0    0    0  501  0.00000000000E+00  0.00000000000E+00  0.16835059787E+04  0.16835059787E+04  0.50400001928E-02 0.  1.
        1   -1    0    0  501    0  0.00000000000E+00  0.00000000000E+00 -0.15441654197E+04  0.15441654197E+04  0.50400001928E-02 0. -1.
    10030    2    1    2    0    0  0.00000000000E+00  0.00000000000E+00  0.13934055898E+03  0.32276713984E+04  0.32246622869E+04 0.  0.
        4    1    3    3  502    0  0.76983635696E+03 -0.11589305402E+04  0.88519563394E+03  0.16490424302E+04  0.12699999809E+01 0.  1.
       -4    1    3    3    0  502 -0.76983635696E+03  0.11589305402E+04 -0.74585507496E+03  0.15786289682E+04  0.12699999809E+01 0. -1.
</event>
<event>
 5   0  0.3013888E-07  0.3200224E+04  0.7818609E-02  0.8188758E-01
        1   -1    0    0  501    0  0.00000000000E+00  0.00000000000E+00  0.15677098553E+04  0.15677098553E+04  0.50400001928E-02 0. -1.
       -1   -1    0    0    0  501  0.00000000000E+00  0.00000000000E+00 -0.16331839460E+04  0.16331839460E+04  0.50400001928E-02 0.  1.
    10030    2    1    2    0    0  0.00000000000E+00  0.00000000000E+00 -0.65474090745E+02  0.32008938013E+04  0.32002240969E+04 0.  0.
        1    1    3    3  502    0  0.12380803725E+03  0.67735394358E+02 -0.16269470163E+04  0.16330563700E+04  0.50400001928E-02 0.  1.
       -1    1    3    3    0  502 -0.12380803725E+03 -0.67735394358E+02  0.15614729256E+04  0.15678374313E+04  0.50400001928E-02 0. -1.
</event>
<event>
 5   0  0.3075756E-07  0.3203511E+04  0.7818609E-02  0.8187891E-01
       -1   -1    0    0    0  501  0.00000000000E+00  0.00000000000E+00  0.15641327014E+04  0.15641327014E+04  0.50400001928E-02 0.  1.
        1   -1    0    0  501    0  0.00000000000E+00  0.00000000000E+00 -0.16402833380E+04  0.16402833380E+04  0.50400001928E-02 0. -1.
    10030    2    1    2    0    0  0.00000000000E+00  0.00000000000E+00 -0.76150636584E+02  0.32044160394E+04  0.32035110791E+04 0.  0.
        5    1    3    3  502    0 -0.53893319250E+03  0.14483616221E+04 -0.45938112742E+03  0.16122200485E+04  0.46999998093E+01 0. -1.
       -5    1    3    3    0  502  0.53893319250E+03 -0.14483616221E+04  0.38323049084E+03  0.15921959909E+04  0.46999998093E+01 0.  1.
</event>
<event>
 5   0  0.8335929E-07  0.3039571E+04  0.7818609E-02  0.8232521E-01
       -2   -1    0    0    0  501  0.00000000000E+00  0.00000000000E+00  0.15462176470E+04  0.15462176470E+04  0.25500000920E-02 0. -1.
        2   -1    0    0  501    0  0.00000000000E+00  0.00000000000E+00 -0.14938051322E+04  0.14938051322E+04  0.25500000920E-02 0.  1.
    10030    2    1    2    0    0  0.00000000000E+00  0.00000000000E+00  0.52412514882E+02  0.30400227792E+04  0.30395709280E+04 0.  0.
        4    1    3    3  502    0 -0.10050534553E+04  0.48519279626E+03 -0.10055486408E+04  0.15022230792E+04  0.12699999809E+01 0.  1.
       -4    1    3    3    0  502  0.10050534553E+04 -0.48519279626E+03  0.10579611557E+04  0.15377997000E+04  0.12699999809E+01 0. -1.
</event>
<event>
 5   0  0.8838951E-07  0.3247614E+04  0.7818609E-02  0.8176354E-01
        2   -1    0    0  501    0  0.00000000000E+00  0.00000000000E+00  0.20956448552E+04  0.20956448552E+04  0.25500000920E-02 0. -1.
       -2   -1    0    0    0  501  0.00000000000E+00  0.00000000000E+00 -0.12582043696E+04  0.12582043696E+04  0.25500000920E-02 0.  1.
    10030    2    1    2    0    0  0.00000000000E+00  0.00000000000E+00  0.83744048560E+03  0.33538492247E+04  0.32476142097E+04 0.  0.
        2    1    3    3  502    0 -0.10084832224E+04 -0.10028567613E+04  0.12279270837E+04  0.18789797807E+04  0.25500000920E-02 0. -1.
       -2    1    3    3    0  502  0.10084832224E+04  0.10028567613E+04 -0.39048659808E+03  0.14748694440E+04  0.25500000920E-02 0.  1.
</event>
<event>
 5   0  0.3075756E-07  0.3239246E+04  0.7818609E-02  0.8178529E-01
        1   -1    0    0  501    0  0.00000000000E+00  0.00000000000E+00  0.15391145094E+04  0.15391145094E+04  0.50400001928E-02 0. -1.
       -1   -1    0    0    0  501  0.00000000000E+00  0.00000000000E+00 -0.17043431687E+04  0.17043431687E+04  0.50400001928E-02 0.  1.
    10030    2    1    2    0    0  0.00000000000E+00  0.00000000000E+00 -0.16522865929E+03  0.32434576782E+04  0.32392463939E+04 0.  0.
        5    1    3    3  502    0 -0.11748837834E+04 -0.11077413175E+04  0.42906051043E+02  0.16153345629E+04  0.46999998093E+01 0. -1.
       -5    1    3    3    0  502  0.11748837834E+04  0.11077413175E+04 -0.20813471033E+03  0.16281231153E+04  0.46999998093E+01 0.  1.
</event>
<event>
 5   0  0.3013888E-07  0.3200054E+04  0.7818609E-02  0.8188803E-01
        1   -1    0    0  501    0  0.00000000000E+00  0.00000000000E+00  0.24868070788E+04  0.24868070788E+04  0.50400001928E-02 0. -1.
       -1   -1    0    0    0  501  0.00000000000E+00  0.00000000000E+00 -0.10294673780E+04  0.10294673780E+04  0.50400001928E-02 0.  1.
    10030    2    1    2    0    0  0.00000000000E+00  0.00000000000E+00  0.14573397008E+04  0.35162744569E+04  0.32000542265E+04 0.  0.
        1    1    3    3  502    0  0.65864017746E+03  0.14578946176E+04  0.69714387727E+03  0.17450711118E+04  0.50400001928E-02 0. -1.
       -1    1    3    3    0  502 -0.65864017746E+03 -0.14578946176E+04  0.76019582355E+03  0.17712033451E+04  0.50400001928E-02 0.  1.
</event>
<event>
 5   0  0.8488469E-07  0.3178369E+04  0.7818609E-02  0.8194553E-01
        2   -1    0    0  501    0  0.00000000000E+00  0.00000000000E+00  0.19717679881E+04  0.19717679881E+04  0.25500000920E-02 0. -1.
       -2   -1    0    0    0  501  0.00000000000E+00  0.00000000000E+00 -0.12808335694E+04  0.12808335694E+04  0.25500000920E-02 0.  1.
    10030    2    1    2    0    0  0.00000000000E+00  0.00000000000E+00  0.69093441871E+03  0.32526015574E+04  0.31783685313E+04 0.  0.
        3    1    3    3  502    0 -0.96475598427E+03  0.11183994982E+04  0.94562416853E+03  0.17537892191E+04  0.10100000352E+00 0. -1.
       -3    1    3    3    0  502  0.96475598427E+03 -0.11183994982E+04 -0.25468974982E+03  0.14988123383E+04  0.10100000352E+00 0.  1.
</event>
<event>
 5   0  0.8335929E-07  0.3196350E+04  0.7818609E-02  0.8189782E-01
        2   -1    0    0  501    0  0.00000000000E+00  0.00000000000E+00  0.18113821177E+04  0.18113821177E+04  0.25500000920E-02 0.  1.
       -2   -1    0    0    0  501  0.00000000000E+00  0.00000000000E+00 -0.14100630057E+04  0.14100630057E+04  0.25500000920E-02 0. -1.
    10030    2    1    2    0    0  0.00000000000E+00  0.00000000000E+00  0.40131911199E+03  0.32214451233E+04  0.31963497388E+04 0.  0.
        4    1    3    3  502    0 -0.96938177059E+03 -0.19215630941E+03  0.14665208378E+04  0.17684202117E+04  0.12699999809E+01 0.  1.
       -4    1    3    3    0  502  0.96938177059E+03  0.19215630941E+03 -0.10652017258E+04  0.14530249117E+04  0.12699999809E+01 0. -1.
</event>
<event>
 5   0  0.8335929E-07  0.3026419E+04  0.7818609E-02  0.8236227E-01
       -2   -1    0    0    0  501  0.00000000000E+00  0.00000000000E+00  0.11731284171E+04  0.11731284171E+04  0.25500000920E-02 0. -1.
        2   -1    0    0  501    0  0.00000000000E+00  0.00000000000E+00 -0.19518771289E+04  0.19518771289E+04  0.25500000920E-02 0.  1.
    10030    2    1    2    0    0  0.00000000000E+00  0.00000000000E+00 -0.77874871185E+03  0.31250055460E+04  0.30264186932E+04 0.  0.
        4    1    3    3  502    0 -0.12330730307E+04 -0.72212835687E+03 -0.90345014572E+03  0.16906100206E+04  0.12699999809E+01 0.  1.
       -4    1    3    3    0  502  0.12330730307E+04  0.72212835687E+03  0.12470143387E+03  0.14343955254E+04  0.12699999809E+01 0. -1.
</event>
<event>
 5   0  0.2997105E-07  0.3180800E+04  0.7818609E-02  0.8193906E-01
       -1   -1    0    0    0  501  0.00000000000E+00  0.00000000000E+00  0.15468545506E+04  0.15468545506E+04  0.50400001928E-02 0.  1.
        1   -1    0    0  501    0  0.00000000000E+00  0.00000000000E+00 -0.16351713530E+04  0.16351713530E+04  0.50400001928E-02 0. -1.
    10030    2    1    2    0    0  0.00000000000E+00  0.00000000000E+00 -0.88316802468E+02  0.31820259036E+04  0.31808000556E+04 0.  0.
        3    1    3    3  502    0 -0.14574494413E+04  0.50352556965E+03  0.34544690636E+03  0.15801994965E+04  0.10100000352E+00 0.  1.
       -3    1    3    3    0  502  0.14574494413E+04 -0.50352556965E+03 -0.43376370883E+03  0.16018264071E+04  0.10100000352E+00 0. -1.
</event>
<event>
 5   0  0.2997105E-07  0.3214248E+04  0.7818609E-02  0.8185065E-01
       -1   -1    0    0    0  501  0.00000000000E+00  0.00000000000E+00  0.14258157375E+04  0.14258157375E+04  0.50400001928E-02 0. -1.
        1   -1    0    0  501    0  0.00000000000E+00  0.00000000000E+00 -0.18114870537E+04  0.18114870538E+04  0.50400001928E-02 0.  1.
    10030    2    1    2    0    0  0.00000000000E+00  0.00000000000E+00 -0.38567131623E+03  0.32373027913E+04  0.32142475011E+04 0.  0.
        3    1    3    3  502    0  0.10693876386E+03 -0.62935012283E+03  0.12926433118E+04  0.14416810390E+04  0.10100000352E+00 0. -1.
       -3    1    3    3    0  502 -0.10693876386E+03  0.62935012283E+03 -0.16783146281E+04  0.17956217523E+04  0.10100000352E+00 0.  1.
</event>
<event>
 5   0  0.3013888E-07  0.3199403E+04  0.7818609E-02  0.8188975E-01
        1   -1    0    0  501    0  0.00000000000E+00  0.00000000000E+00  0.13462237698E+04  0.13462237698E+04  0.50400001928E-02 0. -1.
       -1   -1    0    0    0  501  0.00000000000E+00  0.00000000000E+00 -0.19009059544E+04  0.19009059544E+04  0.50400001928E-02 0.  1.
    10030    2    1    2    0    0  0.00000000000E+00  0.00000000000E+00 -0.55468218457E+03  0.32471297243E+04  0.31994029318E+04 0.  0.
        1    1    3    3  502    0  0.35229987515E+03 -0.11025897638E+04 -0.13979980710E+04  0.18149980705E+04  0.50400001928E-02 0.  1.
       -1    1    3    3    0  502 -0.35229987515E+03  0.11025897638E+04  0.84331588644E+03  0.14321316538E+04  0.50400001928E-02 0. -1.
</event>
<event>
 5   0  0.2783875E-07  0.3215036E+04  0.7818609E-02  0.8184857E-01
        1   -1    0    0  501    0  0.00000000000E+00  0.00000000000E+00  0.24366637840E+04  0.24366637840E+04  0.50400001928E-02 0. -1.
       -1   -1    0    0    0  501  0.00000000000E+00  0.00000000000E+00 -0.10605133768E+04  0.10605133769E+04  0.50400001928E-02 0.  1.
    10030    2    1    2    0    0  0.00000000000E+00  0.00000000000E+00  0.13761504071E+04  0.34971771608E+04  0.32150362597E+04 0.  0.
        2    1    3    3  502    0 -0.40593699916E+03 -0.14795391280E+04  0.16607250465E+03  0.15431788475E+04  0.25500000920E-02 0. -1.
       -2    1    3    3    0  502  0.40593699916E+03  0.14795391280E+04  0.12100779025E+04  0.19539983134E+04  0.25500000920E-02 0.  1.
</event>
<event>
 5   0  0.8488469E-07  0.3126789E+04  0.7818609E-02  0.8208424E-01
       -2   -1    0    0    0  501  0.00000000000E+00  0.00000000000E+00  0.19653975243E+04  0.19653975243E+04  0.25500000920E-02 0. -1.
        2   -1    0    0  501    0  0.00000000000E+00  0.00000000000E+00 -0.12436169758E+04  0.12436169758E+04  0.25500000920E-02 0.  1.
    10030    2    1    2    0    0  0.00000000000E+00  0.00000000000E+00  0.72178054848E+03  0.32090145001E+04  0.31267885924E+04 0.  0.
        3    1    3    3  502    0  0.13007761839E+04 -0.17667139009E+03 -0.51053837587E+03  0.14085030721E+04  0.10100000352E+00 0.  1.
       -3    1    3    3    0  502 -0.13007761839E+04  0.17667139009E+03  0.12323189243E+04  0.18005114280E+04  0.10100000352E+00 0. -1.
</event>
<event>
 5   0  0.8488469E-07  0.3192964E+04  0.7818609E-02  0.8190678E-01
        2   -1    0    0  501    0  0.00000000000E+00  0.00000000000E+00  0.22357822887E+04  0.22357822887E+04  0.25500000920E-02 0.  1.
       -2   -1    0    0    0  501  0.00000000000E+00  0.00000000000E+00 -0.11399834942E+04  0.11399834942E+04  0.25500000920E-02 0. -1.
    10030    2    1    2    0    0  0.00000000000E+00  0.00000000000E+00  0.10957987945E+04  0.33757657829E+04  0.31929640811E+04 0.  0.
        3    1    3    3  502    0  0.84822617329E+03 -0.52973000119E+03  0.18635948879E+04  0.21149674777E+04  0.10100000352E+00 0.  1.
       -3    1    3    3    0  502 -0.84822617329E+03  0.52973000119E+03 -0.76779609341E+03  0.12607983052E+04  0.10100000352E+00 0. -1.
</event>
<event>
 5   0  0.2997105E-07  0.3185766E+04  0.7818609E-02  0.8192586E-01
        1   -1    0    0  501    0  0.00000000000E+00  0.00000000000E+00  0.15674696905E+04  0.15674696905E+04  0.50400001928E-02 0. -1.
       -1   -1    0    0    0  501  0.00000000000E+00  0.00000000000E+00 -0.16187088291E+04  0.16187088291E+04  0.50400001928E-02 0.  1.
    10030    2    1    2    0    0  0.00000000000E+00  0.00000000000E+00 -0.51239138535E+02  0.31861785196E+04  0.31857664869E+04 0.  0.
        3    1    3    3  502    0  0.13675640677E+03  0.15855010479E+04 -0.94629432236E+02  0.15941990551E+04  0.10100000352E+00 0. -1.
       -3    1    3    3    0  502 -0.13675640677E+03 -0.15855010479E+04  0.43390293701E+02  0.15919794645E+04  0.10100000352E+00 0.  1.
</event>
<event>
 5   0  0.8838951E-07  0.3191140E+04  0.7818609E-02  0.8191161E-01
       -2   -1    0    0    0  501  0.00000000000E+00  0.00000000000E+00  0.12206150324E+04  0.12206150324E+04  0.25500000920E-02 0. -1.
        2   -1    0    0  501    0  0.00000000000E+00  0.00000000000E+00 -0.20857060834E+04  0.20857060834E+04  0.25500000920E-02 0.  1.
    10030    2    1    2    0    0  0.00000000000E+00  0.00000000000E+00 -0.86509105093E+03  0.33063211158E+04  0.31911403596E+04 0.  0.
        2    1    3    3  502    0 -0.11330220581E+04 -0.32270398255E+03 -0.15474747053E+04  0.19448791243E+04  0.25500000920E-02 0.  1.
       -2    1    3    3    0  502  0.11330220581E+04  0.32270398255E+03  0.68238365439E+03  0.13614419915E+04  0.25500000920E-02 0. -1.
</event>
<event>
 5   0  0.8195618E-07  0.3200742E+04  0.7818609E-02  0.8188621E-01
       -2   -1    0    0    0  501  0.00000000000E+00  0.00000000000E+00  0.13663516988E+04  0.13663516988E+04  0.25500000920E-02 0.  1.
        2   -1    0    0  501    0  0.00000000000E+00  0.00000000000E+00 -0.18744715491E+04  0.18744715491E+04  0.25500000920E-02 0. -1.
    10030    2    1    2    0    0  0.00000000000E+00  0.00000000000E+00 -0.50811985026E+03  0.32408232479E+04  0.32007420299E+04 0.  0.
        1    1    3    3  502    0 -0.30516768025E+02 -0.53107787351E+03 -0.17823358756E+04  0.18600258478E+04  0.50400001928E-02 0. -1.
       -1    1    3    3    0  502  0.30516768025E+02  0.53107787351E+03  0.12742160254E+04  0.13807974001E+04  0.50400001928E-02 0.  1.
</event>
<event>
 5   0  0.8335929E-07  0.3200337E+04  0.7818609E-02  0.8188728E-01
       -2   -1    0    0    0  501  0.00000000000E+00  0.00000000000E+00  0.11703237577E+04  0.11703237577E+04  0.25500000920E-02 0.  1.
        2   -1    0    0  501    0  0.00000000000E+00  0.00000000000E+00 -0.21878897786E+04  0.21878897786E+04  0.25500000920E-02 0. -1.
    10030    2    1    2    0    0  0.00000000000E+00  0.00000000000E+00 -0.10175660210E+04  0.33582135363E+04  0.32003370992E+04 0.  0.
        4    1    3    3  502    0  0.45153302427E+02 -0.94534742759E+03 -0.18627119096E+04  0.20893582390E+04  0.12699999809E+01 0. -1.
       -4    1    3    3    0  502 -0.45153302427E+02  0.94534742759E+03  0.84514588866E+03  0.12688552973E+04  0.12699999809E+01 0.  1.
</event>
<event>
 5   0  0.3075756E-07  0.3212681E+04  0.7818609E-02  0.8185476E-01
        1   -1    0    0  501    0  0.00000000000E+00  0.00000000000E+00  0.14269653608E+04  0.14269653608E+04  0.50400001928E-02 0. -1.
       -1   -1    0    0    0  501  0.00000000000E+00  0.00000000000E+00 -0.18082643269E+04  0.18082643269E+04  0.50400001928E-02 0.  1.
    10030    2    1    2    0    0  0.00000000000E+00  0.00000000000E+00 -0.38129896609E+03  0.32352296877E+04  0.32126814704E+04 0.  0.
        5    1    3    3  502    0  0.10450868319E+03  0.74293269283E+03  0.12396845964E+04  0.14490379704E+04  0.46999998093E+01 0. -1.
       -5    1    3    3    0  502 -0.10450868319E+03 -0.74293269283E+03 -0.16209835625E+04  0.17861917173E+04  0.46999998093E+01 0.  1.
</event>
<event>
 5   0  0.8195618E-07  0.3203157E+04  0.7818609E-02  0.8187984E-01
        2   -1    0    0  501    0  0.00000000000E+00  0.00000000000E+00  0.21192784023E+04  0.21192784023E+04  0.25500000920E-02 0.  1.
       -2   -1    0    0    0  501  0.00000000000E+00  0.00000000000E+00 -0.12103430911E+04  0.12103430911E+04  0.25500000920E-02 0. -1.
    10030    2    1    2    0    0  0.00000000000E+00  0.00000000000E+00  0.90893531128E+03  0.33296214934E+04  0.32031571752E+04 0.  0.
        1    1    3    3  502    0 -0.79615708742E+03  0.72045323503E+03  0.16897172658E+04  0.20020148377E+04  0.50400001928E-02 0.  1.
       -1    1    3    3    0  502  0.79615708742E+03 -0.72045323503E+03 -0.78078195456E+03  0.13276066557E+04  0.50400001928E-02 0. -1.
</event>
<event>
 5   0  0.8488469E-07  0.3206249E+04  0.7818609E-02  0.8187169E-01
        2   -1    0    0  501    0  0.00000000000E+00  0.00000000000E+00  0.19853464813E+04  0.19853464813E+04  0.25500000920E-02 0. -1.
       -2   -1    0    0    0  501  0.00000000000E+00  0.00000000000E+00 -0.12944882181E+04  0.12944882181E+04  0.25500000920E-02 0.  1.
    10030    2    1    2    0    0  0.00000000000E+00  0.00000000000E+00  0.69085826321E+03  0.32798346994E+04  0.32062486671E+04 0.  0.
        3    1    3    3  502    0  0.50623869458E+03  0.14231069072E+04 -0.20401710674E+03  0.15241830189E+04  0.10100000352E+00 0.  1.
       -3    1    3    3    0  502 -0.50623869458E+03 -0.14231069072E+04  0.89487536995E+03  0.17556516805E+04  0.10100000352E+00 0. -1.
</event>
<event>
 5   0  0.2891204E-07  0.3230674E+04  0.7818609E-02  0.8180763E-01
        1   -1    0    0  501    0  0.00000000000E+00  0.00000000000E+00  0.21310011363E+04  0.21310011363E+04  0.50400001928E-02 0.  1.
       -1   -1    0    0    0  501  0.00000000000E+00  0.00000000000E+00 -0.12244543610E+04  0.12244543610E+04  0.50400001928E-02 0. -1.
    10030    2    1    2    0    0  0.00000000000E+00  0.00000000000E+00  0.90654677530E+03  0.33554554973E+04  0.32306740069E+04 0.  0.
        4    1    3    3  502    0  0.54487626538E+03 -0.27584001275E+03 -0.10999241560E+04  0.12580988113E+04  0.12699999809E+01 0. -1.
       -4    1    3    3    0  502 -0.54487626538E+03  0.27584001275E+03  0.20064709313E+04  0.20973566860E+04  0.12699999809E+01 0.  1.
</event>
<event>
 5   0  0.8802800E-07  0.3187182E+04  0.7818609E-02  0.8192211E-01
        2   -1    0    0  501    0  0.00000000000E+00  0.00000000000E+00  0.16637530702E+04  0.16637530703E+04  0.25500000920E-02 0.  1.
       -2   -1    0    0    0  501  0.00000000000E+00  0.00000000000E+00 -0.15263875979E+04  0.15263875979E+04  0.25500000920E-02 0. -1.
    10030    2    1    2    0    0  0.00000000000E+00  0.00000000000E+00  0.13736547236E+03  0.31901406681E+04  0.31871818601E+04 0.  0.
        5    1    3    3  502    0 -0.43800792564E+03 -0.10836001543E+03 -0.14611068634E+04  0.15291985457E+04  0.46999998093E+01 0. -1.
       -5    1    3    3    0  502  0.43800792564E+03  0.10836001543E+03  0.15984723358E+04  0.16609421224E+04  0.46999998093E+01 0.  1.
</event>
<event>
 5   0  0.8838951E-07  0.3201396E+04  0.7818609E-02  0.8188449E-01
        2   -1    0    0  501    0  0.00000000000E+00  0.00000000000E+00  0.18467974001E+04  0.18467974001E+04  0.25500000920E-02 0. -1.
       -2   -1    0    0    0  501  0.00000000000E+00  0.00000000000E+00 -0.13873933594E+04  0.13873933594E+04  0.25500000920E-02 0.  1.
    10030    2    1    2    0    0  0.00000000000E+00  0.00000000000E+00  0.45940404073E+03  0.32341907596E+04  0.32013962261E+04 0.  0.
        2    1    3    3  502    0  0.10338538095E+04 -0.45458497471E+03 -0.91626063525E+03  0.14543159046E+04  0.25500000920E-02 0.  1.
       -2    1    3    3    0  502 -0.10338538095E+04  0.45458497471E+03  0.13756646760E+04  0.17798748550E+04  0.25500000920E-02 0. -1.
</event>
<event>
 5   0  0.8838951E-07  0.3207100E+04  0.7818609E-02  0.8186945E-01
        2   -1    0    0  501    0  0.00000000000E+00  0.00000000000E+00  0.25477086405E+04  0.25477086405E+04  0.25500000920E-02 0. -1.
       -2   -1    0    0    0  501  0.00000000000E+00  0.00000000000E+00 -0.10092881259E+04  0.10092881259E+04  0.25500000920E-02 0.  1.
    10030    2    1    2    0    0  0.00000000000E+00  0.00000000000E+00  0.15384205146E+04  0.35569967664E+04  0.32070996737E+04 0.  0.
        2    1    3    3  502    0  0.12381395096E+04  0.21377065672E+03 -0.33582640167E+03  0.13005639972E+04  0.25500000920E-02 0.  1.
       -2    1    3    3    0  502 -0.12381395096E+04 -0.21377065672E+03  0.18742469162E+04  0.22564327692E+04  0.25500000920E-02 0. -1.
</event>
<event>
 5   0  0.2997105E-07  0.3194354E+04  0.7818609E-02  0.8190310E-01
       -1   -1    0    0    0  501  0.00000000000E+00  0.00000000000E+00  0.13857014410E+04  0.13857014410E+04  0.50400001928E-02 0.  1.
        1   -1    0    0  501    0  0.00000000000E+00  0.00000000000E+00 -0.18409264040E+04  0.18409264040E+04  0.50400001928E-02 0. -1.
    10030    2    1    2    0    0  0.00000000000E+00  0.00000000000E+00 -0.45522496303E+03  0.32266278450E+04  0.31943540009E+04 0.  0.
        3    1    3    3  502    0 -0.24394538448E+03 -0.15741606771E+04 -0.11032223943E+03  0.15967661678E+04  0.10100000352E+00 0. -1.
       -3    1    3    3    0  502  0.24394538448E+03  0.15741606771E+04 -0.34490272359E+03  0.16298616772E+04  0.10100000352E+00 0.  1.
</event>
<event>
 5   0  0.2783875E-07  0.3189070E+04  0.7818609E-02  0.8191710E-01
       -1   -1    0    0    0  501  0.00000000000E+00  0.00000000000E+00  0.10345679703E+04  0.10345679703E+04  0.50400001928E-02 0. -1.
        1   -1    0    0  501    0  0.00000000000E+00  0.00000000000E+00 -0.24575881961E+04  0.24575881961E+04  0.50400001928E-02 0.  1.
    10030    2    1    2    0    0  0.00000000000E+00  0.00000000000E+00 -0.14230202258E+04  0.34921561664E+04  0.31890701039E+04 0.  0.
        2    1    3    3  502    0 -0.34230482539E+03  0.11506981612E+04  0.43763572943E+03  0.12778121472E+04  0.25500000920E-02 0. -1.
       -2    1    3    3    0  502  0.34230482539E+03 -0.11506981612E+04 -0.18606559553E+04  0.22143440192E+04  0.25500000920E-02 0.  1.
</event>
<event>
 5   0  0.8195618E-07  0.3167145E+04  0.7818609E-02  0.8197548E-01
       -2   -1    0    0    0  501  0.00000000000E+00  0.00000000000E+00  0.17716442034E+04  0.17716442035E+04  0.25500000920E-02 0.  1.
        2   -1    0    0  501    0  0.00000000000E+00  0.00000000000E+00 -0.14154655567E+04  0.14154655567E+04  0.25500000920E-02 0. -1.
    10030    2    1    2    0    0  0.00000000000E+00  0.00000000000E+00  0.35617864678E+03  0.31871097601E+04  0.31671446754E+04 0.  0.
        1    1    3    3  502    0  0.22158091943E+03  0.13272868022E+03 -0.13941251596E+04  0.14178504741E+04  0.50400001928E-02 0. -1.
       -1    1    3    3    0  502 -0.22158091943E+03 -0.13272868022E+03  0.17503038064E+04  0.17692592860E+04  0.50400001928E-02 0.  1.
</event>
<event>
 5   0  0.2783875E-07  0.3196417E+04  0.7818609E-02  0.8189764E-01
        1   -1    0    0  501    0  0.00000000000E+00  0.00000000000E+00  0.15528955225E+04  0.15528955225E+04  0.50400001928E-02 0.  1.
       -1   -1    0    0    0  501  0.00000000000E+00  0.00000000000E+00 -0.16448437739E+04  0.16448437740E+04  0.50400001928E-02 0. -1.
    10030    2    1    2    0    0  0.00000000000E+00  0.00000000000E+00 -0.91948251454E+02  0.31977392965E+04  0.31964170765E+04 0.  0.
        2    1    3    3  502    0  0.83108559068E+03  0.29357572970E+03 -0.13797099763E+04  0.16372200790E+04  0.25500000920E-02 0. -1.
       -2    1    3    3    0  502 -0.83108559068E+03 -0.29357572970E+03  0.12877617249E+04  0.15605192175E+04  0.25500000920E-02 0.  1.
</event>
<event>
 5   0  0.3075756E-07  0.3186656E+04  0.7818609E-02  0.8192350E-01
       -1   -1    0    0    0  501  0.00000000000E+00  0.00000000000E+00  0.19968632317E+04  0.19968632317E+04  0.50400001928E-02 0. -1.
        1   -1    0    0  501    0  0.00000000000E+00  0.00000000000E+00 -0.12713413230E+04  0.12713413230E+04  0.50400001928E-02 0.  1.
    10030    2    1    2    0    0  0.00000000000E+00  0.00000000000E+00  0.72552190868E+03  0.32682045547E+04  0.31866563937E+04 0.  0.
        5    1    3    3  502    0  0.96890711260E+03 -0.15436786053E+03 -0.92477887690E+03  0.13482761180E+04  0.46999998093E+01 0.  1.
       -5    1    3    3    0  502 -0.96890711260E+03  0.15436786053E+03  0.16503007856E+04  0.19199284367E+04  0.46999998093E+01 0. -1.
</event>
<event>
 5   0  0.8802800E-07  0.3206026E+04  0.7818609E-02  0.8187227E-01
       -2   -1    0    0    0  501  0.00000000000E+00  0.00000000000E+00  0.11583671069E+04  0.11583671069E+04  0.25500000920E-02 0. -1.
        2   -1    0    0  501    0  0.00000000000E+00  0.00000000000E+00 -0.22183391151E+04  0.22183391151E+04  0.25500000920E-02 0.  1.
    10030    2    1    2    0    0  0.00000000000E+00  0.00000000000E+00 -0.10599720082E+04  0.33767062220E+04  0.32060262400E+04 0.  0.
        5    1    3    3  502    0 -0.52576114881E+03 -0.80228892432E+03 -0.18827037664E+04  0.21129808011E+04  0.46999998093E+01 0.  1.
       -5    1    3    3    0  502  0.52576114881E+03  0.80228892432E+03  0.82273175817E+03  0.12637254210E+04  0.46999998093E+01 0. -1.
</event>
<event>
 5   0  0.2783875E-07  0.3152923E+04  0.7818609E-02  0.8201362E-01
       -1   -1    0    0    0  501  0.00000000000E+00  0.00000000000E+00  0.10205691143E+04  0.10205691143E+04  0.50400001928E-02 0. -1.
        1   -1    0    0  501    0  0.00000000000E+00  0.00000000000E+00 -0.24351422344E+04  0.24351422344E+04  0.50400001928E-02 0.  1.
    10030    2    1    2    0    0  0.00000000000E+00  0.00000000000E+00 -0.14145731201E+04  0.34557113488E+04  0.31529230587E+04 0.  0.
        2    1    3    3  502    0 -0.31804499452E+03  0.30962095152E+03  0.95066687911E+03  0.10491831428E+04  0.25500000920E-02 0. -1.
       -2    1    3    3    0  502  0.31804499452E+03 -0.30962095152E+03 -0.23652399992E+04  0.24065282059E+04  0.25500000920E-02 0.  1.
</event>
<event>
 5   0  0.2997105E-07  0.3268676E+04  0.7818609E-02  0.8170912E-01
       -1   -1    0    0    0  501  0.00000000000E+00  0.00000000000E+00  0.11411275224E+04  0.11411275224E+04  0.50400001928E-02 0. -1.
        1   -1    0    0  501    0  0.00000000000E+00  0.00000000000E+00 -0.23407211756E+04  0.23407211756E+04  0.50400001928E-02 0.  1.
    10030    2    1    2    0    0  0.00000000000E+00  0.00000000000E+00 -0.11995936532E+04  0.34818486981E+04  0.32686764024E+04 0.  0.
        3    1    3    3  502    0  0.30764780077E+03  0.14631862013E+04  0.10316574970E+03  0.14987342029E+04  0.10100000352E+00 0. -1.
       -3    1    3    3    0  502 -0.30764780077E+03 -0.14631862013E+04 -0.13027594029E+04  0.19831144952E+04  0.10100000352E+00 0.  1.
</event>
<event>
 5   0  0.3075756E-07  0.3189725E+04  0.7818609E-02  0.8191536E-01
       -1   -1    0    0    0  501  0.00000000000E+00  0.00000000000E+00  0.87849286950E+03  0.87849286952E+03  0.50400001928E-02 0.  1.
        1   -1    0    0  501    0  0.00000000000E+00  0.00000000000E+00 -0.28953984211E+04  0.28953984211E+04  0.50400001928E-02 0. -1.
    10030    2    1    2    0    0  0.00000000000E+00  0.00000000000E+00 -0.20169055516E+04  0.37738912907E+04  0.31897252969E+04 0.  0.
        5    1    3    3  502    0  0.66660507148E+03 -0.46835522411E+03 -0.26306259718E+04  0.27538943390E+04  0.46999998093E+01 0. -1.
       -5    1    3    3    0  502 -0.66660507148E+03  0.46835522411E+03  0.61372042012E+03  0.10199969516E+04  0.46999998093E+01 0.  1.
</event>
<event>
 5   0  0.8838951E-07  0.3024997E+04  0.7818609E-02  0.8236629E-01
       -2   -1    0    0    0  501  0.00000000000E+00  0.00000000000E+00  0.91969397777E+03  0.91969397778E+03  0.25500000920E-02 0.  1.
        2   -1    0    0  501    0  0.00000000000E+00  0.00000000000E+00 -0.24874048892E+04  0.24874048892E+04  0.25500000920E-02 0. -1.
    10030    2    1    2    0    0  0.00000000000E+00  0.00000000000E+00 -0.15677109114E+04  0.34070988670E+04  0.30249967252E+04 0.  0.
        2    1    3    3  502    0  0.87317439354E+03  0.99789916843E+03 -0.16033724398E+04  0.20806343871E+04  0.25500000920E-02 0. -1.
       -2    1    3    3    0  502 -0.87317439354E+03 -0.99789916843E+03  0.35661528367E+02  0.13264644799E+04  0.25500000920E-02 0.  1.
</event>
<event>
 5   0  0.8195618E-07  0.3186248E+04  0.7818609E-02  0.8192458E-01
        2   -1    0    0  501    0  0.00000000000E+00  0.00000000000E+00  0.13366578346E+04  0.13366578346E+04  0.25500000920E-02 0. -1.
       -2   -1    0    0    0  501  0.00000000000E+00  0.00000000000E+00 -0.18987991931E+04  0.18987991931E+04  0.25500000920E-02 0.  1.
    10030    2    1    2    0    0  0.00000000000E+00  0.00000000000E+00 -0.56214135845E+03  0.32354570277E+04  0.31862484635E+04 0.  0.
        1    1    3    3  502    0  0.11677093613E+04  0.75983341786E+03 -0.10657618191E+04  0.17540639186E+04  0.50400001928E-02 0.  1.
       -1    1    3    3    0  502 -0.11677093613E+04 -0.75983341786E+03  0.50362046065E+03  0.14813931091E+04  0.50400001928E-02 0. -1.
</event>
<event>
 5   0  0.2997105E-07  0.3129123E+04  0.7818609E-02  0.8207790E-01
       -1   -1    0    0    0  501  0.00000000000E+00  0.00000000000E+00  0.87013484022E+03  0.87013484024E+03  0.50400001928E-02 0.  1.
        1   -1    0    0  501    0  0.00000000000E+00  0.00000000000E+00 -0.28131886190E+04  0.28131886190E+04  0.50400001928E-02 0. -1.
    10030    2    1    2    0    0  0.00000000000E+00  0.00000000000E+00 -0.19430537788E+04  0.36833234592E+04  0.31291234744E+04 0.  0.
        3    1    3    3  502    0 -0.54004879249E+02  0.15561093017E+04 -0.11518236620E+04  0.19367732041E+04  0.10100000352E+00 0. -1.
       -3    1    3    3    0  502  0.54004879249E+02 -0.15561093017E+04 -0.79123011680E+03  0.17465502551E+04  0.10100000352E+00 0.  1.
</event>
<event>
 5   0  0.8195618E-07  0.3134796E+04  0.7818609E-02  0.8206253E-01
        2   -1    0    0  501    0  0.00000000000E+00  0.00000000000E+00  0.12150914839E+04  0.12150914839E+04  0.25500000920E-02 0. -1.
       -2   -1    0    0    0  501  0.00000000000E+00  0.00000000000E+00 -0.20218535915E+04  0.20218535915E+04  0.25500000920E-02 0.  1.
    10030    2    1    2    0    0  0.00000000000E+00  0.00000000000E+00 -0.80676210760E+03  0.32369450754E+04  0.31347963766E+04 0.  0.
        1    1    3    3  502    0 -0.14509848568E+04 -0.37883234755E+03  0.67398730586E+02  0.15011374325E+04  0.50400001928E-02 0. -1.
       -1    1    3    3    0  502  0.14509848568E+04  0.37883234755E+03 -0.87416083819E+03  0.17358076429E+04  0.50400001928E-02 0.  1.
</event>
<event>
 5   0  0.8195618E-07  0.3206366E+04  0.7818609E-02  0.8187138E-01
        2   -1    0    0  501    0  0.00000000000E+00  0.00000000000E+00  0.16923474255E+04  0.16923474256E+04  0.25500000920E-02 0.  1.
       -2   -1    0    0    0  501  0.00000000000E+00  0.00000000000E+00 -0.15187163919E+04  0.15187163919E+04  0.25500000920E-02 0. -1.
    10030    2    1    2    0    0  0.00000000000E+00  0.00000000000E+00  0.17363103366E+03  0.32110638174E+04  0.32063660277E+04 0.  0.
        1    1    3    3  502    0 -0.14580799361E+04 -0.10697718081E+03 -0.57198914590E+03  0.15699085325E+04  0.50400001928E-02 0. -1.
       -1    1    3    3    0  502  0.14580799361E+04  0.10697718081E+03  0.74562017956E+03  0.16411552850E+04  0.50400001928E-02 0.  1.
</event>
<event>
 5   0  0.8802800E-07  0.3187359E+04  0.7818609E-02  0.8192164E-01
        2   -1    0    0  501    0  0.00000000000E+00  0.00000000000E+00  0.25709967271E+04  0.25709967271E+04  0.25500000920E-02 0.  1.
       -2   -1    0    0    0  501  0.00000000000E+00  0.00000000000E+00 -0.98787128906E+03  0.98787128906E+03  0.25500000920E-02 0. -1.
    10030    2    1    2    0    0  0.00000000000E+00  0.00000000000E+00  0.15831254381E+04  0.35588680162E+04  0.31873586877E+04 0.  0.
        5    1    3    3  502    0  0.93000137651E+03 -0.17329532160E+03 -0.64044427644E+03  0.11424205837E+04  0.46999998093E+01 0. -1.
       -5    1    3    3    0  502 -0.93000137651E+03  0.17329532160E+03  0.22235697145E+04  0.24164474325E+04  0.46999998093E+01 0.  1.
</event>
<event>
 5   0  0.8195618E-07  0.3204257E+04  0.7818609E-02  0.8187694E-01
       -2   -1    0    0    0  501  0.00000000000E+00  0.00000000000E+00  0.12719624485E+04  0.12719624486E+04  0.25500000920E-02 0.  1.
        2   -1    0    0  501    0  0.00000000000E+00  0.00000000000E+00 -0.20179970241E+04  0.20179970241E+04  0.25500000920E-02 0. -1.
    10030    2    1    2    0    0  0.00000000000E+00  0.00000000000E+00 -0.74603457553E+03  0.32899594726E+04  0.32042574403E+04 0.  0.
        1    1    3    3  502    0 -0.14200324755E+04  0.71933949871E+03 -0.55918111628E+03  0.16871944365E+04  0.50400001928E-02 0. -1.
       -1    1    3    3    0  502  0.14200324755E+04 -0.71933949871E+03 -0.18685345925E+03  0.16027650361E+04  0.50400001928E-02 0.  1.
</event>
<event>
 5   0  0.3013888E-07  0.3163481E+04  0.7818609E-02  0.8198529E-01
       -1   -1    0    0    0  501  0.00000000000E+00  0.00000000000E+00  0.10747865314E+04  0.10747865315E+04  0.50400001928E-02 0.  1.
        1   -1    0    0  501    0  0.00000000000E+00  0.00000000000E+00 -0.23278136059E+04  0.23278136059E+04  0.50400001928E-02 0. -1.
    10030    2    1    2    0    0  0.00000000000E+00  0.00000000000E+00 -0.12530270745E+04  0.34026001374E+04  0.31634808116E+04 0.  0.
        1    1    3    3  502    0 -0.74495408275E+03 -0.11940158756E+04 -0.14030788699E+04  0.19872747197E+04  0.50400001928E-02 0. -1.
       -1    1    3    3    0  502  0.74495408275E+03  0.11940158756E+04  0.15005179539E+03  0.14153254177E+04  0.50400001928E-02 0.  1.
</event>
<event>
 5   0  0.3013888E-07  0.3228079E+04  0.7818609E-02  0.8181441E-01
        1   -1    0    0  501    0  0.00000000000E+00  0.00000000000E+00  0.20237692866E+04  0.20237692866E+04  0.50400001928E-02 0. -1.
       -1   -1    0    0    0  501  0.00000000000E+00  0.00000000000E+00 -0.12872627623E+04  0.12872627623E+04  0.50400001928E-02 0.  1.
    10030    2    1    2    0    0  0.00000000000E+00  0.00000000000E+00  0.73650652431E+03  0.33110320489E+04  0.32280785877E+04 0.  0.
        1    1    3    3  502    0 -0.11739960917E+04 -0.66955692704E+03  0.12732820873E+04  0.18568307881E+04  0.50400001928E-02 0. -1.
       -1    1    3    3    0  502  0.11739960917E+04  0.66955692704E+03 -0.53677556301E+03  0.14542012608E+04  0.50400001928E-02 0.  1.
</event>
<event>
 5   0  0.3013888E-07  0.3212591E+04  0.7818609E-02  0.8185500E-01
        1   -1    0    0  501    0  0.00000000000E+00  0.00000000000E+00  0.19101612361E+04  0.19101612362E+04  0.50400001928E-02 0.  1.
       -1   -1    0    0    0  501  0.00000000000E+00  0.00000000000E+00 -0.13507684234E+04  0.13507684234E+04  0.50400001928E-02 0. -1.
    10030    2    1    2    0    0  0.00000000000E+00  0.00000000000E+00  0.55939281272E+03  0.32609296596E+04  0.32125911545E+04 0.  0.
        1    1    3    3  502    0 -0.13273400188E+04  0.11706815365E+03 -0.63082300820E+03  0.14742707166E+04  0.50400001928E-02 0. -1.
       -1    1    3    3    0  502  0.13273400188E+04 -0.11706815365E+03  0.11902158209E+04  0.17866589430E+04  0.50400001928E-02 0.  1.
</event>
<event>
 5   0  0.8802800E-07  0.3214523E+04  0.7818609E-02  0.8184992E-01
        2   -1    0    0  501    0  0.00000000000E+00  0.00000000000E+00  0.17865526710E+04  0.17865526710E+04  0.25500000920E-02 0. -1.
       -2   -1    0    0    0  501  0.00000000000E+00  0.00000000000E+00 -0.14459630556E+04  0.14459630556E+04  0.25500000920E-02 0.  1.
    10030    2    1    2    0    0  0.00000000000E+00  0.00000000000E+00  0.34058961543E+03  0.32325157266E+04  0.32145227697E+04 0.  0.
        5    1    3    3  502    0 -0.16047114127E+04 -0.51476099164E+02  0.95591968171E+02  0.16083869004E+04  0.46999998093E+01 0. -1.
       -5    1    3    3    0  502  0.16047114127E+04  0.51476099164E+02  0.24499764726E+03  0.16241288262E+04  0.46999998093E+01 0.  1.
</event>
<event>
 5   0  0.8195618E-07  0.3198538E+04  0.7818609E-02  0.8189203E-01
       -2   -1    0    0    0  501  0.00000000000E+00  0.00000000000E+00  0.18067279145E+04  0.18067279145E+04  0.25500000920E-02 0.  1.
        2   -1    0    0  501    0  0.00000000000E+00  0.00000000000E+00 -0.14156315019E+04  0.14156315019E+04  0.25500000920E-02 0. -1.
    10030    2    1    2    0    0  0.00000000000E+00  0.00000000000E+00  0.39109641267E+03  0.32223594164E+04  0.31985377603E+04 0.  0.
        1    1    3    3  502    0  0.40089013012E+03  0.64976886295E+02  0.17539124929E+04  0.18003177289E+04  0.50400001928E-02 0.  1.
       -1    1    3    3    0  502 -0.40089013012E+03 -0.64976886295E+02 -0.13628160803E+04  0.14220416875E+04  0.50400001928E-02 0. -1.
</event>
<event>
 5   0  0.3075756E-07  0.3168539E+04  0.7818609E-02  0.8197176E-01
       -1   -1    0    0    0  501  0.00000000000E+00  0.00000000000E+00  0.19509391696E+04  0.19509391696E+04  0.50400001928E-02 0.  1.
        1   -1    0    0  501    0  0.00000000000E+00  0.00000000000E+00 -0.12865134633E+04  0.12865134633E+04  0.50400001928E-02 0. -1.
    10030    2    1    2    0    0  0.00000000000E+00  0.00000000000E+00  0.66442570631E+03  0.32374526329E+04  0.31685387849E+04 0.  0.
        5    1    3    3  502    0 -0.49458612637E+03 -0.10365754659E+04 -0.78275092931E+03  0.13899011620E+04  0.46999998093E+01 0. -1.
       -5    1    3    3    0  502  0.49458612637E+03  0.10365754659E+04  0.14471766356E+04  0.18475514709E+04  0.46999998093E+01 0.  1.
</event>
<event>
 5   0  0.2997105E-07  0.3196337E+04  0.7818609E-02  0.8189785E-01
       -1   -1    0    0    0  501  0.00000000000E+00  0.00000000000E+00  0.15821488717E+04  0.15821488717E+04  0.50400001928E-02 0.  1.
        1   -1    0    0  501    0  0.00000000000E+00  0.00000000000E+00 -0.16143507764E+04  0.16143507764E+04  0.50400001928E-02 0. -1.
    10030    2    1    2    0    0  0.00000000000E+00  0.00000000000E+00 -0.32201904637E+02  0.31964996481E+04  0.31963374411E+04 0.  0.
        3    1    3    3  502    0  0.90399601554E+03 -0.13170308543E+04  0.32524367646E+02  0.15977599670E+04  0.10100000352E+00 0.  1.
       -3    1    3    3    0  502 -0.90399601554E+03  0.13170308543E+04 -0.64726272282E+02  0.15987396811E+04  0.10100000352E+00 0. -1.
</event>
<event>
 5   0  0.8195618E-07  0.3243461E+04  0.7818609E-02  0.8177433E-01
        2   -1    0    0  501    0  0.00000000000E+00  0.00000000000E+00  0.31470518778E+04  0.31470518778E+04  0.25500000920E-02 0. -1.
       -2   -1    0    0    0  501  0.00000000000E+00  0.00000000000E+00 -0.83570597120E+03  0.83570597120E+03  0.25500000920E-02 0.  1.
    10030    2    1    2    0    0  0.00000000000E+00  0.00000000000E+00  0.23113459066E+04  0.39827578490E+04  0.32434611426E+04 0.  0.
        1    1    3    3  502    0  0.14311557122E+04  0.75998724116E+03  0.10758783099E+04  0.19450710571E+04  0.50400001928E-02 0.  1.
       -1    1    3    3    0  502 -0.14311557122E+04 -0.75998724116E+03  0.12354675967E+04  0.20376867919E+04  0.50400001928E-02 0. -1.
</event>
<event>
 5   0  0.3013888E-07  0.3204065E+04  0.7818609E-02  0.8187744E-01
        1   -1    0    0  501    0  0.00000000000E+00  0.00000000000E+00  0.12340421826E+04  0.12340421827E+04  0.50400001928E-02 0.  1.
       -1   -1    0    0    0  501  0.00000000000E+00  0.00000000000E+00 -0.20797569638E+04  0.20797569638E+04  0.50400001928E-02 0. -1.
    10030    2    1    2    0    0  0.00000000000E+00  0.00000000000E+00 -0.84571478119E+03  0.33137991465E+04  0.32040648077E+04 0.  0.
        1    1    3    3  502    0  0.85178277534E+03 -0.69464431413E+03  0.78258270381E+03  0.13492591700E+04  0.50400001928E-02 0.  1.
       -1    1    3    3    0  502 -0.85178277534E+03  0.69464431413E+03 -0.16282974850E+04  0.19645399765E+04  0.50400001928E-02 0. -1.
</event>
<event>
 5   0  0.2783875E-07  0.3201092E+04  0.7818609E-02  0.8188529E-01
        1   -1    0    0  501    0  0.00000000000E+00  0.00000000000E+00  0.21582685510E+04  0.21582685510E+04  0.50400001928E-02 0. -1.
       -1   -1    0    0    0  501  0.00000000000E+00  0.00000000000E+00 -0.11869459977E+04  0.11869459977E+04  0.50400001928E-02 0.  1.
    10030    2    1    2    0    0  0.00000000000E+00  0.00000000000E+00  0.97132255334E+03  0.33452145487E+04  0.32010924501E+04 0.  0.
        2    1    3    3  502    0  0.76088674202E+03 -0.11284690413E+04  0.13658144367E+04  0.19281701395E+04  0.25500000920E-02 0. -1.
       -2    1    3    3    0  502 -0.76088674202E+03  0.11284690413E+04 -0.39449188340E+03  0.14170444091E+04  0.25500000920E-02 0.  1.
</event>
<event>
 5   0  0.2891204E-07  0.3216703E+04  0.7818609E-02  0.8184420E-01
        1   -1    0    0  501    0  0.00000000000E+00  0.00000000000E+00  0.15137546720E+04  0.15137546720E+04  0.50400001928E-02 0. -1.
       -1   -1    0    0    0  501  0.00000000000E+00  0.00000000000E+00 -0.17088602834E+04  0.17088602834E+04  0.50400001928E-02 0.  1.
    10030    2    1    2    0    0  0.00000000000E+00  0.00000000000E+00 -0.19510561138E+03  0.32226149554E+04  0.32167034291E+04 0.  0.
        4    1    3    3  502    0  0.72731953384E+03  0.13746207692E+04 -0.50845001502E+03  0.16361842788E+04  0.12699999809E+01 0.  1.
       -4    1    3    3    0  502 -0.72731953384E+03 -0.13746207692E+04  0.31334440363E+03  0.15864306766E+04  0.12699999809E+01 0. -1.
</event>
<event>
 5   0  0.2891204E-07  0.3176374E+04  0.7818609E-02  0.8195085E-01
       -1   -1    0    0    0  501  0.00000000000E+00  0.00000000000E+00  0.11095718997E+04  0.11095718997E+04  0.50400001928E-02 0.  1.
        1   -1    0    0  501    0  0.00000000000E+00  0.00000000000E+00 -0.22732535355E+04  0.22732535355E+04  0.50400001928E-02 0. -1.
    10030    2    1    2    0    0  0.00000000000E+00  0.00000000000E+00 -0.11636816358E+04  0.33828254352E+04  0.31763741870E+04 0.  0.
        4    1    3    3  502    0 -0.47079884006E+03 -0.12271464687E+04 -0.15312992093E+04  0.20180235094E+04  0.12699999809E+01 0.  1.
       -4    1    3    3    0  502  0.47079884006E+03  0.12271464687E+04  0.36761757348E+03  0.13648019258E+04  0.12699999809E+01 0. -1.
</event>
<event>
 5   0  0.3013888E-07  0.3204063E+04  0.7818609E-02  0.8187745E-01
        1   -1    0    0  501    0  0.00000000000E+00  0.00000000000E+00  0.20329469807E+04  0.20329469807E+04  0.50400001928E-02 0.  1.
       -1   -1    0    0    0  501  0.00000000000E+00  0.00000000000E+00 -0.12624557634E+04  0.12624557634E+04  0.50400001928E-02 0. -1.
    10030    2    1    2    0    0  0.00000000000E+00  0.00000000000E+00  0.77049121722E+03  0.32954027441E+04  0.32040634404E+04 0.  0.
        1    1    3    3  502    0 -0.63438459251E+03 -0.42321376571E+02 -0.11271396181E+04  0.12940937481E+04  0.50400001928E-02 0. -1.
       -1    1    3    3    0  502  0.63438459251E+03  0.42321376571E+02  0.18976308353E+04  0.20013089960E+04  0.50400001928E-02 0.  1.
</event>
<event>
 5   0  0.2997105E-07  0.3207684E+04  0.7818609E-02  0.8186791E-01
       -1   -1    0    0    0  501  0.00000000000E+00  0.00000000000E+00  0.18853478495E+04  0.18853478495E+04  0.50400001928E-02 0.  1.
        1   -1    0    0  501    0  0.00000000000E+00  0.00000000000E+00 -0.13643688748E+04  0.13643688748E+04  0.50400001928E-02 0. -1.
    10030    2    1    2    0    0  0.00000000000E+00  0.00000000000E+00  0.52097897467E+03  0.32497167244E+04  0.32076844758E+04 0.  0.
        3    1    3    3  502    0 -0.23925152336E+03  0.15589637578E+04 -0.34357822334E+02  0.15775898578E+04  0.10100000352E+00 0. -1.
       -3    1    3    3    0  502  0.23925152336E+03 -0.15589637578E+04  0.55533679701E+03  0.16721268665E+04  0.10100000352E+00 0.  1.
</event>
<event>
 5   0  0.2891204E-07  0.3206645E+04  0.7818609E-02  0.8187064E-01
        1   -1    0    0  501    0  0.00000000000E+00  0.00000000000E+00  0.22058833686E+04  0.22058833686E+04  0.50400001928E-02 0. -1.
       -1   -1    0    0    0  501  0.00000000000E+00  0.00000000000E+00 -0.11653579336E+04  0.11653579336E+04  0.50400001928E-02 0.  1.
    10030    2    1    2    0    0  0.00000000000E+00  0.00000000000E+00  0.10405254350E+04  0.33712413022E+04  0.32066454024E+04 0.  0.
        4    1    3    3  502    0  0.60821379041E+03 -0.11970288314E+04  0.14415058795E+04  0.19699601142E+04  0.12699999809E+01 0. -1.
       -4    1    3    3    0  502 -0.60821379041E+03  0.11970288314E+04 -0.40098044447E+03  0.14012811880E+04  0.12699999809E+01 0.  1.
</event>
<event>
 5   0  0.8488469E-07  0.3192966E+04  0.7818609E-02  0.8190677E-01
        2   -1    0    0  501    0  0.00000000000E+00  0.00000000000E+00  0.21217673241E+04  0.21217673241E+04  0.25500000920E-02 0.  1.
       -2   -1    0    0    0  501  0.00000000000E+00  0.00000000000E+00 -0.12012431582E+04  0.12012431582E+04  0.25500000920E-02 0. -1.
    10030    2    1    2    0    0  0.00000000000E+00  0.00000000000E+00  0.92052416582E+03  0.33230104823E+04  0.31929663208E+04 0.  0.
        3    1    3    3  502    0 -0.11291123029E+04  0.16723619420E+03 -0.70139583741E+03  0.13397084265E+04  0.10100000352E+00 0. -1.
       -3    1    3    3    0  502  0.11291123029E+04 -0.16723619420E+03  0.16219200032E+04  0.19833020557E+04  0.10100000352E+00 0.  1.
</event>
<event>
 5   0  0.2783875E-07  0.3232167E+04  0.7818609E-02  0.8180373E-01
        1   -1    0    0  501    0  0.00000000000E+00  0.00000000000E+00  0.24963112084E+04  0.24963112085E+04  0.50400001928E-02 0.  1.
       -1   -1    0    0    0  501  0.00000000000E+00  0.00000000000E+00 -0.10462341532E+04  0.10462341532E+04  0.50400001928E-02 0. -1.
    10030    2    1    2    0    0  0.00000000000E+00  0.00000000000E+00  0.14500770553E+04  0.35425453616E+04  0.32321671017E+04 0.  0.
        2    1    3    3  502    0  0.77581982524E+03  0.72901291456E+03  0.20576794871E+04  0.23167652239E+04  0.25500000920E-02 0.  1.
       -2    1    3    3    0  502 -0.77581982524E+03 -0.72901291456E+03 -0.60760243187E+03  0.12257801377E+04  0.25500000920E-02 0. -1.
</event>
<event>
 5   0  0.2997105E-07  0.3191620E+04  0.7818609E-02  0.8191034E-01
       -1   -1    0    0    0  501  0.00000000000E+00  0.00000000000E+00  0.18533187303E+04  0.18533187303E+04  0.50400001928E-02 0. -1.
        1   -1    0    0  501    0  0.00000000000E+00  0.00000000000E+00 -0.13740807373E+04  0.13740807373E+04  0.50400001928E-02 0.  1.
    10030    2    1    2    0    0  0.00000000000E+00  0.00000000000E+00  0.47923799306E+03  0.32273994676E+04  0.31916200071E+04 0.  0.
        3    1    3    3  502    0  0.25087761083E+03  0.10367143307E+04  0.14398935755E+04  0.17919290438E+04  0.10100000352E+00 0. -1.
       -3    1    3    3    0  502 -0.25087761083E+03 -0.10367143307E+04 -0.96065558244E+03  0.14354704238E+04  0.10100000352E+00 0.  1.
</event>
<event>
 5   0  0.2783875E-07  0.3206590E+04  0.7818609E-02  0.8187079E-01
       -1   -1    0    0    0  501  0.00000000000E+00  0.00000000000E+00  0.18595439479E+04  0.18595439479E+04  0.50400001928E-02 0.  1.
        1   -1    0    0  501    0  0.00000000000E+00  0.00000000000E+00 -0.13823579927E+04  0.13823579927E+04  0.50400001928E-02 0. -1.
    10030    2    1    2    0    0  0.00000000000E+00  0.00000000000E+00  0.47718595521E+03  0.32419019406E+04  0.32065903631E+04 0.  0.
        2    1    3    3  502    0 -0.64194436923E+02  0.91184145655E+03 -0.10930983965E+04  0.14249350414E+04  0.25500000920E-02 0. -1.
       -2    1    3    3    0  502  0.64194436923E+02 -0.91184145655E+03  0.15702843517E+04  0.18169668992E+04  0.25500000920E-02 0.  1.
</event>
<event>
 5   0  0.8195618E-07  0.3231107E+04  0.7818609E-02  0.8180650E-01
       -2   -1    0    0    0  501  0.00000000000E+00  0.00000000000E+00  0.11897678832E+04  0.11897678832E+04  0.25500000920E-02 0. -1.
        2   -1    0    0  501    0  0.00000000000E+00  0.00000000000E+00 -0.21937168613E+04  0.21937168613E+04  0.25500000920E-02 0.  1.
    10030    2    1    2    0    0  0.00000000000E+00  0.00000000000E+00 -0.10039489781E+04  0.33834847445E+04  0.32311074674E+04 0.  0.
        1    1    3    3  502    0  0.74450299500E+03  0.23847029363E+03  0.97851089829E+03  0.12524521422E+04  0.50400001928E-02 0. -1.
       -1    1    3    3    0  502 -0.74450299500E+03 -0.23847029363E+03 -0.19824598764E+04  0.21310326023E+04  0.50400001928E-02 0.  1.
</event>
<event>
 5   0  0.3013888E-07  0.3202258E+04  0.7818609E-02  0.8188221E-01
       -1   -1    0    0    0  501  0.00000000000E+00  0.00000000000E+00  0.15180945169E+04  0.15180945169E+04  0.50400001928E-02 0. -1.
        1   -1    0    0  501    0  0.00000000000E+00  0.00000000000E+00 -0.16887055885E+04  0.16887055885E+04  0.50400001928E-02 0.  1.
    10030    2    1    2    0    0  0.00000000000E+00  0.00000000000E+00 -0.17061107158E+03  0.32068001054E+04  0.32022583872E+04 0.  0.
        1    1    3    3  502    0  0.30710082029E+03  0.79861718547E+03  0.12699484176E+04  0.15312966095E+04  0.50400001928E-02 0. -1.
       -1    1    3    3    0  502 -0.30710082029E+03 -0.79861718547E+03 -0.14405594892E+04  0.16755034959E+04  0.50400001928E-02 0.  1.
</event>
<event>
 5   0  0.8838951E-07  0.3172695E+04  0.7818609E-02  0.8196066E-01
       -2   -1    0    0    0  501  0.00000000000E+00  0.00000000000E+00  0.15428598536E+04  0.15428598536E+04  0.25500000920E-02 0. -1.
        2   -1    0    0  501    0  0.00000000000E+00  0.00000000000E+00 -0.16310607152E+04  0.16310607152E+04  0.25500000920E-02 0.  1.
    10030    2    1    2    0    0  0.00000000000E+00  0.00000000000E+00 -0.88200861630E+02  0.31739205688E+04  0.31726948144E+04 0.  0.
        2    1    3    3  502    0  0.12607484236E+04  0.45799123809E+03  0.80313616986E+03  0.15634162175E+04  0.25500000920E-02 0.  1.
       -2    1    3    3    0  502 -0.12607484236E+04 -0.45799123809E+03 -0.89133703149E+03  0.16105043513E+04  0.25500000920E-02 0. -1.
</event>
<event>
 5   0  0.2783875E-07  0.3196916E+04  0.7818609E-02  0.8189632E-01
       -3   -1    0    0    0  501  0.00000000000E+00  0.00000000000E+00  0.16141733684E+04  0.16141733716E+04  0.10100000352E+00 0. -1.
        3   -1    0    0  501    0  0.00000000000E+00  0.00000000000E+00 -0.15828959737E+04  0.15828959769E+04  0.10100000352E+00 0.  1.
    10030    2    1    2    0    0  0.00000000000E+00  0.00000000000E+00  0.31277394716E+02  0.31970693484E+04  0.31969163491E+04 0.  0.
        2    1    3    3  502    0  0.56253830772E+03  0.54068317189E+03  0.14107971801E+04  0.16121837127E+04  0.25500000920E-02 0. -1.
       -2    1    3    3    0  502 -0.56253830772E+03 -0.54068317189E+03 -0.13795197854E+04  0.15848856357E+04  0.25500000920E-02 0.  1.
</event>
<event>
 5   0  0.2891204E-07  0.3202075E+04  0.7818609E-02  0.8188269E-01
       -1   -1    0    0    0  501  0.00000000000E+00  0.00000000000E+00  0.27318659712E+04  0.27318659712E+04  0.50400001928E-02 0.  1.
        1   -1    0    0  501    0  0.00000000000E+00  0.00000000000E+00 -0.93830403170E+03  0.93830403172E+03  0.50400001928E-02 0. -1.
    10030    2    1    2    0    0  0.00000000000E+00  0.00000000000E+00  0.17935619395E+04  0.36701700029E+04  0.32020748617E+04 0.  0.
        4    1    3    3  502    0 -0.12689529561E+03 -0.71449267058E+03  0.25325427238E+04  0.26344594233E+04  0.12699999809E+01 0.  1.
       -4    1    3    3    0  502  0.12689529561E+03  0.71449267058E+03 -0.73898078426E+03  0.10357105796E+04  0.12699999809E+01 0. -1.
</event>
<event>
 5   0  0.2997105E-07  0.3203340E+04  0.7818609E-02  0.8187936E-01
       -1   -1    0    0    0  501  0.00000000000E+00  0.00000000000E+00  0.13720583323E+04  0.13720583323E+04  0.50400001928E-02 0. -1.
        1   -1    0    0  501    0  0.00000000000E+00  0.00000000000E+00 -0.18697070023E+04  0.18697070023E+04  0.50400001928E-02 0.  1.
    10030    2    1    2    0    0  0.00000000000E+00  0.00000000000E+00 -0.49764867004E+03  0.32417653346E+04  0.32033401764E+04 0.  0.
        3    1    3    3  502    0 -0.70095052456E+03  0.66951043382E+03  0.10415277456E+04  0.14227986203E+04  0.10100000352E+00 0. -1.
       -3    1    3    3    0  502  0.70095052456E+03 -0.66951043382E+03 -0.15391764157E+04  0.18189667143E+04  0.10100000352E+00 0.  1.
</event>
<event>
 5   0  0.8488469E-07  0.3202403E+04  0.7818609E-02  0.8188183E-01
        2   -1    0    0  501    0  0.00000000000E+00  0.00000000000E+00  0.22797749466E+04  0.22797749466E+04  0.25500000920E-02 0.  1.
       -2   -1    0    0    0  501  0.00000000000E+00  0.00000000000E+00 -0.11246050542E+04  0.11246050542E+04  0.25500000920E-02 0. -1.
    10030    2    1    2    0    0  0.00000000000E+00  0.00000000000E+00  0.11551698924E+04  0.34043800008E+04  0.32024031148E+04 0.  0.
        3    1    3    3  502    0 -0.12430231450E+03 -0.18128179451E+03  0.22636602874E+04  0.22743069409E+04  0.10100000352E+00 0.  1.
       -3    1    3    3    0  502  0.12430231450E+03  0.18128179451E+03 -0.11084903951E+04  0.11300730598E+04  0.10100000352E+00 0. -1.
</event>
<event>
 5   0  0.8335929E-07  0.3213519E+04  0.7818609E-02  0.8185256E-01
       -2   -1    0    0    0  501  0.00000000000E+00  0.00000000000E+00  0.12563783541E+04  0.12563783541E+04  0.25500000920E-02 0.  1.
        2   -1    0    0  501    0  0.00000000000E+00  0.00000000000E+00 -0.20548559153E+04  0.20548559153E+04  0.25500000920E-02 0. -1.
    10030    2    1    2    0    0  0.00000000000E+00  0.00000000000E+00 -0.79847756116E+03  0.33112342694E+04  0.32135192502E+04 0.  0.
        4    1    3    3  502    0 -0.99593564258E+03 -0.14140723833E+03 -0.16902497406E+04  0.19669340634E+04  0.12699999809E+01 0. -1.
       -4    1    3    3    0  502  0.99593564258E+03  0.14140723833E+03  0.89177217940E+03  0.13443002061E+04  0.12699999809E+01 0.  1.
</event>
<event>
 5   0  0.2891204E-07  0.3200296E+04  0.7818609E-02  0.8188739E-01
        1   -1    0    0  501    0  0.00000000000E+00  0.00000000000E+00  0.18817411957E+04  0.18817411957E+04  0.50400001928E-02 0. -1.
       -1   -1    0    0    0  501  0.00000000000E+00  0.00000000000E+00 -0.13606939907E+04  0.13606939907E+04  0.50400001928E-02 0.  1.
    10030    2    1    2    0    0  0.00000000000E+00  0.00000000000E+00  0.52104720504E+03  0.32424351864E+04  0.32002961969E+04 0.  0.
        4    1    3    3  502    0 -0.39873497158E+02 -0.11279597689E+04  0.14097380495E+04  0.18058920558E+04  0.12699999809E+01 0. -1.
       -4    1    3    3    0  502  0.39873497158E+02  0.11279597689E+04 -0.88869084448E+03  0.14365431306E+04  0.12699999809E+01 0.  1.
</event>
<event>
 5   0  0.3075756E-07  0.3195111E+04  0.7818609E-02  0.8190110E-01
       -1   -1    0    0    0  501  0.00000000000E+00  0.00000000000E+00  0.13185061618E+04  0.13185061618E+04  0.50400001928E-02 0. -1.
        1   -1    0    0  501    0  0.00000000000E+00  0.00000000000E+00 -0.19356627577E+04  0.19356627577E+04  0.50400001928E-02 0.  1.
    10030    2    1    2    0    0  0.00000000000E+00  0.00000000000E+00 -0.61715659587E+03  0.32541689195E+04  0.31951108108E+04 0.  0.
        5    1    3    3  502    0 -0.14017917541E+04 -0.58954365796E+03 -0.80709400587E+03  0.17216284939E+04  0.46999998093E+01 0.  1.
       -5    1    3    3    0  502  0.14017917541E+04  0.58954365796E+03  0.18993740999E+03  0.15325404257E+04  0.46999998093E+01 0. -1.
</event>
<event>
 5   0  0.8488469E-07  0.3201523E+04  0.7818609E-02  0.8188415E-01
        2   -1    0    0  501    0  0.00000000000E+00  0.00000000000E+00  0.11175992549E+04  0.11175992549E+04  0.25500000920E-02 0.  1.
       -2   -1    0    0    0  501  0.00000000000E+00  0.00000000000E+00 -0.22928054439E+04  0.22928054439E+04  0.25500000920E-02 0. -1.
    10030    2    1    2    0    0  0.00000000000E+00  0.00000000000E+00 -0.11752061890E+04  0.34104046989E+04  0.32015231724E+04 0.  0.
        3    1    3    3  502    0  0.33674421562E+03  0.50295000934E+03 -0.21662084470E+04  0.22491808341E+04  0.10100000352E+00 0. -1.
       -3    1    3    3    0  502 -0.33674421562E+03 -0.50295000934E+03  0.99100225796E+03  0.11612238648E+04  0.10100000352E+00 0.  1.
</event>
<event>
 5   0  0.2891204E-07  0.3240490E+04  0.7818609E-02  0.8178205E-01
        1   -1    0    0  501    0  0.00000000000E+00  0.00000000000E+00  0.23603275104E+04  0.23603275104E+04  0.50400001928E-02 0. -1.
       -1   -1    0    0    0  501  0.00000000000E+00  0.00000000000E+00 -0.11122158735E+04  0.11122158735E+04  0.50400001928E-02 0.  1.
    10030    2    1    2    0    0  0.00000000000E+00  0.00000000000E+00  0.12481116369E+04  0.34725433839E+04  0.32404899159E+04 0.  0.
        4    1    3    3  502    0 -0.11917589137E+04 -0.20837971234E+03 -0.53084051991E+03  0.13211754930E+04  0.12699999809E+01 0. -1.
       -4    1    3    3    0  502  0.11917589137E+04  0.20837971234E+03  0.17789521568E+04  0.21513678909E+04  0.12699999809E+01 0.  1.
</event>
<event>
 5   0  0.8488469E-07  0.3233538E+04  0.7818609E-02  0.8180016E-01
       -2   -1    0    0    0  501  0.00000000000E+00  0.00000000000E+00  0.11732529714E+04  0.11732529714E+04  0.25500000920E-02 0. -1.
        2   -1    0    0  501    0  0.00000000000E+00  0.00000000000E+00 -0.22279446565E+04  0.22279446565E+04  0.25500000920E-02 0.  1.
    10030    2    1    2    0    0  0.00000000000E+00  0.00000000000E+00 -0.10546916851E+04  0.34011976279E+04  0.32335384261E+04 0.  0.
        3    1    3    3  502    0  0.13676171637E+04 -0.38234763894E+03  0.28563033362E+03  0.14484996104E+04  0.10100000352E+00 0. -1.
       -3    1    3    3    0  502 -0.13676171637E+04  0.38234763894E+03 -0.13403220188E+04  0.19526980175E+04  0.10100000352E+00 0.  1.
</event>
<event>
 5   0  0.3075756E-07  0.3194893E+04  0.7818609E-02  0.8190167E-01
        1   -1    0    0  501    0  0.00000000000E+00  0.00000000000E+00  0.13379497548E+04  0.13379497548E+04  0.50400001928E-02 0.  1.
       -1   -1    0    0    0  501  0.00000000000E+00  0.00000000000E+00 -0.19072733436E+04  0.19072733436E+04  0.50400001928E-02 0. -1.
    10030    2    1    2    0    0  0.00000000000E+00  0.00000000000E+00 -0.56932358879E+03  0.32452230983E+04  0.31948933643E+04 0.  0.
        5    1    3    3  502    0  0.33117698003E+03 -0.15005375977E+04 -0.72802675785E+03  0.17003929911E+04  0.46999998093E+01 0.  1.
       -5    1    3    3    0  502 -0.33117698003E+03  0.15005375977E+04  0.15870316906E+03  0.15448301072E+04  0.46999998093E+01 0. -1.
</event>
<event>
 5   0  0.2783875E-07  0.3203879E+04  0.7818609E-02  0.8187793E-01
        1   -1    0    0  501    0  0.00000000000E+00  0.00000000000E+00  0.16382961870E+04  0.16382961870E+04  0.50400001928E-02 0.  1.
       -1   -1    0    0    0  501  0.00000000000E+00  0.00000000000E+00 -0.15663900240E+04  0.15663900240E+04  0.50400001928E-02 0. -1.
    10030    2    1    2    0    0  0.00000000000E+00  0.00000000000E+00  0.71906162934E+02  0.32046862110E+04  0.32038794008E+04 0.  0.
        2    1    3    3  502    0  0.39950606985E+03 -0.15208371137E+04 -0.27016348939E+03  0.15954745179E+04  0.25500000920E-02 0.  1.
       -2    1    3    3    0  502 -0.39950606985E+03  0.15208371137E+04  0.34206965232E+03  0.16092116931E+04  0.25500000920E-02 0. -1.
</event>
<event>
 5   0  0.8802800E-07  0.3185541E+04  0.7818609E-02  0.8192646E-01
        2   -1    0    0  501    0  0.00000000000E+00  0.00000000000E+00  0.16053597832E+04  0.16053597832E+04  0.25500000920E-02 0.  1.
       -2   -1    0    0    0  501  0.00000000000E+00  0.00000000000E+00 -0.15802804364E+04  0.15802804364E+04  0.25500000920E-02 0. -1.
    10030    2    1    2    0    0  0.00000000000E+00  0.00000000000E+00  0.25079346802E+02  0.31856402195E+04  0.31855414979E+04 0.  0.
        5    1    3    3  502    0  0.11457462948E+03 -0.12931459035E+04 -0.91027974309E+03  0.15855550997E+04  0.46999998093E+01 0. -1.
       -5    1    3    3    0  502 -0.11457462948E+03  0.12931459035E+04  0.93535908989E+03  0.16000851198E+04  0.46999998093E+01 0.  1.
</event>
<event>
 5   0  0.3013888E-07  0.3202743E+04  0.7818609E-02  0.8188093E-01
        1   -1    0    0  501    0  0.00000000000E+00  0.00000000000E+00  0.18508006921E+04  0.18508006921E+04  0.50400001928E-02 0. -1.
       -1   -1    0    0    0  501  0.00000000000E+00  0.00000000000E+00 -0.13855577586E+04  0.13855577586E+04  0.50400001928E-02 0.  1.
    10030    2    1    2    0    0  0.00000000000E+00  0.00000000000E+00  0.46524293353E+03  0.32363584507E+04  0.32027433606E+04 0.  0.
        1    1    3    3  502    0  0.50409679673E+02 -0.15951773083E+04  0.36537567671E+03  0.16372633160E+04  0.50400001928E-02 0. -1.
       -1    1    3    3    0  502 -0.50409679673E+02  0.15951773083E+04  0.99867256825E+02  0.15990951347E+04  0.50400001928E-02 0.  1.
</event>
<event>
 5   0  0.3013888E-07  0.3193414E+04  0.7818609E-02  0.8190559E-01
       -1   -1    0    0    0  501  0.00000000000E+00  0.00000000000E+00  0.15606757953E+04  0.15606757953E+04  0.50400001928E-02 0.  1.
        1   -1    0    0  501    0  0.00000000000E+00  0.00000000000E+00 -0.16335704416E+04  0.16335704416E+04  0.50400001928E-02 0. -1.
    10030    2    1    2    0    0  0.00000000000E+00  0.00000000000E+00 -0.72894646223E+02  0.31942462369E+04  0.31934143785E+04 0.  0.
        1    1    3    3  502    0  0.13379201502E+04 -0.84921337237E+02  0.83109163155E+03  0.15773253507E+04  0.50400001928E-02 0.  1.
       -1    1    3    3    0  502 -0.13379201502E+04  0.84921337237E+02 -0.90398627777E+03  0.16169208862E+04  0.50400001928E-02 0. -1.
</event>
<event>
 5   0  0.8488469E-07  0.3206933E+04  0.7818609E-02  0.8186989E-01
        2   -1    0    0  501    0  0.00000000000E+00  0.00000000000E+00  0.14341807068E+04  0.14341807068E+04  0.25500000920E-02 0.  1.
       -2   -1    0    0    0  501  0.00000000000E+00  0.00000000000E+00 -0.17927345461E+04  0.17927345461E+04  0.25500000920E-02 0. -1.
    10030    2    1    2    0    0  0.00000000000E+00  0.00000000000E+00 -0.35855383923E+03  0.32269152529E+04  0.32069333005E+04 0.  0.
        3    1    3    3  502    0  0.79625911003E+03 -0.13823696018E+04 -0.16618831215E+02  0.15953841174E+04  0.10100000352E+00 0.  1.
       -3    1    3    3    0  502 -0.79625911003E+03  0.13823696018E+04 -0.34193500801E+03  0.16315311355E+04  0.10100000352E+00 0. -1.
</event>
<event>
 5   0  0.2891204E-07  0.3199493E+04  0.7818609E-02  0.8188951E-01
       -1   -1    0    0    0  501  0.00000000000E+00  0.00000000000E+00  0.13217855011E+04  0.13217855012E+04  0.50400001928E-02 0. -1.
        1   -1    0    0  501    0  0.00000000000E+00  0.00000000000E+00 -0.19361609943E+04  0.19361609943E+04  0.50400001928E-02 0.  1.
    10030    2    1    2    0    0  0.00000000000E+00  0.00000000000E+00 -0.61437549316E+03  0.32579464955E+04  0.31994934163E+04 0.  0.
        4    1    3    3  502    0  0.11520141311E+03 -0.95954028179E+03 -0.16053112106E+04  0.18737701603E+04  0.12699999809E+01 0.  1.
       -4    1    3    3    0  502 -0.11520141311E+03  0.95954028179E+03  0.99093571740E+03  0.13841763352E+04  0.12699999809E+01 0. -1.
</event>
<event>
 5   0  0.3013888E-07  0.3204640E+04  0.7818609E-02  0.8187593E-01
        1   -1    0    0  501    0  0.00000000000E+00  0.00000000000E+00  0.11974963215E+04  0.11974963215E+04  0.50400001928E-02 0.  1.
       -1   -1    0    0    0  501  0.00000000000E+00  0.00000000000E+00 -0.21439980861E+04  0.21439980861E+04  0.50400001928E-02 0. -1.
    10030    2    1    2    0    0  0.00000000000E+00  0.00000000000E+00 -0.94650176456E+03  0.33414944076E+04  0.32046402740E+04 0.  0.
        1    1    3    3  502    0  0.41265792192E+03 -0.11335798477E+04 -0.15728672125E+04  0.19822212540E+04  0.50400001928E-02 0. -1.
       -1    1    3    3    0  502 -0.41265792192E+03  0.11335798477E+04  0.62636544797E+03  0.13592731536E+04  0.50400001928E-02 0.  1.
</event>
<event>
 5   0  0.8802800E-07  0.3196670E+04  0.7818609E-02  0.8189697E-01
       -2   -1    0    0    0  501  0.00000000000E+00  0.00000000000E+00  0.18349368452E+04  0.18349368452E+04  0.25500000920E-02 0. -1.
        2   -1    0    0  501    0  0.00000000000E+00  0.00000000000E+00 -0.13922408232E+04  0.13922408232E+04  0.25500000920E-02 0.  1.
    10030    2    1    2    0    0  0.00000000000E+00  0.00000000000E+00  0.44269602195E+03  0.32271776684E+04  0.31966695068E+04 0.  0.
        5    1    3    3  502    0  0.10492338667E+04  0.11699124549E+04 -0.73094612778E+02  0.15731979442E+04  0.46999998093E+01 0.  1.
       -5    1    3    3    0  502 -0.10492338667E+04 -0.11699124549E+04  0.51579063473E+03  0.16539797242E+04  0.46999998093E+01 0. -1.
</event>
<event>
 5   0  0.3075756E-07  0.3219715E+04  0.7818609E-02  0.8183630E-01
       -1   -1    0    0    0  501  0.00000000000E+00  0.00000000000E+00  0.13605740726E+04  0.13605740726E+04  0.50400001928E-02 0. -1.
        1   -1    0    0  501    0  0.00000000000E+00  0.00000000000E+00 -0.19048146622E+04  0.19048146622E+04  0.50400001928E-02 0.  1.
    10030    2    1    2    0    0  0.00000000000E+00  0.00000000000E+00 -0.54424058958E+03  0.32653887348E+04  0.32197151691E+04 0.  0.
        5    1    3    3  502    0  0.14766360237E+02  0.78210633593E+03 -0.16991017629E+04  0.18705286036E+04  0.46999998093E+01 0.  1.
       -5    1    3    3    0  502 -0.14766360237E+02 -0.78210633593E+03  0.11548611733E+04  0.13948601312E+04  0.46999998093E+01 0. -1.
</event>
<event>
 5   0  0.8488469E-07  0.3196109E+04  0.7818609E-02  0.8189846E-01
        2   -1    0    0  501    0  0.00000000000E+00  0.00000000000E+00  0.23796670755E+04  0.23796670755E+04  0.25500000920E-02 0. -1.
       -2   -1    0    0    0  501  0.00000000000E+00  0.00000000000E+00 -0.10731662037E+04  0.10731662037E+04  0.25500000920E-02 0.  1.
    10030    2    1    2    0    0  0.00000000000E+00  0.00000000000E+00  0.13065008718E+04  0.34528332792E+04  0.31961090604E+04 0.  0.
        3    1    3    3  502    0 -0.65819582201E+03 -0.13990832429E+04  0.10895764434E+04  0.18915159256E+04  0.10100000352E+00 0. -1.
       -3    1    3    3    0  502  0.65819582201E+03  0.13990832429E+04  0.21692442841E+03  0.15613173536E+04  0.10100000352E+00 0.  1.
</event>
<event>
 5   0  0.2783875E-07  0.3192078E+04  0.7818609E-02  0.8190913E-01
        1   -1    0    0  501    0  0.00000000000E+00  0.00000000000E+00  0.20895076059E+04  0.20895076060E+04  0.50400001928E-02 0. -1.
       -1   -1    0    0    0  501  0.00000000000E+00  0.00000000000E+00 -0.12191101332E+04  0.12191101332E+04  0.50400001928E-02 0.  1.
    10030    2    1    2    0    0  0.00000000000E+00  0.00000000000E+00  0.87039747277E+03  0.33086177391E+04  0.31920776280E+04 0.  0.
        2    1    3    3  502    0 -0.58444673746E+03 -0.47514125892E+03 -0.10232999414E+04  0.12706218851E+04  0.25500000920E-02 0.  1.
       -2    1    3    3    0  502  0.58444673746E+03  0.47514125892E+03  0.18936974141E+04  0.20379958541E+04  0.25500000920E-02 0. -1.
</event>
<event>
 5   0  0.2891204E-07  0.3198270E+04  0.7818609E-02  0.8189274E-01
        1   -1    0    0  501    0  0.00000000000E+00  0.00000000000E+00  0.18330493075E+04  0.18330493075E+04  0.50400001928E-02 0. -1.
       -1   -1    0    0    0  501  0.00000000000E+00  0.00000000000E+00 -0.13950703006E+04  0.13950703006E+04  0.50400001928E-02 0.  1.
    10030    2    1    2    0    0  0.00000000000E+00  0.00000000000E+00  0.43797900691E+03  0.32281196081E+04  0.31982699376E+04 0.  0.
        4    1    3    3  502    0 -0.71674007625E+03 -0.13283208704E+03 -0.12176252577E+04  0.14191453700E+04  0.12699999809E+01 0.  1.
       -4    1    3    3    0  502  0.71674007625E+03  0.13283208704E+03  0.16556042646E+04  0.18089742381E+04  0.12699999809E+01 0. -1.
</event>
<event>
 5   0  0.3013888E-07  0.3192647E+04  0.7818609E-02  0.8190762E-01
        1   -1    0    0  501    0  0.00000000000E+00  0.00000000000E+00  0.17935747606E+04  0.17935747606E+04  0.50400001928E-02 0. -1.
       -1   -1    0    0    0  501  0.00000000000E+00  0.00000000000E+00 -0.14207656803E+04  0.14207656803E+04  0.50400001928E-02 0.  1.
    10030    2    1    2    0    0  0.00000000000E+00  0.00000000000E+00  0.37280908025E+03  0.32143404409E+04  0.31926474687E+04 0.  0.
        1    1    3    3  502    0 -0.35499973044E+03  0.14917974586E+04 -0.26019146046E+03  0.15553726442E+04  0.50400001928E-02 0.  1.
       -1    1    3    3    0  502  0.35499973044E+03 -0.14917974586E+04  0.63300054072E+03  0.16589677967E+04  0.50400001928E-02 0. -1.
</event>
<event>
 5   0  0.2891204E-07  0.3184638E+04  0.7818609E-02  0.8192886E-01
       -1   -1    0    0    0  501  0.00000000000E+00  0.00000000000E+00  0.18018611625E+04  0.18018611625E+04  0.50400001928E-02 0. -1.
        1   -1    0    0  501    0  0.00000000000E+00  0.00000000000E+00 -0.14071453012E+04  0.14071453012E+04  0.50400001928E-02 0.  1.
    10030    2    1    2    0    0  0.00000000000E+00  0.00000000000E+00  0.39471586126E+03  0.32090064637E+04  0.31846384210E+04 0.  0.
        4    1    3    3  502    0 -0.58693602891E+03 -0.61551502291E+03  0.15538107184E+04  0.17713503343E+04  0.12699999809E+01 0. -1.
       -4    1    3    3    0  502  0.58693602891E+03  0.61551502291E+03 -0.11590948571E+04  0.14376561293E+04  0.12699999809E+01 0.  1.
</event>
<event>
 5   0  0.8838951E-07  0.3191774E+04  0.7818609E-02  0.8190993E-01
       -2   -1    0    0    0  501  0.00000000000E+00  0.00000000000E+00  0.12311559013E+04  0.12311559013E+04  0.25500000920E-02 0.  1.
        2   -1    0    0  501    0  0.00000000000E+00  0.00000000000E+00 -0.20686700590E+04  0.20686700590E+04  0.25500000920E-02 0. -1.
    10030    2    1    2    0    0  0.00000000000E+00  0.00000000000E+00 -0.83751415775E+03  0.32998259603E+04  0.31917740214E+04 0.  0.
        2    1    3    3  502    0 -0.14140800574E+04 -0.65079330493E+03 -0.55138945258E+02  0.15576246781E+04  0.25500000920E-02 0.  1.
       -2    1    3    3    0  502  0.14140800574E+04  0.65079330493E+03 -0.78237521249E+03  0.17422012822E+04  0.25500000920E-02 0. -1.
</event>
<event>
 5   0  0.8195618E-07  0.3181662E+04  0.7818609E-02  0.8193677E-01
        2   -1    0    0  501    0  0.00000000000E+00  0.00000000000E+00  0.12576620681E+04  0.12576620681E+04  0.25500000920E-02 0.  1.
       -2   -1    0    0    0  501  0.00000000000E+00  0.00000000000E+00 -0.20122600429E+04  0.20122600429E+04  0.25500000920E-02 0. -1.
    10030    2    1    2    0    0  0.00000000000E+00  0.00000000000E+00 -0.75459797476E+03  0.32699221110E+04  0.31816619099E+04 0.  0.
        1    1    3    3  502    0  0.11841835352E+04  0.97639602657E+03  0.52762469321E+02  0.15357160297E+04  0.50400001928E-02 0.  1.
       -1    1    3    3    0  502 -0.11841835352E+04 -0.97639602657E+03 -0.80736044408E+03  0.17342060813E+04  0.50400001928E-02 0. -1.
</event>
<event>
 5   0  0.8488469E-07  0.3204437E+04  0.7818609E-02  0.8187646E-01
        2   -1    0    0  501    0  0.00000000000E+00  0.00000000000E+00  0.16293166120E+04  0.16293166120E+04  0.25500000920E-02 0.  1.
       -2   -1    0    0    0  501  0.00000000000E+00  0.00000000000E+00 -0.15755709506E+04  0.15755709506E+04  0.25500000920E-02 0. -1.
    10030    2    1    2    0    0  0.00000000000E+00  0.00000000000E+00  0.53745661346E+02  0.32048875626E+04  0.32044368761E+04 0.  0.
        3    1    3    3  502    0 -0.99309362436E+02  0.66541831699E+03 -0.14274499819E+04  0.15780549253E+04  0.10100000352E+00 0. -1.
       -3    1    3    3    0  502  0.99309362436E+02 -0.66541831699E+03  0.14811956433E+04  0.16268326373E+04  0.10100000352E+00 0.  1.
</event>
<event>
 5   0  0.8195618E-07  0.3221823E+04  0.7818609E-02  0.8183077E-01
        2   -1    0    0  501    0  0.00000000000E+00  0.00000000000E+00  0.24808541477E+04  0.24808541477E+04  0.25500000920E-02 0.  1.
       -2   -1    0    0    0  501  0.00000000000E+00  0.00000000000E+00 -0.10460251139E+04  0.10460251139E+04  0.25500000920E-02 0. -1.
    10030    2    1    2    0    0  0.00000000000E+00  0.00000000000E+00  0.14348290338E+04  0.35268792615E+04  0.32218229264E+04 0.  0.
        1    1    3    3  502    0 -0.41614776037E+03  0.13154169802E+04 -0.19290948251E+03  0.13930954234E+04  0.50400001928E-02 0.  1.
       -1    1    3    3    0  502  0.41614776037E+03 -0.13154169802E+04  0.16277385163E+04  0.21337838381E+04  0.50400001928E-02 0. -1.
</event>
<event>
 5   0  0.8335929E-07  0.3201017E+04  0.7818609E-02  0.8188549E-01
       -2   -1    0    0    0  501  0.00000000000E+00  0.00000000000E+00  0.15527800619E+04  0.15527800619E+04  0.25500000920E-02 0.  1.
        2   -1    0    0  501    0  0.00000000000E+00  0.00000000000E+00 -0.16497034780E+04  0.16497034780E+04  0.25500000920E-02 0. -1.
    10030    2    1    2    0    0  0.00000000000E+00  0.00000000000E+00 -0.96923416120E+02  0.32024835400E+04  0.32010165065E+04 0.  0.
        4    1    3    3  502    0  0.92597378202E+03 -0.38679682140E+03 -0.12958634465E+04  0.16389944817E+04  0.12699999809E+01 0. -1.
       -4    1    3    3    0  502 -0.92597378202E+03  0.38679682140E+03  0.11989400304E+04  0.15634890583E+04  0.12699999809E+01 0.  1.
</event>
<event>
 5   0  0.2997105E-07  0.3178785E+04  0.7818609E-02  0.8194442E-01
       -1   -1    0    0    0  501  0.00000000000E+00  0.00000000000E+00  0.19333343236E+04  0.19333343236E+04  0.50400001928E-02 0. -1.
        1   -1    0    0  501    0  0.00000000000E+00  0.00000000000E+00 -0.13066384183E+04  0.13066384183E+04  0.50400001928E-02 0.  1.
    10030    2    1    2    0    0  0.00000000000E+00  0.00000000000E+00  0.62669590530E+03  0.32399727419E+04  0.31787852413E+04 0.  0.
        3    1    3    3  502    0 -0.69232881885E+03  0.14220471951E+04  0.15338280581E+03  0.15890449062E+04  0.10100000352E+00 0.  1.
       -3    1    3    3    0  502  0.69232881885E+03 -0.14220471951E+04  0.47331309949E+03  0.16509278357E+04  0.10100000352E+00 0. -1.
</event>
<event>
 5   0  0.3013888E-07  0.3197151E+04  0.7818609E-02  0.8189570E-01
        1   -1    0    0  501    0  0.00000000000E+00  0.00000000000E+00  0.21908548111E+04  0.21908548111E+04  0.50400001928E-02 0.  1.
       -1   -1    0    0    0  501  0.00000000000E+00  0.00000000000E+00 -0.11664140839E+04  0.11664140839E+04  0.50400001928E-02 0. -1.
    10030    2    1    2    0    0  0.00000000000E+00  0.00000000000E+00  0.10244407272E+04  0.33572688950E+04  0.31971511741E+04 0.  0.
        1    1    3    3  502    0 -0.12447279558E+04  0.39127260827E+03 -0.45761490133E+03  0.13826978469E+04  0.50400001928E-02 0. -1.
       -1    1    3    3    0  502  0.12447279558E+04 -0.39127260827E+03  0.14820556285E+04  0.19745710481E+04  0.50400001928E-02 0.  1.
</event>
<event>
 5   0  0.2783875E-07  0.3196982E+04  0.7818609E-02  0.8189615E-01
       -3   -1    0    0    0  501  0.00000000000E+00  0.00000000000E+00  0.15689063712E+04  0.15689063744E+04  0.10100000352E+00 0. -1.
        3   -1    0    0  501    0  0.00000000000E+00  0.00000000000E+00 -0.16286338317E+04  0.16286338348E+04  0.10100000352E+00 0.  1.
    10030    2    1    2    0    0  0.00000000000E+00  0.00000000000E+00 -0.59727460504E+02  0.31975402092E+04  0.31969823303E+04 0.  0.
        2    1    3    3  502    0  0.34859196393E+03 -0.42979524228E+03  0.14700424840E+04  0.15707530717E+04  0.25500000920E-02 0. -1.
       -2    1    3    3    0  502 -0.34859196393E+03  0.42979524228E+03 -0.15297699445E+04  0.16267871375E+04  0.25500000920E-02 0.  1.
</event>
<event>
 5   0  0.3013888E-07  0.3197112E+04  0.7818609E-02  0.8189580E-01
       -1   -1    0    0    0  501  0.00000000000E+00  0.00000000000E+00  0.18753303981E+04  0.18753303981E+04  0.50400001928E-02 0.  1.
        1   -1    0    0  501    0  0.00000000000E+00  0.00000000000E+00 -0.13626297431E+04  0.13626297431E+04  0.50400001928E-02 0. -1.
    10030    2    1    2    0    0  0.00000000000E+00  0.00000000000E+00  0.51270065502E+03  0.32379601412E+04  0.31971118082E+04 0.  0.
        1    1    3    3  502    0 -0.27486219250E+03 -0.87170007525E+03  0.15845831323E+04  0.18292932923E+04  0.50400001928E-02 0.  1.
       -1    1    3    3    0  502  0.27486219250E+03  0.87170007525E+03 -0.10718824773E+04  0.14086668489E+04  0.50400001928E-02 0. -1.
</event>
<event>
 5   0  0.2891204E-07  0.3196157E+04  0.7818609E-02  0.8189833E-01
        1   -1    0    0  501    0  0.00000000000E+00  0.00000000000E+00  0.18897940809E+04  0.18897940809E+04  0.50400001928E-02 0.  1.
       -1   -1    0    0    0  501  0.00000000000E+00  0.00000000000E+00 -0.13513931046E+04  0.13513931047E+04  0.50400001928E-02 0. -1.
    10030    2    1    2    0    0  0.00000000000E+00  0.00000000000E+00  0.53840097623E+03  0.32411871855E+04  0.31961568736E+04 0.  0.
        4    1    3    3  502    0  0.58532674560E+03  0.64125647562E+03 -0.10913560655E+04  0.13945884487E+04  0.12699999809E+01 0. -1.
       -4    1    3    3    0  502 -0.58532674560E+03 -0.64125647562E+03  0.16297570418E+04  0.18465987368E+04  0.12699999809E+01 0.  1.
</event>
<event>
 5   0  0.2997105E-07  0.3189708E+04  0.7818609E-02  0.8191540E-01
        1   -1    0    0  501    0  0.00000000000E+00  0.00000000000E+00  0.27731616807E+04  0.27731616807E+04  0.50400001928E-02 0. -1.
       -1   -1    0    0    0  501  0.00000000000E+00  0.00000000000E+00 -0.91720575935E+03  0.91720575936E+03  0.50400001928E-02 0.  1.
    10030    2    1    2    0    0  0.00000000000E+00  0.00000000000E+00  0.18559559213E+04  0.36903674400E+04  0.31897083661E+04 0.  0.
        3    1    3    3  502    0  0.12582460200E+04  0.82765763277E+03  0.15350899140E+04  0.21505118595E+04  0.10100000352E+00 0.  1.
       -3    1    3    3    0  502 -0.12582460200E+04 -0.82765763277E+03  0.32086600736E+03  0.15398555805E+04  0.10100000352E+00 0. -1.
</event>
<event>
 5   0  0.8335929E-07  0.3231321E+04  0.7818609E-02  0.8180594E-01
        2   -1    0    0  501    0  0.00000000000E+00  0.00000000000E+00  0.15576819468E+04  0.15576819468E+04  0.25500000920E-02 0.  1.
       -2   -1    0    0    0  501  0.00000000000E+00  0.00000000000E+00 -0.16757973104E+04  0.16757973104E+04  0.25500000920E-02 0. -1.
    10030    2    1    2    0    0  0.00000000000E+00  0.00000000000E+00 -0.11811536363E+03  0.32334792572E+04  0.32313212263E+04 0.  0.
        4    1    3    3  502    0 -0.13661529407E+03  0.14157719243E+04 -0.82591387312E+03  0.16447520235E+04  0.12699999809E+01 0. -1.
       -4    1    3    3    0  502  0.13661529407E+03 -0.14157719243E+04  0.70779850949E+03  0.15887272337E+04  0.12699999809E+01 0.  1.
</event>
<event>
 5   0  0.2783875E-07  0.3204180E+04  0.7818609E-02  0.8187714E-01
       -1   -1    0    0    0  501  0.00000000000E+00  0.00000000000E+00  0.15946972423E+04  0.15946972423E+04  0.50400001928E-02 0. -1.
        1   -1    0    0  501    0  0.00000000000E+00  0.00000000000E+00 -0.16095166191E+04  0.16095166191E+04  0.50400001928E-02 0.  1.
    10030    2    1    2    0    0  0.00000000000E+00  0.00000000000E+00 -0.14819376731E+02  0.32042138614E+04  0.32041795917E+04 0.  0.
        2    1    3    3  502    0  0.27190043974E+03 -0.15046016249E+04  0.47106780561E+03  0.15998939891E+04  0.25500000920E-02 0.  1.
       -2    1    3    3    0  502 -0.27190043974E+03  0.15046016249E+04 -0.48588718234E+03  0.16043198723E+04  0.25500000920E-02 0. -1.
</event>
<event>
 5   0  0.2997105E-07  0.3211568E+04  0.7818609E-02  0.8185769E-01
        1   -1    0    0  501    0  0.00000000000E+00  0.00000000000E+00  0.15085172738E+04  0.15085172738E+04  0.50400001928E-02 0. -1.
       -1   -1    0    0    0  501  0.00000000000E+00  0.00000000000E+00 -0.17093221776E+04  0.17093221776E+04  0.50400001928E-02 0.  1.
    10030    2    1    2    0    0  0.00000000000E+00  0.00000000000E+00 -0.20080490376E+03  0.32178394514E+04  0.32115678610E+04 0.  0.
        3    1    3    3  502    0  0.84390644263E+03 -0.20555034328E+03  0.12528322846E+04  0.15244729486E+04  0.10100000352E+00 0. -1.
       -3    1    3    3    0  502 -0.84390644263E+03  0.20555034328E+03 -0.14536371883E+04  0.16933665029E+04  0.10100000352E+00 0.  1.
</event>
<event>
 5   0  0.8802800E-07  0.3189101E+04  0.7818609E-02  0.8191701E-01
       -2   -1    0    0    0  501  0.00000000000E+00  0.00000000000E+00  0.13980571355E+04  0.13980571355E+04  0.25500000920E-02 0. -1.
        2   -1    0    0  501    0  0.00000000000E+00  0.00000000000E+00 -0.18186610230E+04  0.18186610230E+04  0.25500000920E-02 0.  1.
    10030    2    1    2    0    0  0.00000000000E+00  0.00000000000E+00 -0.42060388749E+03  0.32167181585E+04  0.31891014535E+04 0.  0.
        5    1    3    3  502    0  0.19329326141E+03  0.15289056241E+04  0.20270108680E+03  0.15543566234E+04  0.46999998093E+01 0. -1.
       -5    1    3    3    0  502 -0.19329326141E+03 -0.15289056241E+04 -0.62330497429E+03  0.16623615350E+04  0.46999998093E+01 0.  1.
</event>
<event>
 5   0  0.2783875E-07  0.3215950E+04  0.7818609E-02  0.8184617E-01
       -1   -1    0    0    0  501  0.00000000000E+00  0.00000000000E+00  0.16346402275E+04  0.16346402275E+04  0.50400001928E-02 0. -1.
        1   -1    0    0  501    0  0.00000000000E+00  0.00000000000E+00 -0.15817452045E+04  0.15817452045E+04  0.50400001928E-02 0.  1.
    10030    2    1    2    0    0  0.00000000000E+00  0.00000000000E+00  0.52895022968E+02  0.32163854320E+04  0.32159504604E+04 0.  0.
        2    1    3    3  502    0 -0.18351317612E+03 -0.12852370983E+04  0.97529752619E+03  0.16237970161E+04  0.25500000920E-02 0. -1.
       -2    1    3    3    0  502  0.18351317612E+03  0.12852370983E+04 -0.92240250322E+03  0.15925884160E+04  0.25500000920E-02 0.  1.
</event>
<event>
 5   0  0.3075756E-07  0.3204486E+04  0.7818609E-02  0.8187633E-01
       -1   -1    0    0    0  501  0.00000000000E+00  0.00000000000E+00  0.15208585681E+04  0.15208585681E+04  0.50400001928E-02 0.  1.
        1   -1    0    0  501    0  0.00000000000E+00  0.00000000000E+00 -0.16879828469E+04  0.16879828469E+04  0.50400001928E-02 0. -1.
    10030    2    1    2    0    0  0.00000000000E+00  0.00000000000E+00 -0.16712427884E+03  0.32088414150E+04  0.32044863398E+04 0.  0.
        5    1    3    3  502    0  0.83160110238E+03  0.12404907102E+04  0.49755706248E+03  0.15741546036E+04  0.46999998093E+01 0.  1.
       -5    1    3    3    0  502 -0.83160110238E+03 -0.12404907102E+04 -0.66468134132E+03  0.16346868113E+04  0.46999998093E+01 0. -1.
</event>
<event>
 5   0  0.3075756E-07  0.3200705E+04  0.7818609E-02  0.8188631E-01
        1   -1    0    0  501    0  0.00000000000E+00  0.00000000000E+00  0.23526349553E+04  0.23526349553E+04  0.50400001928E-02 0.  1.
       -1   -1    0    0    0  501  0.00000000000E+00  0.00000000000E+00 -0.10886210524E+04  0.10886210524E+04  0.50400001928E-02 0. -1.
    10030    2    1    2    0    0  0.00000000000E+00  0.00000000000E+00  0.12640139029E+04  0.34412560077E+04  0.32007048855E+04 0.  0.
        5    1    3    3  502    0 -0.52471618005E+03  0.12626869296E+04  0.15260042248E+04  0.20490037423E+04  0.46999998093E+01 0. -1.
       -5    1    3    3    0  502  0.52471618005E+03 -0.12626869296E+04 -0.26199032194E+03  0.13922522654E+04  0.46999998093E+01 0.  1.
</event>
<event>
 5   0  0.8838951E-07  0.3204552E+04  0.7818609E-02  0.8187616E-01
       -2   -1    0    0    0  501  0.00000000000E+00  0.00000000000E+00  0.12120791211E+04  0.12120791211E+04  0.25500000920E-02 0.  1.
        2   -1    0    0  501    0  0.00000000000E+00  0.00000000000E+00 -0.21180862804E+04  0.21180862804E+04  0.25500000920E-02 0. -1.
    10030    2    1    2    0    0  0.00000000000E+00  0.00000000000E+00 -0.90600715928E+03  0.33301654016E+04  0.32045518609E+04 0.  0.
        2    1    3    3  502    0  0.46746895253E+03  0.13630617373E+04  0.27504646739E+03  0.14670088890E+04  0.25500000920E-02 0.  1.
       -2    1    3    3    0  502 -0.46746895253E+03 -0.13630617373E+04 -0.11810536267E+04  0.18631565126E+04  0.25500000920E-02 0. -1.
</event>
<event>
 5   0  0.8838951E-07  0.3246999E+04  0.7818609E-02  0.8176514E-01
       -2   -1    0    0    0  501  0.00000000000E+00  0.00000000000E+00  0.33042326431E+04  0.33042326431E+04  0.25500000920E-02 0.  1.
        2   -1    0    0  501    0  0.00000000000E+00  0.00000000000E+00 -0.79768922732E+03  0.79768922732E+03  0.25500000920E-02 0. -1.
    10030    2    1    2    0    0  0.00000000000E+00  0.00000000000E+00  0.25065434158E+04  0.41019218705E+04  0.32469990970E+04 0.  0.
        2    1    3    3  502    0 -0.91709300969E+03  0.12488247232E+04  0.64069934821E+03  0.16766390287E+04  0.25500000920E-02 0. -1.
       -2    1    3    3    0  502  0.91709300969E+03 -0.12488247232E+04  0.18658440676E+04  0.24252828417E+04  0.25500000920E-02 0.  1.
</event>
<event>
 5   0  0.8488469E-07  0.3191124E+04  0.7818609E-02  0.8191165E-01
       -2   -1    0    0    0  501  0.00000000000E+00  0.00000000000E+00  0.15305274626E+04  0.15305274626E+04  0.25500000920E-02 0. -1.
        2   -1    0    0  501    0  0.00000000000E+00  0.00000000000E+00 -0.16633600852E+04  0.16633600852E+04  0.25500000920E-02 0.  1.
    10030    2    1    2    0    0  0.00000000000E+00  0.00000000000E+00 -0.13283262252E+03  0.31938875478E+04  0.31911241221E+04 0.  0.
        3    1    3    3  502    0  0.78759468187E+03 -0.54360903489E+03  0.12114046508E+04  0.15437996644E+04  0.10100000352E+00 0. -1.
       -3    1    3    3    0  502 -0.78759468187E+03  0.54360903489E+03 -0.13442372733E+04  0.16500878834E+04  0.10100000352E+00 0.  1.
</event>
<event>
 5   0  0.8335929E-07  0.3198257E+04  0.7818609E-02  0.8189278E-01
       -2   -1    0    0    0  501  0.00000000000E+00  0.00000000000E+00  0.18657545666E+04  0.18657545666E+04  0.25500000920E-02 0.  1.
        2   -1    0    0  501    0  0.00000000000E+00  0.00000000000E+00 -0.13706046840E+04  0.13706046840E+04  0.25500000920E-02 0. -1.
    10030    2    1    2    0    0  0.00000000000E+00  0.00000000000E+00  0.49514988263E+03  0.32363592506E+04  0.31982569929E+04 0.  0.
        4    1    3    3  502    0  0.75931483676E+03 -0.13966994757E+04  0.72651752209E+02  0.15914170845E+04  0.12699999809E+01 0.  1.
       -4    1    3    3    0  502 -0.75931483676E+03  0.13966994757E+04  0.42249813042E+03  0.16449421661E+04  0.12699999809E+01 0. -1.
</event>
<event>
 5   0  0.3013888E-07  0.3202297E+04  0.7818609E-02  0.8188211E-01
       -1   -1    0    0    0  501  0.00000000000E+00  0.00000000000E+00  0.18286183830E+04  0.18286183830E+04  0.50400001928E-02 0. -1.
        1   -1    0    0  501    0  0.00000000000E+00  0.00000000000E+00 -0.14019743404E+04  0.14019743404E+04  0.50400001928E-02 0.  1.
    10030    2    1    2    0    0  0.00000000000E+00  0.00000000000E+00  0.42664404258E+03  0.32305927234E+04  0.32022967079E+04 0.  0.
        1    1    3    3  502    0 -0.15757162215E+04 -0.55835658255E+01  0.50002194298E+03  0.16531590154E+04  0.50400001928E-02 0. -1.
       -1    1    3    3    0  502  0.15757162215E+04  0.55835658255E+01 -0.73377900401E+02  0.15774337080E+04  0.50400001928E-02 0.  1.
</event>
<event>
 5   0  0.8335929E-07  0.3201684E+04  0.7818609E-02  0.8188373E-01
       -2   -1    0    0    0  501  0.00000000000E+00  0.00000000000E+00  0.22782519491E+04  0.22782519491E+04  0.25500000920E-02 0. -1.
        2   -1    0    0  501    0  0.00000000000E+00  0.00000000000E+00 -0.11248511545E+04  0.11248511545E+04  0.25500000920E-02 0.  1.
    10030    2    1    2    0    0  0.00000000000E+00  0.00000000000E+00  0.11534007946E+04  0.34031031036E+04  0.32016835167E+04 0.  0.
        4    1    3    3  502    0 -0.45702330875E+03  0.27447020174E+03 -0.10277272236E+04  0.11577689991E+04  0.12699999809E+01 0.  1.
       -4    1    3    3    0  502  0.45702330875E+03 -0.27447020174E+03  0.21811280181E+04  0.22453341045E+04  0.12699999809E+01 0. -1.
</event>
<event>
 5   0  0.2891204E-07  0.3227569E+04  0.7818609E-02  0.8181574E-01
       -1   -1    0    0    0  501  0.00000000000E+00  0.00000000000E+00  0.12845173656E+04  0.12845173656E+04  0.50400001928E-02 0. -1.
        1   -1    0    0  501    0  0.00000000000E+00  0.00000000000E+00 -0.20274539361E+04  0.20274539362E+04  0.50400001928E-02 0.  1.
    10030    2    1    2    0    0  0.00000000000E+00  0.00000000000E+00 -0.74293657058E+03  0.33119713017E+04  0.32275686136E+04 0.  0.
        4    1    3    3  502    0 -0.82014062264E+03  0.12742517690E+04 -0.94091246776E+03  0.17837225391E+04  0.12699999809E+01 0.  1.
       -4    1    3    3    0  502  0.82014062264E+03 -0.12742517690E+04  0.19797589719E+03  0.15282487626E+04  0.12699999809E+01 0. -1.
</event>
<event>
 5   0  0.8195618E-07  0.3176738E+04  0.7818609E-02  0.8194988E-01
       -2   -1    0    0    0  501  0.00000000000E+00  0.00000000000E+00  0.13206910002E+04  0.13206910002E+04  0.25500000920E-02 0.  1.
        2   -1    0    0  501    0  0.00000000000E+00  0.00000000000E+00 -0.19103000878E+04  0.19103000878E+04  0.25500000920E-02 0. -1.
    10030    2    1    2    0    0  0.00000000000E+00  0.00000000000E+00 -0.58960908760E+03  0.32309910881E+04  0.31767380337E+04 0.  0.
        1    1    3    3  502    0  0.15440174785E+03 -0.15334413266E+04  0.95989063435E+02  0.15441813695E+04  0.50400001928E-02 0.  1.
       -1    1    3    3    0  502 -0.15440174785E+03  0.15334413266E+04 -0.68559815103E+03  0.16868097185E+04  0.50400001928E-02 0. -1.
</event>
<event>
 5   0  0.2997105E-07  0.3195638E+04  0.7818609E-02  0.8189970E-01
       -1   -1    0    0    0  501  0.00000000000E+00  0.00000000000E+00  0.10588552764E+04  0.10588552764E+04  0.50400001928E-02 0.  1.
        1   -1    0    0  501    0  0.00000000000E+00  0.00000000000E+00 -0.24111179359E+04  0.24111179359E+04  0.50400001928E-02 0. -1.
    10030    2    1    2    0    0  0.00000000000E+00  0.00000000000E+00 -0.13522626595E+04  0.34699732123E+04  0.31956376193E+04 0.  0.
        3    1    3    3  502    0  0.57462268841E+03 -0.27129255453E+03  0.91574913672E+03  0.11146243205E+04  0.10100000352E+00 0.  1.
       -3    1    3    3    0  502 -0.57462268841E+03  0.27129255453E+03 -0.22680117962E+04  0.23553488918E+04  0.10100000352E+00 0. -1.
</event>
<event>
 5   0  0.8488469E-07  0.3216218E+04  0.7818609E-02  0.8184547E-01
       -2   -1    0    0    0  501  0.00000000000E+00  0.00000000000E+00  0.14631451943E+04  0.14631451943E+04  0.25500000920E-02 0. -1.
        2   -1    0    0  501    0  0.00000000000E+00  0.00000000000E+00 -0.17674358375E+04  0.17674358375E+04  0.25500000920E-02 0.  1.
    10030    2    1    2    0    0  0.00000000000E+00  0.00000000000E+00 -0.30429064327E+03  0.32305810318E+04  0.32162184328E+04 0.  0.
        3    1    3    3  502    0 -0.24061903256E+03 -0.83454729451E+03 -0.15115732057E+04  0.17433359607E+04  0.10100000352E+00 0.  1.
       -3    1    3    3    0  502  0.24061903256E+03  0.83454729451E+03  0.12072825624E+04  0.14872450710E+04  0.10100000352E+00 0. -1.
</event>
<event>
 5   0  0.3075756E-07  0.3192904E+04  0.7818609E-02  0.8190694E-01
        1   -1    0    0  501    0  0.00000000000E+00  0.00000000000E+00  0.15476793245E+04  0.15476793245E+04  0.50400001928E-02 0.  1.
       -1   -1    0    0    0  501  0.00000000000E+00  0.00000000000E+00 -0.16467615273E+04  0.16467615273E+04  0.50400001928E-02 0. -1.
    10030    2    1    2    0    0  0.00000000000E+00  0.00000000000E+00 -0.99082202825E+02  0.31944408519E+04  0.31929038622E+04 0.  0.
        5    1    3    3  502    0 -0.51945261434E+03 -0.10753342433E+04 -0.11095141384E+04  0.16300976862E+04  0.46999998093E+01 0. -1.
       -5    1    3    3    0  502  0.51945261434E+03  0.10753342433E+04  0.10104319356E+04  0.15643431656E+04  0.46999998093E+01 0.  1.
</event>
<event>
 5   0  0.8195618E-07  0.3206995E+04  0.7818609E-02  0.8186972E-01
       -2   -1    0    0    0  501  0.00000000000E+00  0.00000000000E+00  0.25252335910E+04  0.25252335910E+04  0.25500000920E-02 0. -1.
        2   -1    0    0  501    0  0.00000000000E+00  0.00000000000E+00 -0.10182045187E+04  0.10182045187E+04  0.25500000920E-02 0.  1.
    10030    2    1    2    0    0  0.00000000000E+00  0.00000000000E+00  0.15070290724E+04  0.35434381097E+04  0.32069950128E+04 0.  0.
        1    1    3    3  502    0 -0.47614144046E+03 -0.14599891143E+04  0.12633620082E+04  0.19885578817E+04  0.50400001928E-02 0.  1.
       -1    1    3    3    0  502  0.47614144046E+03  0.14599891143E+04  0.24366706416E+03  0.15548802280E+04  0.50400001928E-02 0. -1.
</event>
<event>
 5   0  0.8488469E-07  0.3168327E+04  0.7818609E-02  0.8197232E-01
       -2   -1    0    0    0  501  0.00000000000E+00  0.00000000000E+00  0.15802104142E+04  0.15802104142E+04  0.25500000920E-02 0.  1.
        2   -1    0    0  501    0  0.00000000000E+00  0.00000000000E+00 -0.15881263216E+04  0.15881263216E+04  0.25500000920E-02 0. -1.
    10030    2    1    2    0    0  0.00000000000E+00  0.00000000000E+00 -0.79159074171E+01  0.31683367359E+04  0.31683268471E+04 0.  0.
        3    1    3    3  502    0 -0.12212226781E+04  0.10052973538E+04 -0.90941806163E+02  0.15843856921E+04  0.10100000352E+00 0.  1.
       -3    1    3    3    0  502  0.12212226781E+04 -0.10052973538E+04  0.83025898746E+02  0.15839510438E+04  0.10100000352E+00 0. -1.
</event>
<event>
 5   0  0.2783875E-07  0.3199750E+04  0.7818609E-02  0.8188883E-01
        3   -1    0    0  501    0  0.00000000000E+00  0.00000000000E+00  0.23630741030E+04  0.23630741051E+04  0.10100000352E+00 0.  1.
       -3   -1    0    0    0  501  0.00000000000E+00  0.00000000000E+00 -0.10831652573E+04  0.10831652620E+04  0.10100000352E+00 0. -1.
    10030    2    1    2    0    0  0.00000000000E+00  0.00000000000E+00  0.12799088457E+04  0.34462393671E+04  0.31997498530E+04 0.  0.
        2    1    3    3  502    0 -0.15327390699E+03 -0.81755956136E+03 -0.83196267135E+03  0.11764601198E+04  0.25500000920E-02 0. -1.
       -2    1    3    3    0  502  0.15327390699E+03  0.81755956136E+03  0.21118715171E+04  0.22697792473E+04  0.25500000920E-02 0.  1.
</event>
<event>
 5   0  0.2891204E-07  0.3016404E+04  0.7818609E-02  0.8239062E-01
        1   -1    0    0  501    0  0.00000000000E+00  0.00000000000E+00  0.18257439825E+04  0.18257439826E+04  0.50400001928E-02 0. -1.
       -1   -1    0    0    0  501  0.00000000000E+00  0.00000000000E+00 -0.12458887531E+04  0.12458887531E+04  0.50400001928E-02 0.  1.
    10030    2    1    2    0    0  0.00000000000E+00  0.00000000000E+00  0.57985522949E+03  0.30716327356E+04  0.30164044118E+04 0.  0.
        4    1    3    3  502    0 -0.26638600835E+03 -0.14154591650E+04  0.74554124648E+03  0.16218259822E+04  0.12699999809E+01 0. -1.
       -4    1    3    3    0  502  0.26638600835E+03  0.14154591650E+04 -0.16568601699E+03  0.14498067535E+04  0.12699999809E+01 0.  1.
</event>
<event>
 5   0  0.2783875E-07  0.3200183E+04  0.7818609E-02  0.8188769E-01
       -1   -1    0    0    0  501  0.00000000000E+00  0.00000000000E+00  0.11325464871E+04  0.11325464871E+04  0.50400001928E-02 0. -1.
        1   -1    0    0  501    0  0.00000000000E+00  0.00000000000E+00 -0.22606516870E+04  0.22606516870E+04  0.50400001928E-02 0.  1.
    10030    2    1    2    0    0  0.00000000000E+00  0.00000000000E+00 -0.11281051999E+04  0.33931981741E+04  0.32001831990E+04 0.  0.
        2    1    3    3  502    0  0.71599636740E+03  0.79570114545E+03 -0.18251138160E+04  0.21158524410E+04  0.25500000920E-02 0.  1.
       -2    1    3    3    0  502 -0.71599636740E+03 -0.79570114545E+03  0.69700861605E+03  0.12773457331E+04  0.25500000920E-02 0. -1.
</event>
<event>
 5   0  0.8335929E-07  0.3193209E+04  0.7818609E-02  0.8190613E-01
        2   -1    0    0  501    0  0.00000000000E+00  0.00000000000E+00  0.27785203359E+04  0.27785203359E+04  0.25500000920E-02 0.  1.
       -2   -1    0    0    0  501  0.00000000000E+00  0.00000000000E+00 -0.91744722412E+03  0.91744722412E+03  0.25500000920E-02 0. -1.
    10030    2    1    2    0    0  0.00000000000E+00  0.00000000000E+00  0.18610731118E+04  0.36959675600E+04  0.31932088997E+04 0.  0.
        4    1    3    3  502    0  0.68696671629E+03  0.14205284452E+04  0.64863287642E+03  0.17060335736E+04  0.12699999809E+01 0. -1.
       -4    1    3    3    0  502 -0.68696671629E+03 -0.14205284452E+04  0.12124402354E+04  0.19899339864E+04  0.12699999809E+01 0.  1.
</event>
<event>
 5   0  0.8195618E-07  0.3223141E+04  0.7818609E-02  0.8182732E-01
       -2   -1    0    0    0  501  0.00000000000E+00  0.00000000000E+00  0.14508657796E+04  0.14508657796E+04  0.25500000920E-02 0.  1.
        2   -1    0    0  501    0  0.00000000000E+00  0.00000000000E+00 -0.17900755239E+04  0.17900755239E+04  0.25500000920E-02 0. -1.
    10030    2    1    2    0    0  0.00000000000E+00  0.00000000000E+00 -0.33920974433E+03  0.32409413035E+04  0.32231409032E+04 0.  0.
        1    1    3    3  502    0 -0.21167689527E+03  0.13311764837E+04  0.71863165264E+03  0.15275043015E+04  0.50400001928E-02 0.  1.
       -1    1    3    3    0  502  0.21167689527E+03 -0.13311764837E+04 -0.10578413970E+04  0.17134370020E+04  0.50400001928E-02 0. -1.
</event>
<event>
 5   0  0.3013888E-07  0.3194647E+04  0.7818609E-02  0.8190232E-01
       -1   -1    0    0    0  501  0.00000000000E+00  0.00000000000E+00  0.12441389237E+04  0.12441389237E+04  0.50400001928E-02 0. -1.
        1   -1    0    0  501    0  0.00000000000E+00  0.00000000000E+00 -0.20507698497E+04  0.20507698497E+04  0.50400001928E-02 0.  1.
    10030    2    1    2    0    0  0.00000000000E+00  0.00000000000E+00 -0.80663092594E+03  0.32949087734E+04  0.31946471439E+04 0.  0.
        1    1    3    3  502    0 -0.95788911469E+03 -0.31480361246E+03  0.87443174208E+03  0.13346474224E+04  0.50400001928E-02 0. -1.
       -1    1    3    3    0  502  0.95788911469E+03  0.31480361246E+03 -0.16810626680E+04  0.19602613510E+04  0.50400001928E-02 0.  1.
</event>
<event>
 5   0  0.8802800E-07  0.3193142E+04  0.7818609E-02  0.8190631E-01
        2   -1    0    0  501    0  0.00000000000E+00  0.00000000000E+00  0.16387093849E+04  0.16387093849E+04  0.25500000920E-02 0. -1.
       -2   -1    0    0    0  501  0.00000000000E+00  0.00000000000E+00 -0.15555164374E+04  0.15555164374E+04  0.25500000920E-02 0.  1.
    10030    2    1    2    0    0  0.00000000000E+00  0.00000000000E+00  0.83192947527E+02  0.31942258222E+04  0.31931422669E+04 0.  0.
        5    1    3    3  502    0  0.14844515999E+04  0.22590993102E+03 -0.50116062764E+03  0.15829769152E+04  0.46999998093E+01 0.  1.
       -5    1    3    3    0  502 -0.14844515999E+04 -0.22590993102E+03  0.58435357516E+03  0.16112489070E+04  0.46999998093E+01 0. -1.
</event>
<event>
 5   0  0.2891204E-07  0.3193278E+04  0.7818609E-02  0.8190595E-01
       -1   -1    0    0    0  501  0.00000000000E+00  0.00000000000E+00  0.10363671100E+04  0.10363671100E+04  0.50400001928E-02 0. -1.
        1   -1    0    0  501    0  0.00000000000E+00  0.00000000000E+00 -0.24598005365E+04  0.24598005365E+04  0.50400001928E-02 0.  1.
    10030    2    1    2    0    0  0.00000000000E+00  0.00000000000E+00 -0.14234334264E+04  0.34961676465E+04  0.31932781734E+04 0.  0.
        4    1    3    3  502    0 -0.19941760062E+03  0.15362996947E+04 -0.28871446250E+03  0.15758622355E+04  0.12699999809E+01 0. -1.
       -4    1    3    3    0  502  0.19941760062E+03 -0.15362996947E+04 -0.11347189639E+04  0.19203054110E+04  0.12699999809E+01 0.  1.
</event>
<event>
 5   0  0.2997105E-07  0.3210222E+04  0.7818609E-02  0.8186123E-01
       -1   -1    0    0    0  501  0.00000000000E+00  0.00000000000E+00  0.13614761446E+04  0.13614761446E+04  0.50400001928E-02 0.  1.
        1   -1    0    0  501    0  0.00000000000E+00  0.00000000000E+00 -0.18923442471E+04  0.18923442471E+04  0.50400001928E-02 0. -1.
    10030    2    1    2    0    0  0.00000000000E+00  0.00000000000E+00 -0.53086810255E+03  0.32538203917E+04  0.32102221417E+04 0.  0.
        3    1    3    3  502    0  0.23159680845E+03  0.75340662123E+03  0.11518128768E+04  0.13956831775E+04  0.10100000352E+00 0.  1.
       -3    1    3    3    0  502 -0.23159680845E+03 -0.75340662123E+03 -0.16826809793E+04  0.18581372142E+04  0.10100000352E+00 0. -1.
</event>
<event>
 5   0  0.2783875E-07  0.3200275E+04  0.7818609E-02  0.8188745E-01
       -1   -1    0    0    0  501  0.00000000000E+00  0.00000000000E+00  0.17713358672E+04  0.17713358672E+04  0.50400001928E-02 0. -1.
        1   -1    0    0  501    0  0.00000000000E+00  0.00000000000E+00 -0.14454851033E+04  0.14454851033E+04  0.50400001928E-02 0.  1.
    10030    2    1    2    0    0  0.00000000000E+00  0.00000000000E+00  0.32585076397E+03  0.32168209705E+04  0.32002747438E+04 0.  0.
        2    1    3    3  502    0 -0.16897759104E+03 -0.10526830147E+04  0.13623022824E+04  0.17299024436E+04  0.25500000920E-02 0. -1.
       -2    1    3    3    0  502  0.16897759104E+03  0.10526830147E+04 -0.10364515184E+04  0.14869185269E+04  0.25500000920E-02 0.  1.
</event>
<event>
 5   0  0.8335929E-07  0.3199800E+04  0.7818609E-02  0.8188870E-01
        2   -1    0    0  501    0  0.00000000000E+00  0.00000000000E+00  0.23668804587E+04  0.23668804587E+04  0.25500000920E-02 0. -1.
       -2   -1    0    0    0  501  0.00000000000E+00  0.00000000000E+00 -0.10814572850E+04  0.10814572850E+04  0.25500000920E-02 0.  1.
    10030    2    1    2    0    0  0.00000000000E+00  0.00000000000E+00  0.12854231738E+04  0.34483377437E+04  0.31998000654E+04 0.  0.
        4    1    3    3  502    0  0.12674223551E+04  0.59583647930E+03 -0.19086539910E+03  0.14134396874E+04  0.12699999809E+01 0.  1.
       -4    1    3    3    0  502 -0.12674223551E+04 -0.59583647930E+03  0.14762885729E+04  0.20348980563E+04  0.12699999809E+01 0. -1.
</event>
<event>
 5   0  0.3013888E-07  0.3218428E+04  0.7818609E-02  0.8183967E-01
        1   -1    0    0  501    0  0.00000000000E+00  0.00000000000E+00  0.25545121029E+04  0.25545121029E+04  0.50400001928E-02 0.  1.
       -1   -1    0    0    0  501  0.00000000000E+00  0.00000000000E+00 -0.10137234951E+04  0.10137234951E+04  0.50400001928E-02 0. -1.
    10030    2    1    2    0    0  0.00000000000E+00  0.00000000000E+00  0.15407886078E+04  0.35682355980E+04  0.32184275273E+04 0.  0.
        1    1    3    3  502    0 -0.12195209344E+04  0.64793974781E+03  0.16863296974E+04  0.21796249848E+04  0.50400001928E-02 0.  1.
       -1    1    3    3    0  502  0.12195209344E+04 -0.64793974781E+03 -0.14554108961E+03  0.13886106131E+04  0.50400001928E-02 0. -1.
</event>
<event>
 5   0  0.2997105E-07  0.3205756E+04  0.7818609E-02  0.8187299E-01
       -1   -1    0    0    0  501  0.00000000000E+00  0.00000000000E+00  0.11669307187E+04  0.11669307187E+04  0.50400001928E-02 0. -1.
        1   -1    0    0  501    0  0.00000000000E+00  0.00000000000E+00 -0.22016883119E+04  0.22016883119E+04  0.50400001928E-02 0.  1.
    10030    2    1    2    0    0  0.00000000000E+00  0.00000000000E+00 -0.10347575932E+04  0.33686190306E+04  0.32057559010E+04 0.  0.
        3    1    3    3  502    0  0.15638068308E+04 -0.10141196147E+03 -0.87130072669E+03  0.17930256988E+04  0.10100000352E+00 0.  1.
       -3    1    3    3    0  502 -0.15638068308E+04  0.10141196147E+03 -0.16345686651E+03  0.15755933319E+04  0.10100000352E+00 0. -1.
</event>
<event>
 5   0  0.8838951E-07  0.3201724E+04  0.7818609E-02  0.8188362E-01
        2   -1    0    0  501    0  0.00000000000E+00  0.00000000000E+00  0.18557337454E+04  0.18557337454E+04  0.25500000920E-02 0.  1.
       -2   -1    0    0    0  501  0.00000000000E+00  0.00000000000E+00 -0.13809952088E+04  0.13809952088E+04  0.25500000920E-02 0. -1.
    10030    2    1    2    0    0  0.00000000000E+00  0.00000000000E+00  0.47473853661E+03  0.32367289541E+04  0.32017241674E+04 0.  0.
        2    1    3    3  502    0 -0.11230852898E+04 -0.26387256708E+03  0.13593729990E+04  0.17829313644E+04  0.25500000920E-02 0.  1.
       -2    1    3    3    0  502  0.11230852898E+04  0.26387256708E+03 -0.88463446241E+03  0.14537975897E+04  0.25500000920E-02 0. -1.
</event>
<event>
 5   0  0.8335929E-07  0.3194994E+04  0.7818609E-02  0.8190140E-01
        2   -1    0    0  501    0  0.00000000000E+00  0.00000000000E+00  0.14319961323E+04  0.14319961323E+04  0.25500000920E-02 0.  1.
       -2   -1    0    0    0  501  0.00000000000E+00  0.00000000000E+00 -0.17821255380E+04  0.17821255380E+04  0.25500000920E-02 0. -1.
    10030    2    1    2    0    0  0.00000000000E+00  0.00000000000E+00 -0.35012940575E+03  0.32141216703E+04  0.31949941332E+04 0.  0.
        4    1    3    3  502    0  0.86429578081E+03 -0.12724343061E+04  0.25867660064E+03  0.15598113529E+04  0.12699999809E+01 0.  1.
       -4    1    3    3    0  502 -0.86429578081E+03  0.12724343061E+04 -0.60880600639E+03  0.16543103174E+04  0.12699999809E+01 0. -1.
</event>
<event>
 5   0  0.3075756E-07  0.3207826E+04  0.7818609E-02  0.8186753E-01
       -1   -1    0    0    0  501  0.00000000000E+00  0.00000000000E+00  0.14125101628E+04  0.14125101628E+04  0.50400001928E-02 0.  1.
        1   -1    0    0  501    0  0.00000000000E+00  0.00000000000E+00 -0.18212522714E+04  0.18212522715E+04  0.50400001928E-02 0. -1.
    10030    2    1    2    0    0  0.00000000000E+00  0.00000000000E+00 -0.40874210865E+03  0.32337624343E+04  0.32078262686E+04 0.  0.
        5    1    3    3  502    0 -0.17374041077E+03 -0.11167300831E+04 -0.13516604342E+04  0.17618966565E+04  0.46999998093E+01 0. -1.
       -5    1    3    3    0  502  0.17374041077E+03  0.11167300831E+04  0.94291832560E+03  0.14718657777E+04  0.46999998093E+01 0.  1.
</event>
<event>
 5   0  0.8335929E-07  0.3167484E+04  0.7818609E-02  0.8197458E-01
        2   -1    0    0  501    0  0.00000000000E+00  0.00000000000E+00  0.18409049715E+04  0.18409049715E+04  0.25500000920E-02 0.  1.
       -2   -1    0    0    0  501  0.00000000000E+00  0.00000000000E+00 -0.13625034502E+04  0.13625034502E+04  0.25500000920E-02 0. -1.
    10030    2    1    2    0    0  0.00000000000E+00  0.00000000000E+00  0.47840152130E+03  0.32034084217E+04  0.31674844120E+04 0.  0.
        4    1    3    3  502    0 -0.86380365941E+03  0.39842337237E+03 -0.10413907415E+04  0.14104588740E+04  0.12699999809E+01 0. -1.
       -4    1    3    3    0  502  0.86380365941E+03 -0.39842337237E+03  0.15197922628E+04  0.17929495477E+04  0.12699999809E+01 0.  1.
</event>
<event>
 5   0  0.2783875E-07  0.3192563E+04  0.7818609E-02  0.8190784E-01
       -1   -1    0    0    0  501  0.00000000000E+00  0.00000000000E+00  0.15311501835E+04  0.15311501835E+04  0.50400001928E-02 0.  1.
        1   -1    0    0  501    0  0.00000000000E+00  0.00000000000E+00 -0.16641836196E+04  0.16641836196E+04  0.50400001928E-02 0. -1.
    10030    2    1    2    0    0  0.00000000000E+00  0.00000000000E+00 -0.13303343610E+03  0.31953338032E+04  0.31925632677E+04 0.  0.
        2    1    3    3  502    0  0.31309982570E+03 -0.73466863629E+03 -0.14498686681E+04  0.16552609041E+04  0.25500000920E-02 0. -1.
       -2    1    3    3    0  502 -0.31309982570E+03  0.73466863629E+03  0.13168352320E+04  0.15400728990E+04  0.25500000920E-02 0.  1.
</event>
<event>
 5   0  0.8802800E-07  0.3210980E+04  0.7818609E-02  0.8185923E-01
       -2   -1    0    0    0  501  0.00000000000E+00  0.00000000000E+00  0.81425214526E+03  0.81425214526E+03  0.25500000920E-02 0. -1.
        2   -1    0    0  501    0  0.00000000000E+00  0.00000000000E+00 -0.31656014479E+04  0.31656014479E+04  0.25500000920E-02 0.  1.
    10030    2    1    2    0    0  0.00000000000E+00  0.00000000000E+00 -0.23513493026E+04  0.39798535932E+04  0.32109797695E+04 0.  0.
        5    1    3    3  502    0  0.30265404433E+03  0.52707285404E+02  0.77747362546E+03  0.83598137345E+03  0.46999998093E+01 0. -1.
       -5    1    3    3    0  502 -0.30265404433E+03 -0.52707285404E+02 -0.31288229281E+04  0.31438722197E+04  0.46999998093E+01 0.  1.
</event>
<event>
 5   0  0.2891204E-07  0.3203728E+04  0.7818609E-02  0.8187833E-01
       -1   -1    0    0    0  501  0.00000000000E+00  0.00000000000E+00  0.10860948907E+04  0.10860948907E+04  0.50400001928E-02 0. -1.
        1   -1    0    0  501    0  0.00000000000E+00  0.00000000000E+00 -0.23625637181E+04  0.23625637181E+04  0.50400001928E-02 0.  1.
    10030    2    1    2    0    0  0.00000000000E+00  0.00000000000E+00 -0.12764688274E+04  0.34486586088E+04  0.32037280678E+04 0.  0.
        4    1    3    3  502    0 -0.95008251470E+03  0.12742451556E+04 -0.42399815667E+03  0.16450329939E+04  0.12699999809E+01 0. -1.
       -4    1    3    3    0  502  0.95008251470E+03 -0.12742451556E+04 -0.85247067075E+03  0.18036256149E+04  0.12699999809E+01 0.  1.
</event>
<event>
 5   0  0.8488469E-07  0.3182160E+04  0.7818609E-02  0.8193545E-01
       -2   -1    0    0    0  501  0.00000000000E+00  0.00000000000E+00  0.11773689377E+04  0.11773689377E+04  0.25500000920E-02 0. -1.
        2   -1    0    0  501    0  0.00000000000E+00  0.00000000000E+00 -0.21501629311E+04  0.21501629311E+04  0.25500000920E-02 0.  1.
    10030    2    1    2    0    0  0.00000000000E+00  0.00000000000E+00 -0.97279399345E+03  0.33275318688E+04  0.31821596729E+04 0.  0.
        3    1    3    3  502    0 -0.30472132849E+03 -0.72747407005E+03  0.95856258911E+03  0.12413363195E+04  0.10100000352E+00 0. -1.
       -3    1    3    3    0  502  0.30472132849E+03  0.72747407005E+03 -0.19313565826E+04  0.20861955493E+04  0.10100000352E+00 0.  1.
</event>
<event>
 5   0  0.2783875E-07  0.3192528E+04  0.7818609E-02  0.8190793E-01
       -4   -1    0    0    0  501  0.00000000000E+00  0.00000000000E+00  0.12347151233E+04  0.12347157765E+04  0.12699999809E+01 0. -1.
        4   -1    0    0  501    0  0.00000000000E+00  0.00000000000E+00 -0.20636796799E+04  0.20636800707E+04  0.12699999809E+01 0.  1.
    10030    2    1    2    0    0  0.00000000000E+00  0.00000000000E+00 -0.82896455660E+03  0.32983958472E+04  0.31925276708E+04 0.  0.
        5    1    3    3  502    0 -0.16559937725E+03 -0.94005909461E+02  0.12229319033E+04  0.12376771772E+04  0.46999998093E+01 0. -1.
       -5    1    3    3    0  502  0.16559937725E+03  0.94005909461E+02 -0.20518964599E+04  0.20607186700E+04  0.46999998093E+01 0.  1.
</event>
<event>
 5   0  0.8838951E-07  0.3199685E+04  0.7818609E-02  0.8188900E-01
        2   -1    0    0  501    0  0.00000000000E+00  0.00000000000E+00  0.25885308810E+04  0.25885308810E+04  0.25500000920E-02 0. -1.
       -2   -1    0    0    0  501  0.00000000000E+00  0.00000000000E+00 -0.98878322386E+03  0.98878322386E+03  0.25500000920E-02 0.  1.
    10030    2    1    2    0    0  0.00000000000E+00  0.00000000000E+00  0.15997476571E+04  0.35773141049E+04  0.31996849280E+04 0.  0.
        2    1    3    3  502    0  0.19705403120E+03 -0.70020168090E+03  0.23929585319E+04  0.25010724141E+04  0.25500000920E-02 0. -1.
       -2    1    3    3    0  502 -0.19705403120E+03  0.70020168090E+03 -0.79321087475E+03  0.10762416908E+04  0.25500000920E-02 0.  1.
</event>
<event>
 5   0  0.2783875E-07  0.3206921E+04  0.7818609E-02  0.8186992E-01
       -3   -1    0    0    0  501  0.00000000000E+00  0.00000000000E+00  0.10854624520E+04  0.10854624567E+04  0.10100000352E+00 0. -1.
        3   -1    0    0  501    0  0.00000000000E+00  0.00000000000E+00 -0.23686552760E+04  0.23686552781E+04  0.10100000352E+00 0.  1.
    10030    2    1    2    0    0  0.00000000000E+00  0.00000000000E+00 -0.12831928240E+04  0.34541177348E+04  0.32069214993E+04 0.  0.
        3    1    3    3  502    0 -0.12768145794E+04  0.67764218314E+03  0.10589543401E+03  0.14493682250E+04  0.10100000352E+00 0. -1.
       -3    1    3    3    0  502  0.12768145794E+04 -0.67764218314E+03 -0.13890882580E+04  0.20047495098E+04  0.10100000352E+00 0.  1.
</event>
<event>
 5   0  0.8335929E-07  0.3196036E+04  0.7818609E-02  0.8189865E-01
       -2   -1    0    0    0  501  0.00000000000E+00  0.00000000000E+00  0.99872588189E+03  0.99872588189E+03  0.25500000920E-02 0. -1.
        2   -1    0    0  501    0  0.00000000000E+00  0.00000000000E+00 -0.25569191070E+04  0.25569191070E+04  0.25500000920E-02 0.  1.
    10030    2    1    2    0    0  0.00000000000E+00  0.00000000000E+00 -0.15581932251E+04  0.35556449889E+04  0.31960358509E+04 0.  0.
        4    1    3    3  502    0 -0.11816589702E+04 -0.75027995914E+03  0.78640283601E+02  0.14019357497E+04  0.12699999809E+01 0.  1.
       -4    1    3    3    0  502  0.11816589702E+04  0.75027995914E+03 -0.16368335087E+04  0.21537092393E+04  0.12699999809E+01 0. -1.
</event>
<event>
 5   0  0.8802800E-07  0.3201296E+04  0.7818609E-02  0.8188475E-01
       -2   -1    0    0    0  501  0.00000000000E+00  0.00000000000E+00  0.13539678672E+04  0.13539678672E+04  0.25500000920E-02 0.  1.
        2   -1    0    0  501    0  0.00000000000E+00  0.00000000000E+00 -0.18922703825E+04  0.18922703825E+04  0.25500000920E-02 0. -1.
    10030    2    1    2    0    0  0.00000000000E+00  0.00000000000E+00 -0.53830251529E+03  0.32462382497E+04  0.32012955465E+04 0.  0.
        5    1    3    3  502    0 -0.32574093214E+03  0.30088987976E+03 -0.18287316731E+04  0.18817341728E+04  0.46999998093E+01 0. -1.
       -5    1    3    3    0  502  0.32574093214E+03 -0.30088987976E+03  0.12904291579E+04  0.13645040770E+04  0.46999998093E+01 0.  1.
</event>
<event>
 5   0  0.2891204E-07  0.3181416E+04  0.7818609E-02  0.8193742E-01
       -1   -1    0    0    0  501  0.00000000000E+00  0.00000000000E+00  0.10176299777E+04  0.10176299777E+04  0.50400001928E-02 0.  1.
        1   -1    0    0  501    0  0.00000000000E+00  0.00000000000E+00 -0.24865151025E+04  0.24865151026E+04  0.50400001928E-02 0. -1.
    10030    2    1    2    0    0  0.00000000000E+00  0.00000000000E+00 -0.14688851248E+04  0.35041450803E+04  0.31814162308E+04 0.  0.
        4    1    3    3  502    0 -0.41942196262E+03  0.93963289854E+03 -0.20705628113E+04  0.23121541331E+04  0.12699999809E+01 0. -1.
       -4    1    3    3    0  502  0.41942196262E+03 -0.93963289854E+03  0.60167768653E+03  0.11919909472E+04  0.12699999809E+01 0.  1.
</event>
<event>
 5   0  0.2783875E-07  0.3200672E+04  0.7818609E-02  0.8188640E-01
        1   -1    0    0  501    0  0.00000000000E+00  0.00000000000E+00  0.17454994111E+04  0.17454994111E+04  0.50400001928E-02 0. -1.
       -1   -1    0    0    0  501  0.00000000000E+00  0.00000000000E+00 -0.14672447987E+04  0.14672447987E+04  0.50400001928E-02 0.  1.
    10030    2    1    2    0    0  0.00000000000E+00  0.00000000000E+00  0.27825461235E+03  0.32127442098E+04  0.32006717620E+04 0.  0.
        2    1    3    3  502    0  0.84643820031E+03  0.81103801901E+03 -0.95440122191E+03  0.15116619952E+04  0.25500000920E-02 0.  1.
       -2    1    3    3    0  502 -0.84643820031E+03 -0.81103801901E+03  0.12326558343E+04  0.17010822146E+04  0.25500000920E-02 0. -1.
</event>
<event>
 5   0  0.8802800E-07  0.3209429E+04  0.7818609E-02  0.8186331E-01
       -2   -1    0    0    0  501  0.00000000000E+00  0.00000000000E+00  0.14002798897E+04  0.14002798897E+04  0.25500000920E-02 0.  1.
        2   -1    0    0  501    0  0.00000000000E+00  0.00000000000E+00 -0.18389957058E+04  0.18389957058E+04  0.25500000920E-02 0. -1.
    10030    2    1    2    0    0  0.00000000000E+00  0.00000000000E+00 -0.43871581613E+03  0.32392755955E+04  0.32094290484E+04 0.  0.
        5    1    3    3  502    0 -0.49436283763E+03 -0.13927836279E+04 -0.85034841463E+03  0.17050968786E+04  0.46999998093E+01 0. -1.
       -5    1    3    3    0  502  0.49436283763E+03  0.13927836279E+04  0.41163259850E+03  0.15341787169E+04  0.46999998093E+01 0.  1.
</event>
<event>
 5   0  0.2997105E-07  0.3195959E+04  0.7818609E-02  0.8189885E-01
       -1   -1    0    0    0  501  0.00000000000E+00  0.00000000000E+00  0.15393234294E+04  0.15393234294E+04  0.50400001928E-02 0. -1.
        1   -1    0    0  501    0  0.00000000000E+00  0.00000000000E+00 -0.16588709053E+04  0.16588709053E+04  0.50400001928E-02 0.  1.
    10030    2    1    2    0    0  0.00000000000E+00  0.00000000000E+00 -0.11954747584E+03  0.31981943347E+04  0.31959592306E+04 0.  0.
        3    1    3    3  502    0 -0.78448409670E+03 -0.10506573403E+04 -0.97378137709E+03  0.16332624790E+04  0.10100000352E+00 0. -1.
       -3    1    3    3    0  502  0.78448409670E+03  0.10506573403E+04  0.85423390125E+03  0.15649318557E+04  0.10100000352E+00 0.  1.
</event>
<event>
 5   0  0.8195618E-07  0.3199414E+04  0.7818609E-02  0.8188972E-01
       -2   -1    0    0    0  501  0.00000000000E+00  0.00000000000E+00  0.14260754731E+04  0.14260754731E+04  0.25500000920E-02 0. -1.
        2   -1    0    0  501    0  0.00000000000E+00  0.00000000000E+00 -0.17944785413E+04  0.17944785413E+04  0.25500000920E-02 0.  1.
    10030    2    1    2    0    0  0.00000000000E+00  0.00000000000E+00 -0.36840306819E+03  0.32205540145E+04  0.31994135931E+04 0.  0.
        1    1    3    3  502    0 -0.53103379846E+03 -0.89877410581E+03 -0.14043453251E+04  0.17498507310E+04  0.50400001928E-02 0.  1.
       -1    1    3    3    0  502  0.53103379846E+03  0.89877410581E+03  0.10359422569E+04  0.14707032835E+04  0.50400001928E-02 0. -1.
</event>
<event>
 5   0  0.3013888E-07  0.3224978E+04  0.7818609E-02  0.8182252E-01
       -1   -1    0    0    0  501  0.00000000000E+00  0.00000000000E+00  0.25399976205E+04  0.25399976205E+04  0.50400001928E-02 0.  1.
        1   -1    0    0  501    0  0.00000000000E+00  0.00000000000E+00 -0.10236705924E+04  0.10236705924E+04  0.50400001928E-02 0. -1.
    10030    2    1    2    0    0  0.00000000000E+00  0.00000000000E+00  0.15163270280E+04  0.35636682129E+04  0.32249780582E+04 0.  0.
        1    1    3    3  502    0 -0.12594109598E+04 -0.89858465628E+03  0.12603715343E+04  0.19955216748E+04  0.50400001928E-02 0.  1.
       -1    1    3    3    0  502  0.12594109598E+04  0.89858465628E+03  0.25595549370E+03  0.15681465381E+04  0.50400001928E-02 0. -1.
</event>
<event>
 5   0  0.8195618E-07  0.3175998E+04  0.7818609E-02  0.8195185E-01
       -2   -1    0    0    0  501  0.00000000000E+00  0.00000000000E+00  0.10716408595E+04  0.10716408595E+04  0.25500000920E-02 0.  1.
        2   -1    0    0  501    0  0.00000000000E+00  0.00000000000E+00 -0.23531590330E+04  0.23531590330E+04  0.25500000920E-02 0. -1.
    10030    2    1    2    0    0  0.00000000000E+00  0.00000000000E+00 -0.12815181735E+04  0.34247998925E+04  0.31759983429E+04 0.  0.
        1    1    3    3  502    0  0.39983584774E+03  0.77871458726E+03  0.78797831448E+03  0.11777839096E+04  0.50400001928E-02 0.  1.
       -1    1    3    3    0  502 -0.39983584774E+03 -0.77871458726E+03 -0.20694964880E+04  0.22470159829E+04  0.50400001928E-02 0. -1.
</event>
<event>
 5   0  0.8195618E-07  0.3186474E+04  0.7818609E-02  0.8192399E-01
        2   -1    0    0  501    0  0.00000000000E+00  0.00000000000E+00  0.15263373067E+04  0.15263373067E+04  0.25500000920E-02 0.  1.
       -2   -1    0    0    0  501  0.00000000000E+00  0.00000000000E+00 -0.16630686443E+04  0.16630686443E+04  0.25500000920E-02 0. -1.
    10030    2    1    2    0    0  0.00000000000E+00  0.00000000000E+00 -0.13673133761E+03  0.31894059509E+04  0.31864737346E+04 0.  0.
        1    1    3    3  502    0 -0.24974957836E+03  0.98250177117E+03  0.11618785191E+04  0.15419618268E+04  0.50400001928E-02 0.  1.
       -1    1    3    3    0  502  0.24974957836E+03 -0.98250177117E+03 -0.12986098567E+04  0.16474441241E+04  0.50400001928E-02 0. -1.
</event>
<event>
 5   0  0.8802800E-07  0.3189073E+04  0.7818609E-02  0.8191709E-01
        2   -1    0    0  501    0  0.00000000000E+00  0.00000000000E+00  0.14664825520E+04  0.14664825520E+04  0.25500000920E-02 0. -1.
       -2   -1    0    0    0  501  0.00000000000E+00  0.00000000000E+00 -0.17337726364E+04  0.17337726364E+04  0.25500000920E-02 0.  1.
    10030    2    1    2    0    0  0.00000000000E+00  0.00000000000E+00 -0.26729008435E+03  0.32002551884E+04  0.31890734206E+04 0.  0.
        5    1    3    3  502    0 -0.85353509139E+03  0.12991795208E+04  0.22275604404E+03  0.15703604442E+04  0.46999998093E+01 0. -1.
       -5    1    3    3    0  502  0.85353509139E+03 -0.12991795208E+04 -0.49004612839E+03  0.16298947443E+04  0.46999998093E+01 0.  1.
</event>
<event>
 5   0  0.8488469E-07  0.3180912E+04  0.7818609E-02  0.8193876E-01
        2   -1    0    0  501    0  0.00000000000E+00  0.00000000000E+00  0.14138240772E+04  0.14138240772E+04  0.25500000920E-02 0.  1.
       -2   -1    0    0    0  501  0.00000000000E+00  0.00000000000E+00 -0.17891553177E+04  0.17891553177E+04  0.25500000920E-02 0. -1.
    10030    2    1    2    0    0  0.00000000000E+00  0.00000000000E+00 -0.37533124056E+03  0.32029793949E+04  0.31809123635E+04 0.  0.
        3    1    3    3  502    0 -0.95559971413E+03 -0.35042100622E+03 -0.14182671078E+04  0.17456939292E+04  0.10100000352E+00 0. -1.
       -3    1    3    3    0  502  0.95559971413E+03  0.35042100622E+03  0.10429358672E+04  0.14572854657E+04  0.10100000352E+00 0.  1.
</event>
<event>
 5   0  0.2783875E-07  0.3276548E+04  0.7818609E-02  0.8168889E-01
       -1   -1    0    0    0  501  0.00000000000E+00  0.00000000000E+00  0.15538664148E+04  0.15538664149E+04  0.50400001928E-02 0. -1.
        1   -1    0    0  501    0  0.00000000000E+00  0.00000000000E+00 -0.17272664173E+04  0.17272664173E+04  0.50400001928E-02 0.  1.
    10030    2    1    2    0    0  0.00000000000E+00  0.00000000000E+00 -0.17340000246E+03  0.32811328322E+04  0.32765477414E+04 0.  0.
        2    1    3    3  502    0 -0.21614783582E+03 -0.15652861487E+04  0.34645663605E+03  0.16176751265E+04  0.25500000920E-02 0. -1.
       -2    1    3    3    0  502  0.21614783582E+03  0.15652861487E+04 -0.51985663851E+03  0.16634577057E+04  0.25500000920E-02 0.  1.
</event>
<event>
 5   0  0.2997105E-07  0.3205997E+04  0.7818609E-02  0.8187235E-01
        1   -1    0    0  501    0  0.00000000000E+00  0.00000000000E+00  0.13100587716E+04  0.13100587716E+04  0.50400001928E-02 0.  1.
       -1   -1    0    0    0  501  0.00000000000E+00  0.00000000000E+00 -0.19614423895E+04  0.19614423896E+04  0.50400001928E-02 0. -1.
    10030    2    1    2    0    0  0.00000000000E+00  0.00000000000E+00 -0.65138361796E+03  0.32715011611E+04  0.32059973845E+04 0.  0.
        3    1    3    3  502    0  0.72712750320E+03  0.73228340388E+03  0.92601283334E+03  0.13865255740E+04  0.10100000352E+00 0.  1.
       -3    1    3    3    0  502 -0.72712750320E+03 -0.73228340388E+03 -0.15773964513E+04  0.18849755872E+04  0.10100000352E+00 0. -1.
</event>
<event>
 5   0  0.2783875E-07  0.3244030E+04  0.7818609E-02  0.8177285E-01
       -1   -1    0    0    0  501  0.00000000000E+00  0.00000000000E+00  0.13980272630E+04  0.13980272630E+04  0.50400001928E-02 0.  1.
        1   -1    0    0  501    0  0.00000000000E+00  0.00000000000E+00 -0.18818894577E+04  0.18818894577E+04  0.50400001928E-02 0. -1.
    10030    2    1    2    0    0  0.00000000000E+00  0.00000000000E+00 -0.48386219475E+03  0.32799167207E+04  0.32440300664E+04 0.  0.
        2    1    3    3  502    0 -0.14268396269E+03  0.10184235199E+04 -0.15101546261E+04  0.18270501289E+04  0.25500000920E-02 0. -1.
       -2    1    3    3    0  502  0.14268396269E+03 -0.10184235199E+04  0.10262924313E+04  0.14528665918E+04  0.25500000920E-02 0.  1.
</event>
<event>
 5   0  0.3013888E-07  0.3192947E+04  0.7818609E-02  0.8190682E-01
       -1   -1    0    0    0  501  0.00000000000E+00  0.00000000000E+00  0.13405661668E+04  0.13405661668E+04  0.50400001928E-02 0. -1.
        1   -1    0    0  501    0  0.00000000000E+00  0.00000000000E+00 -0.19012327024E+04  0.19012327025E+04  0.50400001928E-02 0.  1.
    10030    2    1    2    0    0  0.00000000000E+00  0.00000000000E+00 -0.56066653562E+03  0.32417988693E+04  0.31929473758E+04 0.  0.
        1    1    3    3  502    0  0.11417624512E+03 -0.15851493740E+04 -0.12637724237E+03  0.15942728625E+04  0.50400001928E-02 0.  1.
       -1    1    3    3    0  502 -0.11417624512E+03  0.15851493740E+04 -0.43428929325E+03  0.16475260068E+04  0.50400001928E-02 0. -1.
</event>
<event>
 5   0  0.8195618E-07  0.3173525E+04  0.7818609E-02  0.8195844E-01
       -2   -1    0    0    0  501  0.00000000000E+00  0.00000000000E+00  0.10144732108E+04  0.10144732108E+04  0.25500000920E-02 0.  1.
        2   -1    0    0  501    0  0.00000000000E+00  0.00000000000E+00 -0.24818942886E+04  0.24818942886E+04  0.25500000920E-02 0. -1.
    10030    2    1    2    0    0  0.00000000000E+00  0.00000000000E+00 -0.14674210778E+04  0.34963674995E+04  0.31735250230E+04 0.  0.
        1    1    3    3  502    0 -0.13252425890E+04 -0.53582901417E+03  0.25152379816E+02  0.14296899294E+04  0.50400001928E-02 0.  1.
       -1    1    3    3    0  502  0.13252425890E+04  0.53582901417E+03 -0.14925734576E+04  0.20666775700E+04  0.50400001928E-02 0. -1.
</event>
<event>
 5   0  0.2997105E-07  0.3186697E+04  0.7818609E-02  0.8192339E-01
       -1   -1    0    0    0  501  0.00000000000E+00  0.00000000000E+00  0.10793407069E+04  0.10793407069E+04  0.50400001928E-02 0. -1.
        1   -1    0    0  501    0  0.00000000000E+00  0.00000000000E+00 -0.23521387815E+04  0.23521387816E+04  0.50400001928E-02 0.  1.
    10030    2    1    2    0    0  0.00000000000E+00  0.00000000000E+00 -0.12727980746E+04  0.34314794885E+04  0.31866968072E+04 0.  0.
        3    1    3    3  502    0 -0.10252744622E+04  0.77196623594E+03 -0.16531985276E+04  0.20928891452E+04  0.10100000352E+00 0.  1.
       -3    1    3    3    0  502  0.10252744622E+04 -0.77196623594E+03  0.38040045292E+03  0.13385903433E+04  0.10100000352E+00 0. -1.
</event>
<event>
 5   0  0.8838951E-07  0.3259720E+04  0.7818609E-02  0.8173221E-01
       -2   -1    0    0    0  501  0.00000000000E+00  0.00000000000E+00  0.14365653990E+04  0.14365653990E+04  0.25500000920E-02 0.  1.
        2   -1    0    0  501    0  0.00000000000E+00  0.00000000000E+00 -0.18491632438E+04  0.18491632438E+04  0.25500000920E-02 0. -1.
    10030    2    1    2    0    0  0.00000000000E+00  0.00000000000E+00 -0.41259784487E+03  0.32857286428E+04  0.32597201924E+04 0.  0.
        2    1    3    3  502    0  0.40030796845E+03  0.15673144571E+04 -0.40719506825E+03  0.16680913945E+04  0.25500000920E-02 0. -1.
       -2    1    3    3    0  502 -0.40030796845E+03 -0.15673144571E+04 -0.54027766156E+01  0.16176372483E+04  0.25500000920E-02 0.  1.
</event>
<event>
 5   0  0.3075756E-07  0.3197646E+04  0.7818609E-02  0.8189439E-01
        1   -1    0    0  501    0  0.00000000000E+00  0.00000000000E+00  0.21363670766E+04  0.21363670766E+04  0.50400001928E-02 0.  1.
       -1   -1    0    0    0  501  0.00000000000E+00  0.00000000000E+00 -0.11965333828E+04  0.11965333828E+04  0.50400001928E-02 0. -1.
    10030    2    1    2    0    0  0.00000000000E+00  0.00000000000E+00  0.93983369380E+03  0.33329004593E+04  0.31976457121E+04 0.  0.
        5    1    3    3  502    0  0.25290000517E+03  0.15367967074E+04  0.84645911307E+03  0.17726301511E+04  0.46999998093E+01 0.  1.
       -5    1    3    3    0  502 -0.25290000517E+03 -0.15367967074E+04  0.93374580729E+02  0.15602703082E+04  0.46999998093E+01 0. -1.
</event>
<event>
 5   0  0.8335929E-07  0.3208236E+04  0.7818609E-02  0.8186646E-01
       -2   -1    0    0    0  501  0.00000000000E+00  0.00000000000E+00  0.18092920372E+04  0.18092920372E+04  0.25500000920E-02 0.  1.
        2   -1    0    0  501    0  0.00000000000E+00  0.00000000000E+00 -0.14222103427E+04  0.14222103427E+04  0.25500000920E-02 0. -1.
    10030    2    1    2    0    0  0.00000000000E+00  0.00000000000E+00  0.38708169442E+03  0.32315023799E+04  0.32082355576E+04 0.  0.
        4    1    3    3  502    0  0.11393369179E+03  0.85073385261E+03  0.15585304852E+04  0.17792548609E+04  0.12699999809E+01 0.  1.
       -4    1    3    3    0  502 -0.11393369179E+03 -0.85073385261E+03 -0.11714487907E+04  0.14522475190E+04  0.12699999809E+01 0. -1.
</event>
<event>
 5   0  0.8195618E-07  0.3201637E+04  0.7818609E-02  0.8188385E-01
        2   -1    0    0  501    0  0.00000000000E+00  0.00000000000E+00  0.13707744529E+04  0.13707744529E+04  0.25500000920E-02 0.  1.
       -2   -1    0    0    0  501  0.00000000000E+00  0.00000000000E+00 -0.18694681511E+04  0.18694681511E+04  0.25500000920E-02 0. -1.
    10030    2    1    2    0    0  0.00000000000E+00  0.00000000000E+00 -0.49869369814E+03  0.32402426040E+04  0.32016365703E+04 0.  0.
        1    1    3    3  502    0 -0.11918998125E+04  0.77322948062E+03 -0.99587970333E+03  0.17350173994E+04  0.50400001928E-02 0. -1.
       -1    1    3    3    0  502  0.11918998125E+04 -0.77322948062E+03  0.49718600519E+03  0.15052252046E+04  0.50400001928E-02 0.  1.
</event>
<event>
 5   0  0.8195618E-07  0.3202319E+04  0.7818609E-02  0.8188205E-01
       -2   -1    0    0    0  501  0.00000000000E+00  0.00000000000E+00  0.93725749999E+03  0.93725750000E+03  0.25500000920E-02 0. -1.
        2   -1    0    0  501    0  0.00000000000E+00  0.00000000000E+00 -0.27353330517E+04  0.27353330517E+04  0.25500000920E-02 0.  1.
    10030    2    1    2    0    0  0.00000000000E+00  0.00000000000E+00 -0.17980755517E+04  0.36725905517E+04  0.32023187959E+04 0.  0.
        1    1    3    3  502    0 -0.65895675197E+03  0.87759447503E+03 -0.22361506162E+04  0.24909366997E+04  0.50400001928E-02 0.  1.
       -1    1    3    3    0  502  0.65895675197E+03 -0.87759447503E+03  0.43807506456E+03  0.11816538519E+04  0.50400001928E-02 0. -1.
</event>
<event>
 5   0  0.2891204E-07  0.3204161E+04  0.7818609E-02  0.8187719E-01
        1   -1    0    0  501    0  0.00000000000E+00  0.00000000000E+00  0.81533734618E+03  0.81533734619E+03  0.50400001928E-02 0.  1.
       -1   -1    0    0    0  501  0.00000000000E+00  0.00000000000E+00 -0.31479745519E+04  0.31479745519E+04  0.50400001928E-02 0. -1.
    10030    2    1    2    0    0  0.00000000000E+00  0.00000000000E+00 -0.23326372058E+04  0.39633118981E+04  0.32041605559E+04 0.  0.
        4    1    3    3  502    0  0.85383588407E+03 -0.80553023010E+03  0.18229743827E+03  0.11879177738E+04  0.12699999809E+01 0.  1.
       -4    1    3    3    0  502 -0.85383588407E+03  0.80553023010E+03 -0.25149346440E+04  0.27753941243E+04  0.12699999809E+01 0. -1.
</event>
<event>
 5   0  0.8335929E-07  0.3120175E+04  0.7818609E-02  0.8210223E-01
       -2   -1    0    0    0  501  0.00000000000E+00  0.00000000000E+00  0.13736946514E+04  0.13736946514E+04  0.25500000920E-02 0.  1.
        2   -1    0    0  501    0  0.00000000000E+00  0.00000000000E+00 -0.17717714577E+04  0.17717714577E+04  0.25500000920E-02 0. -1.
    10030    2    1    2    0    0  0.00000000000E+00  0.00000000000E+00 -0.39807680633E+03  0.31454661091E+04  0.31201749790E+04 0.  0.
        4    1    3    3  502    0 -0.18697564268E+03  0.14114588043E+04  0.44385763838E+03  0.14913708671E+04  0.12699999809E+01 0.  1.
       -4    1    3    3    0  502  0.18697564268E+03 -0.14114588043E+04 -0.84193444471E+03  0.16540952419E+04  0.12699999809E+01 0. -1.
</event>
<event>
 5   0  0.8335929E-07  0.3205564E+04  0.7818609E-02  0.8187349E-01
       -2   -1    0    0    0  501  0.00000000000E+00  0.00000000000E+00  0.11597959646E+04  0.11597959646E+04  0.25500000920E-02 0.  1.
        2   -1    0    0  501    0  0.00000000000E+00  0.00000000000E+00 -0.22149675518E+04  0.22149675518E+04  0.25500000920E-02 0. -1.
    10030    2    1    2    0    0  0.00000000000E+00  0.00000000000E+00 -0.10551715872E+04  0.33747635164E+04  0.32055641801E+04 0.  0.
        4    1    3    3  502    0  0.66685486678E+03  0.10303045246E+04 -0.16128646601E+04  0.20267108456E+04  0.12699999809E+01 0. -1.
       -4    1    3    3    0  502 -0.66685486678E+03 -0.10303045246E+04  0.55769307292E+03  0.13480526708E+04  0.12699999809E+01 0.  1.
</event>
<event>
 5   0  0.2783875E-07  0.3183862E+04  0.7818609E-02  0.8193092E-01
       -1   -1    0    0    0  501  0.00000000000E+00  0.00000000000E+00  0.22659292685E+04  0.22659292685E+04  0.50400001928E-02 0. -1.
        1   -1    0    0  501    0  0.00000000000E+00  0.00000000000E+00 -0.11184130283E+04  0.11184130283E+04  0.50400001928E-02 0.  1.
    10030    2    1    2    0    0  0.00000000000E+00  0.00000000000E+00  0.11475162402E+04  0.33843422968E+04  0.31838623180E+04 0.  0.
        2    1    3    3  502    0 -0.90701954630E+03 -0.11895867170E+04  0.11525083664E+04  0.18884058222E+04  0.25500000920E-02 0.  1.
       -2    1    3    3    0  502  0.90701954630E+03  0.11895867170E+04 -0.49921261930E+01  0.14959364746E+04  0.25500000920E-02 0. -1.
</event>
<event>
 5   0  0.8195618E-07  0.3217146E+04  0.7818609E-02  0.8184304E-01
       -2   -1    0    0    0  501  0.00000000000E+00  0.00000000000E+00  0.12678063674E+04  0.12678063674E+04  0.25500000920E-02 0.  1.
        2   -1    0    0  501    0  0.00000000000E+00  0.00000000000E+00 -0.20409322927E+04  0.20409322927E+04  0.25500000920E-02 0. -1.
    10030    2    1    2    0    0  0.00000000000E+00  0.00000000000E+00 -0.77312592527E+03  0.33087386601E+04  0.32171459128E+04 0.  0.
        1    1    3    3  502    0  0.12886883499E+04 -0.52754202665E+03 -0.12147776246E+04  0.18478914823E+04  0.50400001928E-02 0. -1.
       -1    1    3    3    0  502 -0.12886883499E+04  0.52754202665E+03  0.44165169936E+03  0.14608471777E+04  0.50400001928E-02 0.  1.
</event>
<event>
 5   0  0.3075756E-07  0.3206615E+04  0.7818609E-02  0.8187072E-01
        1   -1    0    0  501    0  0.00000000000E+00  0.00000000000E+00  0.18087855300E+04  0.18087855300E+04  0.50400001928E-02 0.  1.
       -1   -1    0    0    0  501  0.00000000000E+00  0.00000000000E+00 -0.14211718851E+04  0.14211718852E+04  0.50400001928E-02 0. -1.
    10030    2    1    2    0    0  0.00000000000E+00  0.00000000000E+00  0.38761364486E+03  0.32299574152E+04  0.32066151260E+04 0.  0.
        5    1    3    3  502    0  0.10290239757E+04  0.68987159957E+03  0.12189381440E+04  0.17380004187E+04  0.46999998093E+01 0.  1.
       -5    1    3    3    0  502 -0.10290239757E+04 -0.68987159957E+03 -0.83132449914E+03  0.14919569965E+04  0.46999998093E+01 0. -1.
</event>
<event>
 5   0  0.3075756E-07  0.3200087E+04  0.7818609E-02  0.8188794E-01
       -1   -1    0    0    0  501  0.00000000000E+00  0.00000000000E+00  0.11137941577E+04  0.11137941577E+04  0.50400001928E-02 0. -1.
        1   -1    0    0  501    0  0.00000000000E+00  0.00000000000E+00 -0.22985744211E+04  0.22985744211E+04  0.50400001928E-02 0.  1.
    10030    2    1    2    0    0  0.00000000000E+00  0.00000000000E+00 -0.11847802634E+04  0.34123685788E+04  0.32000867246E+04 0.  0.
        5    1    3    3  502    0 -0.71942014522E+03  0.58722864114E+03 -0.19817873717E+04  0.21885854105E+04  0.46999998093E+01 0.  1.
       -5    1    3    3    0  502  0.71942014522E+03 -0.58722864114E+03  0.79700710833E+03  0.12237831683E+04  0.46999998093E+01 0. -1.
</event>
<event>
 5   0  0.3075756E-07  0.3016804E+04  0.7818609E-02  0.8238949E-01
       -1   -1    0    0    0  501  0.00000000000E+00  0.00000000000E+00  0.10728158466E+04  0.10728158466E+04  0.50400001928E-02 0.  1.
        1   -1    0    0  501    0  0.00000000000E+00  0.00000000000E+00 -0.21208452766E+04  0.21208452766E+04  0.50400001928E-02 0. -1.
    10030    2    1    2    0    0  0.00000000000E+00  0.00000000000E+00 -0.10480294300E+04  0.31936611232E+04  0.30168038855E+04 0.  0.
        5    1    3    3  502    0  0.14939038038E+04  0.79534010959E+02 -0.72814009804E+03  0.16638161936E+04  0.46999998093E+01 0.  1.
       -5    1    3    3    0  502 -0.14939038038E+04 -0.79534010959E+02 -0.31988933200E+03  0.15298449296E+04  0.46999998093E+01 0. -1.
</event>
<event>
 5   0  0.2783875E-07  0.3285942E+04  0.7818609E-02  0.8166482E-01
       -1   -1    0    0    0  501  0.00000000000E+00  0.00000000000E+00  0.16141437459E+04  0.16141437459E+04  0.50400001928E-02 0.  1.
        1   -1    0    0  501    0  0.00000000000E+00  0.00000000000E+00 -0.16723131133E+04  0.16723131133E+04  0.50400001928E-02 0. -1.
    10030    2    1    2    0    0  0.00000000000E+00  0.00000000000E+00 -0.58169367468E+02  0.32864568592E+04  0.32859420281E+04 0.  0.
        2    1    3    3  502    0 -0.45291960385E+03  0.72221944088E+03 -0.14338034598E+04  0.16680915592E+04  0.25500000920E-02 0. -1.
       -2    1    3    3    0  502  0.45291960385E+03 -0.72221944088E+03  0.13756340924E+04  0.16183653001E+04  0.25500000920E-02 0.  1.
</event>
<event>
 5   0  0.8488469E-07  0.3206085E+04  0.7818609E-02  0.8187212E-01
        2   -1    0    0  501    0  0.00000000000E+00  0.00000000000E+00  0.22394076352E+04  0.22394076352E+04  0.25500000920E-02 0. -1.
       -2   -1    0    0    0  501  0.00000000000E+00  0.00000000000E+00 -0.11475110775E+04  0.11475110775E+04  0.25500000920E-02 0.  1.
    10030    2    1    2    0    0  0.00000000000E+00  0.00000000000E+00  0.10918965577E+04  0.33869187128E+04  0.32060848826E+04 0.  0.
        3    1    3    3  502    0  0.95743419604E+03  0.55320225014E+03  0.17720280525E+04  0.20887308104E+04  0.10100000352E+00 0. -1.
       -3    1    3    3    0  502 -0.95743419604E+03 -0.55320225014E+03 -0.68013149483E+03  0.12981879023E+04  0.10100000352E+00 0.  1.
</event>
<event>
 5   0  0.8802800E-07  0.3203841E+04  0.7818609E-02  0.8187804E-01
       -2   -1    0    0    0  501  0.00000000000E+00  0.00000000000E+00  0.19415258526E+04  0.19415258526E+04  0.25500000920E-02 0.  1.
        2   -1    0    0  501    0  0.00000000000E+00  0.00000000000E+00 -0.13217174775E+04  0.13217174775E+04  0.25500000920E-02 0. -1.
    10030    2    1    2    0    0  0.00000000000E+00  0.00000000000E+00  0.61980837503E+03  0.32632433301E+04  0.32038406030E+04 0.  0.
        5    1    3    3  502    0  0.64424348663E+03  0.67866176389E+03  0.16342015573E+04  0.18831538120E+04  0.46999998093E+01 0.  1.
       -5    1    3    3    0  502 -0.64424348663E+03 -0.67866176389E+03 -0.10143931822E+04  0.13800895181E+04  0.46999998093E+01 0. -1.
</event>
<event>
 5   0  0.8838951E-07  0.3199955E+04  0.7818609E-02  0.8188829E-01
       -2   -1    0    0    0  501  0.00000000000E+00  0.00000000000E+00  0.10142876008E+04  0.10142876008E+04  0.25500000920E-02 0.  1.
        2   -1    0    0  501    0  0.00000000000E+00  0.00000000000E+00 -0.25238675488E+04  0.25238675488E+04  0.25500000920E-02 0. -1.
    10030    2    1    2    0    0  0.00000000000E+00  0.00000000000E+00 -0.15095799480E+04  0.35381551496E+04  0.31999547252E+04 0.  0.
        2    1    3    3  502    0  0.32149696897E+03 -0.89502951156E+02  0.97537733743E+03  0.10308889512E+04  0.25500000920E-02 0.  1.
       -2    1    3    3    0  502 -0.32149696897E+03  0.89502951156E+02 -0.24849572854E+04  0.25072661984E+04  0.25500000920E-02 0. -1.
</event>
<event>
 5   0  0.2783875E-07  0.3203599E+04  0.7818609E-02  0.8187867E-01
        1   -1    0    0  501    0  0.00000000000E+00  0.00000000000E+00  0.19044651868E+04  0.19044651868E+04  0.50400001928E-02 0.  1.
       -1   -1    0    0    0  501  0.00000000000E+00  0.00000000000E+00 -0.13472350321E+04  0.13472350321E+04  0.50400001928E-02 0. -1.
    10030    2    1    2    0    0  0.00000000000E+00  0.00000000000E+00  0.55723015469E+03  0.32517002190E+04  0.32035993614E+04 0.  0.
        2    1    3    3  502    0  0.11997302007E+04  0.83647987059E+03 -0.38442421563E+03  0.15122278618E+04  0.25500000920E-02 0. -1.
       -2    1    3    3    0  502 -0.11997302007E+04 -0.83647987059E+03  0.94165437032E+03  0.17394723572E+04  0.25500000920E-02 0.  1.
</event>
<event>
 5   0  0.8195618E-07  0.3208678E+04  0.7818609E-02  0.8186529E-01
       -2   -1    0    0    0  501  0.00000000000E+00  0.00000000000E+00  0.12757140994E+04  0.12757140994E+04  0.25500000920E-02 0. -1.
        2   -1    0    0  501    0  0.00000000000E+00  0.00000000000E+00 -0.20176183282E+04  0.20176183282E+04  0.25500000920E-02 0.  1.
    10030    2    1    2    0    0  0.00000000000E+00  0.00000000000E+00 -0.74190422888E+03  0.32933324276E+04  0.32086783251E+04 0.  0.
        1    1    3    3  502    0  0.10017638373E+04  0.10610527185E+04 -0.10552812844E+04  0.18008282112E+04  0.50400001928E-02 0.  1.
       -1    1    3    3    0  502 -0.10017638373E+04 -0.10610527185E+04  0.31337705548E+03  0.14925042164E+04  0.50400001928E-02 0. -1.
</event>
<event>
 5   0  0.2783875E-07  0.3051029E+04  0.7818609E-02  0.8229308E-01
       -1   -1    0    0    0  501  0.00000000000E+00  0.00000000000E+00  0.10566562046E+04  0.10566562047E+04  0.50400001928E-02 0.  1.
        1   -1    0    0  501    0  0.00000000000E+00  0.00000000000E+00 -0.22024133959E+04  0.22024133959E+04  0.50400001928E-02 0. -1.
    10030    2    1    2    0    0  0.00000000000E+00  0.00000000000E+00 -0.11457571912E+04  0.32590696005E+04  0.30510285347E+04 0.  0.
        2    1    3    3  502    0 -0.15873896741E+03 -0.98549305931E+03 -0.18051422052E+04  0.20627488967E+04  0.25500000920E-02 0. -1.
       -2    1    3    3    0  502  0.15873896741E+03  0.98549305931E+03  0.65938501400E+03  0.11963207038E+04  0.25500000920E-02 0.  1.
</event>
<event>
 5   0  0.3013888E-07  0.3197382E+04  0.7818609E-02  0.8189509E-01
        1   -1    0    0  501    0  0.00000000000E+00  0.00000000000E+00  0.13861053282E+04  0.13861053282E+04  0.50400001928E-02 0.  1.
       -1   -1    0    0    0  501  0.00000000000E+00  0.00000000000E+00 -0.18438803037E+04  0.18438803037E+04  0.50400001928E-02 0. -1.
    10030    2    1    2    0    0  0.00000000000E+00  0.00000000000E+00 -0.45777497548E+03  0.32299856319E+04  0.31973816247E+04 0.  0.
        1    1    3    3  502    0  0.14876110896E+04 -0.28282303058E+03  0.28901633032E+03  0.15415920537E+04  0.50400001928E-02 0.  1.
       -1    1    3    3    0  502 -0.14876110896E+04  0.28282303058E+03 -0.74679130579E+03  0.16883935783E+04  0.50400001928E-02 0. -1.
</event>
<event>
 5   0  0.2997105E-07  0.3189493E+04  0.7818609E-02  0.8191597E-01
        1   -1    0    0  501    0  0.00000000000E+00  0.00000000000E+00  0.17559752714E+04  0.17559752714E+04  0.50400001928E-02 0. -1.
       -1   -1    0    0    0  501  0.00000000000E+00  0.00000000000E+00 -0.14483216491E+04  0.14483216491E+04  0.50400001928E-02 0.  1.
    10030    2    1    2    0    0  0.00000000000E+00  0.00000000000E+00  0.30765362229E+03  0.32042969205E+04  0.31894933772E+04 0.  0.
        3    1    3    3  502    0  0.26688886474E+03 -0.10525416140E+04 -0.10195596496E+04  0.14894883030E+04  0.10100000352E+00 0.  1.
       -3    1    3    3    0  502 -0.26688886474E+03  0.10525416140E+04  0.13272132719E+04  0.17148086175E+04  0.10100000352E+00 0. -1.
</event>
<event>
 5   0  0.2783875E-07  0.3189623E+04  0.7818609E-02  0.8191563E-01
        1   -1    0    0  501    0  0.00000000000E+00  0.00000000000E+00  0.19955202874E+04  0.19955202874E+04  0.50400001928E-02 0.  1.
       -1   -1    0    0    0  501  0.00000000000E+00  0.00000000000E+00 -0.12745669464E+04  0.12745669464E+04  0.50400001928E-02 0. -1.
    10030    2    1    2    0    0  0.00000000000E+00  0.00000000000E+00  0.72095334101E+03  0.32700872338E+04  0.31896233001E+04 0.  0.
        2    1    3    3  502    0 -0.14010394594E+04  0.74931028092E+03  0.50196812619E+03  0.16662381173E+04  0.25500000920E-02 0.  1.
       -2    1    3    3    0  502  0.14010394594E+04 -0.74931028092E+03  0.21898521482E+03  0.16038491164E+04  0.25500000920E-02 0. -1.
</event>
<event>
 5   0  0.2997105E-07  0.3188871E+04  0.7818609E-02  0.8191762E-01
        1   -1    0    0  501    0  0.00000000000E+00  0.00000000000E+00  0.19902065380E+04  0.19902065381E+04  0.50400001928E-02 0.  1.
       -1   -1    0    0    0  501  0.00000000000E+00  0.00000000000E+00 -0.12773672510E+04  0.12773672510E+04  0.50400001928E-02 0. -1.
    10030    2    1    2    0    0  0.00000000000E+00  0.00000000000E+00  0.71283928703E+03  0.32675737891E+04  0.31888710570E+04 0.  0.
        3    1    3    3  502    0  0.10895186174E+04 -0.74444568928E+03 -0.56064040583E+03  0.14337251748E+04  0.10100000352E+00 0. -1.
       -3    1    3    3    0  502 -0.10895186174E+04  0.74444568928E+03  0.12734796929E+04  0.18338486143E+04  0.10100000352E+00 0.  1.
</event>
<event>
 5   0  0.2891204E-07  0.3211366E+04  0.7818609E-02  0.8185822E-01
       -1   -1    0    0    0  501  0.00000000000E+00  0.00000000000E+00  0.27219411996E+04  0.27219411996E+04  0.50400001928E-02 0. -1.
        1   -1    0    0  501    0  0.00000000000E+00  0.00000000000E+00 -0.94719800094E+03  0.94719800096E+03  0.50400001928E-02 0.  1.
    10030    2    1    2    0    0  0.00000000000E+00  0.00000000000E+00  0.17747431986E+04  0.36691392006E+04  0.32113656055E+04 0.  0.
        4    1    3    3  502    0 -0.90847475065E+03  0.99556687093E+02  0.23957849150E+04  0.25641811322E+04  0.12699999809E+01 0. -1.
       -4    1    3    3    0  502  0.90847475065E+03 -0.99556687093E+02 -0.62104171639E+03  0.11049580684E+04  0.12699999809E+01 0.  1.
</event>
<event>
 5   0  0.2783875E-07  0.3185933E+04  0.7818609E-02  0.8192542E-01
       -1   -1    0    0    0  501  0.00000000000E+00  0.00000000000E+00  0.14104456105E+04  0.14104456105E+04  0.50400001928E-02 0. -1.
        1   -1    0    0  501    0  0.00000000000E+00  0.00000000000E+00 -0.17991071314E+04  0.17991071314E+04  0.50400001928E-02 0.  1.
    10030    2    1    2    0    0  0.00000000000E+00  0.00000000000E+00 -0.38866152093E+03  0.32095527419E+04  0.31859333051E+04 0.  0.
        2    1    3    3  502    0  0.12357785808E+04  0.80935340021E+03 -0.79485504666E+03  0.16774969963E+04  0.25500000920E-02 0.  1.
       -2    1    3    3    0  502 -0.12357785808E+04 -0.80935340021E+03  0.40619352573E+03  0.15320557456E+04  0.25500000920E-02 0. -1.
</event>
<event>
 5   0  0.8838951E-07  0.3207098E+04  0.7818609E-02  0.8186945E-01
       -2   -1    0    0    0  501  0.00000000000E+00  0.00000000000E+00  0.13252106694E+04  0.13252106694E+04  0.25500000920E-02 0. -1.
        2   -1    0    0  501    0  0.00000000000E+00  0.00000000000E+00 -0.19403476935E+04  0.19403476935E+04  0.25500000920E-02 0.  1.
    10030    2    1    2    0    0  0.00000000000E+00  0.00000000000E+00 -0.61513702412E+03  0.32655583629E+04  0.32070980439E+04 0.  0.
        2    1    3    3  502    0 -0.98555987049E+02  0.26195544117E+03 -0.19152849311E+04  0.19356265918E+04  0.25500000920E-02 0.  1.
       -2    1    3    3    0  502  0.98555987049E+02 -0.26195544117E+03  0.13001479070E+04  0.13299317711E+04  0.25500000920E-02 0. -1.
</event>
<event>
 5   0  0.2783875E-07  0.3205703E+04  0.7818609E-02  0.8187313E-01
       -1   -1    0    0    0  501  0.00000000000E+00  0.00000000000E+00  0.17624413593E+04  0.17624413594E+04  0.50400001928E-02 0.  1.
        1   -1    0    0  501    0  0.00000000000E+00  0.00000000000E+00 -0.14577124797E+04  0.14577124797E+04  0.50400001928E-02 0. -1.
    10030    2    1    2    0    0  0.00000000000E+00  0.00000000000E+00  0.30472887962E+03  0.32201538391E+04  0.32057028960E+04 0.  0.
        2    1    3    3  502    0  0.50133848974E+03 -0.12376525669E+04  0.10429322662E+04  0.16943529354E+04  0.25500000920E-02 0.  1.
       -2    1    3    3    0  502 -0.50133848974E+03  0.12376525669E+04 -0.73820338661E+03  0.15258009037E+04  0.25500000920E-02 0. -1.
</event>
<event>
 5   0  0.3075756E-07  0.3046772E+04  0.7818609E-02  0.8230500E-01
       -1   -1    0    0    0  501  0.00000000000E+00  0.00000000000E+00  0.16880258348E+04  0.16880258348E+04  0.50400001928E-02 0.  1.
        1   -1    0    0  501    0  0.00000000000E+00  0.00000000000E+00 -0.13748041313E+04  0.13748041313E+04  0.50400001928E-02 0. -1.
    10030    2    1    2    0    0  0.00000000000E+00  0.00000000000E+00  0.31322170351E+03  0.30628299661E+04  0.30467719910E+04 0.  0.
        5    1    3    3  502    0 -0.54308221815E+03 -0.42079777905E+03 -0.12102146355E+04  0.13916359511E+04  0.46999998093E+01 0.  1.
       -5    1    3    3    0  502  0.54308221815E+03  0.42079777905E+03  0.15234363390E+04  0.16711940149E+04  0.46999998093E+01 0. -1.
</event>
<event>
 5   0  0.2783875E-07  0.3198161E+04  0.7818609E-02  0.8189303E-01
        3   -1    0    0  501    0  0.00000000000E+00  0.00000000000E+00  0.17000770312E+04  0.17000770342E+04  0.10100000352E+00 0. -1.
       -3   -1    0    0    0  501  0.00000000000E+00  0.00000000000E+00 -0.15040836550E+04  0.15040836584E+04  0.10100000352E+00 0.  1.
    10030    2    1    2    0    0  0.00000000000E+00  0.00000000000E+00  0.19599337617E+03  0.32041606926E+04  0.31981607746E+04 0.  0.
        3    1    3    3  502    0 -0.33521582008E+03  0.13973759219E+04  0.80076040222E+03  0.16450672768E+04  0.10100000352E+00 0. -1.
       -3    1    3    3    0  502  0.33521582008E+03 -0.13973759219E+04 -0.60476702605E+03  0.15590934158E+04  0.10100000352E+00 0.  1.
</event>
<event>
 5   0  0.8488469E-07  0.3211387E+04  0.7818609E-02  0.8185816E-01
        2   -1    0    0  501    0  0.00000000000E+00  0.00000000000E+00  0.11714949376E+04  0.11714949376E+04  0.25500000920E-02 0. -1.
       -2   -1    0    0    0  501  0.00000000000E+00  0.00000000000E+00 -0.22008220109E+04  0.22008220109E+04  0.25500000920E-02 0.  1.
    10030    2    1    2    0    0  0.00000000000E+00  0.00000000000E+00 -0.10293270733E+04  0.33723169485E+04  0.32113871422E+04 0.  0.
        3    1    3    3  502    0  0.23135604044E+03  0.43754642876E+03  0.10893908480E+04  0.11965554416E+04  0.10100000352E+00 0. -1.
       -3    1    3    3    0  502 -0.23135604044E+03 -0.43754642876E+03 -0.21187179213E+04  0.21757615069E+04  0.10100000352E+00 0.  1.
</event>
<event>
 5   0  0.8488469E-07  0.3194417E+04  0.7818609E-02  0.8190293E-01
        2   -1    0    0  501    0  0.00000000000E+00  0.00000000000E+00  0.16166344063E+04  0.16166344063E+04  0.25500000920E-02 0. -1.
       -2   -1    0    0    0  501  0.00000000000E+00  0.00000000000E+00 -0.15780164451E+04  0.15780164451E+04  0.25500000920E-02 0.  1.
    10030    2    1    2    0    0  0.00000000000E+00  0.00000000000E+00  0.38617961237E+02  0.31946508515E+04  0.31944174298E+04 0.  0.
        3    1    3    3  502    0  0.15687588692E+03 -0.15894264643E+04  0.33062782794E+02  0.15974916861E+04  0.10100000352E+00 0. -1.
       -3    1    3    3    0  502 -0.15687588692E+03  0.15894264643E+04  0.55551784432E+01  0.15971591654E+04  0.10100000352E+00 0.  1.
</event>
<event>
 5   0  0.8335929E-07  0.3188387E+04  0.7818609E-02  0.8191891E-01
        2   -1    0    0  501    0  0.00000000000E+00  0.00000000000E+00  0.19461848153E+04  0.19461848153E+04  0.25500000920E-02 0. -1.
       -2   -1    0    0    0  501  0.00000000000E+00  0.00000000000E+00 -0.13058644557E+04  0.13058644557E+04  0.25500000920E-02 0.  1.
    10030    2    1    2    0    0  0.00000000000E+00  0.00000000000E+00  0.64032035964E+03  0.32520492710E+04  0.31883874134E+04 0.  0.
        4    1    3    3  502    0 -0.12140840168E+03  0.96765808568E+03 -0.96611046667E+03  0.13727611655E+04  0.12699999809E+01 0.  1.
       -4    1    3    3    0  502  0.12140840168E+03 -0.96765808568E+03  0.16064308263E+04  0.18792881055E+04  0.12699999809E+01 0. -1.
</event>
<event>
 5   0  0.8488469E-07  0.3163781E+04  0.7818609E-02  0.8198449E-01
        2   -1    0    0  501    0  0.00000000000E+00  0.00000000000E+00  0.19409419576E+04  0.19409419576E+04  0.25500000920E-02 0. -1.
       -2   -1    0    0    0  501  0.00000000000E+00  0.00000000000E+00 -0.12892594180E+04  0.12892594180E+04  0.25500000920E-02 0.  1.
    10030    2    1    2    0    0  0.00000000000E+00  0.00000000000E+00  0.65168253957E+03  0.32302013756E+04  0.31637810914E+04 0.  0.
        3    1    3    3  502    0 -0.14127370759E+04  0.67900000668E+03  0.54365217124E+03  0.16590433232E+04  0.10100000352E+00 0.  1.
       -3    1    3    3    0  502  0.14127370759E+04 -0.67900000668E+03  0.10803036833E+03  0.15711580524E+04  0.10100000352E+00 0. -1.
</event>
<event>
 5   0  0.8195618E-07  0.3193260E+04  0.7818609E-02  0.8190599E-01
        2   -1    0    0  501    0  0.00000000000E+00  0.00000000000E+00  0.14507047733E+04  0.14507047733E+04  0.25500000920E-02 0. -1.
       -2   -1    0    0    0  501  0.00000000000E+00  0.00000000000E+00 -0.17572338021E+04  0.17572338021E+04  0.25500000920E-02 0.  1.
    10030    2    1    2    0    0  0.00000000000E+00  0.00000000000E+00 -0.30652902886E+03  0.32079385754E+04  0.31932600674E+04 0.  0.
        1    1    3    3  502    0 -0.15381318746E+04  0.35510784634E+02 -0.58197760176E+03  0.16449342262E+04  0.50400001928E-02 0.  1.
       -1    1    3    3    0  502  0.15381318746E+04 -0.35510784634E+02  0.27544857290E+03  0.15630043492E+04  0.50400001928E-02 0. -1.
</event>
<event>
 5   0  0.8488469E-07  0.3204566E+04  0.7818609E-02  0.8187612E-01
       -2   -1    0    0    0  501  0.00000000000E+00  0.00000000000E+00  0.12555542048E+04  0.12555542049E+04  0.25500000920E-02 0. -1.
        2   -1    0    0  501    0  0.00000000000E+00  0.00000000000E+00 -0.20447632677E+04  0.20447632677E+04  0.25500000920E-02 0.  1.
    10030    2    1    2    0    0  0.00000000000E+00  0.00000000000E+00 -0.78920906282E+03  0.33003174725E+04  0.32045661913E+04 0.  0.
        3    1    3    3  502    0 -0.78231461350E+03  0.49829594390E+03 -0.17401635064E+04  0.19719239441E+04  0.10100000352E+00 0.  1.
       -3    1    3    3    0  502  0.78231461350E+03 -0.49829594390E+03  0.95095444361E+03  0.13283935284E+04  0.10100000352E+00 0. -1.
</event>
<event>
 5   0  0.8802800E-07  0.3286044E+04  0.7818609E-02  0.8166456E-01
        2   -1    0    0  501    0  0.00000000000E+00  0.00000000000E+00  0.18234395333E+04  0.18234395333E+04  0.25500000920E-02 0. -1.
       -2   -1    0    0    0  501  0.00000000000E+00  0.00000000000E+00 -0.14804551651E+04  0.14804551651E+04  0.25500000920E-02 0.  1.
    10030    2    1    2    0    0  0.00000000000E+00  0.00000000000E+00  0.34298436812E+03  0.33038946984E+04  0.32860435026E+04 0.  0.
        5    1    3    3  502    0 -0.44148933062E+03  0.15548229509E+04 -0.12525715196E+03  0.16211411666E+04  0.46999998093E+01 0. -1.
       -5    1    3    3    0  502  0.44148933062E+03 -0.15548229509E+04  0.46824152008E+03  0.16827535318E+04  0.46999998093E+01 0.  1.
</event>
<event>
 5   0  0.2997105E-07  0.3188982E+04  0.7818609E-02  0.8191733E-01
        1   -1    0    0  501    0  0.00000000000E+00  0.00000000000E+00  0.22855787706E+04  0.22855787706E+04  0.50400001928E-02 0. -1.
       -1   -1    0    0    0  501  0.00000000000E+00  0.00000000000E+00 -0.11123666161E+04  0.11123666161E+04  0.50400001928E-02 0.  1.
    10030    2    1    2    0    0  0.00000000000E+00  0.00000000000E+00  0.11732121545E+04  0.33979453867E+04  0.31889819835E+04 0.  0.
        3    1    3    3  502    0 -0.58434621583E+03  0.41746650918E+03  0.21034995021E+04  0.22227120713E+04  0.10100000352E+00 0. -1.
       -3    1    3    3    0  502  0.58434621583E+03 -0.41746650918E+03 -0.93028734761E+03  0.11752333154E+04  0.10100000352E+00 0.  1.
</event>
<event>
 5   0  0.3013888E-07  0.3182835E+04  0.7818609E-02  0.8193365E-01
       -1   -1    0    0    0  501  0.00000000000E+00  0.00000000000E+00  0.10840269478E+04  0.10840269478E+04  0.50400001928E-02 0.  1.
        1   -1    0    0  501    0  0.00000000000E+00  0.00000000000E+00 -0.23362973731E+04  0.23362973731E+04  0.50400001928E-02 0. -1.
    10030    2    1    2    0    0  0.00000000000E+00  0.00000000000E+00 -0.12522704253E+04  0.34203243209E+04  0.31828347808E+04 0.  0.
        1    1    3    3  502    0 -0.87150636504E+03  0.12931109340E+04 -0.28470140326E+03  0.15851542894E+04  0.50400001928E-02 0. -1.
       -1    1    3    3    0  502  0.87150636504E+03 -0.12931109340E+04 -0.96756902209E+03  0.18351700315E+04  0.50400001928E-02 0.  1.
</event>
<event>
 5   0  0.2997105E-07  0.3203777E+04  0.7818609E-02  0.8187820E-01
        1   -1    0    0  501    0  0.00000000000E+00  0.00000000000E+00  0.12483584196E+04  0.12483584197E+04  0.50400001928E-02 0.  1.
       -1   -1    0    0    0  501  0.00000000000E+00  0.00000000000E+00 -0.20555366218E+04  0.20555366218E+04  0.50400001928E-02 0. -1.
    10030    2    1    2    0    0  0.00000000000E+00  0.00000000000E+00 -0.80717820213E+03  0.33038950414E+04  0.32037768017E+04 0.  0.
        3    1    3    3  502    0  0.46978562511E+03  0.14480888161E+04  0.11036950913E+03  0.15263817319E+04  0.10100000352E+00 0.  1.
       -3    1    3    3    0  502 -0.46978562511E+03 -0.14480888161E+04 -0.91754771126E+03  0.17775133095E+04  0.10100000352E+00 0. -1.
</event>
<event>
 5   0  0.3013888E-07  0.3192618E+04  0.7818609E-02  0.8190770E-01
       -1   -1    0    0    0  501  0.00000000000E+00  0.00000000000E+00  0.11472175988E+04  0.11472175988E+04  0.50400001928E-02 0. -1.
        1   -1    0    0  501    0  0.00000000000E+00  0.00000000000E+00 -0.22212020139E+04  0.22212020139E+04  0.50400001928E-02 0.  1.
    10030    2    1    2    0    0  0.00000000000E+00  0.00000000000E+00 -0.10739844151E+04  0.33684196128E+04  0.31926177604E+04 0.  0.
        1    1    3    3  502    0  0.22086254513E+03  0.89616508906E+03  0.83715057703E+03  0.12460791385E+04  0.50400001928E-02 0. -1.
       -1    1    3    3    0  502 -0.22086254513E+03 -0.89616508906E+03 -0.19111349921E+04  0.21223404743E+04  0.50400001928E-02 0.  1.
</event>
<event>
 5   0  0.2891204E-07  0.3198725E+04  0.7818609E-02  0.8189154E-01
       -1   -1    0    0    0  501  0.00000000000E+00  0.00000000000E+00  0.14319283272E+04  0.14319283272E+04  0.50400001928E-02 0.  1.
        1   -1    0    0  501    0  0.00000000000E+00  0.00000000000E+00 -0.17863748245E+04  0.17863748245E+04  0.50400001928E-02 0. -1.
    10030    2    1    2    0    0  0.00000000000E+00  0.00000000000E+00 -0.35444649734E+03  0.32183031517E+04  0.31987251925E+04 0.  0.
        4    1    3    3  502    0 -0.18966807824E+03 -0.67525876720E+03 -0.16233831153E+04  0.17684237995E+04  0.12699999809E+01 0. -1.
       -4    1    3    3    0  502  0.18966807824E+03  0.67525876720E+03  0.12689366180E+04  0.14498793522E+04  0.12699999809E+01 0.  1.
</event>
<event>
 5   0  0.8335929E-07  0.3401210E+04  0.7818609E-02  0.8137609E-01
        2   -1    0    0  501    0  0.00000000000E+00  0.00000000000E+00  0.20706307264E+04  0.20706307264E+04  0.25500000920E-02 0. -1.
       -2   -1    0    0    0  501  0.00000000000E+00  0.00000000000E+00 -0.13967036419E+04  0.13967036419E+04  0.25500000920E-02 0.  1.
    10030    2    1    2    0    0  0.00000000000E+00  0.00000000000E+00  0.67392708455E+03  0.34673343683E+04  0.34012100650E+04 0.  0.
        4    1    3    3  502    0 -0.14574273588E+04  0.87622801235E+03  0.35086043011E+03  0.17363682473E+04  0.12699999809E+01 0. -1.
       -4    1    3    3    0  502  0.14574273588E+04 -0.87622801235E+03  0.32306665444E+03  0.17309661210E+04  0.12699999809E+01 0.  1.
</event>
<event>
 5   0  0.8802800E-07  0.3171535E+04  0.7818609E-02  0.8196375E-01
        2   -1    0    0  501    0  0.00000000000E+00  0.00000000000E+00  0.15831379364E+04  0.15831379364E+04  0.25500000920E-02 0. -1.
       -2   -1    0    0    0  501  0.00000000000E+00  0.00000000000E+00 -0.15884014125E+04  0.15884014125E+04  0.25500000920E-02 0.  1.
    10030    2    1    2    0    0  0.00000000000E+00  0.00000000000E+00 -0.52634760938E+01  0.31715393489E+04  0.31715349813E+04 0.  0.
        5    1    3    3  502    0 -0.98994583975E+03  0.11932276738E+04  0.33031225501E+03  0.15852171217E+04  0.46999998093E+01 0.  1.
       -5    1    3    3    0  502  0.98994583975E+03 -0.11932276738E+04 -0.33557573111E+03  0.15863222272E+04  0.46999998093E+01 0. -1.
</event>
<event>
 5   0  0.3013888E-07  0.3199281E+04  0.7818609E-02  0.8189007E-01
        1   -1    0    0  501    0  0.00000000000E+00  0.00000000000E+00  0.17641788067E+04  0.17641788067E+04  0.50400001928E-02 0. -1.
       -1   -1    0    0    0  501  0.00000000000E+00  0.00000000000E+00 -0.14504481299E+04  0.14504481299E+04  0.50400001928E-02 0.  1.
    10030    2    1    2    0    0  0.00000000000E+00  0.00000000000E+00  0.31373067681E+03  0.32146269367E+04  0.31992810762E+04 0.  0.
        1    1    3    3  502    0 -0.69030891646E+03 -0.29941813233E+03 -0.12615261515E+04  0.14688859211E+04  0.50400001928E-02 0.  1.
       -1    1    3    3    0  502  0.69030891646E+03  0.29941813233E+03  0.15752568284E+04  0.17457410156E+04  0.50400001928E-02 0. -1.
</event>
<event>
 5   0  0.8488469E-07  0.3203076E+04  0.7818609E-02  0.8188005E-01
        2   -1    0    0  501    0  0.00000000000E+00  0.00000000000E+00  0.23520998121E+04  0.23520998121E+04  0.25500000920E-02 0. -1.
       -2   -1    0    0    0  501  0.00000000000E+00  0.00000000000E+00 -0.10904825987E+04  0.10904825987E+04  0.25500000920E-02 0.  1.
    10030    2    1    2    0    0  0.00000000000E+00  0.00000000000E+00  0.12616172134E+04  0.34425824108E+04  0.32030759688E+04 0.  0.
        3    1    3    3  502    0  0.69275244232E+02  0.29215205447E+01 -0.10888686776E+04  0.10910740589E+04  0.10100000352E+00 0.  1.
       -3    1    3    3    0  502 -0.69275244232E+02 -0.29215205447E+01  0.23504858910E+04  0.23515083518E+04  0.10100000352E+00 0. -1.
</event>
<event>
 5   0  0.8195618E-07  0.3201619E+04  0.7818609E-02  0.8188390E-01
       -2   -1    0    0    0  501  0.00000000000E+00  0.00000000000E+00  0.98541274658E+03  0.98541274658E+03  0.25500000920E-02 0.  1.
        2   -1    0    0  501    0  0.00000000000E+00  0.00000000000E+00 -0.26005250797E+04  0.26005250797E+04  0.25500000920E-02 0. -1.
    10030    2    1    2    0    0  0.00000000000E+00  0.00000000000E+00 -0.16151123331E+04  0.35859378262E+04  0.32016186914E+04 0.  0.
        1    1    3    3  502    0  0.13185949878E+04  0.69979483921E+03 -0.16007576631E+03  0.15013426690E+04  0.50400001928E-02 0.  1.
       -1    1    3    3    0  502 -0.13185949878E+04 -0.69979483921E+03 -0.14550365668E+04  0.20845951572E+04  0.50400001928E-02 0. -1.
</event>
<event>
 5   0  0.8838951E-07  0.3210757E+04  0.7818609E-02  0.8185982E-01
       -2   -1    0    0    0  501  0.00000000000E+00  0.00000000000E+00  0.14825895579E+04  0.14825895579E+04  0.25500000920E-02 0.  1.
        2   -1    0    0  501    0  0.00000000000E+00  0.00000000000E+00 -0.17383372521E+04  0.17383372521E+04  0.25500000920E-02 0. -1.
    10030    2    1    2    0    0  0.00000000000E+00  0.00000000000E+00 -0.25574769425E+03  0.32209268100E+04  0.32107573300E+04 0.  0.
        2    1    3    3  502    0  0.11146154212E+03  0.64893813062E+03 -0.15966479324E+04  0.17270868516E+04  0.25500000920E-02 0. -1.
       -2    1    3    3    0  502 -0.11146154212E+03 -0.64893813062E+03  0.13409002382E+04  0.14938399585E+04  0.25500000920E-02 0.  1.
</event>
<event>
 5   0  0.2783875E-07  0.3210357E+04  0.7818609E-02  0.8186087E-01
       -1   -1    0    0    0  501  0.00000000000E+00  0.00000000000E+00  0.19650434035E+04  0.19650434035E+04  0.50400001928E-02 0.  1.
        1   -1    0    0  501    0  0.00000000000E+00  0.00000000000E+00 -0.13112170629E+04  0.13112170629E+04  0.50400001928E-02 0. -1.
    10030    2    1    2    0    0  0.00000000000E+00  0.00000000000E+00  0.65382634059E+03  0.32762604664E+04  0.32103572636E+04 0.  0.
        2    1    3    3  502    0  0.12337767318E+04 -0.40602415225E+03  0.12894276259E+04  0.18302142603E+04  0.25500000920E-02 0.  1.
       -2    1    3    3    0  502 -0.12337767318E+04  0.40602415225E+03 -0.63560128530E+03  0.14460462061E+04  0.25500000920E-02 0. -1.
</event>
<event>
 5   0  0.2891204E-07  0.3187879E+04  0.7818609E-02  0.8192026E-01
       -1   -1    0    0    0  501  0.00000000000E+00  0.00000000000E+00  0.98090403736E+03  0.98090403738E+03  0.50400001928E-02 0.  1.
        1   -1    0    0  501    0  0.00000000000E+00  0.00000000000E+00 -0.25901042899E+04  0.25901042900E+04  0.50400001928E-02 0. -1.
    10030    2    1    2    0    0  0.00000000000E+00  0.00000000000E+00 -0.16092002526E+04  0.35710083273E+04  0.31878793925E+04 0.  0.
        4    1    3    3  502    0 -0.54201328396E+03 -0.10413153064E+03 -0.24796465892E+04  0.25403288362E+04  0.12699999809E+01 0. -1.
       -4    1    3    3    0  502  0.54201328396E+03  0.10413153064E+03  0.87044633661E+03  0.10306794912E+04  0.12699999809E+01 0.  1.
</event>
<event>
 5   0  0.8802800E-07  0.3290898E+04  0.7818609E-02  0.8165215E-01
       -2   -1    0    0    0  501  0.00000000000E+00  0.00000000000E+00  0.14360236259E+04  0.14360236260E+04  0.25500000920E-02 0. -1.
        2   -1    0    0  501    0  0.00000000000E+00  0.00000000000E+00 -0.18854160562E+04  0.18854160562E+04  0.25500000920E-02 0.  1.
    10030    2    1    2    0    0  0.00000000000E+00  0.00000000000E+00 -0.44939243030E+03  0.33214396822E+04  0.32908977508E+04 0.  0.
        5    1    3    3  502    0 -0.92698686226E+03  0.82434884959E+03 -0.13157582067E+04  0.18083410677E+04  0.46999998093E+01 0.  1.
       -5    1    3    3    0  502  0.92698686226E+03 -0.82434884959E+03  0.86636577641E+03  0.15130986145E+04  0.46999998093E+01 0. -1.
</event>
<event>
 5   0  0.2783875E-07  0.3194080E+04  0.7818609E-02  0.8190382E-01
        4   -1    0    0  501    0  0.00000000000E+00  0.00000000000E+00  0.22978612387E+04  0.22978615896E+04  0.12699999809E+01 0.  1.
       -4   -1    0    0    0  501  0.00000000000E+00  0.00000000000E+00 -0.11099601568E+04  0.11099608834E+04  0.12699999809E+01 0. -1.
    10030    2    1    2    0    0  0.00000000000E+00  0.00000000000E+00  0.11879010819E+04  0.34078224730E+04  0.31940796840E+04 0.  0.
        5    1    3    3  502    0  0.79873708410E+03  0.13654015454E+04  0.35968514284E+03  0.16222508443E+04  0.46999998093E+01 0.  1.
       -5    1    3    3    0  502 -0.79873708410E+03 -0.13654015454E+04  0.82821593901E+03  0.17855716288E+04  0.46999998093E+01 0. -1.
</event>
<event>
 5   0  0.3075756E-07  0.3198659E+04  0.7818609E-02  0.8189171E-01
       -1   -1    0    0    0  501  0.00000000000E+00  0.00000000000E+00  0.17245651602E+04  0.17245651602E+04  0.50400001928E-02 0.  1.
        1   -1    0    0  501    0  0.00000000000E+00  0.00000000000E+00 -0.14831884124E+04  0.14831884124E+04  0.50400001928E-02 0. -1.
    10030    2    1    2    0    0  0.00000000000E+00  0.00000000000E+00  0.24137674783E+03  0.32077535726E+04  0.31986591329E+04 0.  0.
        5    1    3    3  502    0 -0.97165844900E+03  0.10530613619E+03 -0.11488586215E+04  0.15083460300E+04  0.46999998093E+01 0. -1.
       -5    1    3    3    0  502  0.97165844900E+03 -0.10530613619E+03  0.13902353694E+04  0.16994075427E+04  0.46999998093E+01 0.  1.
</event>
<event>
 5   0  0.2891204E-07  0.3199703E+04  0.7818609E-02  0.8188896E-01
       -1   -1    0    0    0  501  0.00000000000E+00  0.00000000000E+00  0.14628205300E+04  0.14628205300E+04  0.50400001928E-02 0. -1.
        1   -1    0    0  501    0  0.00000000000E+00  0.00000000000E+00 -0.17497191723E+04  0.17497191723E+04  0.50400001928E-02 0.  1.
    10030    2    1    2    0    0  0.00000000000E+00  0.00000000000E+00 -0.28689864225E+03  0.32125397023E+04  0.31997031906E+04 0.  0.
        4    1    3    3  502    0  0.10684094584E+04 -0.65541148932E+03 -0.11416514089E+04  0.16954151537E+04  0.12699999809E+01 0.  1.
       -4    1    3    3    0  502 -0.10684094584E+04  0.65541148932E+03  0.85475276665E+03  0.15171245486E+04  0.12699999809E+01 0. -1.
</event>
<event>
 5   0  0.2997105E-07  0.3328177E+04  0.7818609E-02  0.8155763E-01
        1   -1    0    0  501    0  0.00000000000E+00  0.00000000000E+00  0.17409230058E+04  0.17409230058E+04  0.50400001928E-02 0. -1.
       -1   -1    0    0    0  501  0.00000000000E+00  0.00000000000E+00 -0.15906445703E+04  0.15906445703E+04  0.50400001928E-02 0.  1.
    10030    2    1    2    0    0  0.00000000000E+00  0.00000000000E+00  0.15027843544E+03  0.33315675761E+04  0.33281765136E+04 0.  0.
        3    1    3    3  502    0 -0.10129953583E+04 -0.79389906099E+03  0.11310857676E+04  0.17134148181E+04  0.10100000352E+00 0. -1.
       -3    1    3    3    0  502  0.10129953583E+04  0.79389906099E+03 -0.98080733219E+03  0.16181527580E+04  0.10100000352E+00 0.  1.
</event>
<event>
 5   0  0.3075756E-07  0.3275970E+04  0.7818609E-02  0.8169037E-01
       -1   -1    0    0    0  501  0.00000000000E+00  0.00000000000E+00  0.10627533557E+04  0.10627533558E+04  0.50400001928E-02 0.  1.
        1   -1    0    0  501    0  0.00000000000E+00  0.00000000000E+00 -0.25245698046E+04  0.25245698046E+04  0.50400001928E-02 0. -1.
    10030    2    1    2    0    0  0.00000000000E+00  0.00000000000E+00 -0.14618164489E+04  0.35873231604E+04  0.32759701047E+04 0.  0.
        5    1    3    3  502    0 -0.10738377675E+04 -0.11023254662E+04 -0.13452293826E+04  0.20439944144E+04  0.46999998093E+01 0. -1.
       -5    1    3    3    0  502  0.10738377675E+04  0.11023254662E+04 -0.11658706630E+03  0.15433287460E+04  0.46999998093E+01 0.  1.
</event>
<event>
 5   0  0.3013888E-07  0.3216864E+04  0.7818609E-02  0.8184378E-01
        1   -1    0    0  501    0  0.00000000000E+00  0.00000000000E+00  0.20531314381E+04  0.20531314381E+04  0.50400001928E-02 0.  1.
       -1   -1    0    0    0  501  0.00000000000E+00  0.00000000000E+00 -0.12600526979E+04  0.12600526979E+04  0.50400001928E-02 0. -1.
    10030    2    1    2    0    0  0.00000000000E+00  0.00000000000E+00  0.79307874013E+03  0.33131841360E+04  0.32168641922E+04 0.  0.
        1    1    3    3  502    0  0.26814285319E+03  0.14227689504E+04  0.11181472746E+04  0.18293237558E+04  0.50400001928E-02 0.  1.
       -1    1    3    3    0  502 -0.26814285319E+03 -0.14227689504E+04 -0.32506853450E+03  0.14838603802E+04  0.50400001928E-02 0. -1.
</event>
<event>
 5   0  0.2783875E-07  0.3203469E+04  0.7818609E-02  0.8187902E-01
       -3   -1    0    0    0  501  0.00000000000E+00  0.00000000000E+00  0.11069733816E+04  0.11069733862E+04  0.10100000352E+00 0.  1.
        3   -1    0    0  501    0  0.00000000000E+00  0.00000000000E+00 -0.23176282649E+04  0.23176282671E+04  0.10100000352E+00 0. -1.
    10030    2    1    2    0    0  0.00000000000E+00  0.00000000000E+00 -0.12106548832E+04  0.34246016533E+04  0.32034686260E+04 0.  0.
        5    1    3    3  502    0  0.79068875727E+03 -0.38404494783E+03  0.82607497094E+03  0.12062757481E+04  0.46999998093E+01 0.  1.
       -5    1    3    3    0  502 -0.79068875727E+03  0.38404494783E+03 -0.20367298542E+04  0.22183259052E+04  0.46999998093E+01 0. -1.
</event>
<event>
 5   0  0.8195618E-07  0.3198236E+04  0.7818609E-02  0.8189283E-01
       -2   -1    0    0    0  501  0.00000000000E+00  0.00000000000E+00  0.83988121092E+03  0.83988121092E+03  0.25500000920E-02 0. -1.
        2   -1    0    0  501    0  0.00000000000E+00  0.00000000000E+00 -0.30446900753E+04  0.30446900753E+04  0.25500000920E-02 0.  1.
    10030    2    1    2    0    0  0.00000000000E+00  0.00000000000E+00 -0.22048088644E+04  0.38845712862E+04  0.31982357557E+04 0.  0.
        1    1    3    3  502    0  0.15802848244E+04 -0.11825412404E+03 -0.84220296578E+03  0.17946002340E+04  0.50400001928E-02 0. -1.
       -1    1    3    3    0  502 -0.15802848244E+04  0.11825412404E+03 -0.13626058986E+04  0.20899710522E+04  0.50400001928E-02 0.  1.
</event>
<event>
 5   0  0.3013888E-07  0.3199610E+04  0.7818609E-02  0.8188920E-01
        1   -1    0    0  501    0  0.00000000000E+00  0.00000000000E+00  0.16176166425E+04  0.16176166425E+04  0.50400001928E-02 0. -1.
       -1   -1    0    0    0  501  0.00000000000E+00  0.00000000000E+00 -0.15821892860E+04  0.15821892860E+04  0.50400001928E-02 0.  1.
    10030    2    1    2    0    0  0.00000000000E+00  0.00000000000E+00  0.35427356497E+02  0.31998059286E+04  0.31996098017E+04 0.  0.
        1    1    3    3  502    0 -0.65766141586E+03 -0.51026097778E+03 -0.13485658486E+04  0.15847758994E+04  0.50400001928E-02 0.  1.
       -1    1    3    3    0  502  0.65766141586E+03  0.51026097778E+03  0.13839932051E+04  0.16150300292E+04  0.50400001928E-02 0. -1.
</event>
<event>
 5   0  0.8335929E-07  0.3194717E+04  0.7818609E-02  0.8190214E-01
        2   -1    0    0  501    0  0.00000000000E+00  0.00000000000E+00  0.23700666989E+04  0.23700666989E+04  0.25500000920E-02 0.  1.
       -2   -1    0    0    0  501  0.00000000000E+00  0.00000000000E+00 -0.10765749758E+04  0.10765749758E+04  0.25500000920E-02 0. -1.
    10030    2    1    2    0    0  0.00000000000E+00  0.00000000000E+00  0.12934917232E+04  0.34466416747E+04  0.31947172012E+04 0.  0.
        4    1    3    3  502    0  0.13617815887E+04 -0.32984240745E+02 -0.25331789405E+03  0.13855355007E+04  0.12699999809E+01 0. -1.
       -4    1    3    3    0  502 -0.13617815887E+04  0.32984240745E+02  0.15468096172E+04  0.20611061740E+04  0.12699999809E+01 0.  1.
</event>
<event>
 5   0  0.8802800E-07  0.3205735E+04  0.7818609E-02  0.8187304E-01
       -2   -1    0    0    0  501  0.00000000000E+00  0.00000000000E+00  0.17308006069E+04  0.17308006069E+04  0.25500000920E-02 0. -1.
        2   -1    0    0  501    0  0.00000000000E+00  0.00000000000E+00 -0.14843910071E+04  0.14843910071E+04  0.25500000920E-02 0.  1.
    10030    2    1    2    0    0  0.00000000000E+00  0.00000000000E+00  0.24640959983E+03  0.32151916141E+04  0.32057353952E+04 0.  0.
        5    1    3    3  502    0 -0.54567350929E+03  0.63281858027E+03  0.14950640719E+04  0.17127339558E+04  0.46999998093E+01 0. -1.
       -5    1    3    3    0  502  0.54567350929E+03 -0.63281858027E+03 -0.12486544721E+04  0.15024576583E+04  0.46999998093E+01 0.  1.
</event>
<event>
 5   0  0.2783875E-07  0.3201565E+04  0.7818609E-02  0.8188404E-01
       -1   -1    0    0    0  501  0.00000000000E+00  0.00000000000E+00  0.13893544781E+04  0.13893544782E+04  0.50400001928E-02 0. -1.
        1   -1    0    0  501    0  0.00000000000E+00  0.00000000000E+00 -0.18443844908E+04  0.18443844908E+04  0.50400001928E-02 0.  1.
    10030    2    1    2    0    0  0.00000000000E+00  0.00000000000E+00 -0.45503001262E+03  0.32337389689E+04  0.32015645248E+04 0.  0.
        2    1    3    3  502    0 -0.15465520114E+04 -0.30387294351E+03 -0.51022419384E+03  0.16566504211E+04  0.25500000920E-02 0.  1.
       -2    1    3    3    0  502  0.15465520114E+04  0.30387294351E+03  0.55194181218E+02  0.15770885478E+04  0.25500000920E-02 0. -1.
</event>
<event>
 5   0  0.3013888E-07  0.3209625E+04  0.7818609E-02  0.8186280E-01
        1   -1    0    0  501    0  0.00000000000E+00  0.00000000000E+00  0.14887935366E+04  0.14887935366E+04  0.50400001928E-02 0.  1.
       -1   -1    0    0    0  501  0.00000000000E+00  0.00000000000E+00 -0.17298725790E+04  0.17298725790E+04  0.50400001928E-02 0. -1.
    10030    2    1    2    0    0  0.00000000000E+00  0.00000000000E+00 -0.24107904238E+03  0.32186661156E+04  0.32096249717E+04 0.  0.
        1    1    3    3  502    0  0.30661081128E+03 -0.12580256143E+04 -0.10712524933E+04  0.16805417401E+04  0.50400001928E-02 0. -1.
       -1    1    3    3    0  502 -0.30661081128E+03  0.12580256143E+04  0.83017345096E+03  0.15381243755E+04  0.50400001928E-02 0.  1.
</event>
<event>
 5   0  0.8838951E-07  0.3222699E+04  0.7818609E-02  0.8182848E-01
       -2   -1    0    0    0  501  0.00000000000E+00  0.00000000000E+00  0.11942540095E+04  0.11942540095E+04  0.25500000920E-02 0.  1.
        2   -1    0    0  501    0  0.00000000000E+00  0.00000000000E+00 -0.21741167733E+04  0.21741167733E+04  0.25500000920E-02 0. -1.
    10030    2    1    2    0    0  0.00000000000E+00  0.00000000000E+00 -0.97986276384E+03  0.33683707828E+04  0.32226992870E+04 0.  0.
        2    1    3    3  502    0 -0.15342155044E+04  0.18752391179E+03 -0.96600353863E+03  0.18226753052E+04  0.25500000920E-02 0. -1.
       -2    1    3    3    0  502  0.15342155044E+04 -0.18752391179E+03 -0.13859225217E+02  0.15456954776E+04  0.25500000920E-02 0.  1.
</event>
<event>
 5   0  0.2997105E-07  0.3193528E+04  0.7818609E-02  0.8190529E-01
       -1   -1    0    0    0  501  0.00000000000E+00  0.00000000000E+00  0.13391678874E+04  0.13391678874E+04  0.50400001928E-02 0.  1.
        1   -1    0    0  501    0  0.00000000000E+00  0.00000000000E+00 -0.19039099554E+04  0.19039099554E+04  0.50400001928E-02 0. -1.
    10030    2    1    2    0    0  0.00000000000E+00  0.00000000000E+00 -0.56474206801E+03  0.32430778428E+04  0.31935278754E+04 0.  0.
        3    1    3    3  502    0  0.92257478784E+02 -0.10837197052E+04 -0.14695672387E+04  0.18282745202E+04  0.10100000352E+00 0. -1.
       -3    1    3    3    0  502 -0.92257478784E+02  0.10837197052E+04  0.90482517073E+03  0.14148033226E+04  0.10100000352E+00 0.  1.
</event>
<event>
 5   0  0.2997105E-07  0.3180890E+04  0.7818609E-02  0.8193882E-01
       -1   -1    0    0    0  501  0.00000000000E+00  0.00000000000E+00  0.13678247157E+04  0.13678247157E+04  0.50400001928E-02 0. -1.
        1   -1    0    0  501    0  0.00000000000E+00  0.00000000000E+00 -0.18492982955E+04  0.18492982955E+04  0.50400001928E-02 0.  1.
    10030    2    1    2    0    0  0.00000000000E+00  0.00000000000E+00 -0.48147357981E+03  0.32171230112E+04  0.31808903881E+04 0.  0.
        3    1    3    3  502    0 -0.15594659182E+03 -0.15627985502E+04 -0.49430609269E+03  0.16465106047E+04  0.10100000352E+00 0.  1.
       -3    1    3    3    0  502  0.15594659182E+03  0.15627985502E+04  0.12832512878E+02  0.15706124065E+04  0.10100000352E+00 0. -1.
</event>
<event>
 5   0  0.8838951E-07  0.3172768E+04  0.7818609E-02  0.8196046E-01
        2   -1    0    0  501    0  0.00000000000E+00  0.00000000000E+00  0.10544104152E+04  0.10544104152E+04  0.25500000920E-02 0. -1.
       -2   -1    0    0    0  501  0.00000000000E+00  0.00000000000E+00 -0.23867503255E+04  0.23867503255E+04  0.25500000920E-02 0.  1.
    10030    2    1    2    0    0  0.00000000000E+00  0.00000000000E+00 -0.13323399103E+04  0.34411607406E+04  0.31727681300E+04 0.  0.
        2    1    3    3  502    0 -0.11699687307E+04  0.18931567437E+03 -0.18098609388E+04  0.21633917521E+04  0.25500000920E-02 0.  1.
       -2    1    3    3    0  502  0.11699687307E+04 -0.18931567437E+03  0.47752102852E+03  0.12777689885E+04  0.25500000920E-02 0. -1.
</event>
<event>
 5   0  0.3075756E-07  0.3188508E+04  0.7818609E-02  0.8191859E-01
       -1   -1    0    0    0  501  0.00000000000E+00  0.00000000000E+00  0.19699043720E+04  0.19699043720E+04  0.50400001928E-02 0. -1.
        1   -1    0    0  501    0  0.00000000000E+00  0.00000000000E+00 -0.12902384296E+04  0.12902384296E+04  0.50400001928E-02 0.  1.
    10030    2    1    2    0    0  0.00000000000E+00  0.00000000000E+00  0.67966594240E+03  0.32601428016E+04  0.31885083180E+04 0.  0.
        5    1    3    3  502    0 -0.18472442462E+03 -0.76356787346E+03  0.17582505435E+04  0.19257793421E+04  0.46999998093E+01 0. -1.
       -5    1    3    3    0  502  0.18472442462E+03  0.76356787346E+03 -0.10785846012E+04  0.13343634596E+04  0.46999998093E+01 0.  1.
</event>
<event>
 5   0  0.8488469E-07  0.3196288E+04  0.7818609E-02  0.8189798E-01
        2   -1    0    0  501    0  0.00000000000E+00  0.00000000000E+00  0.21655858574E+04  0.21655858574E+04  0.25500000920E-02 0. -1.
       -2   -1    0    0    0  501  0.00000000000E+00  0.00000000000E+00 -0.11793870811E+04  0.11793870811E+04  0.25500000920E-02 0.  1.
    10030    2    1    2    0    0  0.00000000000E+00  0.00000000000E+00  0.98619877626E+03  0.33449729385E+04  0.31962878364E+04 0.  0.
        3    1    3    3  502    0  0.12853939702E+04  0.63384441529E+03 -0.24695062840E+03  0.14542974333E+04  0.10100000352E+00 0.  1.
       -3    1    3    3    0  502 -0.12853939702E+04 -0.63384441529E+03  0.12331494047E+04  0.18906755052E+04  0.10100000352E+00 0. -1.
</event>
<event>
 5   0  0.8488469E-07  0.3197812E+04  0.7818609E-02  0.8189395E-01
        2   -1    0    0  501    0  0.00000000000E+00  0.00000000000E+00  0.99571047391E+03  0.99571047391E+03  0.25500000920E-02 0. -1.
       -2   -1    0    0    0  501  0.00000000000E+00  0.00000000000E+00 -0.25675137057E+04  0.25675137057E+04  0.25500000920E-02 0.  1.
    10030    2    1    2    0    0  0.00000000000E+00  0.00000000000E+00 -0.15718032318E+04  0.35632241796E+04  0.31978119324E+04 0.  0.
        3    1    3    3  502    0 -0.12278396226E+04  0.10132709274E+04 -0.61990849590E+03  0.17083894944E+04  0.10100000352E+00 0. -1.
       -3    1    3    3    0  502  0.12278396226E+04 -0.10132709274E+04 -0.95189473590E+03  0.18548346852E+04  0.10100000352E+00 0.  1.
</event>
<event>
 5   0  0.8838951E-07  0.3192821E+04  0.7818609E-02  0.8190716E-01
       -2   -1    0    0    0  501  0.00000000000E+00  0.00000000000E+00  0.16596563141E+04  0.16596563141E+04  0.25500000920E-02 0.  1.
        2   -1    0    0  501    0  0.00000000000E+00  0.00000000000E+00 -0.15355744525E+04  0.15355744525E+04  0.25500000920E-02 0. -1.
    10030    2    1    2    0    0  0.00000000000E+00  0.00000000000E+00  0.12408186160E+03  0.31952307667E+04  0.31928205937E+04 0.  0.
        2    1    3    3  502    0 -0.11203984834E+03 -0.15441561306E+04  0.45163514015E+03  0.16127446739E+04  0.25500000920E-02 0.  1.
       -2    1    3    3    0  502  0.11203984834E+03  0.15441561306E+04 -0.32755327855E+03  0.15824860927E+04  0.25500000920E-02 0. -1.
</event>
<event>
 5   0  0.2891204E-07  0.3203669E+04  0.7818609E-02  0.8187849E-01
        1   -1    0    0  501    0  0.00000000000E+00  0.00000000000E+00  0.19047000115E+04  0.19047000115E+04  0.50400001928E-02 0.  1.
       -1   -1    0    0    0  501  0.00000000000E+00  0.00000000000E+00 -0.13471272719E+04  0.13471272719E+04  0.50400001928E-02 0. -1.
    10030    2    1    2    0    0  0.00000000000E+00  0.00000000000E+00  0.55757273953E+03  0.32518272834E+04  0.32036687284E+04 0.  0.
        4    1    3    3  502    0 -0.75766233410E+02  0.96558778330E+02 -0.13423469028E+04  0.13479469352E+04  0.12699999809E+01 0. -1.
       -4    1    3    3    0  502  0.75766233410E+02 -0.96558778330E+02  0.18999196424E+04  0.19038803482E+04  0.12699999809E+01 0.  1.
</event>
<event>
 5   0  0.8195618E-07  0.3197762E+04  0.7818609E-02  0.8189408E-01
       -2   -1    0    0    0  501  0.00000000000E+00  0.00000000000E+00  0.12617131119E+04  0.12617131119E+04  0.25500000920E-02 0. -1.
        2   -1    0    0  501    0  0.00000000000E+00  0.00000000000E+00 -0.20261505051E+04  0.20261505052E+04  0.25500000920E-02 0.  1.
    10030    2    1    2    0    0  0.00000000000E+00  0.00000000000E+00 -0.76443739327E+03  0.32878636170E+04  0.31977621294E+04 0.  0.
        1    1    3    3  502    0 -0.43556534655E+03 -0.15357952331E+04 -0.47439108445E+03  0.16653621439E+04  0.50400001928E-02 0.  1.
       -1    1    3    3    0  502  0.43556534655E+03  0.15357952331E+04 -0.29004630881E+03  0.16225014732E+04  0.50400001928E-02 0. -1.
</event>
<event>
 5   0  0.8838951E-07  0.3194884E+04  0.7818609E-02  0.8190170E-01
        2   -1    0    0  501    0  0.00000000000E+00  0.00000000000E+00  0.17762592350E+04  0.17762592350E+04  0.25500000920E-02 0. -1.
       -2   -1    0    0    0  501  0.00000000000E+00  0.00000000000E+00 -0.14366266546E+04  0.14366266546E+04  0.25500000920E-02 0.  1.
    10030    2    1    2    0    0  0.00000000000E+00  0.00000000000E+00  0.33963258035E+03  0.32128858896E+04  0.31948842624E+04 0.  0.
        2    1    3    3  502    0  0.65827111730E+03  0.45713008892E+03  0.15594607729E+04  0.17533415766E+04  0.25500000920E-02 0. -1.
       -2    1    3    3    0  502 -0.65827111730E+03 -0.45713008892E+03 -0.12198281926E+04  0.14595443130E+04  0.25500000920E-02 0.  1.
</event>
<event>
 5   0  0.8195618E-07  0.3189679E+04  0.7818609E-02  0.8191548E-01
       -2   -1    0    0    0  501  0.00000000000E+00  0.00000000000E+00  0.10590786850E+04  0.10590786850E+04  0.25500000920E-02 0. -1.
        2   -1    0    0  501    0  0.00000000000E+00  0.00000000000E+00 -0.24016284474E+04  0.24016284474E+04  0.25500000920E-02 0.  1.
    10030    2    1    2    0    0  0.00000000000E+00  0.00000000000E+00 -0.13425497623E+04  0.34607071324E+04  0.31896792929E+04 0.  0.
        1    1    3    3  502    0 -0.12162919824E+04 -0.85940729258E+03 -0.52207917107E+02  0.14901921848E+04  0.50400001928E-02 0. -1.
       -1    1    3    3    0  502  0.12162919824E+04  0.85940729258E+03 -0.12903418452E+04  0.19705149476E+04  0.50400001928E-02 0.  1.
</event>
<event>
 5   0  0.8488469E-07  0.3174217E+04  0.7818609E-02  0.8195660E-01
       -2   -1    0    0    0  501  0.00000000000E+00  0.00000000000E+00  0.12327525389E+04  0.12327525389E+04  0.25500000920E-02 0. -1.
        2   -1    0    0  501    0  0.00000000000E+00  0.00000000000E+00 -0.20433244837E+04  0.20433244837E+04  0.25500000920E-02 0.  1.
    10030    2    1    2    0    0  0.00000000000E+00  0.00000000000E+00 -0.81057194475E+03  0.32760770226E+04  0.31742170342E+04 0.  0.
        3    1    3    3  502    0  0.15039411037E+04 -0.43537240565E+03 -0.67348133318E+03  0.17043958142E+04  0.10100000352E+00 0. -1.
       -3    1    3    3    0  502 -0.15039411037E+04  0.43537240565E+03 -0.13709061156E+03  0.15716812084E+04  0.10100000352E+00 0.  1.
</event>
<event>
 5   0  0.2783875E-07  0.3193428E+04  0.7818609E-02  0.8190555E-01
       -1   -1    0    0    0  501  0.00000000000E+00  0.00000000000E+00  0.11843799769E+04  0.11843799769E+04  0.50400001928E-02 0.  1.
        1   -1    0    0  501    0  0.00000000000E+00  0.00000000000E+00 -0.21525999743E+04  0.21525999743E+04  0.50400001928E-02 0. -1.
    10030    2    1    2    0    0  0.00000000000E+00  0.00000000000E+00 -0.96821999746E+03  0.33369799512E+04  0.31934284447E+04 0.  0.
        2    1    3    3  502    0 -0.13496166899E+04 -0.22833930132E+03  0.37497304094E+03  0.14192282507E+04  0.25500000920E-02 0.  1.
       -2    1    3    3    0  502  0.13496166899E+04  0.22833930132E+03 -0.13431930384E+04  0.19177517005E+04  0.25500000920E-02 0. -1.
</event>
<event>
 5   0  0.8195618E-07  0.3332455E+04  0.7818609E-02  0.8154686E-01
        2   -1    0    0  501    0  0.00000000000E+00  0.00000000000E+00  0.22401246126E+04  0.22401246126E+04  0.25500000920E-02 0. -1.
       -2   -1    0    0    0  501  0.00000000000E+00  0.00000000000E+00 -0.12393570101E+04  0.12393570101E+04  0.25500000920E-02 0.  1.
    10030    2    1    2    0    0  0.00000000000E+00  0.00000000000E+00  0.10007676025E+04  0.34794816227E+04  0.33324550362E+04 0.  0.
        1    1    3    3  502    0  0.31017813397E+02 -0.13976822907E+04 -0.44616475156E+03  0.14674947619E+04  0.50400001928E-02 0.  1.
       -1    1    3    3    0  502 -0.31017813397E+02  0.13976822907E+04  0.14469323541E+04  0.20119868608E+04  0.50400001928E-02 0. -1.
</event>
<event>
 5   0  0.8335929E-07  0.3202106E+04  0.7818609E-02  0.8188261E-01
        2   -1    0    0  501    0  0.00000000000E+00  0.00000000000E+00  0.26454091284E+04  0.26454091284E+04  0.25500000920E-02 0.  1.
       -2   -1    0    0    0  501  0.00000000000E+00  0.00000000000E+00 -0.96898843045E+03  0.96898843045E+03  0.25500000920E-02 0. -1.
    10030    2    1    2    0    0  0.00000000000E+00  0.00000000000E+00  0.16764206979E+04  0.36143975588E+04  0.32021060815E+04 0.  0.
        4    1    3    3  502    0 -0.43200452402E+03  0.27267870882E+03 -0.87452171164E+03  0.10128037441E+04  0.12699999809E+01 0. -1.
       -4    1    3    3    0  502  0.43200452402E+03 -0.27267870882E+03  0.25509424096E+04  0.26015938147E+04  0.12699999809E+01 0.  1.
</event>
<event>
 5   0  0.3013888E-07  0.3204596E+04  0.7818609E-02  0.8187604E-01
       -1   -1    0    0    0  501  0.00000000000E+00  0.00000000000E+00  0.17028462674E+04  0.17028462674E+04  0.50400001928E-02 0. -1.
        1   -1    0    0  501    0  0.00000000000E+00  0.00000000000E+00 -0.15076870852E+04  0.15076870853E+04  0.50400001928E-02 0.  1.
    10030    2    1    2    0    0  0.00000000000E+00  0.00000000000E+00  0.19515918217E+03  0.32105333527E+04  0.32045962776E+04 0.  0.
        1    1    3    3  502    0  0.15884190803E+04 -0.12227504994E+03  0.26916558301E+03  0.16156969003E+04  0.50400001928E-02 0. -1.
       -1    1    3    3    0  502 -0.15884190803E+04  0.12227504994E+03 -0.74006400844E+02  0.15948364524E+04  0.50400001928E-02 0.  1.
</event>
<event>
 5   0  0.2783875E-07  0.3205489E+04  0.7818609E-02  0.8187369E-01
        1   -1    0    0  501    0  0.00000000000E+00  0.00000000000E+00  0.25074070664E+04  0.25074070664E+04  0.50400001928E-02 0.  1.
       -1   -1    0    0    0  501  0.00000000000E+00  0.00000000000E+00 -0.10244804698E+04  0.10244804698E+04  0.50400001928E-02 0. -1.
    10030    2    1    2    0    0  0.00000000000E+00  0.00000000000E+00  0.14829265966E+04  0.35318875362E+04  0.32054887736E+04 0.  0.
        2    1    3    3  502    0 -0.68943045001E+03 -0.11588616635E+04 -0.21307257860E+03  0.13651646876E+04  0.25500000920E-02 0. -1.
       -2    1    3    3    0  502  0.68943045001E+03  0.11588616635E+04  0.16959991752E+04  0.21667228486E+04  0.25500000920E-02 0.  1.
</event>
<event>
 5   0  0.3075756E-07  0.3195804E+04  0.7818609E-02  0.8189926E-01
        1   -1    0    0  501    0  0.00000000000E+00  0.00000000000E+00  0.13361835227E+04  0.13361835227E+04  0.50400001928E-02 0. -1.
       -1   -1    0    0    0  501  0.00000000000E+00  0.00000000000E+00 -0.19108831495E+04  0.19108831495E+04  0.50400001928E-02 0.  1.
    10030    2    1    2    0    0  0.00000000000E+00  0.00000000000E+00 -0.57469962679E+03  0.32470666721E+04  0.31958038601E+04 0.  0.
        5    1    3    3  502    0 -0.11363570510E+04  0.95725184861E+03 -0.88468325503E+03  0.17292556204E+04  0.46999998093E+01 0.  1.
       -5    1    3    3    0  502  0.11363570510E+04 -0.95725184861E+03  0.30998362824E+03  0.15178110517E+04  0.46999998093E+01 0. -1.
</event>
<event>
 5   0  0.2783875E-07  0.3191544E+04  0.7818609E-02  0.8191054E-01
        3   -1    0    0  501    0  0.00000000000E+00  0.00000000000E+00  0.15220027094E+04  0.15220027128E+04  0.10100000352E+00 0. -1.
       -3   -1    0    0    0  501  0.00000000000E+00  0.00000000000E+00 -0.16731172025E+04  0.16731172056E+04  0.10100000352E+00 0.  1.
    10030    2    1    2    0    0  0.00000000000E+00  0.00000000000E+00 -0.15111449310E+03  0.31951199184E+04  0.31915444071E+04 0.  0.
        3    1    3    3  502    0  0.44826562107E+03 -0.22617240109E+03 -0.15919795572E+04  0.16692797677E+04  0.10100000352E+00 0.  1.
       -3    1    3    3    0  502 -0.44826562107E+03  0.22617240109E+03  0.14408650641E+04  0.15258401506E+04  0.10100000352E+00 0. -1.
</event>
<event>
 5   0  0.2997105E-07  0.3197742E+04  0.7818609E-02  0.8189414E-01
        1   -1    0    0  501    0  0.00000000000E+00  0.00000000000E+00  0.26495191288E+04  0.26495191288E+04  0.50400001928E-02 0.  1.
       -1   -1    0    0    0  501  0.00000000000E+00  0.00000000000E+00 -0.96485001296E+03  0.96485001297E+03  0.50400001928E-02 0. -1.
    10030    2    1    2    0    0  0.00000000000E+00  0.00000000000E+00  0.16846691159E+04  0.36143691418E+04  0.31977420570E+04 0.  0.
        3    1    3    3  502    0  0.35541770768E+03  0.13316667118E+04 -0.73638491509E+02  0.13802465779E+04  0.10100000352E+00 0. -1.
       -3    1    3    3    0  502 -0.35541770768E+03 -0.13316667118E+04  0.17583076074E+04  0.22341225639E+04  0.10100000352E+00 0.  1.
</event>
<event>
 5   0  0.8335929E-07  0.3194346E+04  0.7818609E-02  0.8190312E-01
        2   -1    0    0  501    0  0.00000000000E+00  0.00000000000E+00  0.17440250499E+04  0.17440250499E+04  0.25500000920E-02 0. -1.
       -2   -1    0    0    0  501  0.00000000000E+00  0.00000000000E+00 -0.14626867074E+04  0.14626867074E+04  0.25500000920E-02 0.  1.
    10030    2    1    2    0    0  0.00000000000E+00  0.00000000000E+00  0.28133834253E+03  0.32067117573E+04  0.31943464170E+04 0.  0.
        4    1    3    3  502    0 -0.91817476241E+03  0.83938328871E+03 -0.86488263898E+03  0.15151345788E+04  0.12699999809E+01 0.  1.
       -4    1    3    3    0  502  0.91817476241E+03 -0.83938328871E+03  0.11462209815E+04  0.16915771786E+04  0.12699999809E+01 0. -1.
</event>
<event>
 5   0  0.3013888E-07  0.3288577E+04  0.7818609E-02  0.8165808E-01
        1   -1    0    0  501    0  0.00000000000E+00  0.00000000000E+00  0.16324545314E+04  0.16324545314E+04  0.50400001928E-02 0. -1.
       -1   -1    0    0    0  501  0.00000000000E+00  0.00000000000E+00 -0.16562082422E+04  0.16562082422E+04  0.50400001928E-02 0.  1.
    10030    2    1    2    0    0  0.00000000000E+00  0.00000000000E+00 -0.23753710859E+02  0.32886627736E+04  0.32885769870E+04 0.  0.
        1    1    3    3  502    0 -0.18399154998E+03  0.10143716979E+04  0.12691256535E+04  0.16350788227E+04  0.50400001928E-02 0. -1.
       -1    1    3    3    0  502  0.18399154998E+03 -0.10143716979E+04 -0.12928793644E+04  0.16535839509E+04  0.50400001928E-02 0.  1.
</event>
<event>
 5   0  0.8802800E-07  0.3159131E+04  0.7818609E-02  0.8199695E-01
        2   -1    0    0  501    0  0.00000000000E+00  0.00000000000E+00  0.20251259321E+04  0.20251259321E+04  0.25500000920E-02 0. -1.
       -2   -1    0    0    0  501  0.00000000000E+00  0.00000000000E+00 -0.12320358938E+04  0.12320358938E+04  0.25500000920E-02 0.  1.
    10030    2    1    2    0    0  0.00000000000E+00  0.00000000000E+00  0.79309003822E+03  0.32571618259E+04  0.31591314236E+04 0.  0.
        5    1    3    3  502    0  0.15264706863E+04  0.36404945862E+03  0.58201878810E+03  0.16737421319E+04  0.46999998093E+01 0.  1.
       -5    1    3    3    0  502 -0.15264706863E+04 -0.36404945862E+03  0.21107125012E+03  0.15834196939E+04  0.46999998093E+01 0. -1.
</event>
<event>
 5   0  0.8802800E-07  0.3200357E+04  0.7818609E-02  0.8188723E-01
       -2   -1    0    0    0  501  0.00000000000E+00  0.00000000000E+00  0.82927526414E+03  0.82927526415E+03  0.25500000920E-02 0.  1.
        2   -1    0    0  501    0  0.00000000000E+00  0.00000000000E+00 -0.30877209640E+04  0.30877209640E+04  0.25500000920E-02 0. -1.
    10030    2    1    2    0    0  0.00000000000E+00  0.00000000000E+00 -0.22584456999E+04  0.39169962282E+04  0.32003566164E+04 0.  0.
        5    1    3    3  502    0  0.12924521473E+04 -0.84030901499E+03 -0.60422220586E+03  0.16557953853E+04  0.46999998093E+01 0. -1.
       -5    1    3    3    0  502 -0.12924521473E+04  0.84030901499E+03 -0.16542234940E+04  0.22612008429E+04  0.46999998093E+01 0.  1.
</event>
<event>
 5   0  0.8802800E-07  0.3244750E+04  0.7818609E-02  0.8177098E-01
       -2   -1    0    0    0  501  0.00000000000E+00  0.00000000000E+00  0.18083079361E+04  0.18083079361E+04  0.25500000920E-02 0.  1.
        2   -1    0    0  501    0  0.00000000000E+00  0.00000000000E+00 -0.14555598974E+04  0.14555598974E+04  0.25500000920E-02 0. -1.
    10030    2    1    2    0    0  0.00000000000E+00  0.00000000000E+00  0.35274803865E+03  0.32638678335E+04  0.32447499219E+04 0.  0.
        5    1    3    3  502    0 -0.76406514776E+03  0.51160928390E+03 -0.11681159350E+04  0.14866258900E+04  0.46999998093E+01 0. -1.
       -5    1    3    3    0  502  0.76406514776E+03 -0.51160928390E+03  0.15208639736E+04  0.17772419435E+04  0.46999998093E+01 0.  1.
</event>
<event>
 5   0  0.8838951E-07  0.3201026E+04  0.7818609E-02  0.8188546E-01
       -2   -1    0    0    0  501  0.00000000000E+00  0.00000000000E+00  0.88323946762E+03  0.88323946763E+03  0.25500000920E-02 0. -1.
        2   -1    0    0  501    0  0.00000000000E+00  0.00000000000E+00 -0.29002802761E+04  0.29002802761E+04  0.25500000920E-02 0.  1.
    10030    2    1    2    0    0  0.00000000000E+00  0.00000000000E+00 -0.20170408085E+04  0.37835197438E+04  0.32010260899E+04 0.  0.
        2    1    3    3  502    0  0.77486751646E+03 -0.11700197783E+04 -0.19181590000E+04  0.23766993708E+04  0.25500000920E-02 0.  1.
       -2    1    3    3    0  502 -0.77486751646E+03  0.11700197783E+04 -0.98881808488E+02  0.14068203730E+04  0.25500000920E-02 0. -1.
</event>
<event>
 5   0  0.2891204E-07  0.3210295E+04  0.7818609E-02  0.8186104E-01
        1   -1    0    0  501    0  0.00000000000E+00  0.00000000000E+00  0.17185219454E+04  0.17185219454E+04  0.50400001928E-02 0.  1.
       -1   -1    0    0    0  501  0.00000000000E+00  0.00000000000E+00 -0.14992523084E+04  0.14992523084E+04  0.50400001928E-02 0. -1.
    10030    2    1    2    0    0  0.00000000000E+00  0.00000000000E+00  0.21926963706E+03  0.32177742538E+04  0.32102946866E+04 0.  0.
        4    1    3    3  502    0  0.69909486694E+03 -0.38491438001E+03  0.15055761651E+04  0.17040111251E+04  0.12699999809E+01 0.  1.
       -4    1    3    3    0  502 -0.69909486694E+03  0.38491438001E+03 -0.12863065280E+04  0.15137631287E+04  0.12699999809E+01 0. -1.
</event>
<event>
 5   0  0.8195618E-07  0.3238747E+04  0.7818609E-02  0.8178659E-01
       -2   -1    0    0    0  501  0.00000000000E+00  0.00000000000E+00  0.13131795889E+04  0.13131795889E+04  0.25500000920E-02 0.  1.
        2   -1    0    0  501    0  0.00000000000E+00  0.00000000000E+00 -0.19969620462E+04  0.19969620462E+04  0.25500000920E-02 0. -1.
    10030    2    1    2    0    0  0.00000000000E+00  0.00000000000E+00 -0.68378245730E+03  0.33101416351E+04  0.32387465470E+04 0.  0.
        1    1    3    3  502    0 -0.41302227124E+03  0.88882010095E+03 -0.16594091720E+04  0.19272330862E+04  0.50400001928E-02 0. -1.
       -1    1    3    3    0  502  0.41302227124E+03 -0.88882010095E+03  0.97562671467E+03  0.13829085490E+04  0.50400001928E-02 0.  1.
</event>
<event>
 5   0  0.8802800E-07  0.3193878E+04  0.7818609E-02  0.8190436E-01
       -2   -1    0    0    0  501  0.00000000000E+00  0.00000000000E+00  0.14894011037E+04  0.14894011038E+04  0.25500000920E-02 0.  1.
        2   -1    0    0  501    0  0.00000000000E+00  0.00000000000E+00 -0.17122415640E+04  0.17122415640E+04  0.25500000920E-02 0. -1.
    10030    2    1    2    0    0  0.00000000000E+00  0.00000000000E+00 -0.22284046022E+03  0.32016426677E+04  0.31938781913E+04 0.  0.
        5    1    3    3  502    0 -0.33744501802E+03 -0.11878850704E+04  0.90358875619E+03  0.15301747649E+04  0.46999998093E+01 0.  1.
       -5    1    3    3    0  502  0.33744501802E+03  0.11878850704E+04 -0.11264292164E+04  0.16714679029E+04  0.46999998093E+01 0. -1.
</event>
<event>
 5   0  0.8335929E-07  0.3206101E+04  0.7818609E-02  0.8187208E-01
       -2   -1    0    0    0  501  0.00000000000E+00  0.00000000000E+00  0.10383283727E+04  0.10383283728E+04  0.25500000920E-02 0.  1.
        2   -1    0    0  501    0  0.00000000000E+00  0.00000000000E+00 -0.24749122932E+04  0.24749122932E+04  0.25500000920E-02 0. -1.
    10030    2    1    2    0    0  0.00000000000E+00  0.00000000000E+00 -0.14365839205E+04  0.35132406660E+04  0.32061014670E+04 0.  0.
        4    1    3    3  502    0  0.89328213054E+02  0.10719295748E+04  0.58416820246E+03  0.12240370275E+04  0.12699999809E+01 0.  1.
       -4    1    3    3    0  502 -0.89328213054E+02 -0.10719295748E+04 -0.20207521229E+04  0.22892036385E+04  0.12699999809E+01 0. -1.
</event>
<event>
 5   0  0.8488469E-07  0.3200898E+04  0.7818609E-02  0.8188580E-01
        2   -1    0    0  501    0  0.00000000000E+00  0.00000000000E+00  0.18942839348E+04  0.18942839348E+04  0.25500000920E-02 0. -1.
       -2   -1    0    0    0  501  0.00000000000E+00  0.00000000000E+00 -0.13521928536E+04  0.13521928536E+04  0.25500000920E-02 0.  1.
    10030    2    1    2    0    0  0.00000000000E+00  0.00000000000E+00  0.54209108125E+03  0.32464767884E+04  0.32008981235E+04 0.  0.
        3    1    3    3  502    0  0.14337325441E+04  0.59653354843E+03 -0.12176230553E+03  0.15576480192E+04  0.10100000352E+00 0.  1.
       -3    1    3    3    0  502 -0.14337325441E+04 -0.59653354843E+03  0.66385338678E+03  0.16888287692E+04  0.10100000352E+00 0. -1.
</event>
<event>
 5   0  0.8802800E-07  0.3198849E+04  0.7818609E-02  0.8189121E-01
       -2   -1    0    0    0  501  0.00000000000E+00  0.00000000000E+00  0.11942302669E+04  0.11942302669E+04  0.25500000920E-02 0.  1.
        2   -1    0    0  501    0  0.00000000000E+00  0.00000000000E+00 -0.21420981891E+04  0.21420981891E+04  0.25500000920E-02 0. -1.
    10030    2    1    2    0    0  0.00000000000E+00  0.00000000000E+00 -0.94786792224E+03  0.33363284560E+04  0.31988488505E+04 0.  0.
        5    1    3    3  502    0 -0.48772914418E+01  0.40090244817E+03 -0.20888294091E+04  0.21269642572E+04  0.46999998093E+01 0. -1.
       -5    1    3    3    0  502  0.48772914418E+01 -0.40090244817E+03  0.11409614869E+04  0.12093641988E+04  0.46999998093E+01 0.  1.
</event>
<event>
 5   0  0.2891204E-07  0.3208597E+04  0.7818609E-02  0.8186550E-01
        1   -1    0    0  501    0  0.00000000000E+00  0.00000000000E+00  0.21345075935E+04  0.21345075935E+04  0.50400001928E-02 0. -1.
       -1   -1    0    0    0  501  0.00000000000E+00  0.00000000000E+00 -0.12057924747E+04  0.12057924747E+04  0.50400001928E-02 0.  1.
    10030    2    1    2    0    0  0.00000000000E+00  0.00000000000E+00  0.92871511887E+03  0.33403000682E+04  0.32085966985E+04 0.  0.
        4    1    3    3  502    0  0.35642692577E+02 -0.66768646514E+03  0.19825368170E+04  0.20922546357E+04  0.12699999809E+01 0. -1.
       -4    1    3    3    0  502 -0.35642692577E+02  0.66768646514E+03 -0.10538216981E+04  0.12480454325E+04  0.12699999809E+01 0.  1.
</event>
<event>
 5   0  0.2997105E-07  0.3208100E+04  0.7818609E-02  0.8186681E-01
        1   -1    0    0  501    0  0.00000000000E+00  0.00000000000E+00  0.19860518823E+04  0.19860518823E+04  0.50400001928E-02 0.  1.
       -1   -1    0    0    0  501  0.00000000000E+00  0.00000000000E+00 -0.12955236032E+04  0.12955236032E+04  0.50400001928E-02 0. -1.
    10030    2    1    2    0    0  0.00000000000E+00  0.00000000000E+00  0.69052827916E+03  0.32815754855E+04  0.32081004290E+04 0.  0.
        3    1    3    3  502    0 -0.59484873789E+02 -0.82800850623E+03  0.17492298892E+04  0.19362184154E+04  0.10100000352E+00 0.  1.
       -3    1    3    3    0  502  0.59484873789E+02  0.82800850623E+03 -0.10587016101E+04  0.13453570701E+04  0.10100000352E+00 0. -1.
</event>
<event>
 5   0  0.3075756E-07  0.3196552E+04  0.7818609E-02  0.8189728E-01
        1   -1    0    0  501    0  0.00000000000E+00  0.00000000000E+00  0.15464313067E+04  0.15464313067E+04  0.50400001928E-02 0. -1.
       -1   -1    0    0    0  501  0.00000000000E+00  0.00000000000E+00 -0.16518589484E+04  0.16518589485E+04  0.50400001928E-02 0.  1.
    10030    2    1    2    0    0  0.00000000000E+00  0.00000000000E+00 -0.10542764177E+03  0.31982902551E+04  0.31965521376E+04 0.  0.
        5    1    3    3  502    0 -0.10729292984E+04  0.11738566500E+04 -0.21200964890E+03  0.16043961155E+04  0.46999998093E+01 0.  1.
       -5    1    3    3    0  502  0.10729292984E+04 -0.11738566500E+04  0.10658200713E+03  0.15938941396E+04  0.46999998093E+01 0. -1.
</event>
<event>
 5   0  0.8195618E-07  0.3201191E+04  0.7818609E-02  0.8188503E-01
        2   -1    0    0  501    0  0.00000000000E+00  0.00000000000E+00  0.24181439892E+04  0.24181439892E+04  0.25500000920E-02 0. -1.
       -2   -1    0    0    0  501  0.00000000000E+00  0.00000000000E+00 -0.10594516736E+04  0.10594516736E+04  0.25500000920E-02 0.  1.
    10030    2    1    2    0    0  0.00000000000E+00  0.00000000000E+00  0.13586923156E+04  0.34775956628E+04  0.32011914634E+04 0.  0.
        1    1    3    3  502    0 -0.69803881207E+01  0.13402714988E+04 -0.27114618434E+03  0.13674416513E+04  0.50400001928E-02 0.  1.
       -1    1    3    3    0  502  0.69803881207E+01 -0.13402714988E+04  0.16298385000E+04  0.21101540115E+04  0.50400001928E-02 0. -1.
</event>
<event>
 5   0  0.8802800E-07  0.3205224E+04  0.7818609E-02  0.8187439E-01
       -2   -1    0    0    0  501  0.00000000000E+00  0.00000000000E+00  0.13441422023E+04  0.13441422023E+04  0.25500000920E-02 0.  1.
        2   -1    0    0  501    0  0.00000000000E+00  0.00000000000E+00 -0.19107842817E+04  0.19107842817E+04  0.25500000920E-02 0. -1.
    10030    2    1    2    0    0  0.00000000000E+00  0.00000000000E+00 -0.56664207940E+03  0.32549264841E+04  0.32052243557E+04 0.  0.
        5    1    3    3  502    0  0.77451700168E+03 -0.42269843304E+03  0.10752556878E+04  0.13909519888E+04  0.46999998093E+01 0.  1.
       -5    1    3    3    0  502 -0.77451700168E+03  0.42269843304E+03 -0.16418977672E+04  0.18639744953E+04  0.46999998093E+01 0. -1.
</event>
<event>
 5   0  0.3075756E-07  0.3196183E+04  0.7818609E-02  0.8189826E-01
        1   -1    0    0  501    0  0.00000000000E+00  0.00000000000E+00  0.14674233912E+04  0.14674233912E+04  0.50400001928E-02 0. -1.
       -1   -1    0    0    0  501  0.00000000000E+00  0.00000000000E+00 -0.17403949154E+04  0.17403949154E+04  0.50400001928E-02 0.  1.
    10030    2    1    2    0    0  0.00000000000E+00  0.00000000000E+00 -0.27297152418E+03  0.32078183065E+04  0.31961828538E+04 0.  0.
        5    1    3    3  502    0  0.36078920391E+03 -0.13592556605E+04  0.62530926331E+03  0.15390836771E+04  0.46999998093E+01 0. -1.
       -5    1    3    3    0  502 -0.36078920391E+03  0.13592556605E+04 -0.89828078750E+03  0.16687346294E+04  0.46999998093E+01 0.  1.
</event>
<event>
 5   0  0.3013888E-07  0.3211145E+04  0.7818609E-02  0.8185880E-01
        1   -1    0    0  501    0  0.00000000000E+00  0.00000000000E+00  0.22508313103E+04  0.22508313103E+04  0.50400001928E-02 0. -1.
       -1   -1    0    0    0  501  0.00000000000E+00  0.00000000000E+00 -0.11452937908E+04  0.11452937908E+04  0.50400001928E-02 0.  1.
    10030    2    1    2    0    0  0.00000000000E+00  0.00000000000E+00  0.11055375195E+04  0.33961251012E+04  0.32111450443E+04 0.  0.
        1    1    3    3  502    0 -0.93325500203E+03 -0.11553349073E+04  0.11979077452E+04  0.19080740585E+04  0.50400001928E-02 0. -1.
       -1    1    3    3    0  502  0.93325500203E+03  0.11553349073E+04 -0.92370225672E+02  0.14880510426E+04  0.50400001928E-02 0.  1.
</event>
<event>
 5   0  0.8335929E-07  0.3199302E+04  0.7818609E-02  0.8189001E-01
       -2   -1    0    0    0  501  0.00000000000E+00  0.00000000000E+00  0.13017195491E+04  0.13017195491E+04  0.25500000920E-02 0. -1.
        2   -1    0    0  501    0  0.00000000000E+00  0.00000000000E+00 -0.19657721538E+04  0.19657721538E+04  0.25500000920E-02 0.  1.
    10030    2    1    2    0    0  0.00000000000E+00  0.00000000000E+00 -0.66405260473E+03  0.32674917029E+04  0.31993024500E+04 0.  0.
        4    1    3    3  502    0  0.11188695109E+03  0.96668254938E+03 -0.16286880680E+04  0.18972665276E+04  0.12699999809E+01 0.  1.
       -4    1    3    3    0  502 -0.11188695109E+03 -0.96668254938E+03  0.96463546328E+03  0.13702251753E+04  0.12699999809E+01 0. -1.
</event>
<event>
 5   0  0.3013888E-07  0.3239387E+04  0.7818609E-02  0.8178492E-01
        1   -1    0    0  501    0  0.00000000000E+00  0.00000000000E+00  0.23031211624E+04  0.23031211625E+04  0.50400001928E-02 0.  1.
       -1   -1    0    0    0  501  0.00000000000E+00  0.00000000000E+00 -0.11390662017E+04  0.11390662018E+04  0.50400001928E-02 0. -1.
    10030    2    1    2    0    0  0.00000000000E+00  0.00000000000E+00  0.11640549607E+04  0.34421873642E+04  0.32393872721E+04 0.  0.
        1    1    3    3  502    0  0.12540106970E+04  0.69552049268E+03  0.13822440556E+04  0.19917053530E+04  0.50400001928E-02 0.  1.
       -1    1    3    3    0  502 -0.12540106970E+04 -0.69552049268E+03 -0.21818909486E+03  0.14504820113E+04  0.50400001928E-02 0. -1.
</event>
<event>
 5   0  0.8335929E-07  0.3196747E+04  0.7818609E-02  0.8189677E-01
       -2   -1    0    0    0  501  0.00000000000E+00  0.00000000000E+00  0.13852258556E+04  0.13852258556E+04  0.25500000920E-02 0. -1.
        2   -1    0    0  501    0  0.00000000000E+00  0.00000000000E+00 -0.18443184687E+04  0.18443184687E+04  0.25500000920E-02 0.  1.
    10030    2    1    2    0    0  0.00000000000E+00  0.00000000000E+00 -0.45909261315E+03  0.32295443243E+04  0.31967468644E+04 0.  0.
        4    1    3    3  502    0  0.14277993075E+04  0.29711508027E+03  0.43131160576E+03  0.15208285727E+04  0.12699999809E+01 0. -1.
       -4    1    3    3    0  502 -0.14277993075E+04 -0.29711508027E+03 -0.89040421891E+03  0.17087157515E+04  0.12699999809E+01 0.  1.
</event>
<event>
 5   0  0.8195618E-07  0.3205015E+04  0.7818609E-02  0.8187494E-01
       -2   -1    0    0    0  501  0.00000000000E+00  0.00000000000E+00  0.10818519111E+04  0.10818519111E+04  0.25500000920E-02 0. -1.
        2   -1    0    0  501    0  0.00000000000E+00  0.00000000000E+00 -0.23737351274E+04  0.23737351274E+04  0.25500000920E-02 0.  1.
    10030    2    1    2    0    0  0.00000000000E+00  0.00000000000E+00 -0.12918832163E+04  0.34555870385E+04  0.32050147482E+04 0.  0.
        1    1    3    3  502    0 -0.15530866749E+04  0.76647314571E+02 -0.22825681729E+03  0.15716406095E+04  0.50400001928E-02 0. -1.
       -1    1    3    3    0  502  0.15530866749E+04 -0.76647314571E+02 -0.10636263990E+04  0.18839464290E+04  0.50400001928E-02 0.  1.
</event>
<event>
 5   0  0.2783875E-07  0.3204855E+04  0.7818609E-02  0.8187536E-01
       -4   -1    0    0    0  501  0.00000000000E+00  0.00000000000E+00  0.14065716794E+04  0.14065722527E+04  0.12699999809E+01 0.  1.
        4   -1    0    0  501    0  0.00000000000E+00  0.00000000000E+00 -0.18255538076E+04  0.18255542494E+04  0.12699999809E+01 0. -1.
    10030    2    1    2    0    0  0.00000000000E+00  0.00000000000E+00 -0.41898212823E+03  0.32321265021E+04  0.32048550204E+04 0.  0.
        2    1    3    3  502    0  0.82194510405E+03 -0.72974283092E+03  0.96647398917E+03  0.14636223301E+04  0.25500000920E-02 0.  1.
       -2    1    3    3    0  502 -0.82194510405E+03  0.72974283092E+03 -0.13854561174E+04  0.17685041721E+04  0.25500000920E-02 0. -1.
</event>
<event>
 5   0  0.3013888E-07  0.3198558E+04  0.7818609E-02  0.8189198E-01
        1   -1    0    0  501    0  0.00000000000E+00  0.00000000000E+00  0.18662285979E+04  0.18662285979E+04  0.50400001928E-02 0.  1.
       -1   -1    0    0    0  501  0.00000000000E+00  0.00000000000E+00 -0.13705148802E+04  0.13705148802E+04  0.50400001928E-02 0. -1.
    10030    2    1    2    0    0  0.00000000000E+00  0.00000000000E+00  0.49571371765E+03  0.32367434781E+04  0.31985584649E+04 0.  0.
        1    1    3    3  502    0 -0.11899176498E+04  0.86031775286E+03  0.88917616376E+03  0.17165910694E+04  0.50400001928E-02 0.  1.
       -1    1    3    3    0  502  0.11899176498E+04 -0.86031775286E+03 -0.39346244610E+03  0.15201524087E+04  0.50400001928E-02 0. -1.
</event>
<event>
 5   0  0.2783875E-07  0.3189136E+04  0.7818609E-02  0.8191692E-01
        3   -1    0    0  501    0  0.00000000000E+00  0.00000000000E+00  0.25853343294E+04  0.25853343314E+04  0.10100000352E+00 0.  1.
       -3   -1    0    0    0  501  0.00000000000E+00  0.00000000000E+00 -0.98348880126E+03  0.98348880645E+03  0.10100000352E+00 0. -1.
    10030    2    1    2    0    0  0.00000000000E+00  0.00000000000E+00  0.16018455281E+04  0.35688231378E+04  0.31891361672E+04 0.  0.
        4    1    3    3  502    0 -0.15642168544E+04  0.18089500670E+03  0.10821342803E+04  0.19106317240E+04  0.12699999809E+01 0.  1.
       -4    1    3    3    0  502  0.15642168544E+04 -0.18089500670E+03  0.51971124780E+03  0.16581914139E+04  0.12699999809E+01 0. -1.
</event>
<event>
 5   0  0.8335929E-07  0.3201920E+04  0.7818609E-02  0.8188310E-01
        2   -1    0    0  501    0  0.00000000000E+00  0.00000000000E+00  0.18114029104E+04  0.18114029104E+04  0.25500000920E-02 0. -1.
       -2   -1    0    0    0  501  0.00000000000E+00  0.00000000000E+00 -0.14149659830E+04  0.14149659830E+04  0.25500000920E-02 0.  1.
    10030    2    1    2    0    0  0.00000000000E+00  0.00000000000E+00  0.39643692736E+03  0.32263688934E+04  0.32019203611E+04 0.  0.
        4    1    3    3  502    0  0.61343885771E+03  0.58216995760E+02  0.16871259239E+04  0.17961324970E+04  0.12699999809E+01 0. -1.
       -4    1    3    3    0  502 -0.61343885771E+03 -0.58216995760E+02 -0.12906889966E+04  0.14302363964E+04  0.12699999809E+01 0.  1.
</event>
<event>
 5   0  0.2891204E-07  0.3242980E+04  0.7818609E-02  0.8177558E-01
        1   -1    0    0  501    0  0.00000000000E+00  0.00000000000E+00  0.14787056184E+04  0.14787056184E+04  0.50400001928E-02 0. -1.
       -1   -1    0    0    0  501  0.00000000000E+00  0.00000000000E+00 -0.17780614958E+04  0.17780614958E+04  0.50400001928E-02 0.  1.
    10030    2    1    2    0    0  0.00000000000E+00  0.00000000000E+00 -0.29935587741E+03  0.32567671143E+04  0.32429798173E+04 0.  0.
        4    1    3    3  502    0  0.10040272677E+03 -0.38912069850E+03  0.14279023806E+04  0.14833753560E+04  0.12699999809E+01 0. -1.
       -4    1    3    3    0  502 -0.10040272677E+03  0.38912069850E+03 -0.17272582580E+04  0.17733917582E+04  0.12699999809E+01 0.  1.
</event>
<event>
 5   0  0.8335929E-07  0.3197068E+04  0.7818609E-02  0.8189592E-01
       -2   -1    0    0    0  501  0.00000000000E+00  0.00000000000E+00  0.25612816388E+04  0.25612816388E+04  0.25500000920E-02 0.  1.
        2   -1    0    0  501    0  0.00000000000E+00  0.00000000000E+00 -0.99766870464E+03  0.99766870464E+03  0.25500000920E-02 0. -1.
    10030    2    1    2    0    0  0.00000000000E+00  0.00000000000E+00  0.15636129341E+04  0.35589503434E+04  0.31970677408E+04 0.  0.
        4    1    3    3  502    0  0.68038889726E+03 -0.12301370246E+04  0.16289615286E+04  0.21516699156E+04  0.12699999809E+01 0.  1.
       -4    1    3    3    0  502 -0.68038889726E+03  0.12301370246E+04 -0.65348594494E+02  0.14072804278E+04  0.12699999809E+01 0. -1.
</event>
<event>
 5   0  0.2783875E-07  0.3188808E+04  0.7818609E-02  0.8191779E-01
       -1   -1    0    0    0  501  0.00000000000E+00  0.00000000000E+00  0.12464485747E+04  0.12464485747E+04  0.50400001928E-02 0. -1.
        1   -1    0    0  501    0  0.00000000000E+00  0.00000000000E+00 -0.20394942413E+04  0.20394942413E+04  0.50400001928E-02 0.  1.
    10030    2    1    2    0    0  0.00000000000E+00  0.00000000000E+00 -0.79304566658E+03  0.32859428160E+04  0.31888083607E+04 0.  0.
        2    1    3    3  502    0 -0.16775888952E+03 -0.12387713458E+04 -0.14163290645E+04  0.18890964801E+04  0.25500000920E-02 0.  1.
       -2    1    3    3    0  502  0.16775888952E+03  0.12387713458E+04  0.62328339789E+03  0.13968463360E+04  0.25500000920E-02 0. -1.
</event>
<event>
 5   0  0.8195618E-07  0.3230412E+04  0.7818609E-02  0.8180831E-01
       -2   -1    0    0    0  501  0.00000000000E+00  0.00000000000E+00  0.17018240247E+04  0.17018240247E+04  0.25500000920E-02 0.  1.
        2   -1    0    0  501    0  0.00000000000E+00  0.00000000000E+00 -0.15329962144E+04  0.15329962144E+04  0.25500000920E-02 0. -1.
    10030    2    1    2    0    0  0.00000000000E+00  0.00000000000E+00  0.16882781032E+03  0.32348202392E+04  0.32304116069E+04 0.  0.
        1    1    3    3  502    0  0.86029355958E+03 -0.11411921793E+04 -0.66925205875E+03  0.15780757007E+04  0.50400001928E-02 0. -1.
       -1    1    3    3    0  502 -0.86029355958E+03  0.11411921793E+04  0.83807986907E+03  0.16567445385E+04  0.50400001928E-02 0.  1.
</event>
<event>
 5   0  0.2997105E-07  0.3192862E+04  0.7818609E-02  0.8190705E-01
        1   -1    0    0  501    0  0.00000000000E+00  0.00000000000E+00  0.13576936606E+04  0.13576936607E+04  0.50400001928E-02 0.  1.
       -1   -1    0    0    0  501  0.00000000000E+00  0.00000000000E+00 -0.18771475576E+04  0.18771475576E+04  0.50400001928E-02 0. -1.
    10030    2    1    2    0    0  0.00000000000E+00  0.00000000000E+00 -0.51945389690E+03  0.32348412182E+04  0.31928616249E+04 0.  0.
        3    1    3    3  502    0 -0.28080110121E+02 -0.11524614675E+04 -0.13786182103E+04  0.17970932381E+04  0.10100000352E+00 0. -1.
       -3    1    3    3    0  502  0.28080110121E+02  0.11524614675E+04  0.85916431341E+03  0.14377479801E+04  0.10100000352E+00 0.  1.
</event>
<event>
 5   0  0.3013888E-07  0.3195012E+04  0.7818609E-02  0.8190136E-01
        1   -1    0    0  501    0  0.00000000000E+00  0.00000000000E+00  0.15074674133E+04  0.15074674134E+04  0.50400001928E-02 0. -1.
       -1   -1    0    0    0  501  0.00000000000E+00  0.00000000000E+00 -0.16929223361E+04  0.16929223361E+04  0.50400001928E-02 0.  1.
    10030    2    1    2    0    0  0.00000000000E+00  0.00000000000E+00 -0.18545492276E+03  0.32003897495E+04  0.31950118967E+04 0.  0.
        1    1    3    3  502    0 -0.11082608265E+04 -0.21321664870E+02 -0.12450239475E+04  0.16669676970E+04  0.50400001928E-02 0.  1.
       -1    1    3    3    0  502  0.11082608265E+04  0.21321664870E+02  0.10595690247E+04  0.15334220525E+04  0.50400001928E-02 0. -1.
</event>
<event>
 5   0  0.2997105E-07  0.3195150E+04  0.7818609E-02  0.8190099E-01
        1   -1    0    0  501    0  0.00000000000E+00  0.00000000000E+00  0.26210060374E+04  0.26210060374E+04  0.50400001928E-02 0. -1.
       -1   -1    0    0    0  501  0.00000000000E+00  0.00000000000E+00 -0.97376600342E+03  0.97376600343E+03  0.50400001928E-02 0.  1.
    10030    2    1    2    0    0  0.00000000000E+00  0.00000000000E+00  0.16472400340E+04  0.35947720409E+04  0.31951504340E+04 0.  0.
        3    1    3    3  502    0 -0.12312355973E+04  0.22445229762E+03  0.19407464915E+04  0.23092892596E+04  0.10100000352E+00 0. -1.
       -3    1    3    3    0  502  0.12312355973E+04 -0.22445229762E+03 -0.29350645751E+03  0.12854827812E+04  0.10100000352E+00 0.  1.
</event>
<event>
 5   0  0.8488469E-07  0.3201552E+04  0.7818609E-02  0.8188407E-01
        2   -1    0    0  501    0  0.00000000000E+00  0.00000000000E+00  0.14355819273E+04  0.14355819273E+04  0.25500000920E-02 0.  1.
       -2   -1    0    0    0  501  0.00000000000E+00  0.00000000000E+00 -0.17849790690E+04  0.17849790690E+04  0.25500000920E-02 0. -1.
    10030    2    1    2    0    0  0.00000000000E+00  0.00000000000E+00 -0.34939714168E+03  0.32205609962E+04  0.32015519312E+04 0.  0.
        3    1    3    3  502    0 -0.49023494858E+03  0.85133896984E+03  0.10966787654E+04  0.14723493713E+04  0.10100000352E+00 0.  1.
       -3    1    3    3    0  502  0.49023494858E+03 -0.85133896984E+03 -0.14460759071E+04  0.17482116250E+04  0.10100000352E+00 0. -1.
</event>
<event>
 5   0  0.8838951E-07  0.3154162E+04  0.7818609E-02  0.8201029E-01
        2   -1    0    0  501    0  0.00000000000E+00  0.00000000000E+00  0.19967033848E+04  0.19967033848E+04  0.25500000920E-02 0.  1.
       -2   -1    0    0    0  501  0.00000000000E+00  0.00000000000E+00 -0.12456456886E+04  0.12456456886E+04  0.25500000920E-02 0. -1.
    10030    2    1    2    0    0  0.00000000000E+00  0.00000000000E+00  0.75105769617E+03  0.32423490734E+04  0.31541623057E+04 0.  0.
        2    1    3    3  502    0  0.94511482338E+02  0.55215699547E+03  0.18909839884E+04  0.19722145452E+04  0.25500000920E-02 0.  1.
       -2    1    3    3    0  502 -0.94511482338E+02 -0.55215699547E+03 -0.11399262922E+04  0.12701345282E+04  0.25500000920E-02 0. -1.
</event>
<event>
 5   0  0.2891204E-07  0.3202834E+04  0.7818609E-02  0.8188069E-01
        1   -1    0    0  501    0  0.00000000000E+00  0.00000000000E+00  0.22594980883E+04  0.22594980883E+04  0.50400001928E-02 0. -1.
       -1   -1    0    0    0  501  0.00000000000E+00  0.00000000000E+00 -0.11350029718E+04  0.11350029718E+04  0.50400001928E-02 0.  1.
    10030    2    1    2    0    0  0.00000000000E+00  0.00000000000E+00  0.11244951165E+04  0.33945010601E+04  0.32028343978E+04 0.  0.
        4    1    3    3  502    0  0.15878962669E+04 -0.20632055349E+03  0.53733094899E+03  0.16889964141E+04  0.12699999809E+01 0.  1.
       -4    1    3    3    0  502 -0.15878962669E+04  0.20632055349E+03  0.58716416752E+03  0.17055046460E+04  0.12699999809E+01 0. -1.
</event>
<event>
 5   0  0.8195618E-07  0.3200797E+04  0.7818609E-02  0.8188607E-01
       -2   -1    0    0    0  501  0.00000000000E+00  0.00000000000E+00  0.12469270260E+04  0.12469270260E+04  0.25500000920E-02 0. -1.
        2   -1    0    0  501    0  0.00000000000E+00  0.00000000000E+00 -0.20540696476E+04  0.20540696476E+04  0.25500000920E-02 0.  1.
    10030    2    1    2    0    0  0.00000000000E+00  0.00000000000E+00 -0.80714262153E+03  0.33009966736E+04  0.32007967489E+04 0.  0.
        1    1    3    3  502    0 -0.55472973506E+03 -0.54388187285E+03  0.10394234733E+04  0.12976647208E+04  0.50400001928E-02 0. -1.
       -1    1    3    3    0  502  0.55472973506E+03  0.54388187285E+03 -0.18465660949E+04  0.20033319528E+04  0.50400001928E-02 0.  1.
</event>
<event>
 5   0  0.8802800E-07  0.3211668E+04  0.7818609E-02  0.8185742E-01
        2   -1    0    0  501    0  0.00000000000E+00  0.00000000000E+00  0.16985620255E+04  0.16985620255E+04  0.25500000920E-02 0.  1.
       -2   -1    0    0    0  501  0.00000000000E+00  0.00000000000E+00 -0.15181686525E+04  0.15181686525E+04  0.25500000920E-02 0. -1.
    10030    2    1    2    0    0  0.00000000000E+00  0.00000000000E+00  0.18039337294E+03  0.32167306780E+04  0.32116684894E+04 0.  0.
        5    1    3    3  502    0  0.11457537817E+04  0.10543573186E+04 -0.30318241518E+03  0.15863047470E+04  0.46999998093E+01 0. -1.
       -5    1    3    3    0  502 -0.11457537817E+04 -0.10543573186E+04  0.48357578812E+03  0.16304259310E+04  0.46999998093E+01 0.  1.
</event>
<event>
 5   0  0.2891204E-07  0.3197238E+04  0.7818609E-02  0.8189547E-01
       -1   -1    0    0    0  501  0.00000000000E+00  0.00000000000E+00  0.15777016513E+04  0.15777016513E+04  0.50400001928E-02 0.  1.
        1   -1    0    0  501    0  0.00000000000E+00  0.00000000000E+00 -0.16198137482E+04  0.16198137483E+04  0.50400001928E-02 0. -1.
    10030    2    1    2    0    0  0.00000000000E+00  0.00000000000E+00 -0.42112096938E+02  0.31975153996E+04  0.31972380740E+04 0.  0.
        4    1    3    3  502    0 -0.89047021944E+03  0.12695822204E+04 -0.40942590958E+03  0.16038726303E+04  0.12699999809E+01 0. -1.
       -4    1    3    3    0  502  0.89047021944E+03 -0.12695822204E+04  0.36731381265E+03  0.15936427692E+04  0.12699999809E+01 0.  1.
</event>
<event>
 5   0  0.8195618E-07  0.3193947E+04  0.7818609E-02  0.8190418E-01
       -2   -1    0    0    0  501  0.00000000000E+00  0.00000000000E+00  0.20615941711E+04  0.20615941711E+04  0.25500000920E-02 0.  1.
        2   -1    0    0  501    0  0.00000000000E+00  0.00000000000E+00 -0.12370640830E+04  0.12370640830E+04  0.25500000920E-02 0. -1.
    10030    2    1    2    0    0  0.00000000000E+00  0.00000000000E+00  0.82453008808E+03  0.32986582542E+04  0.31939468392E+04 0.  0.
        1    1    3    3  502    0  0.68419090035E+02 -0.10194094814E+04 -0.85534772129E+03  0.13324776122E+04  0.50400001928E-02 0. -1.
       -1    1    3    3    0  502 -0.68419090035E+02  0.10194094814E+04  0.16798778094E+04  0.19661806420E+04  0.50400001928E-02 0.  1.
</event>
<event>
 5   0  0.3013888E-07  0.3203848E+04  0.7818609E-02  0.8187802E-01
       -1   -1    0    0    0  501  0.00000000000E+00  0.00000000000E+00  0.20421942384E+04  0.20421942384E+04  0.50400001928E-02 0.  1.
        1   -1    0    0  501    0  0.00000000000E+00  0.00000000000E+00 -0.12565705837E+04  0.12565705837E+04  0.50400001928E-02 0. -1.
    10030    2    1    2    0    0  0.00000000000E+00  0.00000000000E+00  0.78562365468E+03  0.32987648222E+04  0.32038484398E+04 0.  0.
        1    1    3    3  502    0  0.67282388602E+03 -0.71084161848E+03 -0.91289546896E+03  0.13384191890E+04  0.50400001928E-02 0. -1.
       -1    1    3    3    0  502 -0.67282388602E+03  0.71084161848E+03  0.16985191236E+04  0.19603456332E+04  0.50400001928E-02 0.  1.
</event>
<event>
 5   0  0.8195618E-07  0.3293884E+04  0.7818609E-02  0.8164453E-01
       -2   -1    0    0    0  501  0.00000000000E+00  0.00000000000E+00  0.10477193391E+04  0.10477193391E+04  0.25500000920E-02 0. -1.
        2   -1    0    0  501    0  0.00000000000E+00  0.00000000000E+00 -0.25888780721E+04  0.25888780721E+04  0.25500000920E-02 0.  1.
    10030    2    1    2    0    0  0.00000000000E+00  0.00000000000E+00 -0.15411587330E+04  0.36365974112E+04  0.32938838005E+04 0.  0.
        1    1    3    3  502    0  0.86802654286E+03  0.41342048110E+03  0.70572015488E+03  0.11926556545E+04  0.50400001928E-02 0. -1.
       -1    1    3    3    0  502 -0.86802654286E+03 -0.41342048110E+03 -0.22468788879E+04  0.24439417567E+04  0.50400001928E-02 0.  1.
</event>
<event>
 5   0  0.2891204E-07  0.3194343E+04  0.7818609E-02  0.8190313E-01
        1   -1    0    0  501    0  0.00000000000E+00  0.00000000000E+00  0.15504480083E+04  0.15504480083E+04  0.50400001928E-02 0. -1.
       -1   -1    0    0    0  501  0.00000000000E+00  0.00000000000E+00 -0.16453029408E+04  0.16453029408E+04  0.50400001928E-02 0.  1.
    10030    2    1    2    0    0  0.00000000000E+00  0.00000000000E+00 -0.94854932507E+02  0.31957509491E+04  0.31943429169E+04 0.  0.
        4    1    3    3  502    0  0.12831144564E+04  0.17069582036E+03 -0.98348687597E+03  0.16256591954E+04  0.12699999809E+01 0.  1.
       -4    1    3    3    0  502 -0.12831144564E+04 -0.17069582036E+03  0.88863194346E+03  0.15700917538E+04  0.12699999809E+01 0. -1.
</event>
<event>
 5   0  0.8838951E-07  0.3204905E+04  0.7818609E-02  0.8187523E-01
       -2   -1    0    0    0  501  0.00000000000E+00  0.00000000000E+00  0.16217822423E+04  0.16217822423E+04  0.25500000920E-02 0.  1.
        2   -1    0    0  501    0  0.00000000000E+00  0.00000000000E+00 -0.15833535791E+04  0.15833535791E+04  0.25500000920E-02 0. -1.
    10030    2    1    2    0    0  0.00000000000E+00  0.00000000000E+00  0.38428663177E+02  0.32051358214E+04  0.32049054387E+04 0.  0.
        2    1    3    3  502    0 -0.73002230345E+03  0.41708214003E+03  0.13834841733E+04  0.16189251165E+04  0.25500000920E-02 0.  1.
       -2    1    3    3    0  502  0.73002230345E+03 -0.41708214003E+03 -0.13450555101E+04  0.15862107049E+04  0.25500000920E-02 0. -1.
</event>
<event>
 5   0  0.8838951E-07  0.3198950E+04  0.7818609E-02  0.8189095E-01
        2   -1    0    0  501    0  0.00000000000E+00  0.00000000000E+00  0.16770349281E+04  0.16770349281E+04  0.25500000920E-02 0.  1.
       -2   -1    0    0    0  501  0.00000000000E+00  0.00000000000E+00 -0.15255019252E+04  0.15255019252E+04  0.25500000920E-02 0. -1.
    10030    2    1    2    0    0  0.00000000000E+00  0.00000000000E+00  0.15153300290E+03  0.32025368533E+04  0.31989498348E+04 0.  0.
        2    1    3    3  502    0 -0.33110612430E+03 -0.51232984152E+03  0.15560071795E+04  0.16713083123E+04  0.25500000920E-02 0.  1.
       -2    1    3    3    0  502  0.33110612430E+03  0.51232984152E+03 -0.14044741766E+04  0.15312285410E+04  0.25500000920E-02 0. -1.
</event>
<event>
 5   0  0.2891204E-07  0.3185544E+04  0.7818609E-02  0.8192646E-01
        1   -1    0    0  501    0  0.00000000000E+00  0.00000000000E+00  0.15074182324E+04  0.15074182324E+04  0.50400001928E-02 0. -1.
       -1   -1    0    0    0  501  0.00000000000E+00  0.00000000000E+00 -0.16829583548E+04  0.16829583548E+04  0.50400001928E-02 0.  1.
    10030    2    1    2    0    0  0.00000000000E+00  0.00000000000E+00 -0.17554012240E+03  0.31903765873E+04  0.31855436638E+04 0.  0.
        4    1    3    3  502    0  0.73662139241E+03 -0.28062523352E+02 -0.15018335027E+04  0.16729925474E+04  0.12699999809E+01 0.  1.
       -4    1    3    3    0  502 -0.73662139241E+03  0.28062523352E+02  0.13262933803E+04  0.15173840399E+04  0.12699999809E+01 0. -1.
</event>
<event>
 5   0  0.3075756E-07  0.3205126E+04  0.7818609E-02  0.8187465E-01
       -1   -1    0    0    0  501  0.00000000000E+00  0.00000000000E+00  0.17963920576E+04  0.17963920576E+04  0.50400001928E-02 0.  1.
        1   -1    0    0  501    0  0.00000000000E+00  0.00000000000E+00 -0.14296475593E+04  0.14296475593E+04  0.50400001928E-02 0. -1.
    10030    2    1    2    0    0  0.00000000000E+00  0.00000000000E+00  0.36674449832E+03  0.32260396169E+04  0.32051255955E+04 0.  0.
        5    1    3    3  502    0 -0.76483487317E+03  0.90393662553E+03  0.12702850569E+04  0.17365828578E+04  0.46999998093E+01 0.  1.
       -5    1    3    3    0  502  0.76483487317E+03 -0.90393662553E+03 -0.90354055858E+03  0.14894567591E+04  0.46999998093E+01 0. -1.
</event>
<event>
 5   0  0.2783875E-07  0.3213245E+04  0.7818609E-02  0.8185328E-01
       -1   -1    0    0    0  501  0.00000000000E+00  0.00000000000E+00  0.11039300511E+04  0.11039300511E+04  0.50400001928E-02 0.  1.
        1   -1    0    0  501    0  0.00000000000E+00  0.00000000000E+00 -0.23382245938E+04  0.23382245938E+04  0.50400001928E-02 0. -1.
    10030    2    1    2    0    0  0.00000000000E+00  0.00000000000E+00 -0.12342945427E+04  0.34421546449E+04  0.32132453347E+04 0.  0.
        2    1    3    3  502    0  0.22503219931E+03  0.14060955148E+04 -0.14141178463E+04  0.20068565894E+04  0.25500000920E-02 0. -1.
       -2    1    3    3    0  502 -0.22503219931E+03 -0.14060955148E+04  0.17982330361E+03  0.14352980554E+04  0.25500000920E-02 0.  1.
</event>
<event>
 5   0  0.8488469E-07  0.3191456E+04  0.7818609E-02  0.8191077E-01
       -2   -1    0    0    0  501  0.00000000000E+00  0.00000000000E+00  0.11549481612E+04  0.11549481612E+04  0.25500000920E-02 0. -1.
        2   -1    0    0  501    0  0.00000000000E+00  0.00000000000E+00 -0.22047296052E+04  0.22047296052E+04  0.25500000920E-02 0.  1.
    10030    2    1    2    0    0  0.00000000000E+00  0.00000000000E+00 -0.10497814440E+04  0.33596777664E+04  0.31914563468E+04 0.  0.
        3    1    3    3  502    0  0.10890747729E+04  0.78077523066E+03 -0.14369620086E+04  0.19648291646E+04  0.10100000352E+00 0.  1.
       -3    1    3    3    0  502 -0.10890747729E+04 -0.78077523066E+03  0.38718056462E+03  0.13948486017E+04  0.10100000352E+00 0. -1.
</event>
<event>
 5   0  0.2783875E-07  0.3191837E+04  0.7818609E-02  0.8190976E-01
        1   -1    0    0  501    0  0.00000000000E+00  0.00000000000E+00  0.25058798946E+04  0.25058798946E+04  0.50400001928E-02 0.  1.
       -1   -1    0    0    0  501  0.00000000000E+00  0.00000000000E+00 -0.10163918867E+04  0.10163918867E+04  0.50400001928E-02 0. -1.
    10030    2    1    2    0    0  0.00000000000E+00  0.00000000000E+00  0.14894880080E+04  0.35222717813E+04  0.31918370848E+04 0.  0.
        2    1    3    3  502    0 -0.84351698466E+03 -0.60051472449E+03 -0.59539929030E+03  0.11944200068E+04  0.25500000920E-02 0. -1.
       -2    1    3    3    0  502  0.84351698466E+03  0.60051472449E+03  0.20848872983E+04  0.23278517745E+04  0.25500000920E-02 0.  1.
</event>
<event>
 5   0  0.3013888E-07  0.3190503E+04  0.7818609E-02  0.8191330E-01
        1   -1    0    0  501    0  0.00000000000E+00  0.00000000000E+00  0.17939991166E+04  0.17939991166E+04  0.50400001928E-02 0. -1.
       -1   -1    0    0    0  501  0.00000000000E+00  0.00000000000E+00 -0.14185219603E+04  0.14185219603E+04  0.50400001928E-02 0.  1.
    10030    2    1    2    0    0  0.00000000000E+00  0.00000000000E+00  0.37547715631E+03  0.32125210770E+04  0.31905028718E+04 0.  0.
        1    1    3    3  502    0 -0.50514797440E+03 -0.50198440162E+03  0.16250575801E+04  0.17742533512E+04  0.50400001928E-02 0. -1.
       -1    1    3    3    0  502  0.50514797440E+03  0.50198440162E+03 -0.12495804238E+04  0.14382677258E+04  0.50400001928E-02 0.  1.
</event>
<event>
 5   0  0.8195618E-07  0.3199309E+04  0.7818609E-02  0.8189000E-01
        2   -1    0    0  501    0  0.00000000000E+00  0.00000000000E+00  0.14657947084E+04  0.14657947084E+04  0.25500000920E-02 0.  1.
       -2   -1    0    0    0  501  0.00000000000E+00  0.00000000000E+00 -0.17457391918E+04  0.17457391918E+04  0.25500000920E-02 0. -1.
    10030    2    1    2    0    0  0.00000000000E+00  0.00000000000E+00 -0.27994448333E+03  0.32115339002E+04  0.31993094690E+04 0.  0.
        1    1    3    3  502    0 -0.79460294265E+03  0.13496782349E+03  0.12470762781E+04  0.14848600585E+04  0.50400001928E-02 0.  1.
       -1    1    3    3    0  502  0.79460294265E+03 -0.13496782349E+03 -0.15270207614E+04  0.17266738417E+04  0.50400001928E-02 0. -1.
</event>
<event>
 5   0  0.3075756E-07  0.3189993E+04  0.7818609E-02  0.8191465E-01
       -1   -1    0    0    0  501  0.00000000000E+00  0.00000000000E+00  0.18669140225E+04  0.18669140225E+04  0.50400001928E-02 0. -1.
        1   -1    0    0  501    0  0.00000000000E+00  0.00000000000E+00 -0.13626838413E+04  0.13626838413E+04  0.50400001928E-02 0.  1.
    10030    2    1    2    0    0  0.00000000000E+00  0.00000000000E+00  0.50423018120E+03  0.32295978638E+04  0.31899928348E+04 0.  0.
        5    1    3    3  502    0  0.32341991386E+03 -0.10563547471E+04 -0.91260521725E+03  0.14329536507E+04  0.46999998093E+01 0.  1.
       -5    1    3    3    0  502 -0.32341991386E+03  0.10563547471E+04  0.14168353985E+04  0.17966442132E+04  0.46999998093E+01 0. -1.
</event>
<event>
 5   0  0.3075756E-07  0.3204686E+04  0.7818609E-02  0.8187581E-01
       -1   -1    0    0    0  501  0.00000000000E+00  0.00000000000E+00  0.18446748352E+04  0.18446748352E+04  0.50400001928E-02 0. -1.
        1   -1    0    0  501    0  0.00000000000E+00  0.00000000000E+00 -0.13918460228E+04  0.13918460229E+04  0.50400001928E-02 0.  1.
    10030    2    1    2    0    0  0.00000000000E+00  0.00000000000E+00  0.45282881236E+03  0.32365208581E+04  0.32046861518E+04 0.  0.
        5    1    3    3  502    0  0.45622833424E+03 -0.95608351016E+03  0.14405385182E+04  0.17881312267E+04  0.46999998093E+01 0. -1.
       -5    1    3    3    0  502 -0.45622833424E+03  0.95608351016E+03 -0.98770970584E+03  0.14483896314E+04  0.46999998093E+01 0.  1.
</event>
<event>
 5   0  0.8838951E-07  0.3194694E+04  0.7818609E-02  0.8190220E-01
       -2   -1    0    0    0  501  0.00000000000E+00  0.00000000000E+00  0.13501129246E+04  0.13501129246E+04  0.25500000920E-02 0. -1.
        2   -1    0    0  501    0  0.00000000000E+00  0.00000000000E+00 -0.18898549273E+04  0.18898549273E+04  0.25500000920E-02 0.  1.
    10030    2    1    2    0    0  0.00000000000E+00  0.00000000000E+00 -0.53974200263E+03  0.32399678519E+04  0.31946940780E+04 0.  0.
        2    1    3    3  502    0  0.30404606030E+03  0.83310561300E+02  0.13182494080E+04  0.13554210261E+04  0.25500000920E-02 0. -1.
       -2    1    3    3    0  502 -0.30404606030E+03 -0.83310561300E+02 -0.18579914106E+04  0.18845468257E+04  0.25500000920E-02 0.  1.
</event>
<event>
 5   0  0.8838951E-07  0.3196970E+04  0.7818609E-02  0.8189618E-01
       -2   -1    0    0    0  501  0.00000000000E+00  0.00000000000E+00  0.15504929882E+04  0.15504929882E+04  0.25500000920E-02 0. -1.
        2   -1    0    0  501    0  0.00000000000E+00  0.00000000000E+00 -0.16479624791E+04  0.16479624791E+04  0.25500000920E-02 0.  1.
    10030    2    1    2    0    0  0.00000000000E+00  0.00000000000E+00 -0.97469490870E+02  0.31984554673E+04  0.31969699834E+04 0.  0.
        2    1    3    3  502    0 -0.68063530499E+03  0.10152935962E+03 -0.14921738740E+04  0.16432149889E+04  0.25500000920E-02 0.  1.
       -2    1    3    3    0  502  0.68063530499E+03 -0.10152935962E+03  0.13947043832E+04  0.15552404784E+04  0.25500000920E-02 0. -1.
</event>
<event>
 5   0  0.2997105E-07  0.3195801E+04  0.7818609E-02  0.8189927E-01
       -1   -1    0    0    0  501  0.00000000000E+00  0.00000000000E+00  0.16016859715E+04  0.16016859715E+04  0.50400001928E-02 0.  1.
        1   -1    0    0  501    0  0.00000000000E+00  0.00000000000E+00 -0.15941235248E+04  0.15941235248E+04  0.50400001928E-02 0. -1.
    10030    2    1    2    0    0  0.00000000000E+00  0.00000000000E+00  0.75624467339E+01  0.31958094963E+04  0.31958005485E+04 0.  0.
        3    1    3    3  502    0  0.17631898814E+03  0.14719481997E+04 -0.59251348503E+03  0.15964936982E+04  0.10100000352E+00 0.  1.
       -3    1    3    3    0  502 -0.17631898814E+03 -0.14719481997E+04  0.60007593176E+03  0.15993157981E+04  0.10100000352E+00 0. -1.
</event>
<event>
 5   0  0.8802800E-07  0.3231381E+04  0.7818609E-02  0.8180578E-01
        2   -1    0    0  501    0  0.00000000000E+00  0.00000000000E+00  0.21790738163E+04  0.21790738163E+04  0.25500000920E-02 0. -1.
       -2   -1    0    0    0  501  0.00000000000E+00  0.00000000000E+00 -0.11979654359E+04  0.11979654360E+04  0.25500000920E-02 0.  1.
    10030    2    1    2    0    0  0.00000000000E+00  0.00000000000E+00  0.98110838030E+03  0.33770392522E+04  0.32313805807E+04 0.  0.
        5    1    3    3  502    0  0.86715792523E+03 -0.69537713286E+02  0.19134073052E+04  0.21018915211E+04  0.46999998093E+01 0. -1.
       -5    1    3    3    0  502 -0.86715792523E+03  0.69537713286E+02 -0.93229892488E+03  0.12751477311E+04  0.46999998093E+01 0.  1.
</event>
<event>
 5   0  0.2891204E-07  0.3195570E+04  0.7818609E-02  0.8189988E-01
        1   -1    0    0  501    0  0.00000000000E+00  0.00000000000E+00  0.19372956264E+04  0.19372956264E+04  0.50400001928E-02 0. -1.
       -1   -1    0    0    0  501  0.00000000000E+00  0.00000000000E+00 -0.13177737097E+04  0.13177737097E+04  0.50400001928E-02 0.  1.
    10030    2    1    2    0    0  0.00000000000E+00  0.00000000000E+00  0.61952191675E+03  0.32550693361E+04  0.31955702117E+04 0.  0.
        4    1    3    3  502    0  0.11872917491E+04 -0.27798438753E+03  0.13614470386E+04  0.18276970944E+04  0.12699999809E+01 0. -1.
       -4    1    3    3    0  502 -0.11872917491E+04  0.27798438753E+03 -0.74192512184E+03  0.14273722417E+04  0.12699999809E+01 0.  1.
</event>
<event>
 5   0  0.8838951E-07  0.3193816E+04  0.7818609E-02  0.8190452E-01
        2   -1    0    0  501    0  0.00000000000E+00  0.00000000000E+00  0.17378517362E+04  0.17378517362E+04  0.25500000920E-02 0. -1.
       -2   -1    0    0    0  501  0.00000000000E+00  0.00000000000E+00 -0.14673949199E+04  0.14673949199E+04  0.25500000920E-02 0.  1.
    10030    2    1    2    0    0  0.00000000000E+00  0.00000000000E+00  0.27045681630E+03  0.32052466560E+04  0.31938157800E+04 0.  0.
        2    1    3    3  502    0  0.11314944413E+04  0.11263723401E+04  0.10163488310E+03  0.15997887263E+04  0.25500000920E-02 0.  1.
       -2    1    3    3    0  502 -0.11314944413E+04 -0.11263723401E+04  0.16882193320E+03  0.16054579298E+04  0.25500000920E-02 0. -1.
</event>
<event>
 5   0  0.2997105E-07  0.3194555E+04  0.7818609E-02  0.8190257E-01
        1   -1    0    0  501    0  0.00000000000E+00  0.00000000000E+00  0.12914209145E+04  0.12914209145E+04  0.50400001928E-02 0.  1.
       -1   -1    0    0    0  501  0.00000000000E+00  0.00000000000E+00 -0.19755722800E+04  0.19755722800E+04  0.50400001928E-02 0. -1.
    10030    2    1    2    0    0  0.00000000000E+00  0.00000000000E+00 -0.68415136554E+03  0.32669931945E+04  0.31945549677E+04 0.  0.
        3    1    3    3  502    0 -0.54926113676E+03  0.90091718359E+03  0.88426357230E+03  0.13766850197E+04  0.10100000352E+00 0.  1.
       -3    1    3    3    0  502  0.54926113676E+03 -0.90091718359E+03 -0.15684149378E+04  0.18903081747E+04  0.10100000352E+00 0. -1.
</event>
<event>
 5   0  0.3075756E-07  0.3194536E+04  0.7818609E-02  0.8190262E-01
        1   -1    0    0  501    0  0.00000000000E+00  0.00000000000E+00  0.25098515242E+04  0.25098515242E+04  0.50400001928E-02 0. -1.
       -1   -1    0    0    0  501  0.00000000000E+00  0.00000000000E+00 -0.10165003934E+04  0.10165003934E+04  0.50400001928E-02 0.  1.
    10030    2    1    2    0    0  0.00000000000E+00  0.00000000000E+00  0.14933511308E+04  0.35263519177E+04  0.31945359988E+04 0.  0.
        5    1    3    3  502    0  0.13343003048E+03  0.11666150314E+04 -0.44859108400E+03  0.12570004993E+04  0.46999998093E+01 0.  1.
       -5    1    3    3    0  502 -0.13343003048E+03 -0.11666150314E+04  0.19419422148E+04  0.22693514184E+04  0.46999998093E+01 0. -1.
</event>
<event>
 5   0  0.2783875E-07  0.3193374E+04  0.7818609E-02  0.8190569E-01
       -1   -1    0    0    0  501  0.00000000000E+00  0.00000000000E+00  0.12537487144E+04  0.12537487144E+04  0.50400001928E-02 0.  1.
        1   -1    0    0  501    0  0.00000000000E+00  0.00000000000E+00 -0.20334287326E+04  0.20334287326E+04  0.50400001928E-02 0. -1.
    10030    2    1    2    0    0  0.00000000000E+00  0.00000000000E+00 -0.77968001812E+03  0.32871774470E+04  0.31933735512E+04 0.  0.
        2    1    3    3  502    0 -0.99973942428E+02  0.10185106685E+04  0.87174233775E+03  0.13443561561E+04  0.25500000920E-02 0.  1.
       -2    1    3    3    0  502  0.99973942428E+02 -0.10185106685E+04 -0.16514223559E+04  0.19428212909E+04  0.25500000920E-02 0. -1.
</event>
<event>
 5   0  0.3075756E-07  0.3209590E+04  0.7818609E-02  0.8186289E-01
        1   -1    0    0  501    0  0.00000000000E+00  0.00000000000E+00  0.11104650927E+04  0.11104650927E+04  0.50400001928E-02 0. -1.
       -1   -1    0    0    0  501  0.00000000000E+00  0.00000000000E+00 -0.23191786563E+04  0.23191786563E+04  0.50400001928E-02 0.  1.
    10030    2    1    2    0    0  0.00000000000E+00  0.00000000000E+00 -0.12087135637E+04  0.34296437490E+04  0.32095899685E+04 0.  0.
        5    1    3    3  502    0 -0.70465708067E+03  0.10714895042E+04  0.42652166922E+03  0.13515081144E+04  0.46999998093E+01 0. -1.
       -5    1    3    3    0  502  0.70465708067E+03 -0.10714895042E+04 -0.16352352329E+04  0.20781356346E+04  0.46999998093E+01 0.  1.
</event>
<event>
 5   0  0.8838951E-07  0.3103300E+04  0.7818609E-02  0.8214833E-01
       -2   -1    0    0    0  501  0.00000000000E+00  0.00000000000E+00  0.10840258267E+04  0.10840258267E+04  0.25500000920E-02 0.  1.
        2   -1    0    0  501    0  0.00000000000E+00  0.00000000000E+00 -0.22209969778E+04  0.22209969778E+04  0.25500000920E-02 0. -1.
    10030    2    1    2    0    0  0.00000000000E+00  0.00000000000E+00 -0.11369711511E+04  0.33050228045E+04  0.31033002336E+04 0.  0.
        2    1    3    3  502    0 -0.78824338638E+03 -0.12914026327E+04 -0.20176311763E+03  0.15263540715E+04  0.25500000920E-02 0.  1.
       -2    1    3    3    0  502  0.78824338638E+03  0.12914026327E+04 -0.93520803348E+03  0.17786687330E+04  0.25500000920E-02 0. -1.
</event>
<event>
 5   0  0.8838951E-07  0.3287364E+04  0.7818609E-02  0.8166118E-01
        2   -1    0    0  501    0  0.00000000000E+00  0.00000000000E+00  0.28483900127E+04  0.28483900127E+04  0.25500000920E-02 0.  1.
       -2   -1    0    0    0  501  0.00000000000E+00  0.00000000000E+00 -0.94849760788E+03  0.94849760788E+03  0.25500000920E-02 0. -1.
    10030    2    1    2    0    0  0.00000000000E+00  0.00000000000E+00  0.18998924049E+04  0.37968876206E+04  0.32873643628E+04 0.  0.
        2    1    3    3  502    0 -0.78934568723E+03  0.19628357235E+02 -0.71510529213E+03  0.10652828100E+04  0.25500000920E-02 0. -1.
       -2    1    3    3    0  502  0.78934568723E+03 -0.19628357235E+02  0.26149976970E+04  0.27316048107E+04  0.25500000920E-02 0.  1.
</event>
<event>
 5   0  0.2891204E-07  0.3191213E+04  0.7818609E-02  0.8191142E-01
        1   -1    0    0  501    0  0.00000000000E+00  0.00000000000E+00  0.25763887401E+04  0.25763887401E+04  0.50400001928E-02 0.  1.
       -1   -1    0    0    0  501  0.00000000000E+00  0.00000000000E+00 -0.98818946390E+03  0.98818946391E+03  0.50400001928E-02 0. -1.
    10030    2    1    2    0    0  0.00000000000E+00  0.00000000000E+00  0.15881992762E+04  0.35645782040E+04  0.31912130659E+04 0.  0.
        4    1    3    3  502    0  0.17540500191E+03  0.23680411952E+03  0.25457273542E+04  0.25627275471E+04  0.12699999809E+01 0.  1.
       -4    1    3    3    0  502 -0.17540500191E+03 -0.23680411952E+03 -0.95752807801E+03  0.10018506569E+04  0.12699999809E+01 0. -1.
</event>
<event>
 5   0  0.8335929E-07  0.3178557E+04  0.7818609E-02  0.8194503E-01
       -2   -1    0    0    0  501  0.00000000000E+00  0.00000000000E+00  0.94754112622E+03  0.94754112623E+03  0.25500000920E-02 0. -1.
        2   -1    0    0  501    0  0.00000000000E+00  0.00000000000E+00 -0.26656428500E+04  0.26656428500E+04  0.25500000920E-02 0.  1.
    10030    2    1    2    0    0  0.00000000000E+00  0.00000000000E+00 -0.17181017238E+04  0.36131839762E+04  0.31785570489E+04 0.  0.
        4    1    3    3  502    0  0.64345064345E+03  0.13857082325E+04 -0.36149153304E+03  0.15699980183E+04  0.12699999809E+01 0. -1.
       -4    1    3    3    0  502 -0.64345064345E+03 -0.13857082325E+04 -0.13566101907E+04  0.20431859579E+04  0.12699999809E+01 0.  1.
</event>
<event>
 5   0  0.2783875E-07  0.3220242E+04  0.7818609E-02  0.8183492E-01
        3   -1    0    0  501    0  0.00000000000E+00  0.00000000000E+00  0.10448144303E+04  0.10448144352E+04  0.10100000352E+00 0. -1.
       -3   -1    0    0    0  501  0.00000000000E+00  0.00000000000E+00 -0.24812914121E+04  0.24812914141E+04  0.10100000352E+00 0.  1.
    10030    2    1    2    0    0  0.00000000000E+00  0.00000000000E+00 -0.14364769818E+04  0.35261058493E+04  0.32202416588E+04 0.  0.
        1    1    3    3  502    0  0.22603767285E+03  0.10102277150E+04  0.63211687977E+03  0.12129405655E+04  0.50400001928E-02 0. -1.
       -1    1    3    3    0  502 -0.22603767285E+03 -0.10102277150E+04 -0.20685938616E+04  0.23131652838E+04  0.50400001928E-02 0.  1.
</event>
<event>
 5   0  0.3075756E-07  0.3213415E+04  0.7818609E-02  0.8185283E-01
       -1   -1    0    0    0  501  0.00000000000E+00  0.00000000000E+00  0.13425486381E+04  0.13425486381E+04  0.50400001928E-02 0.  1.
        1   -1    0    0  501    0  0.00000000000E+00  0.00000000000E+00 -0.19228425305E+04  0.19228425305E+04  0.50400001928E-02 0. -1.
    10030    2    1    2    0    0  0.00000000000E+00  0.00000000000E+00 -0.58029389234E+03  0.32653911686E+04  0.32134153922E+04 0.  0.
        5    1    3    3  502    0 -0.38913545923E+03  0.97923533631E+03 -0.15226789139E+04  0.18517293037E+04  0.46999998093E+01 0. -1.
       -5    1    3    3    0  502  0.38913545923E+03 -0.97923533631E+03  0.94238502152E+03  0.14136618649E+04  0.46999998093E+01 0.  1.
</event>
<event>
 5   0  0.2997105E-07  0.3185238E+04  0.7818609E-02  0.8192727E-01
       -1   -1    0    0    0  501  0.00000000000E+00  0.00000000000E+00  0.11450975887E+04  0.11450975887E+04  0.50400001928E-02 0. -1.
        1   -1    0    0  501    0  0.00000000000E+00  0.00000000000E+00 -0.22150388723E+04  0.22150388723E+04  0.50400001928E-02 0.  1.
    10030    2    1    2    0    0  0.00000000000E+00  0.00000000000E+00 -0.10699412836E+04  0.33601364610E+04  0.31852382464E+04 0.  0.
        3    1    3    3  502    0 -0.81617410940E+03  0.26016329081E+03  0.88136422711E+03  0.12290760862E+04  0.10100000352E+00 0. -1.
       -3    1    3    3    0  502  0.81617410940E+03 -0.26016329081E+03 -0.19513055107E+04  0.21310603748E+04  0.10100000352E+00 0.  1.
</event>
<event>
 5   0  0.8838951E-07  0.3204112E+04  0.7818609E-02  0.8187732E-01
        2   -1    0    0  501    0  0.00000000000E+00  0.00000000000E+00  0.18176921021E+04  0.18176921021E+04  0.25500000920E-02 0.  1.
       -2   -1    0    0    0  501  0.00000000000E+00  0.00000000000E+00 -0.14120016256E+04  0.14120016256E+04  0.25500000920E-02 0. -1.
    10030    2    1    2    0    0  0.00000000000E+00  0.00000000000E+00  0.40569047644E+03  0.32296937277E+04  0.32041124843E+04 0.  0.
        2    1    3    3  502    0 -0.29844553243E+02 -0.15633136851E+04  0.55454903893E+03  0.16590253199E+04  0.25500000920E-02 0. -1.
       -2    1    3    3    0  502  0.29844553243E+02  0.15633136851E+04 -0.14885856248E+03  0.15706684078E+04  0.25500000920E-02 0.  1.
</event>
<event>
 5   0  0.3013888E-07  0.3194170E+04  0.7818609E-02  0.8190359E-01
       -1   -1    0    0    0  501  0.00000000000E+00  0.00000000000E+00  0.13325138528E+04  0.13325138528E+04  0.50400001928E-02 0. -1.
        1   -1    0    0  501    0  0.00000000000E+00  0.00000000000E+00 -0.19141867789E+04  0.19141867789E+04  0.50400001928E-02 0.  1.
    10030    2    1    2    0    0  0.00000000000E+00  0.00000000000E+00 -0.58167292615E+03  0.32467006317E+04  0.31941699389E+04 0.  0.
        1    1    3    3  502    0  0.11397367366E+04  0.47838790008E+03 -0.13188173015E+04  0.18075214761E+04  0.50400001928E-02 0.  1.
       -1    1    3    3    0  502 -0.11397367366E+04 -0.47838790008E+03  0.73714437532E+03  0.14391791556E+04  0.50400001928E-02 0. -1.
</event>
<event>
 5   0  0.8838951E-07  0.3205331E+04  0.7818609E-02  0.8187411E-01
       -2   -1    0    0    0  501  0.00000000000E+00  0.00000000000E+00  0.16846097661E+04  0.16846097661E+04  0.25500000920E-02 0. -1.
        2   -1    0    0  501    0  0.00000000000E+00  0.00000000000E+00 -0.15247068742E+04  0.15247068742E+04  0.25500000920E-02 0.  1.
    10030    2    1    2    0    0  0.00000000000E+00  0.00000000000E+00  0.15990289192E+03  0.32093166403E+04  0.32053306168E+04 0.  0.
        2    1    3    3  502    0  0.10748152159E+04 -0.11570949607E+04  0.35312693863E+03  0.16182691776E+04  0.25500000920E-02 0. -1.
       -2    1    3    3    0  502 -0.10748152159E+04  0.11570949607E+04 -0.19322404671E+03  0.15910474627E+04  0.25500000920E-02 0.  1.
</event>
<event>
 5   0  0.8838951E-07  0.3197785E+04  0.7818609E-02  0.8189402E-01
        2   -1    0    0  501    0  0.00000000000E+00  0.00000000000E+00  0.28814331920E+04  0.28814331920E+04  0.25500000920E-02 0.  1.
       -2   -1    0    0    0  501  0.00000000000E+00  0.00000000000E+00 -0.88721745658E+03  0.88721745658E+03  0.25500000920E-02 0. -1.
    10030    2    1    2    0    0  0.00000000000E+00  0.00000000000E+00  0.19942157354E+04  0.37686506486E+04  0.31977853761E+04 0.  0.
        2    1    3    3  502    0  0.11599992755E+04 -0.94540412353E+03  0.16607203140E+04  0.22354818803E+04  0.25500000920E-02 0.  1.
       -2    1    3    3    0  502 -0.11599992755E+04  0.94540412353E+03  0.33349542137E+03  0.15331687682E+04  0.25500000920E-02 0. -1.
</event>
<event>
 5   0  0.2997105E-07  0.3204162E+04  0.7818609E-02  0.8187719E-01
       -1   -1    0    0    0  501  0.00000000000E+00  0.00000000000E+00  0.14350560477E+04  0.14350560477E+04  0.50400001928E-02 0.  1.
        1   -1    0    0  501    0  0.00000000000E+00  0.00000000000E+00 -0.17885462332E+04  0.17885462332E+04  0.50400001928E-02 0. -1.
    10030    2    1    2    0    0  0.00000000000E+00  0.00000000000E+00 -0.35349018551E+03  0.32236022809E+04  0.32041623483E+04 0.  0.
        3    1    3    3  502    0 -0.11737768827E+04 -0.85884366530E+03  0.49911896545E+03  0.15376879930E+04  0.10100000352E+00 0.  1.
       -3    1    3    3    0  502  0.11737768827E+04  0.85884366530E+03 -0.85260915097E+03  0.16859142879E+04  0.10100000352E+00 0. -1.
</event>
<event>
 5   0  0.3013888E-07  0.3073214E+04  0.7818609E-02  0.8223128E-01
        1   -1    0    0  501    0  0.00000000000E+00  0.00000000000E+00  0.29819894177E+04  0.29819894177E+04  0.50400001928E-02 0.  1.
       -1   -1    0    0    0  501  0.00000000000E+00  0.00000000000E+00 -0.79180748054E+03  0.79180748056E+03  0.50400001928E-02 0. -1.
    10030    2    1    2    0    0  0.00000000000E+00  0.00000000000E+00  0.21901819372E+04  0.37737968983E+04  0.30732142964E+04 0.  0.
        1    1    3    3  502    0  0.12247223055E+04 -0.76642849445E+03  0.17376391572E+04  0.22598113203E+04  0.50400001928E-02 0.  1.
       -1    1    3    3    0  502 -0.12247223055E+04  0.76642849445E+03  0.45254277994E+03  0.15139855780E+04  0.50400001928E-02 0. -1.
</event>
<event>
 5   0  0.2997105E-07  0.3181013E+04  0.7818609E-02  0.8193850E-01
       -1   -1    0    0    0  501  0.00000000000E+00  0.00000000000E+00  0.12855724795E+04  0.12855724795E+04  0.50400001928E-02 0.  1.
        1   -1    0    0  501    0  0.00000000000E+00  0.00000000000E+00 -0.19677704715E+04  0.19677704715E+04  0.50400001928E-02 0. -1.
    10030    2    1    2    0    0  0.00000000000E+00  0.00000000000E+00 -0.68219799201E+03  0.32533429510E+04  0.31810134008E+04 0.  0.
        3    1    3    3  502    0  0.72516095009E+03  0.66168758020E+03 -0.16209616721E+04  0.18950476537E+04  0.10100000352E+00 0. -1.
       -3    1    3    3    0  502 -0.72516095009E+03 -0.66168758020E+03  0.93876368006E+03  0.13582952972E+04  0.10100000352E+00 0.  1.
</event>
<event>
 5   0  0.2783875E-07  0.3202049E+04  0.7818609E-02  0.8188276E-01
        3   -1    0    0  501    0  0.00000000000E+00  0.00000000000E+00  0.15524913270E+04  0.15524913303E+04  0.10100000352E+00 0.  1.
       -3   -1    0    0    0  501  0.00000000000E+00  0.00000000000E+00 -0.16510749417E+04  0.16510749448E+04  0.10100000352E+00 0. -1.
    10030    2    1    2    0    0  0.00000000000E+00  0.00000000000E+00 -0.98583614699E+02  0.32035662750E+04  0.32020490548E+04 0.  0.
        4    1    3    3  502    0  0.30165963878E+03  0.11224210409E+04  0.10523431828E+04  0.15678824312E+04  0.12699999809E+01 0.  1.
       -4    1    3    3    0  502 -0.30165963878E+03 -0.11224210409E+04 -0.11509267975E+04  0.16356838438E+04  0.12699999809E+01 0. -1.
</event>
<event>
 5   0  0.2891204E-07  0.3218867E+04  0.7818609E-02  0.8183852E-01
        1   -1    0    0  501    0  0.00000000000E+00  0.00000000000E+00  0.24760171829E+04  0.24760171829E+04  0.50400001928E-02 0.  1.
       -1   -1    0    0    0  501  0.00000000000E+00  0.00000000000E+00 -0.10461461291E+04  0.10461461291E+04  0.50400001928E-02 0. -1.
    10030    2    1    2    0    0  0.00000000000E+00  0.00000000000E+00  0.14298710538E+04  0.35221633119E+04  0.32188667517E+04 0.  0.
        4    1    3    3  502    0 -0.33938878965E+03  0.61513861724E+02 -0.10052278832E+04  0.10627574586E+04  0.12699999809E+01 0. -1.
       -4    1    3    3    0  502  0.33938878965E+03 -0.61513861724E+02  0.24350989370E+04  0.24594058534E+04  0.12699999809E+01 0.  1.
</event>
<event>
 5   0  0.2891204E-07  0.3154175E+04  0.7818609E-02  0.8201025E-01
        1   -1    0    0  501    0  0.00000000000E+00  0.00000000000E+00  0.10891832301E+04  0.10891832301E+04  0.50400001928E-02 0.  1.
       -1   -1    0    0    0  501  0.00000000000E+00  0.00000000000E+00 -0.22835510982E+04  0.22835510982E+04  0.50400001928E-02 0. -1.
    10030    2    1    2    0    0  0.00000000000E+00  0.00000000000E+00 -0.11943678681E+04  0.33727343284E+04  0.31541753669E+04 0.  0.
        4    1    3    3  502    0 -0.11889777528E+04 -0.99358481148E+03 -0.28301388705E+03  0.15751118524E+04  0.12699999809E+01 0. -1.
       -4    1    3    3    0  502  0.11889777528E+04  0.99358481148E+03 -0.91135398106E+03  0.17976224760E+04  0.12699999809E+01 0.  1.
</event>
<event>
 5   0  0.8195618E-07  0.3180225E+04  0.7818609E-02  0.8194059E-01
        2   -1    0    0  501    0  0.00000000000E+00  0.00000000000E+00  0.10141234744E+04  0.10141234744E+04  0.25500000920E-02 0. -1.
       -2   -1    0    0    0  501  0.00000000000E+00  0.00000000000E+00 -0.24932442119E+04  0.24932442119E+04  0.25500000920E-02 0.  1.
    10030    2    1    2    0    0  0.00000000000E+00  0.00000000000E+00 -0.14791207375E+04  0.35073676863E+04  0.31802248239E+04 0.  0.
        1    1    3    3  502    0 -0.53939301087E+03  0.12764255120E+04  0.12057090229E+03  0.13909508440E+04  0.50400001928E-02 0. -1.
       -1    1    3    3    0  502  0.53939301087E+03 -0.12764255120E+04 -0.15996916398E+04  0.21164168423E+04  0.50400001928E-02 0.  1.
</event>
<event>
 5   0  0.8488469E-07  0.3205460E+04  0.7818609E-02  0.8187377E-01
        2   -1    0    0  501    0  0.00000000000E+00  0.00000000000E+00  0.16167467467E+04  0.16167467467E+04  0.25500000920E-02 0. -1.
       -2   -1    0    0    0  501  0.00000000000E+00  0.00000000000E+00 -0.15888349272E+04  0.15888349272E+04  0.25500000920E-02 0.  1.
    10030    2    1    2    0    0  0.00000000000E+00  0.00000000000E+00  0.27911819555E+02  0.32055816739E+04  0.32054601539E+04 0.  0.
        3    1    3    3  502    0  0.92531378569E+03 -0.12849852309E+04 -0.23374490868E+03  0.16006340426E+04  0.10100000352E+00 0. -1.
       -3    1    3    3    0  502 -0.92531378569E+03  0.12849852309E+04  0.26165672823E+03  0.16049476313E+04  0.10100000352E+00 0.  1.
</event>
<event>
 5   0  0.3075756E-07  0.3222860E+04  0.7818609E-02  0.8182806E-01
        1   -1    0    0  501    0  0.00000000000E+00  0.00000000000E+00  0.14254148990E+04  0.14254148990E+04  0.50400001928E-02 0. -1.
       -1   -1    0    0    0  501  0.00000000000E+00  0.00000000000E+00 -0.18217200880E+04  0.18217200880E+04  0.50400001928E-02 0.  1.
    10030    2    1    2    0    0  0.00000000000E+00  0.00000000000E+00 -0.39630518896E+03  0.32471349871E+04  0.32228601927E+04 0.  0.
        5    1    3    3  502    0  0.17353931682E+03  0.53463049318E+03 -0.17197392506E+04  0.18092735666E+04  0.46999998093E+01 0.  1.
       -5    1    3    3    0  502 -0.17353931682E+03 -0.53463049318E+03  0.13234340617E+04  0.14378614204E+04  0.46999998093E+01 0. -1.
</event>
<event>
 5   0  0.8838951E-07  0.3208293E+04  0.7818609E-02  0.8186631E-01
       -2   -1    0    0    0  501  0.00000000000E+00  0.00000000000E+00  0.12638438192E+04  0.12638438192E+04  0.25500000920E-02 0.  1.
        2   -1    0    0  501    0  0.00000000000E+00  0.00000000000E+00 -0.20360785881E+04  0.20360785881E+04  0.25500000920E-02 0. -1.
    10030    2    1    2    0    0  0.00000000000E+00  0.00000000000E+00 -0.77223476890E+03  0.32999224072E+04  0.32082925919E+04 0.  0.
        2    1    3    3  502    0  0.89374840496E+03 -0.89579820422E+03  0.62796416040E+03  0.14126498578E+04  0.25500000920E-02 0.  1.
       -2    1    3    3    0  502 -0.89374840496E+03  0.89579820422E+03 -0.14001989293E+04  0.18872725494E+04  0.25500000920E-02 0. -1.
</event>
<event>
 5   0  0.8335929E-07  0.3197603E+04  0.7818609E-02  0.8189451E-01
       -2   -1    0    0    0  501  0.00000000000E+00  0.00000000000E+00  0.15590548447E+04  0.15590548447E+04  0.25500000920E-02 0.  1.
        2   -1    0    0  501    0  0.00000000000E+00  0.00000000000E+00 -0.16395611564E+04  0.16395611564E+04  0.25500000920E-02 0. -1.
    10030    2    1    2    0    0  0.00000000000E+00  0.00000000000E+00 -0.80506311735E+02  0.31986160011E+04  0.31976027046E+04 0.  0.
        4    1    3    3  502    0 -0.71864858573E+03  0.14281760618E+04 -0.35615095478E+02  0.15991912647E+04  0.12699999809E+01 0.  1.
       -4    1    3    3    0  502  0.71864858573E+03 -0.14281760618E+04 -0.44891216257E+02  0.15994247364E+04  0.12699999809E+01 0. -1.
</event>
<event>
 5   0  0.2891204E-07  0.3224107E+04  0.7818609E-02  0.8182479E-01
       -1   -1    0    0    0  501  0.00000000000E+00  0.00000000000E+00  0.78057667298E+03  0.78057667299E+03  0.50400001928E-02 0. -1.
        1   -1    0    0  501    0  0.00000000000E+00  0.00000000000E+00 -0.33292274048E+04  0.33292274048E+04  0.50400001928E-02 0.  1.
    10030    2    1    2    0    0  0.00000000000E+00  0.00000000000E+00 -0.25486507318E+04  0.41098040778E+04  0.32241074742E+04 0.  0.
        4    1    3    3  502    0 -0.12580116316E+04  0.96238118653E+02 -0.25534011626E+04  0.28481071172E+04  0.12699999809E+01 0.  1.
       -4    1    3    3    0  502  0.12580116316E+04 -0.96238118653E+02  0.47504308281E+01  0.12616969606E+04  0.12699999809E+01 0. -1.
</event>
<event>
 5   0  0.8802800E-07  0.3176829E+04  0.7818609E-02  0.8194963E-01
        2   -1    0    0  501    0  0.00000000000E+00  0.00000000000E+00  0.13073711783E+04  0.13073711783E+04  0.25500000920E-02 0.  1.
       -2   -1    0    0    0  501  0.00000000000E+00  0.00000000000E+00 -0.19298734026E+04  0.19298734026E+04  0.25500000920E-02 0. -1.
    10030    2    1    2    0    0  0.00000000000E+00  0.00000000000E+00 -0.62250222423E+03  0.32372445809E+04  0.31768291515E+04 0.  0.
        5    1    3    3  502    0 -0.21522006725E+03  0.19589585035E+03 -0.19024670983E+04  0.19246033388E+04  0.46999998093E+01 0. -1.
       -5    1    3    3    0  502  0.21522006725E+03 -0.19589585035E+03  0.12799648741E+04  0.13126412421E+04  0.46999998093E+01 0.  1.
</event>
<event>
 5   0  0.8195618E-07  0.3168226E+04  0.7818609E-02  0.8197259E-01
        2   -1    0    0  501    0  0.00000000000E+00  0.00000000000E+00  0.11349046213E+04  0.11349046213E+04  0.25500000920E-02 0.  1.
       -2   -1    0    0    0  501  0.00000000000E+00  0.00000000000E+00 -0.22111226802E+04  0.22111226802E+04  0.25500000920E-02 0. -1.
    10030    2    1    2    0    0  0.00000000000E+00  0.00000000000E+00 -0.10762180589E+04  0.33460273014E+04  0.31682255904E+04 0.  0.
        1    1    3    3  502    0  0.10110742479E+04 -0.28265804632E+03 -0.17909573443E+04  0.20759804708E+04  0.50400001928E-02 0. -1.
       -1    1    3    3    0  502 -0.10110742479E+04  0.28265804632E+03  0.71473928539E+03  0.12700468307E+04  0.50400001928E-02 0.  1.
</event>
<event>
 5   0  0.2891204E-07  0.3200907E+04  0.7818609E-02  0.8188578E-01
        1   -1    0    0  501    0  0.00000000000E+00  0.00000000000E+00  0.14891612429E+04  0.14891612429E+04  0.50400001928E-02 0.  1.
       -1   -1    0    0    0  501  0.00000000000E+00  0.00000000000E+00 -0.17200632196E+04  0.17200632196E+04  0.50400001928E-02 0. -1.
    10030    2    1    2    0    0  0.00000000000E+00  0.00000000000E+00 -0.23090197672E+03  0.32092244625E+04  0.32009070476E+04 0.  0.
        4    1    3    3  502    0  0.10368387229E+03 -0.96712444818E+03 -0.13897255529E+04  0.16962956019E+04  0.12699999809E+01 0. -1.
       -4    1    3    3    0  502 -0.10368387229E+03  0.96712444818E+03  0.11588235762E+04  0.15129288606E+04  0.12699999809E+01 0.  1.
</event>
<event>
 5   0  0.2997105E-07  0.3197329E+04  0.7818609E-02  0.8189523E-01
        1   -1    0    0  501    0  0.00000000000E+00  0.00000000000E+00  0.19899727209E+04  0.19899727209E+04  0.50400001928E-02 0.  1.
       -1   -1    0    0    0  501  0.00000000000E+00  0.00000000000E+00 -0.12843028397E+04  0.12843028397E+04  0.50400001928E-02 0. -1.
    10030    2    1    2    0    0  0.00000000000E+00  0.00000000000E+00  0.70566988126E+03  0.32742755606E+04  0.31973286452E+04 0.  0.
        3    1    3    3  502    0  0.13406304729E+04 -0.58376333932E+03 -0.30898264177E+03  0.14945032567E+04  0.10100000352E+00 0. -1.
       -3    1    3    3    0  502 -0.13406304729E+04  0.58376333932E+03  0.10146525230E+04  0.17797723039E+04  0.10100000352E+00 0.  1.
</event>
<event>
 5   0  0.8335929E-07  0.3170837E+04  0.7818609E-02  0.8196562E-01
       -2   -1    0    0    0  501  0.00000000000E+00  0.00000000000E+00  0.15543920587E+04  0.15543920587E+04  0.25500000920E-02 0. -1.
        2   -1    0    0  501    0  0.00000000000E+00  0.00000000000E+00 -0.16170645304E+04  0.16170645304E+04  0.25500000920E-02 0.  1.
    10030    2    1    2    0    0  0.00000000000E+00  0.00000000000E+00 -0.62672471714E+02  0.31714565891E+04  0.31708372803E+04 0.  0.
        4    1    3    3  502    0 -0.12235615252E+04  0.81978060228E+03  0.55564090002E+03  0.15741287954E+04  0.12699999809E+01 0. -1.
       -4    1    3    3    0  502  0.12235615252E+04 -0.81978060228E+03 -0.61831337174E+03  0.15973277937E+04  0.12699999809E+01 0.  1.
</event>
<event>
 5   0  0.8488469E-07  0.3180083E+04  0.7818609E-02  0.8194097E-01
       -2   -1    0    0    0  501  0.00000000000E+00  0.00000000000E+00  0.17558033246E+04  0.17558033246E+04  0.25500000920E-02 0. -1.
        2   -1    0    0  501    0  0.00000000000E+00  0.00000000000E+00 -0.14399284599E+04  0.14399284599E+04  0.25500000920E-02 0.  1.
    10030    2    1    2    0    0  0.00000000000E+00  0.00000000000E+00  0.31587486470E+03  0.31957317845E+04  0.31800825002E+04 0.  0.
        3    1    3    3  502    0  0.14331435863E+04  0.67878419534E+03  0.40819310943E+02  0.15862896170E+04  0.10100000352E+00 0. -1.
       -3    1    3    3    0  502 -0.14331435863E+04 -0.67878419534E+03  0.27505555376E+03  0.16094421675E+04  0.10100000352E+00 0.  1.
</event>
<event>
 5   0  0.8838951E-07  0.3204030E+04  0.7818609E-02  0.8187754E-01
        2   -1    0    0  501    0  0.00000000000E+00  0.00000000000E+00  0.14906008464E+04  0.14906008464E+04  0.25500000920E-02 0. -1.
       -2   -1    0    0    0  501  0.00000000000E+00  0.00000000000E+00 -0.17217568094E+04  0.17217568094E+04  0.25500000920E-02 0.  1.
    10030    2    1    2    0    0  0.00000000000E+00  0.00000000000E+00 -0.23115596296E+03  0.32123576558E+04  0.32040300607E+04 0.  0.
        2    1    3    3  502    0  0.16926530621E+03 -0.38085749465E+03 -0.16664497153E+04  0.17177770020E+04  0.25500000920E-02 0.  1.
       -2    1    3    3    0  502 -0.16926530621E+03  0.38085749465E+03  0.14352937523E+04  0.14945806538E+04  0.25500000920E-02 0. -1.
</event>
<event>
 5   0  0.8838951E-07  0.3181436E+04  0.7818609E-02  0.8193737E-01
        2   -1    0    0  501    0  0.00000000000E+00  0.00000000000E+00  0.18434930529E+04  0.18434930529E+04  0.25500000920E-02 0.  1.
       -2   -1    0    0    0  501  0.00000000000E+00  0.00000000000E+00 -0.13726029778E+04  0.13726029778E+04  0.25500000920E-02 0. -1.
    10030    2    1    2    0    0  0.00000000000E+00  0.00000000000E+00  0.47089007513E+03  0.32160960307E+04  0.31814361876E+04 0.  0.
        2    1    3    3  502    0  0.65398470863E+03 -0.62612549118E+03  0.15576141195E+04  0.18016356111E+04  0.25500000920E-02 0.  1.
       -2    1    3    3    0  502 -0.65398470863E+03  0.62612549118E+03 -0.10867240444E+04  0.14144604196E+04  0.25500000920E-02 0. -1.
</event>
<event>
 5   0  0.8335929E-07  0.3196068E+04  0.7818609E-02  0.8189856E-01
        2   -1    0    0  501    0  0.00000000000E+00  0.00000000000E+00  0.14682639313E+04  0.14682639313E+04  0.25500000920E-02 0. -1.
       -2   -1    0    0    0  501  0.00000000000E+00  0.00000000000E+00 -0.17392730683E+04  0.17392730683E+04  0.25500000920E-02 0.  1.
    10030    2    1    2    0    0  0.00000000000E+00  0.00000000000E+00 -0.27100913706E+03  0.32075369996E+04  0.31960675293E+04 0.  0.
        4    1    3    3  502    0  0.11173135630E+04 -0.20401937467E+03  0.99267224596E+03  0.15084473157E+04  0.12699999809E+01 0.  1.
       -4    1    3    3    0  502 -0.11173135630E+04  0.20401937467E+03 -0.12636813830E+04  0.16990896839E+04  0.12699999809E+01 0. -1.
</event>
<event>
 5   0  0.8802800E-07  0.3100593E+04  0.7818609E-02  0.8215575E-01
       -2   -1    0    0    0  501  0.00000000000E+00  0.00000000000E+00  0.11107978348E+04  0.11107978348E+04  0.25500000920E-02 0.  1.
        2   -1    0    0  501    0  0.00000000000E+00  0.00000000000E+00 -0.21636870966E+04  0.21636870966E+04  0.25500000920E-02 0. -1.
    10030    2    1    2    0    0  0.00000000000E+00  0.00000000000E+00 -0.10528892619E+04  0.32744849314E+04  0.31005928091E+04 0.  0.
        5    1    3    3  502    0  0.38849096093E+02  0.15230507569E+04 -0.22365240953E+03  0.15398816028E+04  0.46999998093E+01 0.  1.
       -5    1    3    3    0  502 -0.38849096093E+02 -0.15230507569E+04 -0.82923685235E+03  0.17346033286E+04  0.46999998093E+01 0. -1.
</event>
<event>
 5   0  0.8802800E-07  0.3197711E+04  0.7818609E-02  0.8189422E-01
       -2   -1    0    0    0  501  0.00000000000E+00  0.00000000000E+00  0.10325565550E+04  0.10325565550E+04  0.25500000920E-02 0. -1.
        2   -1    0    0  501    0  0.00000000000E+00  0.00000000000E+00 -0.24757378823E+04  0.24757378823E+04  0.25500000920E-02 0.  1.
    10030    2    1    2    0    0  0.00000000000E+00  0.00000000000E+00 -0.14431813274E+04  0.35082944373E+04  0.31977112933E+04 0.  0.
        5    1    3    3  502    0 -0.12878831740E+04 -0.39363275421E+02  0.31699188441E+03  0.13269131404E+04  0.46999998093E+01 0. -1.
       -5    1    3    3    0  502  0.12878831740E+04  0.39363275421E+02 -0.17601732118E+04  0.21813812970E+04  0.46999998093E+01 0.  1.
</event>
<event>
 5   0  0.8488469E-07  0.3216917E+04  0.7818609E-02  0.8184364E-01
       -2   -1    0    0    0  501  0.00000000000E+00  0.00000000000E+00  0.19432946183E+04  0.19432946183E+04  0.25500000920E-02 0. -1.
        2   -1    0    0  501    0  0.00000000000E+00  0.00000000000E+00 -0.13313156617E+04  0.13313156617E+04  0.25500000920E-02 0.  1.
    10030    2    1    2    0    0  0.00000000000E+00  0.00000000000E+00  0.61197895661E+03  0.32746102800E+04  0.32169168846E+04 0.  0.
        3    1    3    3  502    0  0.73170838517E+03 -0.27885865199E+03 -0.11241917431E+04  0.13700242312E+04  0.10100000352E+00 0.  1.
       -3    1    3    3    0  502 -0.73170838517E+03  0.27885865199E+03  0.17361706997E+04  0.19045860488E+04  0.10100000352E+00 0. -1.
</event>
<event>
 5   0  0.3013888E-07  0.3207148E+04  0.7818609E-02  0.8186932E-01
        1   -1    0    0  501    0  0.00000000000E+00  0.00000000000E+00  0.11729885372E+04  0.11729885372E+04  0.50400001928E-02 0. -1.
       -1   -1    0    0    0  501  0.00000000000E+00  0.00000000000E+00 -0.21922206351E+04  0.21922206351E+04  0.50400001928E-02 0.  1.
    10030    2    1    2    0    0  0.00000000000E+00  0.00000000000E+00 -0.10192320979E+04  0.33652091723E+04  0.32071480639E+04 0.  0.
        1    1    3    3  502    0  0.37148051648E+03  0.81068558294E+03 -0.19080564839E+04  0.21061548932E+04  0.50400001928E-02 0.  1.
       -1    1    3    3    0  502 -0.37148051648E+03 -0.81068558294E+03  0.88882438599E+03  0.12590542791E+04  0.50400001928E-02 0. -1.
</event>
<event>
 5   0  0.3013888E-07  0.3217752E+04  0.7818609E-02  0.8184145E-01
        1   -1    0    0  501    0  0.00000000000E+00  0.00000000000E+00  0.25677508932E+04  0.25677508933E+04  0.50400001928E-02 0.  1.
       -1   -1    0    0    0  501  0.00000000000E+00  0.00000000000E+00 -0.10080734754E+04  0.10080734754E+04  0.50400001928E-02 0. -1.
    10030    2    1    2    0    0  0.00000000000E+00  0.00000000000E+00  0.15596774179E+04  0.35758243686E+04  0.32177517411E+04 0.  0.
        1    1    3    3  502    0  0.44717596090E+03 -0.11249477303E+04 -0.39780804159E+03  0.12742546739E+04  0.50400001928E-02 0. -1.
       -1    1    3    3    0  502 -0.44717596090E+03  0.11249477303E+04  0.19574854595E+04  0.23015696948E+04  0.50400001928E-02 0.  1.
</event>
<event>
 5   0  0.8838951E-07  0.3197433E+04  0.7818609E-02  0.8189496E-01
       -2   -1    0    0    0  501  0.00000000000E+00  0.00000000000E+00  0.18742407090E+04  0.18742407090E+04  0.25500000920E-02 0. -1.
        2   -1    0    0  501    0  0.00000000000E+00  0.00000000000E+00 -0.13636955950E+04  0.13636955950E+04  0.25500000920E-02 0.  1.
    10030    2    1    2    0    0  0.00000000000E+00  0.00000000000E+00  0.51054511400E+03  0.32379363040E+04  0.31974325944E+04 0.  0.
        2    1    3    3  502    0  0.11070944721E+04 -0.94096145977E+03 -0.42012976828E+03  0.15124733588E+04  0.25500000920E-02 0.  1.
       -2    1    3    3    0  502 -0.11070944721E+04  0.94096145977E+03  0.93067488228E+03  0.17254629452E+04  0.25500000920E-02 0. -1.
</event>
<event>
 5   0  0.8335929E-07  0.3214753E+04  0.7818609E-02  0.8184932E-01
        2   -1    0    0  501    0  0.00000000000E+00  0.00000000000E+00  0.21315410654E+04  0.21315410654E+04  0.25500000920E-02 0. -1.
       -2   -1    0    0    0  501  0.00000000000E+00  0.00000000000E+00 -0.12121085236E+04  0.12121085236E+04  0.25500000920E-02 0.  1.
    10030    2    1    2    0    0  0.00000000000E+00  0.00000000000E+00  0.91943254173E+03  0.33436495890E+04  0.32147529260E+04 0.  0.
        4    1    3    3  502    0 -0.29364255852E+03 -0.12704689740E+04 -0.51782957382E+03  0.14030204726E+04  0.12699999809E+01 0.  1.
       -4    1    3    3    0  502  0.29364255852E+03  0.12704689740E+04  0.14372621155E+04  0.19406291165E+04  0.12699999809E+01 0. -1.
</event>
<event>
 5   0  0.3075756E-07  0.3200923E+04  0.7818609E-02  0.8188573E-01
        1   -1    0    0  501    0  0.00000000000E+00  0.00000000000E+00  0.15238147566E+04  0.15238147566E+04  0.50400001928E-02 0.  1.
       -1   -1    0    0    0  501  0.00000000000E+00  0.00000000000E+00 -0.16809637956E+04  0.16809637956E+04  0.50400001928E-02 0. -1.
    10030    2    1    2    0    0  0.00000000000E+00  0.00000000000E+00 -0.15714903898E+03  0.32047785522E+04  0.32009232650E+04 0.  0.
        5    1    3    3  502    0  0.11114182959E+03 -0.46954978877E+03 -0.16063960232E+04  0.16773073015E+04  0.46999998093E+01 0. -1.
       -5    1    3    3    0  502 -0.11114182959E+03  0.46954978877E+03  0.14492469842E+04  0.15274712507E+04  0.46999998093E+01 0.  1.
</event>
<event>
 5   0  0.8195618E-07  0.3201344E+04  0.7818609E-02  0.8188462E-01
       -2   -1    0    0    0  501  0.00000000000E+00  0.00000000000E+00  0.10469434318E+04  0.10469434318E+04  0.25500000920E-02 0. -1.
        2   -1    0    0  501    0  0.00000000000E+00  0.00000000000E+00 -0.24472677527E+04  0.24472677527E+04  0.25500000920E-02 0.  1.
    10030    2    1    2    0    0  0.00000000000E+00  0.00000000000E+00 -0.14003243209E+04  0.34942111845E+04  0.32013440300E+04 0.  0.
        1    1    3    3  502    0 -0.23367768275E+03  0.64347762527E+02  0.10267981630E+04  0.10550167589E+04  0.50400001928E-02 0. -1.
       -1    1    3    3    0  502  0.23367768275E+03 -0.64347762527E+02 -0.24271224839E+04  0.24391944256E+04  0.50400001928E-02 0.  1.
</event>
<event>
 5   0  0.3075756E-07  0.3206571E+04  0.7818609E-02  0.8187084E-01
        1   -1    0    0  501    0  0.00000000000E+00  0.00000000000E+00  0.11566433551E+04  0.11566433551E+04  0.50400001928E-02 0.  1.
       -1   -1    0    0    0  501  0.00000000000E+00  0.00000000000E+00 -0.22224003056E+04  0.22224003056E+04  0.50400001928E-02 0. -1.
    10030    2    1    2    0    0  0.00000000000E+00  0.00000000000E+00 -0.10657569505E+04  0.33790436607E+04  0.32065710943E+04 0.  0.
        5    1    3    3  502    0  0.41727373281E+03  0.93053291177E+03 -0.18365515238E+04  0.21007028484E+04  0.46999998093E+01 0.  1.
       -5    1    3    3    0  502 -0.41727373281E+03 -0.93053291177E+03  0.77079457327E+03  0.12783408122E+04  0.46999998093E+01 0. -1.
</event>
<event>
 5   0  0.2891204E-07  0.3204797E+04  0.7818609E-02  0.8187551E-01
        1   -1    0    0  501    0  0.00000000000E+00  0.00000000000E+00  0.17755608647E+04  0.17755608647E+04  0.50400001928E-02 0. -1.
       -1   -1    0    0    0  501  0.00000000000E+00  0.00000000000E+00 -0.14461242052E+04  0.14461242052E+04  0.50400001928E-02 0.  1.
    10030    2    1    2    0    0  0.00000000000E+00  0.00000000000E+00  0.32943665950E+03  0.32216850699E+04  0.32047973691E+04 0.  0.
        4    1    3    3  502    0 -0.13035396044E+04 -0.78382094599E+03  0.67144711347E+03  0.16626585983E+04  0.12699999809E+01 0. -1.
       -4    1    3    3    0  502  0.13035396044E+04  0.78382094599E+03 -0.34201045397E+03  0.15590264716E+04  0.12699999809E+01 0.  1.
</event>
<event>
 5   0  0.3013888E-07  0.3118272E+04  0.7818609E-02  0.8210741E-01
       -1   -1    0    0    0  501  0.00000000000E+00  0.00000000000E+00  0.12474814656E+04  0.12474814656E+04  0.50400001928E-02 0. -1.
        1   -1    0    0  501    0  0.00000000000E+00  0.00000000000E+00 -0.19486502004E+04  0.19486502004E+04  0.50400001928E-02 0.  1.
    10030    2    1    2    0    0  0.00000000000E+00  0.00000000000E+00 -0.70116873481E+03  0.31961316660E+04  0.31182719625E+04 0.  0.
        1    1    3    3  502    0 -0.10408228287E+04  0.11536248090E+04 -0.48320855479E+03  0.16271609841E+04  0.50400001928E-02 0.  1.
       -1    1    3    3    0  502  0.10408228287E+04 -0.11536248090E+04 -0.21796018002E+03  0.15689706819E+04  0.50400001928E-02 0. -1.
</event>
<event>
 5   0  0.3013888E-07  0.3202377E+04  0.7818609E-02  0.8188190E-01
        1   -1    0    0  501    0  0.00000000000E+00  0.00000000000E+00  0.17501896548E+04  0.17501896548E+04  0.50400001928E-02 0.  1.
       -1   -1    0    0    0  501  0.00000000000E+00  0.00000000000E+00 -0.14648723898E+04  0.14648723898E+04  0.50400001928E-02 0. -1.
    10030    2    1    2    0    0  0.00000000000E+00  0.00000000000E+00  0.28531726500E+03  0.32150620445E+04  0.32023769310E+04 0.  0.
        1    1    3    3  502    0  0.15070236036E+04  0.20374469430E+03 -0.36049767249E+03  0.15628789506E+04  0.50400001928E-02 0. -1.
       -1    1    3    3    0  502 -0.15070236036E+04 -0.20374469430E+03  0.64581493749E+03  0.16521830939E+04  0.50400001928E-02 0.  1.
</event>
<event>
 5   0  0.3013888E-07  0.3220400E+04  0.7818609E-02  0.8183450E-01
        1   -1    0    0  501    0  0.00000000000E+00  0.00000000000E+00  0.18929273223E+04  0.18929273223E+04  0.50400001928E-02 0. -1.
       -1   -1    0    0    0  501  0.00000000000E+00  0.00000000000E+00 -0.13697011662E+04  0.13697011662E+04  0.50400001928E-02 0.  1.
    10030    2    1    2    0    0  0.00000000000E+00  0.00000000000E+00  0.52322615613E+03  0.32626284885E+04  0.32204004477E+04 0.  0.
        1    1    3    3  502    0 -0.91537800431E+03 -0.42019349836E+03  0.15343766856E+04  0.18354267297E+04  0.50400001928E-02 0. -1.
       -1    1    3    3    0  502  0.91537800431E+03  0.42019349836E+03 -0.10111505295E+04  0.14272017587E+04  0.50400001928E-02 0.  1.
</event>
<event>
 5   0  0.2783875E-07  0.3194812E+04  0.7818609E-02  0.8190189E-01
        1   -1    0    0  501    0  0.00000000000E+00  0.00000000000E+00  0.17616240467E+04  0.17616240467E+04  0.50400001928E-02 0.  1.
       -1   -1    0    0    0  501  0.00000000000E+00  0.00000000000E+00 -0.14484964385E+04  0.14484964385E+04  0.50400001928E-02 0. -1.
    10030    2    1    2    0    0  0.00000000000E+00  0.00000000000E+00  0.31312760822E+03  0.32101204852E+04  0.31948121432E+04 0.  0.
        2    1    3    3  502    0  0.38315923059E+02  0.37417330856E+03  0.17164950785E+04  0.17572219920E+04  0.25500000920E-02 0.  1.
       -2    1    3    3    0  502 -0.38315923059E+02 -0.37417330856E+03 -0.14033674703E+04  0.14528984932E+04  0.25500000920E-02 0. -1.
</event>
<event>
 5   0  0.3075756E-07  0.3185367E+04  0.7818609E-02  0.8192692E-01
        1   -1    0    0  501    0  0.00000000000E+00  0.00000000000E+00  0.27998139256E+04  0.27998139257E+04  0.50400001928E-02 0.  1.
       -1   -1    0    0    0  501  0.00000000000E+00  0.00000000000E+00 -0.90600339679E+03  0.90600339681E+03  0.50400001928E-02 0. -1.
    10030    2    1    2    0    0  0.00000000000E+00  0.00000000000E+00  0.18938105289E+04  0.37058173225E+04  0.31853671230E+04 0.  0.
        5    1    3    3  502    0  0.50417465712E+03 -0.15102883001E+04  0.90251317206E+03  0.18302226504E+04  0.46999998093E+01 0. -1.
       -5    1    3    3    0  502 -0.50417465712E+03  0.15102883001E+04  0.99129735679E+03  0.18755946721E+04  0.46999998093E+01 0.  1.
</event>
<event>
 5   0  0.8488469E-07  0.3177307E+04  0.7818609E-02  0.8194836E-01
        2   -1    0    0  501    0  0.00000000000E+00  0.00000000000E+00  0.18361929132E+04  0.18361929132E+04  0.25500000920E-02 0.  1.
       -2   -1    0    0    0  501  0.00000000000E+00  0.00000000000E+00 -0.13744855465E+04  0.13744855465E+04  0.25500000920E-02 0. -1.
    10030    2    1    2    0    0  0.00000000000E+00  0.00000000000E+00  0.46170736664E+03  0.32106784597E+04  0.31773074259E+04 0.  0.
        3    1    3    3  502    0  0.12623602874E+04 -0.94155623815E+03  0.19518489755E+02  0.15749484520E+04  0.10100000352E+00 0. -1.
       -3    1    3    3    0  502 -0.12623602874E+04  0.94155623815E+03  0.44218887689E+03  0.16357300076E+04  0.10100000352E+00 0.  1.
</event>
<event>
 5   0  0.2997105E-07  0.3197480E+04  0.7818609E-02  0.8189483E-01
        1   -1    0    0  501    0  0.00000000000E+00  0.00000000000E+00  0.25872064560E+04  0.25872064561E+04  0.50400001928E-02 0. -1.
       -1   -1    0    0    0  501  0.00000000000E+00  0.00000000000E+00 -0.98792643212E+03  0.98792643213E+03  0.50400001928E-02 0.  1.
    10030    2    1    2    0    0  0.00000000000E+00  0.00000000000E+00  0.15992800239E+04  0.35751328882E+04  0.31974800348E+04 0.  0.
        3    1    3    3  502    0  0.64241312737E+03 -0.77626491194E+02 -0.83496159967E+03  0.10563528679E+04  0.10100000352E+00 0.  1.
       -3    1    3    3    0  502 -0.64241312737E+03  0.77626491194E+02  0.24342416236E+04  0.25187800203E+04  0.10100000352E+00 0. -1.
</event>
<event>
 5   0  0.2783875E-07  0.3189849E+04  0.7818609E-02  0.8191503E-01
        1   -1    0    0  501    0  0.00000000000E+00  0.00000000000E+00  0.12320712689E+04  0.12320712689E+04  0.50400001928E-02 0. -1.
       -1   -1    0    0    0  501  0.00000000000E+00  0.00000000000E+00 -0.20646408559E+04  0.20646408559E+04  0.50400001928E-02 0.  1.
    10030    2    1    2    0    0  0.00000000000E+00  0.00000000000E+00 -0.83256958704E+03  0.32967121248E+04  0.31898493251E+04 0.  0.
        2    1    3    3  502    0 -0.14197154885E+04 -0.64799075085E+03 -0.75640018272E+03  0.17342506502E+04  0.25500000920E-02 0.  1.
       -2    1    3    3    0  502  0.14197154885E+04  0.64799075085E+03 -0.76169404320E+02  0.15624614746E+04  0.25500000920E-02 0. -1.
</event>
<event>
 5   0  0.8802800E-07  0.3217933E+04  0.7818609E-02  0.8184097E-01
       -2   -1    0    0    0  501  0.00000000000E+00  0.00000000000E+00  0.12737002159E+04  0.12737002159E+04  0.25500000920E-02 0. -1.
        2   -1    0    0  501    0  0.00000000000E+00  0.00000000000E+00 -0.20324827482E+04  0.20324827482E+04  0.25500000920E-02 0.  1.
    10030    2    1    2    0    0  0.00000000000E+00  0.00000000000E+00 -0.75878253237E+03  0.33061829641E+04  0.32179333214E+04 0.  0.
        5    1    3    3  502    0 -0.29236793833E+03  0.64308706145E+03 -0.18646189113E+04  0.19939573101E+04  0.46999998093E+01 0.  1.
       -5    1    3    3    0  502  0.29236793833E+03 -0.64308706145E+03  0.11058363790E+04  0.13122256540E+04  0.46999998093E+01 0. -1.
</event>
<event>
 5   0  0.8488469E-07  0.3197646E+04  0.7818609E-02  0.8189439E-01
        2   -1    0    0  501    0  0.00000000000E+00  0.00000000000E+00  0.21687202393E+04  0.21687202393E+04  0.25500000920E-02 0.  1.
       -2   -1    0    0    0  501  0.00000000000E+00  0.00000000000E+00 -0.11786833021E+04  0.11786833021E+04  0.25500000920E-02 0. -1.
    10030    2    1    2    0    0  0.00000000000E+00  0.00000000000E+00  0.99003693718E+03  0.33474035414E+04  0.31976455920E+04 0.  0.
        3    1    3    3  502    0  0.26288673847E+03 -0.11902733623E+02 -0.11558564540E+04  0.11854346312E+04  0.10100000352E+00 0. -1.
       -3    1    3    3    0  502 -0.26288673847E+03  0.11902733623E+02  0.21458933912E+04  0.21619689102E+04  0.10100000352E+00 0.  1.
</event>
<event>
 5   0  0.3013888E-07  0.3264271E+04  0.7818609E-02  0.8172047E-01
       -1   -1    0    0    0  501  0.00000000000E+00  0.00000000000E+00  0.94728765951E+03  0.94728765953E+03  0.50400001928E-02 0. -1.
        1   -1    0    0  501    0  0.00000000000E+00  0.00000000000E+00 -0.28120991411E+04  0.28120991411E+04  0.50400001928E-02 0.  1.
    10030    2    1    2    0    0  0.00000000000E+00  0.00000000000E+00 -0.18648114816E+04  0.37593868006E+04  0.32642713207E+04 0.  0.
        1    1    3    3  502    0 -0.10215786421E+04 -0.47799905341E+03  0.42626136944E+03  0.12057382685E+04  0.50400001928E-02 0. -1.
       -1    1    3    3    0  502  0.10215786421E+04  0.47799905341E+03 -0.22910728510E+04  0.25536485322E+04  0.50400001928E-02 0.  1.
</event>
<event>
 5   0  0.8335929E-07  0.3198346E+04  0.7818609E-02  0.8189254E-01
        2   -1    0    0  501    0  0.00000000000E+00  0.00000000000E+00  0.22472047693E+04  0.22472047693E+04  0.25500000920E-02 0.  1.
       -2   -1    0    0    0  501  0.00000000000E+00  0.00000000000E+00 -0.11380157177E+04  0.11380157177E+04  0.25500000920E-02 0. -1.
    10030    2    1    2    0    0  0.00000000000E+00  0.00000000000E+00  0.11091890516E+04  0.33852204871E+04  0.31983460404E+04 0.  0.
        4    1    3    3  502    0 -0.24047039856E+03 -0.94366211347E+03 -0.78799540041E+03  0.12527021038E+04  0.12699999809E+01 0. -1.
       -4    1    3    3    0  502  0.24047039856E+03  0.94366211347E+03  0.18971844520E+04  0.21325183832E+04  0.12699999809E+01 0.  1.
</event>
<event>
 5   0  0.8195618E-07  0.3196060E+04  0.7818609E-02  0.8189859E-01
       -2   -1    0    0    0  501  0.00000000000E+00  0.00000000000E+00  0.12363732215E+04  0.12363732215E+04  0.25500000920E-02 0. -1.
        2   -1    0    0  501    0  0.00000000000E+00  0.00000000000E+00 -0.20654763307E+04  0.20654763307E+04  0.25500000920E-02 0.  1.
    10030    2    1    2    0    0  0.00000000000E+00  0.00000000000E+00 -0.82910310915E+03  0.33018495522E+04  0.31960598398E+04 0.  0.
        1    1    3    3  502    0 -0.28871577435E+03  0.14057852294E+04 -0.11407486623E+04  0.18332747803E+04  0.50400001928E-02 0.  1.
       -1    1    3    3    0  502  0.28871577435E+03 -0.14057852294E+04  0.31164555313E+03  0.14685747718E+04  0.50400001928E-02 0. -1.
</event>
<event>
 5   0  0.8488469E-07  0.3209012E+04  0.7818609E-02  0.8186441E-01
       -2   -1    0    0    0  501  0.00000000000E+00  0.00000000000E+00  0.12774514402E+04  0.12774514402E+04  0.25500000920E-02 0. -1.
        2   -1    0    0  501    0  0.00000000000E+00  0.00000000000E+00 -0.20152930572E+04  0.20152930572E+04  0.25500000920E-02 0.  1.
    10030    2    1    2    0    0  0.00000000000E+00  0.00000000000E+00 -0.73784161702E+03  0.32927444974E+04  0.32090116973E+04 0.  0.
        3    1    3    3  502    0  0.61350016260E+03  0.45826237674E+03  0.10778529370E+04  0.13221776807E+04  0.10100000352E+00 0. -1.
       -3    1    3    3    0  502 -0.61350016260E+03 -0.45826237674E+03 -0.18156945540E+04  0.19705668167E+04  0.10100000352E+00 0.  1.
</event>
<event>
 5   0  0.3075756E-07  0.3211632E+04  0.7818609E-02  0.8185752E-01
        1   -1    0    0  501    0  0.00000000000E+00  0.00000000000E+00  0.23402043311E+04  0.23402043311E+04  0.50400001928E-02 0. -1.
       -1   -1    0    0    0  501  0.00000000000E+00  0.00000000000E+00 -0.11018888319E+04  0.11018888319E+04  0.50400001928E-02 0.  1.
    10030    2    1    2    0    0  0.00000000000E+00  0.00000000000E+00  0.12383154992E+04  0.34420931630E+04  0.32116319943E+04 0.  0.
        5    1    3    3  502    0 -0.20449956568E+02 -0.30629212181E+03  0.23084575049E+04  0.23287832030E+04  0.46999998093E+01 0. -1.
       -5    1    3    3    0  502  0.20449956568E+02  0.30629212181E+03 -0.10701420057E+04  0.11133099600E+04  0.46999998093E+01 0.  1.
</event>
<event>
 5   0  0.2783875E-07  0.3117745E+04  0.7818609E-02  0.8210885E-01
       -1   -1    0    0    0  501  0.00000000000E+00  0.00000000000E+00  0.13328717519E+04  0.13328717519E+04  0.50400001928E-02 0.  1.
        1   -1    0    0  501    0  0.00000000000E+00  0.00000000000E+00 -0.18231940871E+04  0.18231940871E+04  0.50400001928E-02 0. -1.
    10030    2    1    2    0    0  0.00000000000E+00  0.00000000000E+00 -0.49032233524E+03  0.31560658390E+04  0.31177452730E+04 0.  0.
        2    1    3    3  502    0  0.17384486248E+03 -0.74435597275E+03  0.11301383187E+04  0.13643681577E+04  0.25500000920E-02 0.  1.
       -2    1    3    3    0  502 -0.17384486248E+03  0.74435597275E+03 -0.16204606539E+04  0.17916976813E+04  0.25500000920E-02 0. -1.
</event>
<event>
 5   0  0.3013888E-07  0.3191209E+04  0.7818609E-02  0.8191143E-01
        1   -1    0    0  501    0  0.00000000000E+00  0.00000000000E+00  0.25556727721E+04  0.25556727721E+04  0.50400001928E-02 0. -1.
       -1   -1    0    0    0  501  0.00000000000E+00  0.00000000000E+00 -0.99619703063E+03  0.99619703064E+03  0.50400001928E-02 0.  1.
    10030    2    1    2    0    0  0.00000000000E+00  0.00000000000E+00  0.15594757414E+04  0.35518698027E+04  0.31912089413E+04 0.  0.
        1    1    3    3  502    0  0.41050629756E+03  0.44481063847E+03  0.24229301075E+04  0.24973910847E+04  0.50400001928E-02 0. -1.
       -1    1    3    3    0  502 -0.41050629756E+03 -0.44481063847E+03 -0.86345436603E+03  0.10544787180E+04  0.50400001928E-02 0.  1.
</event>
<event>
 5   0  0.8838951E-07  0.3202696E+04  0.7818609E-02  0.8188106E-01
        2   -1    0    0  501    0  0.00000000000E+00  0.00000000000E+00  0.21677345985E+04  0.21677345985E+04  0.25500000920E-02 0.  1.
       -2   -1    0    0    0  501  0.00000000000E+00  0.00000000000E+00 -0.11829467869E+04  0.11829467869E+04  0.25500000920E-02 0. -1.
    10030    2    1    2    0    0  0.00000000000E+00  0.00000000000E+00  0.98478781157E+03  0.33506813855E+04  0.32026955386E+04 0.  0.
        2    1    3    3  502    0 -0.62566183777E+03  0.12307766104E+04  0.13410802509E+04  0.19247753218E+04  0.25500000920E-02 0.  1.
       -2    1    3    3    0  502  0.62566183777E+03 -0.12307766104E+04 -0.35629243937E+03  0.14259060637E+04  0.25500000920E-02 0. -1.
</event>
<event>
 5   0  0.8335929E-07  0.3196560E+04  0.7818609E-02  0.8189726E-01
        2   -1    0    0  501    0  0.00000000000E+00  0.00000000000E+00  0.14242407372E+04  0.14242407372E+04  0.25500000920E-02 0.  1.
       -2   -1    0    0    0  501  0.00000000000E+00  0.00000000000E+00 -0.17935865725E+04  0.17935865725E+04  0.25500000920E-02 0. -1.
    10030    2    1    2    0    0  0.00000000000E+00  0.00000000000E+00 -0.36934583528E+03  0.32178273097E+04  0.31965600650E+04 0.  0.
        4    1    3    3  502    0 -0.31921502456E+02 -0.66003980241E+03 -0.16496303115E+04  0.17770631111E+04  0.12699999809E+01 0. -1.
       -4    1    3    3    0  502  0.31921502456E+02  0.66003980241E+03  0.12802844763E+04  0.14407641987E+04  0.12699999809E+01 0.  1.
</event>
<event>
 5   0  0.2783875E-07  0.3190991E+04  0.7818609E-02  0.8191200E-01
        1   -1    0    0  501    0  0.00000000000E+00  0.00000000000E+00  0.20153025331E+04  0.20153025332E+04  0.50400001928E-02 0.  1.
       -1   -1    0    0    0  501  0.00000000000E+00  0.00000000000E+00 -0.12631386233E+04  0.12631386233E+04  0.50400001928E-02 0. -1.
    10030    2    1    2    0    0  0.00000000000E+00  0.00000000000E+00  0.75216390986E+03  0.32784411564E+04  0.31909913615E+04 0.  0.
        2    1    3    3  502    0  0.12357907941E+04  0.35176699054E+03  0.13478832314E+04  0.18621783233E+04  0.25500000920E-02 0.  1.
       -2    1    3    3    0  502 -0.12357907941E+04 -0.35176699054E+03 -0.59571932157E+03  0.14162628331E+04  0.25500000920E-02 0. -1.
</event>
<event>
 5   0  0.3075756E-07  0.3199307E+04  0.7818609E-02  0.8189000E-01
        1   -1    0    0  501    0  0.00000000000E+00  0.00000000000E+00  0.15003104885E+04  0.15003104885E+04  0.50400001928E-02 0.  1.
       -1   -1    0    0    0  501  0.00000000000E+00  0.00000000000E+00 -0.17055745607E+04  0.17055745607E+04  0.50400001928E-02 0. -1.
    10030    2    1    2    0    0  0.00000000000E+00  0.00000000000E+00 -0.20526407214E+03  0.32058850492E+04  0.31993070515E+04 0.  0.
        5    1    3    3  502    0 -0.56083890855E+03  0.14976133106E+04 -0.64037875746E+02  0.16004714458E+04  0.46999998093E+01 0. -1.
       -5    1    3    3    0  502  0.56083890855E+03 -0.14976133106E+04 -0.14122619640E+03  0.16054136034E+04  0.46999998093E+01 0.  1.
</event>
<event>
 5   0  0.2783875E-07  0.3196836E+04  0.7818609E-02  0.8189653E-01
        1   -1    0    0  501    0  0.00000000000E+00  0.00000000000E+00  0.23161460650E+04  0.23161460651E+04  0.50400001928E-02 0.  1.
       -1   -1    0    0    0  501  0.00000000000E+00  0.00000000000E+00 -0.11030999699E+04  0.11030999699E+04  0.50400001928E-02 0. -1.
    10030    2    1    2    0    0  0.00000000000E+00  0.00000000000E+00  0.12130460951E+04  0.34192460350E+04  0.31968363454E+04 0.  0.
        2    1    3    3  502    0  0.94203339139E+03  0.64238400830E+02 -0.77292904335E+03  0.12202347269E+04  0.25500000920E-02 0. -1.
       -2    1    3    3    0  502 -0.94203339139E+03 -0.64238400830E+02  0.19859751385E+04  0.21990113081E+04  0.25500000920E-02 0.  1.
</event>
<event>
 5   0  0.8838951E-07  0.3178477E+04  0.7818609E-02  0.8194525E-01
       -2   -1    0    0    0  501  0.00000000000E+00  0.00000000000E+00  0.13744541928E+04  0.13744541928E+04  0.25500000920E-02 0.  1.
        2   -1    0    0  501    0  0.00000000000E+00  0.00000000000E+00 -0.18375865563E+04  0.18375865563E+04  0.25500000920E-02 0. -1.
    10030    2    1    2    0    0  0.00000000000E+00  0.00000000000E+00 -0.46313236354E+03  0.32120407491E+04  0.31784767087E+04 0.  0.
        2    1    3    3  502    0  0.12966807148E+04  0.88623748900E+03 -0.47678218226E+03  0.16413771694E+04  0.25500000920E-02 0. -1.
       -2    1    3    3    0  502 -0.12966807148E+04 -0.88623748900E+03  0.13649818722E+02  0.15706635797E+04  0.25500000920E-02 0.  1.
</event>
<event>
 5   0  0.8488469E-07  0.3151292E+04  0.7818609E-02  0.8201801E-01
        2   -1    0    0  501    0  0.00000000000E+00  0.00000000000E+00  0.14161756995E+04  0.14161756995E+04  0.25500000920E-02 0. -1.
       -2   -1    0    0    0  501  0.00000000000E+00  0.00000000000E+00 -0.17530736212E+04  0.17530736212E+04  0.25500000920E-02 0.  1.
    10030    2    1    2    0    0  0.00000000000E+00  0.00000000000E+00 -0.33689792165E+03  0.31692493207E+04  0.31512919648E+04 0.  0.
        3    1    3    3  502    0  0.75925846771E+03  0.11087303406E+04  0.65898103350E+03  0.14966670978E+04  0.10100000352E+00 0. -1.
       -3    1    3    3    0  502 -0.75925846771E+03 -0.11087303406E+04 -0.99587895515E+03  0.16725822229E+04  0.10100000352E+00 0.  1.
</event>
<event>
 5   0  0.8838951E-07  0.3187201E+04  0.7818609E-02  0.8192206E-01
       -2   -1    0    0    0  501  0.00000000000E+00  0.00000000000E+00  0.11727467485E+04  0.11727467485E+04  0.25500000920E-02 0. -1.
        2   -1    0    0  501    0  0.00000000000E+00  0.00000000000E+00 -0.21654824265E+04  0.21654824265E+04  0.25500000920E-02 0.  1.
    10030    2    1    2    0    0  0.00000000000E+00  0.00000000000E+00 -0.99273567801E+03  0.33382291750E+04  0.31872009504E+04 0.  0.
        2    1    3    3  502    0 -0.92982895024E+02 -0.15187943778E+04 -0.99228075453E+03  0.18165911143E+04  0.25500000920E-02 0.  1.
       -2    1    3    3    0  502  0.92982895024E+02  0.15187943778E+04 -0.45492348152E+00  0.15216380607E+04  0.25500000920E-02 0. -1.
</event>
<event>
 5   0  0.2997105E-07  0.3200686E+04  0.7818609E-02  0.8188636E-01
        1   -1    0    0  501    0  0.00000000000E+00  0.00000000000E+00  0.25902607974E+04  0.25902607974E+04  0.50400001928E-02 0.  1.
       -1   -1    0    0    0  501  0.00000000000E+00  0.00000000000E+00 -0.98874120382E+03  0.98874120384E+03  0.50400001928E-02 0. -1.
    10030    2    1    2    0    0  0.00000000000E+00  0.00000000000E+00  0.16015195936E+04  0.35790020012E+04  0.32006859134E+04 0.  0.
        3    1    3    3  502    0 -0.14564014270E+04  0.11123872520E+03  0.69541459571E+02  0.14622979161E+04  0.10100000352E+00 0. -1.
       -3    1    3    3    0  502  0.14564014270E+04 -0.11123872520E+03  0.15319781340E+04  0.21167040851E+04  0.10100000352E+00 0.  1.
</event>
<event>
 5   0  0.3075756E-07  0.3182417E+04  0.7818609E-02  0.8193476E-01
       -1   -1    0    0    0  501  0.00000000000E+00  0.00000000000E+00  0.17145028069E+04  0.17145028069E+04  0.50400001928E-02 0. -1.
        1   -1    0    0  501    0  0.00000000000E+00  0.00000000000E+00 -0.14767807707E+04  0.14767807707E+04  0.50400001928E-02 0.  1.
    10030    2    1    2    0    0  0.00000000000E+00  0.00000000000E+00  0.23772203626E+03  0.31912835776E+04  0.31824171798E+04 0.  0.
        5    1    3    3  502    0  0.51126520384E+03  0.14747527509E+04  0.42897153492E+03  0.16187422441E+04  0.46999998093E+01 0. -1.
       -5    1    3    3    0  502 -0.51126520384E+03 -0.14747527509E+04 -0.19124949866E+03  0.15725413336E+04  0.46999998093E+01 0.  1.
</event>
<event>
 5   0  0.8488469E-07  0.3206433E+04  0.7818609E-02  0.8187120E-01
       -2   -1    0    0    0  501  0.00000000000E+00  0.00000000000E+00  0.16787150978E+04  0.16787150978E+04  0.25500000920E-02 0.  1.
        2   -1    0    0  501    0  0.00000000000E+00  0.00000000000E+00 -0.15311131581E+04  0.15311131581E+04  0.25500000920E-02 0. -1.
    10030    2    1    2    0    0  0.00000000000E+00  0.00000000000E+00  0.14760193977E+03  0.32098282559E+04  0.32064327687E+04 0.  0.
        3    1    3    3  502    0 -0.88394267975E+02 -0.36491011149E+03 -0.14864803137E+04  0.15331655714E+04  0.10100000352E+00 0. -1.
       -3    1    3    3    0  502  0.88394267975E+02  0.36491011149E+03  0.16340822535E+04  0.16766626845E+04  0.10100000352E+00 0.  1.
</event>
<event>
 5   0  0.3075756E-07  0.3213891E+04  0.7818609E-02  0.8185158E-01
       -1   -1    0    0    0  501  0.00000000000E+00  0.00000000000E+00  0.31480201682E+04  0.31480201682E+04  0.50400001928E-02 0. -1.
        1   -1    0    0  501    0  0.00000000000E+00  0.00000000000E+00 -0.82028508649E+03  0.82028508651E+03  0.50400001928E-02 0.  1.
    10030    2    1    2    0    0  0.00000000000E+00  0.00000000000E+00  0.23277350817E+04  0.39683052548E+04  0.32138910971E+04 0.  0.
        5    1    3    3  502    0 -0.51484975675E+03  0.74352519236E+03  0.28039531691E+04  0.29461967769E+04  0.46999998093E+01 0. -1.
       -5    1    3    3    0  502  0.51484975675E+03 -0.74352519236E+03 -0.47621808738E+03  0.10221084778E+04  0.46999998093E+01 0.  1.
</event>
<event>
 5   0  0.2783875E-07  0.3184399E+04  0.7818609E-02  0.8192950E-01
       -1   -1    0    0    0  501  0.00000000000E+00  0.00000000000E+00  0.15359871897E+04  0.15359871897E+04  0.50400001928E-02 0. -1.
        1   -1    0    0  501    0  0.00000000000E+00  0.00000000000E+00 -0.16504688575E+04  0.16504688575E+04  0.50400001928E-02 0.  1.
    10030    2    1    2    0    0  0.00000000000E+00  0.00000000000E+00 -0.11448166787E+03  0.31864560472E+04  0.31843988583E+04 0.  0.
        2    1    3    3  502    0  0.15205418378E+04 -0.31961924277E+03 -0.40516515516E+03  0.16057281039E+04  0.25500000920E-02 0. -1.
       -2    1    3    3    0  502 -0.15205418378E+04  0.31961924277E+03  0.29068348729E+03  0.15807279433E+04  0.25500000920E-02 0.  1.
</event>
<event>
 5   0  0.8802800E-07  0.3215085E+04  0.7818609E-02  0.8184845E-01
       -2   -1    0    0    0  501  0.00000000000E+00  0.00000000000E+00  0.86777567780E+03  0.86777567781E+03  0.25500000920E-02 0. -1.
        2   -1    0    0  501    0  0.00000000000E+00  0.00000000000E+00 -0.29779499836E+04  0.29779499836E+04  0.25500000920E-02 0.  1.
    10030    2    1    2    0    0  0.00000000000E+00  0.00000000000E+00 -0.21101743058E+04  0.38457256614E+04  0.32150847986E+04 0.  0.
        5    1    3    3  502    0  0.49487143220E+03 -0.10067973828E+04  0.32211381811E+03  0.11671838357E+04  0.46999998093E+01 0. -1.
       -5    1    3    3    0  502 -0.49487143220E+03  0.10067973828E+04 -0.24322881239E+04  0.26785418257E+04  0.46999998093E+01 0.  1.
</event>
<event>
 5   0  0.3013888E-07  0.3197290E+04  0.7818609E-02  0.8189533E-01
        1   -1    0    0  501    0  0.00000000000E+00  0.00000000000E+00  0.16499280946E+04  0.16499280946E+04  0.50400001928E-02 0.  1.
       -1   -1    0    0    0  501  0.00000000000E+00  0.00000000000E+00 -0.15489559499E+04  0.15489559499E+04  0.50400001928E-02 0. -1.
    10030    2    1    2    0    0  0.00000000000E+00  0.00000000000E+00  0.10097214470E+03  0.31988840445E+04  0.31972900644E+04 0.  0.
        1    1    3    3  502    0  0.56240275566E+03 -0.44156722483E+03 -0.13800475327E+04  0.15542875108E+04  0.50400001928E-02 0. -1.
       -1    1    3    3    0  502 -0.56240275566E+03  0.44156722483E+03  0.14810196774E+04  0.16445965337E+04  0.50400001928E-02 0.  1.
</event>
<event>
 5   0  0.8488469E-07  0.3218457E+04  0.7818609E-02  0.8183960E-01
        2   -1    0    0  501    0  0.00000000000E+00  0.00000000000E+00  0.17203243462E+04  0.17203243462E+04  0.25500000920E-02 0.  1.
       -2   -1    0    0    0  501  0.00000000000E+00  0.00000000000E+00 -0.15053066117E+04  0.15053066117E+04  0.25500000920E-02 0. -1.
    10030    2    1    2    0    0  0.00000000000E+00  0.00000000000E+00  0.21501773453E+03  0.32256309579E+04  0.32184565323E+04 0.  0.
        3    1    3    3  502    0  0.90104878744E+03 -0.85025977588E+03 -0.92180779440E+03  0.15442021318E+04  0.10100000352E+00 0. -1.
       -3    1    3    3    0  502 -0.90104878744E+03  0.85025977588E+03  0.11368255289E+04  0.16814288261E+04  0.10100000352E+00 0.  1.
</event>
<event>
 5   0  0.8195618E-07  0.3191956E+04  0.7818609E-02  0.8190945E-01
        2   -1    0    0  501    0  0.00000000000E+00  0.00000000000E+00  0.13766173176E+04  0.13766173176E+04  0.25500000920E-02 0. -1.
       -2   -1    0    0    0  501  0.00000000000E+00  0.00000000000E+00 -0.18502927659E+04  0.18502927659E+04  0.25500000920E-02 0.  1.
    10030    2    1    2    0    0  0.00000000000E+00  0.00000000000E+00 -0.47367544829E+03  0.32269100836E+04  0.31919555538E+04 0.  0.
        1    1    3    3  502    0  0.14249689182E+03 -0.33920104629E+03 -0.18068356731E+04  0.18439137354E+04  0.50400001928E-02 0.  1.
       -1    1    3    3    0  502 -0.14249689182E+03  0.33920104629E+03  0.13331602248E+04  0.13829963482E+04  0.50400001928E-02 0. -1.
</event>
<event>
 5   0  0.8488469E-07  0.3194509E+04  0.7818609E-02  0.8190269E-01
       -2   -1    0    0    0  501  0.00000000000E+00  0.00000000000E+00  0.12763955012E+04  0.12763955012E+04  0.25500000920E-02 0. -1.
        2   -1    0    0  501    0  0.00000000000E+00  0.00000000000E+00 -0.19987711278E+04  0.19987711278E+04  0.25500000920E-02 0.  1.
    10030    2    1    2    0    0  0.00000000000E+00  0.00000000000E+00 -0.72237562666E+03  0.32751666290E+04  0.31945093366E+04 0.  0.
        3    1    3    3  502    0 -0.14237998567E+03 -0.15569709763E+04 -0.69622896955E+03  0.17114804906E+04  0.10100000352E+00 0.  1.
       -3    1    3    3    0  502  0.14237998567E+03  0.15569709763E+04 -0.26146657108E+02  0.15636861384E+04  0.10100000352E+00 0. -1.
</event>
<event>
 5   0  0.2783875E-07  0.3203886E+04  0.7818609E-02  0.8187792E-01
       -1   -1    0    0    0  501  0.00000000000E+00  0.00000000000E+00  0.15118234658E+04  0.15118234658E+04  0.50400001928E-02 0.  1.
        1   -1    0    0  501    0  0.00000000000E+00  0.00000000000E+00 -0.16974347815E+04  0.16974347815E+04  0.50400001928E-02 0. -1.
    10030    2    1    2    0    0  0.00000000000E+00  0.00000000000E+00 -0.18561131573E+03  0.32092582473E+04  0.32038862242E+04 0.  0.
        2    1    3    3  502    0 -0.80754693254E+03 -0.12047968229E+04 -0.77405946604E+03  0.16440302581E+04  0.25500000920E-02 0. -1.
       -2    1    3    3    0  502  0.80754693254E+03  0.12047968229E+04  0.58844815030E+03  0.15652279892E+04  0.25500000920E-02 0.  1.
</event>
<event>
 5   0  0.8335929E-07  0.3193622E+04  0.7818609E-02  0.8190504E-01
        2   -1    0    0  501    0  0.00000000000E+00  0.00000000000E+00  0.14962236447E+04  0.14962236447E+04  0.25500000920E-02 0. -1.
       -2   -1    0    0    0  501  0.00000000000E+00  0.00000000000E+00 -0.17041610310E+04  0.17041610310E+04  0.25500000920E-02 0.  1.
    10030    2    1    2    0    0  0.00000000000E+00  0.00000000000E+00 -0.20793738632E+03  0.32003846757E+04  0.31936224128E+04 0.  0.
        4    1    3    3  502    0 -0.75283131881E+03  0.92166356605E+03  0.96298554448E+03  0.15308695226E+04  0.12699999809E+01 0. -1.
       -4    1    3    3    0  502  0.75283131881E+03 -0.92166356605E+03 -0.11709229308E+04  0.16695151531E+04  0.12699999809E+01 0.  1.
</event>
<event>
 5   0  0.3075756E-07  0.3212164E+04  0.7818609E-02  0.8185612E-01
        1   -1    0    0  501    0  0.00000000000E+00  0.00000000000E+00  0.22161547955E+04  0.22161547955E+04  0.50400001928E-02 0.  1.
       -1   -1    0    0    0  501  0.00000000000E+00  0.00000000000E+00 -0.11639529519E+04  0.11639529519E+04  0.50400001928E-02 0. -1.
    10030    2    1    2    0    0  0.00000000000E+00  0.00000000000E+00  0.10522018436E+04  0.33801077475E+04  0.32121643272E+04 0.  0.
        5    1    3    3  502    0 -0.45389097825E+03  0.71131723475E+03  0.19641104682E+04  0.21376953127E+04  0.46999998093E+01 0.  1.
       -5    1    3    3    0  502  0.45389097825E+03 -0.71131723475E+03 -0.91190862458E+03  0.12424124348E+04  0.46999998093E+01 0. -1.
</event>
<event>
 5   0  0.2783875E-07  0.3202404E+04  0.7818609E-02  0.8188183E-01
        1   -1    0    0  501    0  0.00000000000E+00  0.00000000000E+00  0.16375150847E+04  0.16375150847E+04  0.50400001928E-02 0.  1.
       -1   -1    0    0    0  501  0.00000000000E+00  0.00000000000E+00 -0.15656938542E+04  0.15656938542E+04  0.50400001928E-02 0. -1.
    10030    2    1    2    0    0  0.00000000000E+00  0.00000000000E+00  0.71821230455E+02  0.32032089389E+04  0.32024036625E+04 0.  0.
        2    1    3    3  502    0 -0.58191935662E+03  0.94942687597E+03  0.11867675247E+04  0.16274085806E+04  0.25500000920E-02 0.  1.
       -2    1    3    3    0  502  0.58191935662E+03 -0.94942687597E+03 -0.11149462942E+04  0.15758003584E+04  0.25500000920E-02 0. -1.
</event>
<event>
 5   0  0.2783875E-07  0.3186740E+04  0.7818609E-02  0.8192328E-01
       -3   -1    0    0    0  501  0.00000000000E+00  0.00000000000E+00  0.16210309920E+04  0.16210309952E+04  0.10100000352E+00 0. -1.
        3   -1    0    0  501    0  0.00000000000E+00  0.00000000000E+00 -0.15661813648E+04  0.15661813680E+04  0.10100000352E+00 0.  1.
    10030    2    1    2    0    0  0.00000000000E+00  0.00000000000E+00  0.54849627255E+02  0.31872123632E+04  0.31867403670E+04 0.  0.
        5    1    3    3  502    0  0.10835638222E+04  0.68629568875E+03 -0.91806917189E+03  0.15773349117E+04  0.46999998093E+01 0.  1.
       -5    1    3    3    0  502 -0.10835638222E+04 -0.68629568875E+03  0.97291879915E+03  0.16098774515E+04  0.46999998093E+01 0. -1.
</event>
<event>
 5   0  0.2783875E-07  0.3204306E+04  0.7818609E-02  0.8187681E-01
       -1   -1    0    0    0  501  0.00000000000E+00  0.00000000000E+00  0.10015778871E+04  0.10015778871E+04  0.50400001928E-02 0. -1.
        1   -1    0    0  501    0  0.00000000000E+00  0.00000000000E+00 -0.25628510816E+04  0.25628510816E+04  0.50400001928E-02 0.  1.
    10030    2    1    2    0    0  0.00000000000E+00  0.00000000000E+00 -0.15612731944E+04  0.35644289687E+04  0.32043064593E+04 0.  0.
        2    1    3    3  502    0  0.13309496642E+04 -0.62854208547E+03 -0.76747112541E+02  0.14739003634E+04  0.25500000920E-02 0.  1.
       -2    1    3    3    0  502 -0.13309496642E+04  0.62854208547E+03 -0.14845260819E+04  0.20905286053E+04  0.25500000920E-02 0. -1.
</event>
<event>
 5   0  0.2997105E-07  0.3197829E+04  0.7818609E-02  0.8189391E-01
       -1   -1    0    0    0  501  0.00000000000E+00  0.00000000000E+00  0.13274735698E+04  0.13274735698E+04  0.50400001928E-02 0. -1.
        1   -1    0    0  501    0  0.00000000000E+00  0.00000000000E+00 -0.19258590642E+04  0.19258590642E+04  0.50400001928E-02 0.  1.
    10030    2    1    2    0    0  0.00000000000E+00  0.00000000000E+00 -0.59838549439E+03  0.32533326339E+04  0.31978286426E+04 0.  0.
        3    1    3    3  502    0 -0.29687707504E+03 -0.13492099179E+04 -0.11181640639E+04  0.17772997171E+04  0.10100000352E+00 0.  1.
       -3    1    3    3    0  502  0.29687707504E+03  0.13492099179E+04  0.51977856951E+03  0.14760329169E+04  0.10100000352E+00 0. -1.
</event>
<event>
 5   0  0.3075756E-07  0.3211778E+04  0.7818609E-02  0.8185713E-01
        1   -1    0    0  501    0  0.00000000000E+00  0.00000000000E+00  0.22235874014E+04  0.22235874014E+04  0.50400001928E-02 0.  1.
       -1   -1    0    0    0  501  0.00000000000E+00  0.00000000000E+00 -0.11597835005E+04  0.11597835005E+04  0.50400001928E-02 0. -1.
    10030    2    1    2    0    0  0.00000000000E+00  0.00000000000E+00  0.10638039009E+04  0.33833709019E+04  0.32117783112E+04 0.  0.
        5    1    3    3  502    0  0.12504500939E+04 -0.13188567538E+03  0.15841889465E+04  0.20225469035E+04  0.46999998093E+01 0.  1.
       -5    1    3    3    0  502 -0.12504500939E+04  0.13188567538E+03 -0.52038504559E+03  0.13608239983E+04  0.46999998093E+01 0. -1.
</event>
<event>
 5   0  0.8802800E-07  0.3207286E+04  0.7818609E-02  0.8186896E-01
        2   -1    0    0  501    0  0.00000000000E+00  0.00000000000E+00  0.26218965669E+04  0.26218965669E+04  0.25500000920E-02 0.  1.
       -2   -1    0    0    0  501  0.00000000000E+00  0.00000000000E+00 -0.98084362837E+03  0.98084362837E+03  0.25500000920E-02 0. -1.
    10030    2    1    2    0    0  0.00000000000E+00  0.00000000000E+00  0.16410529385E+04  0.36027401953E+04  0.32072857945E+04 0.  0.
        5    1    3    3  502    0 -0.34189669630E+03 -0.11790987930E+03 -0.93442875272E+03  0.10019856658E+04  0.46999998093E+01 0. -1.
       -5    1    3    3    0  502  0.34189669630E+03  0.11790987930E+03  0.25754816913E+04  0.26007545295E+04  0.46999998093E+01 0.  1.
</event>
<event>
 5   0  0.3013888E-07  0.3193996E+04  0.7818609E-02  0.8190405E-01
        1   -1    0    0  501    0  0.00000000000E+00  0.00000000000E+00  0.11444217655E+04  0.11444217655E+04  0.50400001928E-02 0. -1.
       -1   -1    0    0    0  501  0.00000000000E+00  0.00000000000E+00 -0.22285506994E+04  0.22285506994E+04  0.50400001928E-02 0.  1.
    10030    2    1    2    0    0  0.00000000000E+00  0.00000000000E+00 -0.10841289339E+04  0.33729724650E+04  0.31939955705E+04 0.  0.
        1    1    3    3  502    0 -0.12844622139E+04 -0.13120034213E+03 -0.15345946379E+04  0.20055017855E+04  0.50400001928E-02 0. -1.
       -1    1    3    3    0  502  0.12844622139E+04  0.13120034213E+03  0.45046570402E+03  0.13674706795E+04  0.50400001928E-02 0.  1.
</event>
<event>
 5   0  0.3075756E-07  0.3199211E+04  0.7818609E-02  0.8189026E-01
        1   -1    0    0  501    0  0.00000000000E+00  0.00000000000E+00  0.22041284484E+04  0.22041284484E+04  0.50400001928E-02 0. -1.
       -1   -1    0    0    0  501  0.00000000000E+00  0.00000000000E+00 -0.11608842773E+04  0.11608842773E+04  0.50400001928E-02 0.  1.
    10030    2    1    2    0    0  0.00000000000E+00  0.00000000000E+00  0.10432441711E+04  0.33650127258E+04  0.31992111909E+04 0.  0.
        5    1    3    3  502    0 -0.84678334208E+03  0.98647013161E+03 -0.45863811106E+03  0.13785994182E+04  0.46999998093E+01 0.  1.
       -5    1    3    3    0  502  0.84678334208E+03 -0.98647013161E+03  0.15018822822E+04  0.19864133076E+04  0.46999998093E+01 0. -1.
</event>
<event>
 5   0  0.2891204E-07  0.3201659E+04  0.7818609E-02  0.8188379E-01
       -1   -1    0    0    0  501  0.00000000000E+00  0.00000000000E+00  0.13022095692E+04  0.13022095692E+04  0.50400001928E-02 0.  1.
        1   -1    0    0  501    0  0.00000000000E+00  0.00000000000E+00 -0.19679277497E+04  0.19679277497E+04  0.50400001928E-02 0. -1.
    10030    2    1    2    0    0  0.00000000000E+00  0.00000000000E+00 -0.66571818052E+03  0.32701373189E+04  0.32016585372E+04 0.  0.
        4    1    3    3  502    0  0.11144123157E+04 -0.35652243192E+03  0.78304220776E+03  0.14078990610E+04  0.12699999809E+01 0.  1.
       -4    1    3    3    0  502 -0.11144123157E+04  0.35652243192E+03 -0.14487603883E+04  0.18622382579E+04  0.12699999809E+01 0. -1.
</event>
<event>
 5   0  0.2783875E-07  0.3208860E+04  0.7818609E-02  0.8186481E-01
       -1   -1    0    0    0  501  0.00000000000E+00  0.00000000000E+00  0.14749555426E+04  0.14749555426E+04  0.50400001928E-02 0. -1.
        1   -1    0    0  501    0  0.00000000000E+00  0.00000000000E+00 -0.17452694660E+04  0.17452694661E+04  0.50400001928E-02 0.  1.
    10030    2    1    2    0    0  0.00000000000E+00  0.00000000000E+00 -0.27031392346E+03  0.32202250086E+04  0.32088595309E+04 0.  0.
        2    1    3    3  502    0 -0.10496503484E+04 -0.11963357952E+04 -0.33887765785E+03  0.16272133406E+04  0.25500000920E-02 0.  1.
       -2    1    3    3    0  502  0.10496503484E+04  0.11963357952E+04  0.68563734391E+02  0.15930116680E+04  0.25500000920E-02 0. -1.
</event>
<event>
 5   0  0.8838951E-07  0.3208042E+04  0.7818609E-02  0.8186697E-01
       -2   -1    0    0    0  501  0.00000000000E+00  0.00000000000E+00  0.14625323960E+04  0.14625323960E+04  0.25500000920E-02 0.  1.
        2   -1    0    0  501    0  0.00000000000E+00  0.00000000000E+00 -0.17591974296E+04  0.17591974296E+04  0.25500000920E-02 0. -1.
    10030    2    1    2    0    0  0.00000000000E+00  0.00000000000E+00 -0.29666503365E+03  0.32217298256E+04  0.32080419148E+04 0.  0.
        2    1    3    3  502    0  0.55496215913E+03 -0.64150909758E+03 -0.15155251701E+04  0.17367594715E+04  0.25500000920E-02 0. -1.
       -2    1    3    3    0  502 -0.55496215913E+03  0.64150909758E+03  0.12188601365E+04  0.14849703541E+04  0.25500000920E-02 0.  1.
</event>
<event>
 5   0  0.8488469E-07  0.3210508E+04  0.7818609E-02  0.8186048E-01
        2   -1    0    0  501    0  0.00000000000E+00  0.00000000000E+00  0.18919404876E+04  0.18919404876E+04  0.25500000920E-02 0. -1.
       -2   -1    0    0    0  501  0.00000000000E+00  0.00000000000E+00 -0.13620090433E+04  0.13620090433E+04  0.25500000920E-02 0.  1.
    10030    2    1    2    0    0  0.00000000000E+00  0.00000000000E+00  0.52993144431E+03  0.32539495310E+04  0.32105077814E+04 0.  0.
        3    1    3    3  502    0  0.16129565502E+03 -0.15970636669E+04  0.25022941585E+03  0.16245748413E+04  0.10100000352E+00 0. -1.
       -3    1    3    3    0  502 -0.16129565502E+03  0.15970636669E+04  0.27970202845E+03  0.16293746896E+04  0.10100000352E+00 0.  1.
</event>
<event>
 5   0  0.8335929E-07  0.3208094E+04  0.7818609E-02  0.8186683E-01
       -2   -1    0    0    0  501  0.00000000000E+00  0.00000000000E+00  0.16546586603E+04  0.16546586603E+04  0.25500000920E-02 0. -1.
        2   -1    0    0  501    0  0.00000000000E+00  0.00000000000E+00 -0.15549836721E+04  0.15549836721E+04  0.25500000920E-02 0.  1.
    10030    2    1    2    0    0  0.00000000000E+00  0.00000000000E+00  0.99674988208E+02  0.32096423324E+04  0.32080942628E+04 0.  0.
        4    1    3    3  502    0  0.13217905598E+02  0.77351227393E+03  0.14556737793E+04  0.16484792130E+04  0.12699999809E+01 0. -1.
       -4    1    3    3    0  502 -0.13217905598E+02 -0.77351227393E+03 -0.13559987911E+04  0.15611631194E+04  0.12699999809E+01 0.  1.
</event>
<event>
 5   0  0.3075756E-07  0.3225394E+04  0.7818609E-02  0.8182143E-01
        1   -1    0    0  501    0  0.00000000000E+00  0.00000000000E+00  0.16902673192E+04  0.16902673192E+04  0.50400001928E-02 0. -1.
       -1   -1    0    0    0  501  0.00000000000E+00  0.00000000000E+00 -0.15386868234E+04  0.15386868234E+04  0.50400001928E-02 0.  1.
    10030    2    1    2    0    0  0.00000000000E+00  0.00000000000E+00  0.15158049577E+03  0.32289541426E+04  0.32253942718E+04 0.  0.
        5    1    3    3  502    0 -0.19550166285E+03  0.26563319360E+03 -0.15045552597E+04  0.15402891005E+04  0.46999998093E+01 0.  1.
       -5    1    3    3    0  502  0.19550166285E+03 -0.26563319360E+03  0.16561357555E+04  0.16886650421E+04  0.46999998093E+01 0. -1.
</event>
<event>
 5   0  0.8195618E-07  0.3218166E+04  0.7818609E-02  0.8184036E-01
       -2   -1    0    0    0  501  0.00000000000E+00  0.00000000000E+00  0.12893597170E+04  0.12893597170E+04  0.25500000920E-02 0. -1.
        2   -1    0    0  501    0  0.00000000000E+00  0.00000000000E+00 -0.20080882579E+04  0.20080882579E+04  0.25500000920E-02 0.  1.
    10030    2    1    2    0    0  0.00000000000E+00  0.00000000000E+00 -0.71872854090E+03  0.32974479749E+04  0.32181660043E+04 0.  0.
        1    1    3    3  502    0 -0.76663059716E+03 -0.34666384483E+03 -0.17647409557E+04  0.19550470415E+04  0.50400001928E-02 0.  1.
       -1    1    3    3    0  502  0.76663059716E+03  0.34666384483E+03  0.10460124148E+04  0.13424009333E+04  0.50400001928E-02 0. -1.
</event>
<event>
 5   0  0.8802800E-07  0.3199399E+04  0.7818609E-02  0.8188976E-01
        2   -1    0    0  501    0  0.00000000000E+00  0.00000000000E+00  0.13864570097E+04  0.13864570097E+04  0.25500000920E-02 0. -1.
       -2   -1    0    0    0  501  0.00000000000E+00  0.00000000000E+00 -0.18457393987E+04  0.18457393987E+04  0.25500000920E-02 0.  1.
    10030    2    1    2    0    0  0.00000000000E+00  0.00000000000E+00 -0.45928238896E+03  0.32321964084E+04  0.31993988982E+04 0.  0.
        5    1    3    3  502    0  0.17040087412E+03  0.89072444816E+02  0.13747336494E+04  0.13881228531E+04  0.46999998093E+01 0. -1.
       -5    1    3    3    0  502 -0.17040087412E+03 -0.89072444816E+02 -0.18340160384E+04  0.18440735553E+04  0.46999998093E+01 0.  1.
</event>
<event>
 5   0  0.2891204E-07  0.3202257E+04  0.7818609E-02  0.8188221E-01
        1   -1    0    0  501    0  0.00000000000E+00  0.00000000000E+00  0.22039296693E+04  0.22039296693E+04  0.50400001928E-02 0. -1.
       -1   -1    0    0    0  501  0.00000000000E+00  0.00000000000E+00 -0.11632006009E+04  0.11632006009E+04  0.50400001928E-02 0.  1.
    10030    2    1    2    0    0  0.00000000000E+00  0.00000000000E+00  0.10407290683E+04  0.33671302702E+04  0.32022569014E+04 0.  0.
        4    1    3    3  502    0  0.92994653659E+03 -0.27601432055E+03 -0.81904379627E+03  0.12695742669E+04  0.12699999809E+01 0.  1.
       -4    1    3    3    0  502 -0.92994653659E+03  0.27601432055E+03  0.18597728646E+04  0.20975560033E+04  0.12699999809E+01 0. -1.
</event>
<event>
 5   0  0.2783875E-07  0.3203045E+04  0.7818609E-02  0.8188013E-01
        1   -1    0    0  501    0  0.00000000000E+00  0.00000000000E+00  0.26155653540E+04  0.26155653540E+04  0.50400001928E-02 0. -1.
       -1   -1    0    0    0  501  0.00000000000E+00  0.00000000000E+00 -0.98061953749E+03  0.98061953750E+03  0.50400001928E-02 0.  1.
    10030    2    1    2    0    0  0.00000000000E+00  0.00000000000E+00  0.16349458165E+04  0.35961848915E+04  0.32030451060E+04 0.  0.
        2    1    3    3  502    0  0.76207849556E+03 -0.37599636061E+03  0.23415632301E+04  0.24909948328E+04  0.25500000920E-02 0. -1.
       -2    1    3    3    0  502 -0.76207849556E+03  0.37599636061E+03 -0.70661741360E+03  0.11051900587E+04  0.25500000920E-02 0.  1.
</event>
<event>
 5   0  0.2783875E-07  0.3202011E+04  0.7818609E-02  0.8188286E-01
        1   -1    0    0  501    0  0.00000000000E+00  0.00000000000E+00  0.15007488386E+04  0.15007488386E+04  0.50400001928E-02 0. -1.
       -1   -1    0    0    0  501  0.00000000000E+00  0.00000000000E+00 -0.17079594786E+04  0.17079594786E+04  0.50400001928E-02 0.  1.
    10030    2    1    2    0    0  0.00000000000E+00  0.00000000000E+00 -0.20721064000E+03  0.32087083172E+04  0.32020107457E+04 0.  0.
        2    1    3    3  502    0 -0.56600678313E+03  0.11817346596E+04 -0.10255066359E+04  0.16638883209E+04  0.25500000920E-02 0.  1.
       -2    1    3    3    0  502  0.56600678313E+03 -0.11817346596E+04  0.81829599592E+03  0.15448199963E+04  0.25500000920E-02 0. -1.
</event>
<event>
 5   0  0.2997105E-07  0.3198785E+04  0.7818609E-02  0.8189138E-01
        1   -1    0    0  501    0  0.00000000000E+00  0.00000000000E+00  0.23240555427E+04  0.23240555427E+04  0.50400001928E-02 0. -1.
       -1   -1    0    0    0  501  0.00000000000E+00  0.00000000000E+00 -0.11006865868E+04  0.11006865868E+04  0.50400001928E-02 0.  1.
    10030    2    1    2    0    0  0.00000000000E+00  0.00000000000E+00  0.12233689559E+04  0.34247421295E+04  0.31987852462E+04 0.  0.
        3    1    3    3  502    0  0.89851662676E+03 -0.89110289154E+03  0.16588652494E+04  0.20864396511E+04  0.10100000352E+00 0. -1.
       -3    1    3    3    0  502 -0.89851662676E+03  0.89110289154E+03 -0.43549629347E+03  0.13383024784E+04  0.10100000352E+00 0.  1.
</event>
<event>
 5   0  0.2783875E-07  0.3200658E+04  0.7818609E-02  0.8188643E-01
        1   -1    0    0  501    0  0.00000000000E+00  0.00000000000E+00  0.10408775350E+04  0.10408775351E+04  0.50400001928E-02 0.  1.
       -1   -1    0    0    0  501  0.00000000000E+00  0.00000000000E+00 -0.24604744635E+04  0.24604744635E+04  0.50400001928E-02 0. -1.
    10030    2    1    2    0    0  0.00000000000E+00  0.00000000000E+00 -0.14195969284E+04  0.35013519985E+04  0.32006578040E+04 0.  0.
        2    1    3    3  502    0 -0.83881983866E+03  0.20713654379E+03 -0.21833943665E+04  0.23481344146E+04  0.25500000920E-02 0. -1.
       -2    1    3    3    0  502  0.83881983866E+03 -0.20713654379E+03  0.76379743804E+03  0.11532175839E+04  0.25500000920E-02 0.  1.
</event>
<event>
 5   0  0.8838951E-07  0.3207644E+04  0.7818609E-02  0.8186801E-01
        2   -1    0    0  501    0  0.00000000000E+00  0.00000000000E+00  0.23379350192E+04  0.23379350192E+04  0.25500000920E-02 0. -1.
       -2   -1    0    0    0  501  0.00000000000E+00  0.00000000000E+00 -0.11002209628E+04  0.11002209628E+04  0.25500000920E-02 0.  1.
    10030    2    1    2    0    0  0.00000000000E+00  0.00000000000E+00  0.12377140564E+04  0.34381559820E+04  0.32076440687E+04 0.  0.
        2    1    3    3  502    0  0.75897845055E+02 -0.10860396739E+04  0.18812019007E+04  0.21735140320E+04  0.25500000920E-02 0. -1.
       -2    1    3    3    0  502 -0.75897845055E+02  0.10860396739E+04 -0.64348784422E+03  0.12646419500E+04  0.25500000920E-02 0.  1.
</event>
<event>
 5   0  0.8838951E-07  0.3189129E+04  0.7818609E-02  0.8191694E-01
        2   -1    0    0  501    0  0.00000000000E+00  0.00000000000E+00  0.11879253277E+04  0.11879253277E+04  0.25500000920E-02 0.  1.
       -2   -1    0    0    0  501  0.00000000000E+00  0.00000000000E+00 -0.21403998391E+04  0.21403998391E+04  0.25500000920E-02 0. -1.
    10030    2    1    2    0    0  0.00000000000E+00  0.00000000000E+00 -0.95247451140E+03  0.33283251669E+04  0.31891285207E+04 0.  0.
        2    1    3    3  502    0 -0.22757367750E+03  0.76241203931E+03 -0.19184253048E+04  0.20768768732E+04  0.25500000920E-02 0. -1.
       -2    1    3    3    0  502  0.22757367750E+03 -0.76241203931E+03  0.96595079340E+03  0.12514482936E+04  0.25500000920E-02 0.  1.
</event>
<event>
 5   0  0.8488469E-07  0.3197225E+04  0.7818609E-02  0.8189550E-01
        2   -1    0    0  501    0  0.00000000000E+00  0.00000000000E+00  0.17640607788E+04  0.17640607788E+04  0.25500000920E-02 0.  1.
       -2   -1    0    0    0  501  0.00000000000E+00  0.00000000000E+00 -0.14486813085E+04  0.14486813085E+04  0.25500000920E-02 0. -1.
    10030    2    1    2    0    0  0.00000000000E+00  0.00000000000E+00  0.31537947036E+03  0.32127420873E+04  0.31972249700E+04 0.  0.
        3    1    3    3  502    0  0.70870790500E+03 -0.13317072749E+04 -0.37388688337E+03  0.15541887184E+04  0.10100000352E+00 0. -1.
       -3    1    3    3    0  502 -0.70870790500E+03  0.13317072749E+04  0.68926635374E+03  0.16585533689E+04  0.10100000352E+00 0.  1.
</event>
<event>
 5   0  0.3013888E-07  0.3196668E+04  0.7818609E-02  0.8189698E-01
        1   -1    0    0  501    0  0.00000000000E+00  0.00000000000E+00  0.15555171187E+04  0.15555171187E+04  0.50400001928E-02 0. -1.
       -1   -1    0    0    0  501  0.00000000000E+00  0.00000000000E+00 -0.16423298573E+04  0.16423298573E+04  0.50400001928E-02 0.  1.
    10030    2    1    2    0    0  0.00000000000E+00  0.00000000000E+00 -0.86812738566E+02  0.31978469760E+04  0.31966683955E+04 0.  0.
        1    1    3    3  502    0 -0.33953091832E+03  0.67811740389E+02  0.15175511031E+04  0.15565477915E+04  0.50400001928E-02 0. -1.
       -1    1    3    3    0  502  0.33953091832E+03 -0.67811740389E+02 -0.16043638417E+04  0.16412991845E+04  0.50400001928E-02 0.  1.
</event>
<event>
 5   0  0.2783875E-07  0.3191578E+04  0.7818609E-02  0.8191045E-01
       -1   -1    0    0    0  501  0.00000000000E+00  0.00000000000E+00  0.15355973594E+04  0.15355973594E+04  0.50400001928E-02 0. -1.
        1   -1    0    0  501    0  0.00000000000E+00  0.00000000000E+00 -0.16583403739E+04  0.16583403739E+04  0.50400001928E-02 0.  1.
    10030    2    1    2    0    0  0.00000000000E+00  0.00000000000E+00 -0.12274301445E+03  0.31939377333E+04  0.31915783551E+04 0.  0.
        2    1    3    3  502    0  0.43327495153E+03  0.15212416367E+04 -0.27280902210E+03  0.16050944095E+04  0.25500000920E-02 0.  1.
       -2    1    3    3    0  502 -0.43327495153E+03 -0.15212416367E+04  0.15006600765E+03  0.15888433238E+04  0.25500000920E-02 0. -1.
</event>
<event>
 5   0  0.2783875E-07  0.3150986E+04  0.7818609E-02  0.8201883E-01
       -1   -1    0    0    0  501  0.00000000000E+00  0.00000000000E+00  0.13325009472E+04  0.13325009472E+04  0.50400001928E-02 0. -1.
        1   -1    0    0  501    0  0.00000000000E+00  0.00000000000E+00 -0.18627962373E+04  0.18627962373E+04  0.50400001928E-02 0.  1.
    10030    2    1    2    0    0  0.00000000000E+00  0.00000000000E+00 -0.53029529008E+03  0.31952971846E+04  0.31509857193E+04 0.  0.
        2    1    3    3  502    0  0.30313763983E+03 -0.10327337954E+04  0.90157382537E+03  0.14040181207E+04  0.25500000920E-02 0. -1.
       -2    1    3    3    0  502 -0.30313763983E+03  0.10327337954E+04 -0.14318691155E+04  0.17912790638E+04  0.25500000920E-02 0.  1.
</event>
<event>
 5   0  0.8488469E-07  0.3206806E+04  0.7818609E-02  0.8187022E-01
       -2   -1    0    0    0  501  0.00000000000E+00  0.00000000000E+00  0.30282870973E+04  0.30282870973E+04  0.25500000920E-02 0. -1.
        2   -1    0    0  501    0  0.00000000000E+00  0.00000000000E+00 -0.84896202835E+03  0.84896202835E+03  0.25500000920E-02 0.  1.
    10030    2    1    2    0    0  0.00000000000E+00  0.00000000000E+00  0.21793250690E+04  0.38772491257E+04  0.32068057357E+04 0.  0.
        3    1    3    3  502    0  0.82004877481E+03  0.81142416696E+03 -0.25670591063E+03  0.11818574815E+04  0.10100000352E+00 0.  1.
       -3    1    3    3    0  502 -0.82004877481E+03 -0.81142416696E+03  0.24360309796E+04  0.26953916442E+04  0.10100000352E+00 0. -1.
</event>
<event>
 5   0  0.8838951E-07  0.3177310E+04  0.7818609E-02  0.8194835E-01
       -2   -1    0    0    0  501  0.00000000000E+00  0.00000000000E+00  0.75466320652E+03  0.75466320653E+03  0.25500000920E-02 0. -1.
        2   -1    0    0  501    0  0.00000000000E+00  0.00000000000E+00 -0.33443069866E+04  0.33443069866E+04  0.25500000920E-02 0.  1.
    10030    2    1    2    0    0  0.00000000000E+00  0.00000000000E+00 -0.25896437801E+04  0.40989701931E+04  0.31773104564E+04 0.  0.
        2    1    3    3  502    0  0.20857680177E+03  0.40019965413E+03  0.67023082691E+03  0.80800582099E+03  0.25500000920E-02 0. -1.
       -2    1    3    3    0  502 -0.20857680177E+03 -0.40019965413E+03 -0.32598746070E+04  0.32909643722E+04  0.25500000920E-02 0.  1.
</event>
<event>
 5   0  0.8838951E-07  0.3197789E+04  0.7818609E-02  0.8189401E-01
        2   -1    0    0  501    0  0.00000000000E+00  0.00000000000E+00  0.14375792731E+04  0.14375792731E+04  0.25500000920E-02 0. -1.
       -2   -1    0    0    0  501  0.00000000000E+00  0.00000000000E+00 -0.17783116449E+04  0.17783116449E+04  0.25500000920E-02 0.  1.
    10030    2    1    2    0    0  0.00000000000E+00  0.00000000000E+00 -0.34073237179E+03  0.32158909179E+04  0.31977892124E+04 0.  0.
        2    1    3    3  502    0 -0.46433364067E+03  0.82994834282E+02  0.13660154912E+04  0.14451616500E+04  0.25500000920E-02 0. -1.
       -2    1    3    3    0  502  0.46433364067E+03 -0.82994834282E+02 -0.17067478630E+04  0.17707292679E+04  0.25500000920E-02 0.  1.
</event>
<event>
 5   0  0.2891204E-07  0.3189294E+04  0.7818609E-02  0.8191650E-01
        1   -1    0    0  501    0  0.00000000000E+00  0.00000000000E+00  0.95435395009E+03  0.95435395010E+03  0.50400001928E-02 0. -1.
       -1   -1    0    0    0  501  0.00000000000E+00  0.00000000000E+00 -0.26645243837E+04  0.26645243837E+04  0.50400001928E-02 0.  1.
    10030    2    1    2    0    0  0.00000000000E+00  0.00000000000E+00 -0.17101704336E+04  0.36188783338E+04  0.31892941982E+04 0.  0.
        4    1    3    3  502    0  0.88207372699E+03  0.13021020649E+04 -0.11539518888E+04  0.19506743505E+04  0.12699999809E+01 0.  1.
       -4    1    3    3    0  502 -0.88207372699E+03 -0.13021020649E+04 -0.55621854480E+03  0.16682039833E+04  0.12699999809E+01 0. -1.
</event>
<event>
 5   0  0.2783875E-07  0.3199366E+04  0.7818609E-02  0.8188985E-01
        3   -1    0    0  501    0  0.00000000000E+00  0.00000000000E+00  0.13035512591E+04  0.13035512630E+04  0.10100000352E+00 0. -1.
       -3   -1    0    0    0  501  0.00000000000E+00  0.00000000000E+00 -0.19630884198E+04  0.19630884224E+04  0.10100000352E+00 0.  1.
    10030    2    1    2    0    0  0.00000000000E+00  0.00000000000E+00 -0.65953716069E+03  0.32666396854E+04  0.31993664323E+04 0.  0.
        4    1    3    3  502    0 -0.91583512111E+03 -0.52788740073E+03 -0.15556669585E+04  0.18808297041E+04  0.12699999809E+01 0.  1.
       -4    1    3    3    0  502  0.91583512111E+03  0.52788740073E+03  0.89612979784E+03  0.13858099813E+04  0.12699999809E+01 0. -1.
</event>
<event>
 5   0  0.8195618E-07  0.3195219E+04  0.7818609E-02  0.8190081E-01
       -2   -1    0    0    0  501  0.00000000000E+00  0.00000000000E+00  0.13158172567E+04  0.13158172567E+04  0.25500000920E-02 0.  1.
        2   -1    0    0  501    0  0.00000000000E+00  0.00000000000E+00 -0.19397495963E+04  0.19397495963E+04  0.25500000920E-02 0. -1.
    10030    2    1    2    0    0  0.00000000000E+00  0.00000000000E+00 -0.62393233963E+03  0.32555668530E+04  0.31952189236E+04 0.  0.
        1    1    3    3  502    0 -0.57154439095E+02 -0.80099616426E+03  0.10952397272E+04  0.13580911402E+04  0.50400001928E-02 0.  1.
       -1    1    3    3    0  502  0.57154439095E+02  0.80099616426E+03 -0.17191720668E+04  0.18974757127E+04  0.50400001928E-02 0. -1.
</event>
<event>
 5   0  0.8488469E-07  0.3275716E+04  0.7818609E-02  0.8169102E-01
        2   -1    0    0  501    0  0.00000000000E+00  0.00000000000E+00  0.20400121365E+04  0.20400121365E+04  0.25500000920E-02 0.  1.
       -2   -1    0    0    0  501  0.00000000000E+00  0.00000000000E+00 -0.13149820371E+04  0.13149820371E+04  0.25500000920E-02 0. -1.
    10030    2    1    2    0    0  0.00000000000E+00  0.00000000000E+00  0.72503009941E+03  0.33549941736E+04  0.32757162972E+04 0.  0.
        3    1    3    3  502    0  0.72717839932E+03 -0.69823349856E+03  0.16845927672E+04  0.19632043308E+04  0.10100000352E+00 0.  1.
       -3    1    3    3    0  502 -0.72717839932E+03  0.69823349856E+03 -0.95956266775E+03  0.13917898428E+04  0.10100000352E+00 0. -1.
</event>
<event>
 5   0  0.2783875E-07  0.3055337E+04  0.7818609E-02  0.8228103E-01
        1   -1    0    0  501    0  0.00000000000E+00  0.00000000000E+00  0.17038994398E+04  0.17038994398E+04  0.50400001928E-02 0.  1.
       -1   -1    0    0    0  501  0.00000000000E+00  0.00000000000E+00 -0.13696644790E+04  0.13696644790E+04  0.50400001928E-02 0. -1.
    10030    2    1    2    0    0  0.00000000000E+00  0.00000000000E+00  0.33423496081E+03  0.30735639189E+04  0.30553366679E+04 0.  0.
        2    1    3    3  502    0 -0.87717857056E+03 -0.50807410218E+03  0.13168218666E+04  0.16618066573E+04  0.25500000920E-02 0. -1.
       -2    1    3    3    0  502  0.87717857056E+03  0.50807410218E+03 -0.98258690582E+03  0.14117572615E+04  0.25500000920E-02 0.  1.
</event>
<event>
 5   0  0.8488469E-07  0.3184924E+04  0.7818609E-02  0.8192810E-01
       -2   -1    0    0    0  501  0.00000000000E+00  0.00000000000E+00  0.17340893935E+04  0.17340893935E+04  0.25500000920E-02 0.  1.
        2   -1    0    0  501    0  0.00000000000E+00  0.00000000000E+00 -0.14624015528E+04  0.14624015528E+04  0.25500000920E-02 0. -1.
    10030    2    1    2    0    0  0.00000000000E+00  0.00000000000E+00  0.27168784067E+03  0.31964909463E+04  0.31849238746E+04 0.  0.
        3    1    3    3  502    0 -0.82973493805E+03  0.89139546660E+03 -0.89398653275E+03  0.15107143596E+04  0.10100000352E+00 0. -1.
       -3    1    3    3    0  502  0.82973493805E+03 -0.89139546660E+03  0.11656743734E+04  0.16857765867E+04  0.10100000352E+00 0.  1.
</event>
<event>
 5   0  0.8838951E-07  0.3177344E+04  0.7818609E-02  0.8194826E-01
       -2   -1    0    0    0  501  0.00000000000E+00  0.00000000000E+00  0.16789736744E+04  0.16789736744E+04  0.25500000920E-02 0. -1.
        2   -1    0    0  501    0  0.00000000000E+00  0.00000000000E+00 -0.15032268787E+04  0.15032268787E+04  0.25500000920E-02 0.  1.
    10030    2    1    2    0    0  0.00000000000E+00  0.00000000000E+00  0.17574679573E+03  0.31822005531E+04  0.31773437686E+04 0.  0.
        2    1    3    3  502    0 -0.45216025020E+03  0.19163039547E+03 -0.14252991414E+04  0.15075306772E+04  0.25500000920E-02 0.  1.
       -2    1    3    3    0  502  0.45216025020E+03 -0.19163039547E+03  0.16010459371E+04  0.16746698759E+04  0.25500000920E-02 0. -1.
</event>
<event>
 5   0  0.8488469E-07  0.3188034E+04  0.7818609E-02  0.8191984E-01
        2   -1    0    0  501    0  0.00000000000E+00  0.00000000000E+00  0.13843641513E+04  0.13843641513E+04  0.25500000920E-02 0. -1.
       -2   -1    0    0    0  501  0.00000000000E+00  0.00000000000E+00 -0.18354205730E+04  0.18354205730E+04  0.25500000920E-02 0.  1.
    10030    2    1    2    0    0  0.00000000000E+00  0.00000000000E+00 -0.45105642172E+03  0.32197847244E+04  0.31880341554E+04 0.  0.
        3    1    3    3  502    0 -0.96166840181E+02  0.26311273083E+03  0.13593080945E+04  0.13878742293E+04  0.10100000352E+00 0. -1.
       -3    1    3    3    0  502  0.96166840181E+02 -0.26311273083E+03 -0.18103645162E+04  0.18319104951E+04  0.10100000352E+00 0.  1.
</event>
<event>
 5   0  0.2997105E-07  0.3197709E+04  0.7818609E-02  0.8189422E-01
       -1   -1    0    0    0  501  0.00000000000E+00  0.00000000000E+00  0.14033481087E+04  0.14033481088E+04  0.50400001928E-02 0.  1.
        1   -1    0    0  501    0  0.00000000000E+00  0.00000000000E+00 -0.18215980102E+04  0.18215980102E+04  0.50400001928E-02 0. -1.
    10030    2    1    2    0    0  0.00000000000E+00  0.00000000000E+00 -0.41824990147E+03  0.32249461190E+04  0.31977092567E+04 0.  0.
        3    1    3    3  502    0 -0.29320719881E+03  0.13871239896E+02  0.13759404828E+04  0.14069026602E+04  0.10100000352E+00 0.  1.
       -3    1    3    3    0  502  0.29320719881E+03 -0.13871239896E+02 -0.17941903843E+04  0.18180434588E+04  0.10100000352E+00 0. -1.
</event>
<event>
 5   0  0.3075756E-07  0.3201359E+04  0.7818609E-02  0.8188458E-01
       -1   -1    0    0    0  501  0.00000000000E+00  0.00000000000E+00  0.18758182343E+04  0.18758182343E+04  0.50400001928E-02 0. -1.
        1   -1    0    0  501    0  0.00000000000E+00  0.00000000000E+00 -0.13658975915E+04  0.13658975915E+04  0.50400001928E-02 0.  1.
    10030    2    1    2    0    0  0.00000000000E+00  0.00000000000E+00  0.50992064281E+03  0.32417158257E+04  0.32013594664E+04 0.  0.
        5    1    3    3  502    0  0.42064898211E+03 -0.12065197376E+04 -0.72130849834E+03  0.14672912059E+04  0.46999998093E+01 0.  1.
       -5    1    3    3    0  502 -0.42064898211E+03  0.12065197376E+04  0.12312291411E+04  0.17744246198E+04  0.46999998093E+01 0. -1.
</event>
<event>
 5   0  0.8195618E-07  0.3197552E+04  0.7818609E-02  0.8189464E-01
        2   -1    0    0  501    0  0.00000000000E+00  0.00000000000E+00  0.19303973297E+04  0.19303973297E+04  0.25500000920E-02 0.  1.
       -2   -1    0    0    0  501  0.00000000000E+00  0.00000000000E+00 -0.13241233224E+04  0.13241233224E+04  0.25500000920E-02 0. -1.
    10030    2    1    2    0    0  0.00000000000E+00  0.00000000000E+00  0.60627400728E+03  0.32545206521E+04  0.31975516420E+04 0.  0.
        1    1    3    3  502    0 -0.12448614704E+04 -0.64258450943E+03 -0.48097097368E+03  0.14811914156E+04  0.50400001928E-02 0. -1.
       -1    1    3    3    0  502  0.12448614704E+04  0.64258450943E+03  0.10872449810E+04  0.17733292365E+04  0.50400001928E-02 0.  1.
</event>
<event>
 5   0  0.2783875E-07  0.3187905E+04  0.7818609E-02  0.8192019E-01
        1   -1    0    0  501    0  0.00000000000E+00  0.00000000000E+00  0.24097870272E+04  0.24097870272E+04  0.50400001928E-02 0.  1.
       -1   -1    0    0    0  501  0.00000000000E+00  0.00000000000E+00 -0.10543189118E+04  0.10543189118E+04  0.50400001928E-02 0. -1.
    10030    2    1    2    0    0  0.00000000000E+00  0.00000000000E+00  0.13554681154E+04  0.34641059390E+04  0.31879046637E+04 0.  0.
        2    1    3    3  502    0  0.95037459049E+03  0.48095956814E+03 -0.61081713155E+03  0.12278564805E+04  0.25500000920E-02 0. -1.
       -2    1    3    3    0  502 -0.95037459049E+03 -0.48095956814E+03  0.19662852469E+04  0.22362494585E+04  0.25500000920E-02 0.  1.
</event>
<event>
 5   0  0.8838951E-07  0.3198436E+04  0.7818609E-02  0.8189230E-01
        2   -1    0    0  501    0  0.00000000000E+00  0.00000000000E+00  0.10434169437E+04  0.10434169437E+04  0.25500000920E-02 0.  1.
       -2   -1    0    0    0  501  0.00000000000E+00  0.00000000000E+00 -0.24510801854E+04  0.24510801854E+04  0.25500000920E-02 0. -1.
    10030    2    1    2    0    0  0.00000000000E+00  0.00000000000E+00 -0.14076632417E+04  0.34944971292E+04  0.31984362404E+04 0.  0.
        2    1    3    3  502    0 -0.77080141300E+03  0.11001461478E+04 -0.16519371004E+04  0.21291671021E+04  0.25500000920E-02 0.  1.
       -2    1    3    3    0  502  0.77080141300E+03 -0.11001461478E+04  0.24427385875E+03  0.13653300271E+04  0.25500000920E-02 0. -1.
</event>
<event>
 5   0  0.3013888E-07  0.3013308E+04  0.7818609E-02  0.8239941E-01
        1   -1    0    0  501    0  0.00000000000E+00  0.00000000000E+00  0.19090079162E+04  0.19090079162E+04  0.50400001928E-02 0. -1.
       -1   -1    0    0    0  501  0.00000000000E+00  0.00000000000E+00 -0.11891029870E+04  0.11891029870E+04  0.50400001928E-02 0.  1.
    10030    2    1    2    0    0  0.00000000000E+00  0.00000000000E+00  0.71990492915E+03  0.30981109032E+04  0.30133084909E+04 0.  0.
        1    1    3    3  502    0  0.12489324322E+02  0.70760806626E+03 -0.10075707065E+04  0.12312854613E+04  0.50400001928E-02 0.  1.
       -1    1    3    3    0  502 -0.12489324322E+02 -0.70760806626E+03  0.17274756357E+04  0.18668254419E+04  0.50400001928E-02 0. -1.
</event>
<event>
 5   0  0.8335929E-07  0.3193035E+04  0.7818609E-02  0.8190659E-01
        2   -1    0    0  501    0  0.00000000000E+00  0.00000000000E+00  0.20554857949E+04  0.20554857949E+04  0.25500000920E-02 0. -1.
       -2   -1    0    0    0  501  0.00000000000E+00  0.00000000000E+00 -0.12400317298E+04  0.12400317298E+04  0.25500000920E-02 0.  1.
    10030    2    1    2    0    0  0.00000000000E+00  0.00000000000E+00  0.81545406510E+03  0.32955175248E+04  0.31930346731E+04 0.  0.
        4    1    3    3  502    0 -0.50117777277E+03  0.12696418588E+04  0.12623723557E+04  0.18592351080E+04  0.12699999809E+01 0. -1.
       -4    1    3    3    0  502  0.50117777277E+03 -0.12696418588E+04 -0.44691829060E+03  0.14362824168E+04  0.12699999809E+01 0.  1.
</event>
<event>
 5   0  0.2891204E-07  0.3192673E+04  0.7818609E-02  0.8190755E-01
        1   -1    0    0  501    0  0.00000000000E+00  0.00000000000E+00  0.12134889264E+04  0.12134889264E+04  0.50400001928E-02 0. -1.
       -1   -1    0    0    0  501  0.00000000000E+00  0.00000000000E+00 -0.20999696643E+04  0.20999696643E+04  0.50400001928E-02 0.  1.
    10030    2    1    2    0    0  0.00000000000E+00  0.00000000000E+00 -0.88648073794E+03  0.33134585907E+04  0.31926728197E+04 0.  0.
        4    1    3    3  502    0 -0.91200596106E+02 -0.52920850211E+03  0.11169321399E+04  0.12393216715E+04  0.12699999809E+01 0. -1.
       -4    1    3    3    0  502  0.91200596106E+02  0.52920850211E+03 -0.20034128778E+04  0.20741369192E+04  0.12699999809E+01 0.  1.
</event>
<event>
 5   0  0.8802800E-07  0.3184588E+04  0.7818609E-02  0.8192899E-01
        2   -1    0    0  501    0  0.00000000000E+00  0.00000000000E+00  0.19568326828E+04  0.19568326828E+04  0.25500000920E-02 0. -1.
       -2   -1    0    0    0  501  0.00000000000E+00  0.00000000000E+00 -0.12956655819E+04  0.12956655819E+04  0.25500000920E-02 0.  1.
    10030    2    1    2    0    0  0.00000000000E+00  0.00000000000E+00  0.66116710094E+03  0.32524982647E+04  0.31845883606E+04 0.  0.
        5    1    3    3  502    0 -0.90450114404E+03 -0.12931484720E+04  0.54729547090E+03  0.16703022818E+04  0.46999998093E+01 0. -1.
       -5    1    3    3    0  502  0.90450114404E+03  0.12931484720E+04  0.11387163004E+03  0.15821959829E+04  0.46999998093E+01 0.  1.
</event>
<event>
 5   0  0.2891204E-07  0.3177051E+04  0.7818609E-02  0.8194904E-01
        1   -1    0    0  501    0  0.00000000000E+00  0.00000000000E+00  0.18805987216E+04  0.18805987216E+04  0.50400001928E-02 0.  1.
       -1   -1    0    0    0  501  0.00000000000E+00  0.00000000000E+00 -0.13418137987E+04  0.13418137987E+04  0.50400001928E-02 0. -1.
    10030    2    1    2    0    0  0.00000000000E+00  0.00000000000E+00  0.53878492287E+03  0.32224125203E+04  0.31770510317E+04 0.  0.
        4    1    3    3  502    0 -0.91585950063E+03 -0.98087278207E+03 -0.59274471092E+03  0.14670575806E+04  0.12699999809E+01 0.  1.
       -4    1    3    3    0  502  0.91585950063E+03  0.98087278207E+03  0.11315296338E+04  0.17553549398E+04  0.12699999809E+01 0. -1.
</event>
<event>
 5   0  0.3075756E-07  0.3213512E+04  0.7818609E-02  0.8185258E-01
       -1   -1    0    0    0  501  0.00000000000E+00  0.00000000000E+00  0.18263602509E+04  0.18263602509E+04  0.50400001928E-02 0.  1.
        1   -1    0    0  501    0  0.00000000000E+00  0.00000000000E+00 -0.14135569569E+04  0.14135569569E+04  0.50400001928E-02 0. -1.
    10030    2    1    2    0    0  0.00000000000E+00  0.00000000000E+00  0.41280329405E+03  0.32399172078E+04  0.32135116235E+04 0.  0.
        5    1    3    3  502    0 -0.74707134371E+03  0.13191754043E+04  0.74303724373E+03  0.16883322468E+04  0.46999998093E+01 0.  1.
       -5    1    3    3    0  502  0.74707134371E+03 -0.13191754043E+04 -0.33023394968E+03  0.15515849611E+04  0.46999998093E+01 0. -1.
</event>
<event>
 5   0  0.8195618E-07  0.3193445E+04  0.7818609E-02  0.8190551E-01
        2   -1    0    0  501    0  0.00000000000E+00  0.00000000000E+00  0.20010385751E+04  0.20010385751E+04  0.25500000920E-02 0. -1.
       -2   -1    0    0    0  501  0.00000000000E+00  0.00000000000E+00 -0.12740995229E+04  0.12740995229E+04  0.25500000920E-02 0.  1.
    10030    2    1    2    0    0  0.00000000000E+00  0.00000000000E+00  0.72693905222E+03  0.32751380981E+04  0.31934447194E+04 0.  0.
        1    1    3    3  502    0 -0.64031942993E+03 -0.73574052429E+03  0.16600087776E+04  0.19253447050E+04  0.50400001928E-02 0. -1.
       -1    1    3    3    0  502  0.64031942993E+03  0.73574052429E+03 -0.93306972540E+03  0.13497933930E+04  0.50400001928E-02 0.  1.
</event>
<event>
 5   0  0.2997105E-07  0.3201702E+04  0.7818609E-02  0.8188368E-01
        1   -1    0    0  501    0  0.00000000000E+00  0.00000000000E+00  0.13006986352E+04  0.13006986352E+04  0.50400001928E-02 0.  1.
       -1   -1    0    0    0  501  0.00000000000E+00  0.00000000000E+00 -0.19702670535E+04  0.19702670535E+04  0.50400001928E-02 0. -1.
    10030    2    1    2    0    0  0.00000000000E+00  0.00000000000E+00 -0.66956841833E+03  0.32709656887E+04  0.32017018396E+04 0.  0.
        3    1    3    3  502    0  0.11328901446E+04 -0.11305843037E+04 -0.30147974470E+03  0.16286654027E+04  0.10100000352E+00 0.  1.
       -3    1    3    3    0  502 -0.11328901446E+04  0.11305843037E+04 -0.36808867363E+03  0.16423002860E+04  0.10100000352E+00 0. -1.
</event>
<event>
 5   0  0.8195618E-07  0.3214578E+04  0.7818609E-02  0.8184978E-01
       -2   -1    0    0    0  501  0.00000000000E+00  0.00000000000E+00  0.17206302641E+04  0.17206302641E+04  0.25500000920E-02 0. -1.
        2   -1    0    0  501    0  0.00000000000E+00  0.00000000000E+00 -0.15014139117E+04  0.15014139118E+04  0.25500000920E-02 0.  1.
    10030    2    1    2    0    0  0.00000000000E+00  0.00000000000E+00  0.21921635238E+03  0.32220441759E+04  0.32145781780E+04 0.  0.
        1    1    3    3  502    0 -0.94516592620E+03  0.11112033617E+03  0.14078739167E+04  0.16993514418E+04  0.50400001928E-02 0. -1.
       -1    1    3    3    0  502  0.94516592620E+03 -0.11112033617E+03 -0.11886575644E+04  0.15226927341E+04  0.50400001928E-02 0.  1.
</event>
<event>
 5   0  0.2997105E-07  0.3196004E+04  0.7818609E-02  0.8189873E-01
       -1   -1    0    0    0  501  0.00000000000E+00  0.00000000000E+00  0.13825838852E+04  0.13825838852E+04  0.50400001928E-02 0. -1.
        1   -1    0    0  501    0  0.00000000000E+00  0.00000000000E+00 -0.18469839784E+04  0.18469839784E+04  0.50400001928E-02 0.  1.
    10030    2    1    2    0    0  0.00000000000E+00  0.00000000000E+00 -0.46440009322E+03  0.32295678636E+04  0.31960039329E+04 0.  0.
        3    1    3    3  502    0  0.11439761435E+04  0.69791952183E+03  0.64748066463E+03  0.14882890503E+04  0.10100000352E+00 0. -1.
       -3    1    3    3    0  502 -0.11439761435E+04 -0.69791952183E+03 -0.11118807579E+04  0.17412788133E+04  0.10100000352E+00 0.  1.
</event>
<event>
 5   0  0.3075756E-07  0.3176759E+04  0.7818609E-02  0.8194982E-01
        1   -1    0    0  501    0  0.00000000000E+00  0.00000000000E+00  0.19411922544E+04  0.19411922544E+04  0.50400001928E-02 0.  1.
       -1   -1    0    0    0  501  0.00000000000E+00  0.00000000000E+00 -0.12996902628E+04  0.12996902628E+04  0.50400001928E-02 0. -1.
    10030    2    1    2    0    0  0.00000000000E+00  0.00000000000E+00  0.64150199160E+03  0.32408825171E+04  0.31767585185E+04 0.  0.
        5    1    3    3  502    0 -0.25762335977E+03 -0.11051514932E+04 -0.81307704257E+03  0.13960107397E+04  0.46999998093E+01 0. -1.
       -5    1    3    3    0  502  0.25762335977E+03  0.11051514932E+04  0.14545790342E+04  0.18448717774E+04  0.46999998093E+01 0.  1.
</event>
<event>
 5   0  0.8335929E-07  0.3178965E+04  0.7818609E-02  0.8194395E-01
        2   -1    0    0  501    0  0.00000000000E+00  0.00000000000E+00  0.24430287442E+04  0.24430287442E+04  0.25500000920E-02 0.  1.
       -2   -1    0    0    0  501  0.00000000000E+00  0.00000000000E+00 -0.10341483360E+04  0.10341483360E+04  0.25500000920E-02 0. -1.
    10030    2    1    2    0    0  0.00000000000E+00  0.00000000000E+00  0.14088804082E+04  0.34771770802E+04  0.31789646810E+04 0.  0.
        4    1    3    3  502    0 -0.45898567871E+03 -0.14637857852E+04  0.11595429790E+04  0.19229867944E+04  0.12699999809E+01 0. -1.
       -4    1    3    3    0  502  0.45898567871E+03  0.14637857852E+04  0.24933742918E+03  0.15541902859E+04  0.12699999809E+01 0.  1.
</event>
<event>
 5   0  0.8838951E-07  0.3198095E+04  0.7818609E-02  0.8189320E-01
        2   -1    0    0  501    0  0.00000000000E+00  0.00000000000E+00  0.22555346297E+04  0.22555346297E+04  0.25500000920E-02 0.  1.
       -2   -1    0    0    0  501  0.00000000000E+00  0.00000000000E+00 -0.11336351374E+04  0.11336351374E+04  0.25500000920E-02 0. -1.
    10030    2    1    2    0    0  0.00000000000E+00  0.00000000000E+00  0.11218994922E+04  0.33891697671E+04  0.31980952518E+04 0.  0.
        2    1    3    3  502    0 -0.13663902747E+04 -0.72243936334E+03  0.12656710761E+03  0.15507934257E+04  0.25500000920E-02 0. -1.
       -2    1    3    3    0  502  0.13663902747E+04  0.72243936334E+03  0.99533238461E+03  0.18383763414E+04  0.25500000920E-02 0.  1.
</event>
<event>
 5   0  0.2891204E-07  0.3204716E+04  0.7818609E-02  0.8187573E-01
       -1   -1    0    0    0  501  0.00000000000E+00  0.00000000000E+00  0.13961544400E+04  0.13961544400E+04  0.50400001928E-02 0.  1.
        1   -1    0    0  501    0  0.00000000000E+00  0.00000000000E+00 -0.18390163658E+04  0.18390163658E+04  0.50400001928E-02 0. -1.
    10030    2    1    2    0    0  0.00000000000E+00  0.00000000000E+00 -0.44286192574E+03  0.32351708058E+04  0.32047158154E+04 0.  0.
        4    1    3    3  502    0 -0.12219321177E+04 -0.26355930186E+02 -0.12674908598E+04  0.17607803463E+04  0.12699999809E+01 0. -1.
       -4    1    3    3    0  502  0.12219321177E+04  0.26355930186E+02  0.82462893404E+03  0.14743904595E+04  0.12699999809E+01 0.  1.
</event>
<event>
 5   0  0.8802800E-07  0.3199345E+04  0.7818609E-02  0.8188990E-01
       -2   -1    0    0    0  501  0.00000000000E+00  0.00000000000E+00  0.12354759368E+04  0.12354759368E+04  0.25500000920E-02 0.  1.
        2   -1    0    0  501    0  0.00000000000E+00  0.00000000000E+00 -0.20712275384E+04  0.20712275384E+04  0.25500000920E-02 0. -1.
    10030    2    1    2    0    0  0.00000000000E+00  0.00000000000E+00 -0.83575160157E+03  0.33067034752E+04  0.31993447975E+04 0.  0.
        5    1    3    3  502    0 -0.78832442647E+02 -0.36973208633E+03 -0.20243874061E+04  0.20593889457E+04  0.46999998093E+01 0. -1.
       -5    1    3    3    0  502  0.78832442647E+02  0.36973208633E+03  0.11886358045E+04  0.12473145295E+04  0.46999998093E+01 0.  1.
</event>
<event>
 5   0  0.3013888E-07  0.3203152E+04  0.7818609E-02  0.8187985E-01
        1   -1    0    0  501    0  0.00000000000E+00  0.00000000000E+00  0.13725814624E+04  0.13725814624E+04  0.50400001928E-02 0.  1.
       -1   -1    0    0    0  501  0.00000000000E+00  0.00000000000E+00 -0.18687742774E+04  0.18687742774E+04  0.50400001928E-02 0. -1.
    10030    2    1    2    0    0  0.00000000000E+00  0.00000000000E+00 -0.49619281497E+03  0.32413557399E+04  0.32031515298E+04 0.  0.
        1    1    3    3  502    0  0.14789175028E+04  0.61258869307E+03 -0.29952623847E+03  0.16285508449E+04  0.50400001928E-02 0. -1.
       -1    1    3    3    0  502 -0.14789175028E+04 -0.61258869307E+03 -0.19666657651E+03  0.16128048950E+04  0.50400001928E-02 0.  1.
</event>
<event>
 5   0  0.8335929E-07  0.3170945E+04  0.7818609E-02  0.8196533E-01
       -2   -1    0    0    0  501  0.00000000000E+00  0.00000000000E+00  0.21177894501E+04  0.21177894501E+04  0.25500000920E-02 0.  1.
        2   -1    0    0  501    0  0.00000000000E+00  0.00000000000E+00 -0.11869557369E+04  0.11869557369E+04  0.25500000920E-02 0. -1.
    10030    2    1    2    0    0  0.00000000000E+00  0.00000000000E+00  0.93083371313E+03  0.33047451870E+04  0.31709445517E+04 0.  0.
        4    1    3    3  502    0  0.39591719148E+03 -0.14967116794E+04  0.82163513872E+03  0.17527071027E+04  0.12699999809E+01 0.  1.
       -4    1    3    3    0  502 -0.39591719148E+03  0.14967116794E+04  0.10919857441E+03  0.15520380843E+04  0.12699999809E+01 0. -1.
</event>
<event>
 5   0  0.2783875E-07  0.3190327E+04  0.7818609E-02  0.8191376E-01
       -1   -1    0    0    0  501  0.00000000000E+00  0.00000000000E+00  0.14923876723E+04  0.14923876724E+04  0.50400001928E-02 0. -1.
        1   -1    0    0  501    0  0.00000000000E+00  0.00000000000E+00 -0.17050175200E+04  0.17050175200E+04  0.50400001928E-02 0.  1.
    10030    2    1    2    0    0  0.00000000000E+00  0.00000000000E+00 -0.21262984761E+03  0.31974051923E+04  0.31903273361E+04 0.  0.
        2    1    3    3  502    0  0.83037143924E+03  0.95848788069E+02  0.12553174186E+04  0.15081530223E+04  0.25500000920E-02 0. -1.
       -2    1    3    3    0  502 -0.83037143924E+03 -0.95848788069E+02 -0.14679472662E+04  0.16892521700E+04  0.25500000920E-02 0.  1.
</event>
<event>
 5   0  0.2783875E-07  0.3200225E+04  0.7818609E-02  0.8188758E-01
       -1   -1    0    0    0  501  0.00000000000E+00  0.00000000000E+00  0.22260444272E+04  0.22260444272E+04  0.50400001928E-02 0. -1.
        1   -1    0    0  501    0  0.00000000000E+00  0.00000000000E+00 -0.11501834648E+04  0.11501834648E+04  0.50400001928E-02 0.  1.
    10030    2    1    2    0    0  0.00000000000E+00  0.00000000000E+00  0.10758609624E+04  0.33762278920E+04  0.32002246746E+04 0.  0.
        2    1    3    3  502    0  0.19987473366E+03  0.15578538610E+04  0.86052668349E+03  0.17909117048E+04  0.25500000920E-02 0.  1.
       -2    1    3    3    0  502 -0.19987473366E+03 -0.15578538610E+04  0.21533427895E+03  0.15853161871E+04  0.25500000920E-02 0. -1.
</event>
<event>
 5   0  0.8838951E-07  0.3223663E+04  0.7818609E-02  0.8182596E-01
       -2   -1    0    0    0  501  0.00000000000E+00  0.00000000000E+00  0.13048879301E+04  0.13048879301E+04  0.25500000920E-02 0. -1.
        2   -1    0    0  501    0  0.00000000000E+00  0.00000000000E+00 -0.19909761414E+04  0.19909761414E+04  0.25500000920E-02 0.  1.
    10030    2    1    2    0    0  0.00000000000E+00  0.00000000000E+00 -0.68608821137E+03  0.32958640715E+04  0.32236629700E+04 0.  0.
        2    1    3    3  502    0  0.12091144992E+04 -0.32479796155E+03 -0.13809405303E+04  0.18639872147E+04  0.25500000920E-02 0.  1.
       -2    1    3    3    0  502 -0.12091144992E+04  0.32479796155E+03  0.69485231895E+03  0.14318768569E+04  0.25500000920E-02 0. -1.
</event>
<event>
 5   0  0.3075756E-07  0.3211414E+04  0.7818609E-02  0.8185809E-01
        1   -1    0    0  501    0  0.00000000000E+00  0.00000000000E+00  0.18069498457E+04  0.18069498457E+04  0.50400001928E-02 0. -1.
       -1   -1    0    0    0  501  0.00000000000E+00  0.00000000000E+00 -0.14268772287E+04  0.14268772287E+04  0.50400001928E-02 0.  1.
    10030    2    1    2    0    0  0.00000000000E+00  0.00000000000E+00  0.38007261700E+03  0.32338270744E+04  0.32114143851E+04 0.  0.
        5    1    3    3  502    0 -0.31315785017E+03 -0.15746517716E+04  0.16382664900E+03  0.16138331084E+04  0.46999998093E+01 0.  1.
       -5    1    3    3    0  502  0.31315785017E+03  0.15746517716E+04  0.21624596800E+03  0.16199939659E+04  0.46999998093E+01 0. -1.
</event>
<event>
 5   0  0.2891204E-07  0.3211761E+04  0.7818609E-02  0.8185718E-01
       -1   -1    0    0    0  501  0.00000000000E+00  0.00000000000E+00  0.10809368270E+04  0.10809368270E+04  0.50400001928E-02 0.  1.
        1   -1    0    0  501    0  0.00000000000E+00  0.00000000000E+00 -0.23857563140E+04  0.23857563140E+04  0.50400001928E-02 0. -1.
    10030    2    1    2    0    0  0.00000000000E+00  0.00000000000E+00 -0.13048194870E+04  0.34666931410E+04  0.32117608006E+04 0.  0.
        4    1    3    3  502    0 -0.89339511320E+03 -0.26969829108E+03 -0.20630323296E+04  0.22642870848E+04  0.12699999809E+01 0. -1.
       -4    1    3    3    0  502  0.89339511320E+03  0.26969829108E+03  0.75821284255E+03  0.12024060562E+04  0.12699999809E+01 0.  1.
</event>
<event>
 5   0  0.3075756E-07  0.3190817E+04  0.7818609E-02  0.8191247E-01
       -1   -1    0    0    0  501  0.00000000000E+00  0.00000000000E+00  0.94736190957E+03  0.94736190958E+03  0.50400001928E-02 0.  1.
        1   -1    0    0  501    0  0.00000000000E+00  0.00000000000E+00 -0.26867536114E+04  0.26867536115E+04  0.50400001928E-02 0. -1.
    10030    2    1    2    0    0  0.00000000000E+00  0.00000000000E+00 -0.17393917019E+04  0.36341155210E+04  0.31908168433E+04 0.  0.
        5    1    3    3  502    0 -0.17934834745E+03  0.14121172867E+04 -0.49140889585E+02  0.14243166706E+04  0.46999998093E+01 0.  1.
       -5    1    3    3    0  502  0.17934834745E+03 -0.14121172867E+04 -0.16902508123E+04  0.22097988505E+04  0.46999998093E+01 0. -1.
</event>
<event>
 5   0  0.8838951E-07  0.3197609E+04  0.7818609E-02  0.8189449E-01
        2   -1    0    0  501    0  0.00000000000E+00  0.00000000000E+00  0.18017299349E+04  0.18017299349E+04  0.25500000920E-02 0.  1.
       -2   -1    0    0    0  501  0.00000000000E+00  0.00000000000E+00 -0.14187345370E+04  0.14187345370E+04  0.25500000920E-02 0. -1.
    10030    2    1    2    0    0  0.00000000000E+00  0.00000000000E+00  0.38299539788E+03  0.32204644719E+04  0.31976094102E+04 0.  0.
        2    1    3    3  502    0  0.15739734566E+04  0.43223286921E+02 -0.87821541535E+02  0.15770140513E+04  0.25500000920E-02 0.  1.
       -2    1    3    3    0  502 -0.15739734566E+04 -0.43223286921E+02  0.47081693941E+03  0.16434504207E+04  0.25500000920E-02 0. -1.
</event>
<event>
 5   0  0.8838951E-07  0.3204038E+04  0.7818609E-02  0.8187751E-01
       -2   -1    0    0    0  501  0.00000000000E+00  0.00000000000E+00  0.15942933681E+04  0.15942933681E+04  0.25500000920E-02 0.  1.
        2   -1    0    0  501    0  0.00000000000E+00  0.00000000000E+00 -0.16097823395E+04  0.16097823395E+04  0.25500000920E-02 0. -1.
    10030    2    1    2    0    0  0.00000000000E+00  0.00000000000E+00 -0.15488971485E+02  0.32040757076E+04  0.32040382694E+04 0.  0.
        2    1    3    3  502    0 -0.93601839808E+03 -0.65713463909E+03 -0.11295904392E+04  0.16074610215E+04  0.25500000920E-02 0. -1.
       -2    1    3    3    0  502  0.93601839808E+03  0.65713463909E+03  0.11141014677E+04  0.15966146861E+04  0.25500000920E-02 0.  1.
</event>
<event>
 5   0  0.3013888E-07  0.3203483E+04  0.7818609E-02  0.8187898E-01
        1   -1    0    0  501    0  0.00000000000E+00  0.00000000000E+00  0.21643472175E+04  0.21643472175E+04  0.50400001928E-02 0.  1.
       -1   -1    0    0    0  501  0.00000000000E+00  0.00000000000E+00 -0.11853805892E+04  0.11853805892E+04  0.50400001928E-02 0. -1.
    10030    2    1    2    0    0  0.00000000000E+00  0.00000000000E+00  0.97896662833E+03  0.33497278067E+04  0.32034825923E+04 0.  0.
        1    1    3    3  502    0 -0.13693659385E+04  0.73454477873E+03  0.89561656836E+03  0.17935573989E+04  0.50400001928E-02 0.  1.
       -1    1    3    3    0  502  0.13693659385E+04 -0.73454477873E+03  0.83350059972E+02  0.15561704078E+04  0.50400001928E-02 0. -1.
</event>
<event>
 5   0  0.8488469E-07  0.3303158E+04  0.7818609E-02  0.8162092E-01
       -2   -1    0    0    0  501  0.00000000000E+00  0.00000000000E+00  0.13591655868E+04  0.13591655868E+04  0.25500000920E-02 0. -1.
        2   -1    0    0  501    0  0.00000000000E+00  0.00000000000E+00 -0.20069024506E+04  0.20069024506E+04  0.25500000920E-02 0.  1.
    10030    2    1    2    0    0  0.00000000000E+00  0.00000000000E+00 -0.64773686382E+03  0.33660680374E+04  0.33031577298E+04 0.  0.
        3    1    3    3  502    0 -0.95523173347E+02  0.58521620567E+03 -0.18946899924E+04  0.19853092609E+04  0.10100000352E+00 0.  1.
       -3    1    3    3    0  502  0.95523173347E+02 -0.58521620567E+03  0.12469531285E+04  0.13807587765E+04  0.10100000352E+00 0. -1.
</event>
<event>
 5   0  0.8488469E-07  0.2993273E+04  0.7818609E-02  0.8245654E-01
       -2   -1    0    0    0  501  0.00000000000E+00  0.00000000000E+00  0.12679848693E+04  0.12679848693E+04  0.25500000920E-02 0. -1.
        2   -1    0    0  501    0  0.00000000000E+00  0.00000000000E+00 -0.17665204987E+04  0.17665204987E+04  0.25500000920E-02 0.  1.
    10030    2    1    2    0    0  0.00000000000E+00  0.00000000000E+00 -0.49853562938E+03  0.30345053680E+04  0.29932733011E+04 0.  0.
        3    1    3    3  502    0 -0.86378089244E+02 -0.14910894534E+04 -0.15249440380E+03  0.15013538842E+04  0.10100000352E+00 0. -1.
       -3    1    3    3    0  502  0.86378089244E+02  0.14910894534E+04 -0.34604122559E+03  0.15331514838E+04  0.10100000352E+00 0.  1.
</event>
<event>
 5   0  0.8335929E-07  0.3214031E+04  0.7818609E-02  0.8185121E-01
        2   -1    0    0  501    0  0.00000000000E+00  0.00000000000E+00  0.17174456284E+04  0.17174456284E+04  0.25500000920E-02 0. -1.
       -2   -1    0    0    0  501  0.00000000000E+00  0.00000000000E+00 -0.15036856977E+04  0.15036856977E+04  0.25500000920E-02 0.  1.
    10030    2    1    2    0    0  0.00000000000E+00  0.00000000000E+00  0.21375993072E+03  0.32211313261E+04  0.32140307577E+04 0.  0.
        4    1    3    3  502    0  0.71001275847E+03 -0.14288213617E+04 -0.85503004663E+02  0.15977987913E+04  0.12699999809E+01 0. -1.
       -4    1    3    3    0  502 -0.71001275847E+03  0.14288213617E+04  0.29926293538E+03  0.16233325347E+04  0.12699999809E+01 0.  1.
</event>
<event>
 5   0  0.2891204E-07  0.3223105E+04  0.7818609E-02  0.8182742E-01
        1   -1    0    0  501    0  0.00000000000E+00  0.00000000000E+00  0.21599274775E+04  0.21599274775E+04  0.50400001928E-02 0. -1.
       -1   -1    0    0    0  501  0.00000000000E+00  0.00000000000E+00 -0.12024021311E+04  0.12024021312E+04  0.50400001928E-02 0.  1.
    10030    2    1    2    0    0  0.00000000000E+00  0.00000000000E+00  0.95752534630E+03  0.33623296086E+04  0.32231049639E+04 0.  0.
        4    1    3    3  502    0  0.92154339708E+03 -0.90000579955E+03 -0.53149430726E+03  0.13934634848E+04  0.12699999809E+01 0.  1.
       -4    1    3    3    0  502 -0.92154339708E+03  0.90000579955E+03  0.14890196536E+04  0.19688661238E+04  0.12699999809E+01 0. -1.
</event>
<event>
 5   0  0.2891204E-07  0.3209443E+04  0.7818609E-02  0.8186328E-01
       -1   -1    0    0    0  501  0.00000000000E+00  0.00000000000E+00  0.96719127334E+03  0.96719127336E+03  0.50400001928E-02 0. -1.
        1   -1    0    0  501    0  0.00000000000E+00  0.00000000000E+00 -0.26624845190E+04  0.26624845190E+04  0.50400001928E-02 0.  1.
    10030    2    1    2    0    0  0.00000000000E+00  0.00000000000E+00 -0.16952932457E+04  0.36296757924E+04  0.32094434360E+04 0.  0.
        4    1    3    3  502    0  0.38849338478E+02 -0.75776826613E+03 -0.24467952864E+04  0.25617437036E+04  0.12699999809E+01 0.  1.
       -4    1    3    3    0  502 -0.38849338478E+02  0.75776826613E+03  0.75150204072E+03  0.10679320888E+04  0.12699999809E+01 0. -1.
</event>
<event>
 5   0  0.8802800E-07  0.3198512E+04  0.7818609E-02  0.8189210E-01
       -2   -1    0    0    0  501  0.00000000000E+00  0.00000000000E+00  0.11675288782E+04  0.11675288782E+04  0.25500000920E-02 0. -1.
        2   -1    0    0  501    0  0.00000000000E+00  0.00000000000E+00 -0.21906270994E+04  0.21906270994E+04  0.25500000920E-02 0.  1.
    10030    2    1    2    0    0  0.00000000000E+00  0.00000000000E+00 -0.10230982211E+04  0.33581559776E+04  0.31985124042E+04 0.  0.
        5    1    3    3  502    0 -0.11300530055E+04 -0.45172709610E+02  0.67561192786E+03  0.13173966510E+04  0.46999998093E+01 0. -1.
       -5    1    3    3    0  502  0.11300530055E+04  0.45172709610E+02 -0.16987101490E+04  0.20407593266E+04  0.46999998093E+01 0.  1.
</event>
<event>
 5   0  0.2891204E-07  0.3205261E+04  0.7818609E-02  0.8187429E-01
        1   -1    0    0  501    0  0.00000000000E+00  0.00000000000E+00  0.15636625584E+04  0.15636625584E+04  0.50400001928E-02 0. -1.
       -1   -1    0    0    0  501  0.00000000000E+00  0.00000000000E+00 -0.16425698427E+04  0.16425698427E+04  0.50400001928E-02 0.  1.
    10030    2    1    2    0    0  0.00000000000E+00  0.00000000000E+00 -0.78907284300E+02  0.32062324012E+04  0.32052612765E+04 0.  0.
        4    1    3    3  502    0 -0.41435600861E+03 -0.15271006697E+04  0.21497749071E+03  0.15968544993E+04  0.12699999809E+01 0. -1.
       -4    1    3    3    0  502  0.41435600861E+03  0.15271006697E+04 -0.29388477501E+03  0.16093779019E+04  0.12699999809E+01 0.  1.
</event>
<event>
 5   0  0.8488469E-07  0.3191786E+04  0.7818609E-02  0.8190990E-01
       -2   -1    0    0    0  501  0.00000000000E+00  0.00000000000E+00  0.13629452141E+04  0.13629452141E+04  0.25500000920E-02 0. -1.
        2   -1    0    0  501    0  0.00000000000E+00  0.00000000000E+00 -0.18686546112E+04  0.18686546113E+04  0.25500000920E-02 0.  1.
    10030    2    1    2    0    0  0.00000000000E+00  0.00000000000E+00 -0.50570939713E+03  0.32315998254E+04  0.31917856189E+04 0.  0.
        3    1    3    3  502    0  0.13711857492E+04 -0.79401247463E+03 -0.44567100149E+03  0.16459735176E+04  0.10100000352E+00 0.  1.
       -3    1    3    3    0  502 -0.13711857492E+04  0.79401247463E+03 -0.60038395647E+02  0.15856263078E+04  0.10100000352E+00 0. -1.
</event>
<event>
 5   0  0.8488469E-07  0.3204363E+04  0.7818609E-02  0.8187666E-01
       -2   -1    0    0    0  501  0.00000000000E+00  0.00000000000E+00  0.10901135161E+04  0.10901135161E+04  0.25500000920E-02 0.  1.
        2   -1    0    0  501    0  0.00000000000E+00  0.00000000000E+00 -0.23547873318E+04  0.23547873318E+04  0.25500000920E-02 0. -1.
    10030    2    1    2    0    0  0.00000000000E+00  0.00000000000E+00 -0.12646738157E+04  0.34449008480E+04  0.32043629620E+04 0.  0.
        3    1    3    3  502    0  0.89949501781E+03  0.38760070804E+03 -0.19954506989E+04  0.22228695639E+04  0.10100000352E+00 0. -1.
       -3    1    3    3    0  502 -0.89949501781E+03 -0.38760070804E+03  0.73077688326E+03  0.12220312841E+04  0.10100000352E+00 0.  1.
</event>
<event>
 5   0  0.2891204E-07  0.3213519E+04  0.7818609E-02  0.8185256E-01
        1   -1    0    0  501    0  0.00000000000E+00  0.00000000000E+00  0.15075114259E+04  0.15075114259E+04  0.50400001928E-02 0. -1.
       -1   -1    0    0    0  501  0.00000000000E+00  0.00000000000E+00 -0.17125419821E+04  0.17125419821E+04  0.50400001928E-02 0.  1.
    10030    2    1    2    0    0  0.00000000000E+00  0.00000000000E+00 -0.20503055619E+03  0.32200534080E+04  0.32135193202E+04 0.  0.
        4    1    3    3  502    0 -0.17818542313E+03 -0.24987296861E+03 -0.16828995389E+04  0.17106545579E+04  0.12699999809E+01 0.  1.
       -4    1    3    3    0  502  0.17818542313E+03  0.24987296861E+03  0.14778689827E+04  0.15093988500E+04  0.12699999809E+01 0. -1.
</event>
<event>
 5   0  0.2997105E-07  0.3188393E+04  0.7818609E-02  0.8191889E-01
       -1   -1    0    0    0  501  0.00000000000E+00  0.00000000000E+00  0.20880605626E+04  0.20880605626E+04  0.50400001928E-02 0. -1.
        1   -1    0    0  501    0  0.00000000000E+00  0.00000000000E+00 -0.12171403350E+04  0.12171403350E+04  0.50400001928E-02 0.  1.
    10030    2    1    2    0    0  0.00000000000E+00  0.00000000000E+00  0.87092022765E+03  0.33052008977E+04  0.31883931581E+04 0.  0.
        3    1    3    3  502    0 -0.74784264643E+03 -0.10876121354E+04 -0.49132543670E+03  0.14083925148E+04  0.10100000352E+00 0.  1.
       -3    1    3    3    0  502  0.74784264643E+03  0.10876121354E+04  0.13622456643E+04  0.18968083828E+04  0.10100000352E+00 0. -1.
</event>
<event>
 5   0  0.2891204E-07  0.3195925E+04  0.7818609E-02  0.8189894E-01
       -1   -1    0    0    0  501  0.00000000000E+00  0.00000000000E+00  0.17472572868E+04  0.17472572868E+04  0.50400001928E-02 0. -1.
        1   -1    0    0  501    0  0.00000000000E+00  0.00000000000E+00 -0.14614238025E+04  0.14614238025E+04  0.50400001928E-02 0.  1.
    10030    2    1    2    0    0  0.00000000000E+00  0.00000000000E+00  0.28583348427E+03  0.32086810894E+04  0.31959245223E+04 0.  0.
        4    1    3    3  502    0 -0.13554997683E+04 -0.84536169300E+03  0.18135481946E+03  0.16077646586E+04  0.12699999809E+01 0. -1.
       -4    1    3    3    0  502  0.13554997683E+04  0.84536169300E+03  0.10447866481E+03  0.16009164308E+04  0.12699999809E+01 0.  1.
</event>
<event>
 5   0  0.8802800E-07  0.3204735E+04  0.7818609E-02  0.8187568E-01
       -2   -1    0    0    0  501  0.00000000000E+00  0.00000000000E+00  0.12359227137E+04  0.12359227137E+04  0.25500000920E-02 0. -1.
        2   -1    0    0  501    0  0.00000000000E+00  0.00000000000E+00 -0.20774607180E+04  0.20774607180E+04  0.25500000920E-02 0.  1.
    10030    2    1    2    0    0  0.00000000000E+00  0.00000000000E+00 -0.84153800438E+03  0.33133834317E+04  0.32047345526E+04 0.  0.
        5    1    3    3  502    0 -0.15201815579E+04 -0.49295540412E+03 -0.54134970388E+03  0.16873169801E+04  0.46999998093E+01 0. -1.
       -5    1    3    3    0  502  0.15201815579E+04  0.49295540412E+03 -0.30018830050E+03  0.16260664516E+04  0.46999998093E+01 0.  1.
</event>
<event>
 5   0  0.2891204E-07  0.3175132E+04  0.7818609E-02  0.8195416E-01
       -1   -1    0    0    0  501  0.00000000000E+00  0.00000000000E+00  0.25542641265E+04  0.25542641265E+04  0.50400001928E-02 0. -1.
        1   -1    0    0  501    0  0.00000000000E+00  0.00000000000E+00 -0.98672885212E+03  0.98672885213E+03  0.50400001928E-02 0.  1.
    10030    2    1    2    0    0  0.00000000000E+00  0.00000000000E+00  0.15675352744E+04  0.35409929786E+04  0.31751321922E+04 0.  0.
        4    1    3    3  502    0  0.86933011647E+03  0.11174483181E+04  0.15848227408E+04  0.21251094861E+04  0.12699999809E+01 0.  1.
       -4    1    3    3    0  502 -0.86933011647E+03 -0.11174483181E+04 -0.17287466439E+02  0.14158834926E+04  0.12699999809E+01 0. -1.
</event>
<event>
 5   0  0.2783875E-07  0.3195310E+04  0.7818609E-02  0.8190057E-01
       -1   -1    0    0    0  501  0.00000000000E+00  0.00000000000E+00  0.12610151086E+04  0.12610151086E+04  0.50400001928E-02 0. -1.
        1   -1    0    0  501    0  0.00000000000E+00  0.00000000000E+00 -0.20241641036E+04  0.20241641036E+04  0.50400001928E-02 0.  1.
    10030    2    1    2    0    0  0.00000000000E+00  0.00000000000E+00 -0.76314899501E+03  0.32851792123E+04  0.31953100113E+04 0.  0.
        2    1    3    3  502    0 -0.10555925057E+04  0.17549602926E+03 -0.16012913489E+04  0.19259305228E+04  0.25500000920E-02 0.  1.
       -2    1    3    3    0  502  0.10555925057E+04 -0.17549602926E+03  0.83814235393E+03  0.13592486895E+04  0.25500000920E-02 0. -1.
</event>
<event>
 5   0  0.3075756E-07  0.3209514E+04  0.7818609E-02  0.8186309E-01
       -1   -1    0    0    0  501  0.00000000000E+00  0.00000000000E+00  0.22212701502E+04  0.22212701502E+04  0.50400001928E-02 0.  1.
        1   -1    0    0  501    0  0.00000000000E+00  0.00000000000E+00 -0.11593569133E+04  0.11593569133E+04  0.50400001928E-02 0. -1.
    10030    2    1    2    0    0  0.00000000000E+00  0.00000000000E+00  0.10619132369E+04  0.33806270635E+04  0.32095139227E+04 0.  0.
        5    1    3    3  502    0  0.22671354295E+02 -0.99005450820E+03  0.18610140180E+04  0.21081074889E+04  0.46999998093E+01 0.  1.
       -5    1    3    3    0  502 -0.22671354295E+02  0.99005450820E+03 -0.79910078109E+03  0.12725195746E+04  0.46999998093E+01 0. -1.
</event>
<event>
 5   0  0.8838951E-07  0.3217682E+04  0.7818609E-02  0.8184163E-01
        2   -1    0    0  501    0  0.00000000000E+00  0.00000000000E+00  0.30116862522E+04  0.30116862522E+04  0.25500000920E-02 0. -1.
       -2   -1    0    0    0  501  0.00000000000E+00  0.00000000000E+00 -0.85944185250E+03  0.85944185251E+03  0.25500000920E-02 0.  1.
    10030    2    1    2    0    0  0.00000000000E+00  0.00000000000E+00  0.21522443997E+04  0.38711281047E+04  0.32176819058E+04 0.  0.
        2    1    3    3  502    0  0.45350969228E+03 -0.21215068276E+03 -0.76332750910E+03  0.91287887441E+03  0.25500000920E-02 0.  1.
       -2    1    3    3    0  502 -0.45350969228E+03  0.21215068276E+03  0.29155719088E+04  0.29582492303E+04  0.25500000920E-02 0. -1.
</event>
<event>
 5   0  0.8335929E-07  0.3199777E+04  0.7818609E-02  0.8188876E-01
       -2   -1    0    0    0  501  0.00000000000E+00  0.00000000000E+00  0.17672449250E+04  0.17672449250E+04  0.25500000920E-02 0. -1.
        2   -1    0    0  501    0  0.00000000000E+00  0.00000000000E+00 -0.14483801747E+04  0.14483801747E+04  0.25500000920E-02 0.  1.
    10030    2    1    2    0    0  0.00000000000E+00  0.00000000000E+00  0.31886475031E+03  0.32156250996E+04  0.31997765629E+04 0.  0.
        4    1    3    3  502    0  0.85476999789E+03  0.29887912590E+03  0.14849347022E+04  0.17392507478E+04  0.12699999809E+01 0. -1.
       -4    1    3    3    0  502 -0.85476999789E+03 -0.29887912590E+03 -0.11660699518E+04  0.14763743518E+04  0.12699999809E+01 0.  1.
</event>
<event>
 5   0  0.8488469E-07  0.3188840E+04  0.7818609E-02  0.8191771E-01
       -2   -1    0    0    0  501  0.00000000000E+00  0.00000000000E+00  0.15441115672E+04  0.15441115672E+04  0.25500000920E-02 0. -1.
        2   -1    0    0  501    0  0.00000000000E+00  0.00000000000E+00 -0.16463670278E+04  0.16463670278E+04  0.25500000920E-02 0.  1.
    10030    2    1    2    0    0  0.00000000000E+00  0.00000000000E+00 -0.10225546062E+03  0.31904785950E+04  0.31888395203E+04 0.  0.
        3    1    3    3  502    0 -0.15351009382E+04 -0.41215073950E+03  0.74520413338E+02  0.15912122500E+04  0.10100000352E+00 0.  1.
       -3    1    3    3    0  502  0.15351009382E+04  0.41215073950E+03 -0.17677587396E+03  0.15992663450E+04  0.10100000352E+00 0. -1.
</event>
<event>
 5   0  0.2891204E-07  0.3197188E+04  0.7818609E-02  0.8189560E-01
        1   -1    0    0  501    0  0.00000000000E+00  0.00000000000E+00  0.23204155732E+04  0.23204155732E+04  0.50400001928E-02 0.  1.
       -1   -1    0    0    0  501  0.00000000000E+00  0.00000000000E+00 -0.11013124767E+04  0.11013124767E+04  0.50400001928E-02 0. -1.
    10030    2    1    2    0    0  0.00000000000E+00  0.00000000000E+00  0.12191030965E+04  0.34217280499E+04  0.31971879031E+04 0.  0.
        4    1    3    3  502    0  0.95923819922E+03 -0.12246113089E+04  0.21531978227E+03  0.15704059992E+04  0.12699999809E+01 0.  1.
       -4    1    3    3    0  502 -0.95923819922E+03  0.12246113089E+04  0.10037833142E+04  0.18513220507E+04  0.12699999809E+01 0. -1.
</event>
<event>
 5   0  0.2997105E-07  0.3194783E+04  0.7818609E-02  0.8190196E-01
       -1   -1    0    0    0  501  0.00000000000E+00  0.00000000000E+00  0.12248645937E+04  0.12248645937E+04  0.50400001928E-02 0.  1.
        1   -1    0    0  501    0  0.00000000000E+00  0.00000000000E+00 -0.20832177228E+04  0.20832177228E+04  0.50400001928E-02 0. -1.
    10030    2    1    2    0    0  0.00000000000E+00  0.00000000000E+00 -0.85835312911E+03  0.33080823166E+04  0.31947830160E+04 0.  0.
        3    1    3    3  502    0  0.11912777797E+04 -0.66516152714E+03  0.43099230631E+03  0.14308518386E+04  0.10100000352E+00 0. -1.
       -3    1    3    3    0  502 -0.11912777797E+04  0.66516152714E+03 -0.12893454354E+04  0.18772304780E+04  0.10100000352E+00 0.  1.
</event>
<event>
 5   0  0.3075756E-07  0.3197574E+04  0.7818609E-02  0.8189458E-01
       -1   -1    0    0    0  501  0.00000000000E+00  0.00000000000E+00  0.12155956217E+04  0.12155956217E+04  0.50400001928E-02 0. -1.
        1   -1    0    0  501    0  0.00000000000E+00  0.00000000000E+00 -0.21027719295E+04  0.21027719295E+04  0.50400001928E-02 0.  1.
    10030    2    1    2    0    0  0.00000000000E+00  0.00000000000E+00 -0.88717630780E+03  0.33183675512E+04  0.31975743000E+04 0.  0.
        5    1    3    3  502    0  0.60893039891E+03  0.39459790989E+03  0.10348681182E+04  0.12639137049E+04  0.46999998093E+01 0. -1.
       -5    1    3    3    0  502 -0.60893039891E+03 -0.39459790989E+03 -0.19220444260E+04  0.20544538464E+04  0.46999998093E+01 0.  1.
</event>
<event>
 5   0  0.3075756E-07  0.3202995E+04  0.7818609E-02  0.8188027E-01
       -1   -1    0    0    0  501  0.00000000000E+00  0.00000000000E+00  0.14241795737E+04  0.14241795737E+04  0.50400001928E-02 0. -1.
        1   -1    0    0  501    0  0.00000000000E+00  0.00000000000E+00 -0.18008922062E+04  0.18008922062E+04  0.50400001928E-02 0.  1.
    10030    2    1    2    0    0  0.00000000000E+00  0.00000000000E+00 -0.37671263253E+03  0.32250717799E+04  0.32029947826E+04 0.  0.
        5    1    3    3  502    0 -0.14528945882E+04  0.48377131676E+03  0.28374043598E+03  0.15573914397E+04  0.46999998093E+01 0.  1.
       -5    1    3    3    0  502  0.14528945882E+04 -0.48377131676E+03 -0.66045306851E+03  0.16676803402E+04  0.46999998093E+01 0. -1.
</event>
<event>
 5   0  0.8838951E-07  0.3198368E+04  0.7818609E-02  0.8189248E-01
       -2   -1    0    0    0  501  0.00000000000E+00  0.00000000000E+00  0.15266635298E+04  0.15266635298E+04  0.25500000920E-02 0. -1.
        2   -1    0    0  501    0  0.00000000000E+00  0.00000000000E+00 -0.16751496528E+04  0.16751496528E+04  0.25500000920E-02 0.  1.
    10030    2    1    2    0    0  0.00000000000E+00  0.00000000000E+00 -0.14848612303E+03  0.32018131826E+04  0.31983682602E+04 0.  0.
        2    1    3    3  502    0 -0.65739591009E+03  0.10016580575E+04 -0.11345824926E+04  0.16500805069E+04  0.25500000920E-02 0.  1.
       -2    1    3    3    0  502  0.65739591009E+03 -0.10016580575E+04  0.98609636959E+03  0.15517326757E+04  0.25500000920E-02 0. -1.
</event>
<event>
 5   0  0.8838951E-07  0.3203520E+04  0.7818609E-02  0.8187888E-01
       -2   -1    0    0    0  501  0.00000000000E+00  0.00000000000E+00  0.11712009625E+04  0.11712009625E+04  0.25500000920E-02 0. -1.
        2   -1    0    0  501    0  0.00000000000E+00  0.00000000000E+00 -0.21906017222E+04  0.21906017222E+04  0.25500000920E-02 0.  1.
    10030    2    1    2    0    0  0.00000000000E+00  0.00000000000E+00 -0.10194007597E+04  0.33618026847E+04  0.32035198426E+04 0.  0.
        2    1    3    3  502    0 -0.61090621755E+02 -0.59207223675E+02 -0.21882291681E+04  0.21898822917E+04  0.25500000920E-02 0.  1.
       -2    1    3    3    0  502  0.61090621755E+02  0.59207223675E+02  0.11688284084E+04  0.11719203930E+04  0.25500000920E-02 0. -1.
</event>
<event>
 5   0  0.2997105E-07  0.3208407E+04  0.7818609E-02  0.8186600E-01
       -1   -1    0    0    0  501  0.00000000000E+00  0.00000000000E+00  0.16319716776E+04  0.16319716776E+04  0.50400001928E-02 0. -1.
        1   -1    0    0  501    0  0.00000000000E+00  0.00000000000E+00 -0.15769077950E+04  0.15769077950E+04  0.50400001928E-02 0.  1.
    10030    2    1    2    0    0  0.00000000000E+00  0.00000000000E+00  0.55063882642E+02  0.32088794726E+04  0.32084069939E+04 0.  0.
        3    1    3    3  502    0  0.12436562035E+03  0.15809149570E+04  0.26986896586E+03  0.16085982027E+04  0.10100000352E+00 0. -1.
       -3    1    3    3    0  502 -0.12436562035E+03 -0.15809149570E+04 -0.21480508322E+03  0.16002812699E+04  0.10100000352E+00 0.  1.
</event>
<event>
 5   0  0.3013888E-07  0.3216260E+04  0.7818609E-02  0.8184536E-01
        1   -1    0    0  501    0  0.00000000000E+00  0.00000000000E+00  0.15502786598E+04  0.15502786598E+04  0.50400001928E-02 0.  1.
       -1   -1    0    0    0  501  0.00000000000E+00  0.00000000000E+00 -0.16681404673E+04  0.16681404673E+04  0.50400001928E-02 0. -1.
    10030    2    1    2    0    0  0.00000000000E+00  0.00000000000E+00 -0.11786180756E+03  0.32184191271E+04  0.32162602930E+04 0.  0.
        1    1    3    3  502    0  0.11070952817E+04  0.34959677027E+03 -0.11724242756E+04  0.16499868322E+04  0.50400001928E-02 0. -1.
       -1    1    3    3    0  502 -0.11070952817E+04 -0.34959677027E+03  0.10545624681E+04  0.15684322949E+04  0.50400001928E-02 0.  1.
</event>
<event>
 5   0  0.8195618E-07  0.3198057E+04  0.7818609E-02  0.8189330E-01
       -2   -1    0    0    0  501  0.00000000000E+00  0.00000000000E+00  0.16323567663E+04  0.16323567663E+04  0.25500000920E-02 0. -1.
        2   -1    0    0  501    0  0.00000000000E+00  0.00000000000E+00 -0.15663811844E+04  0.15663811844E+04  0.25500000920E-02 0.  1.
    10030    2    1    2    0    0  0.00000000000E+00  0.00000000000E+00  0.65975581924E+02  0.31987379507E+04  0.31980574885E+04 0.  0.
        1    1    3    3  502    0  0.10899460300E+04  0.11308667212E+04  0.33313668830E+03  0.16055596976E+04  0.50400001928E-02 0. -1.
       -1    1    3    3    0  502 -0.10899460300E+04 -0.11308667212E+04 -0.26716110638E+03  0.15931782531E+04  0.50400001928E-02 0.  1.
</event>
<event>
 5   0  0.8802800E-07  0.3206955E+04  0.7818609E-02  0.8186983E-01
        2   -1    0    0  501    0  0.00000000000E+00  0.00000000000E+00  0.15917616981E+04  0.15917616981E+04  0.25500000920E-02 0. -1.
       -2   -1    0    0    0  501  0.00000000000E+00  0.00000000000E+00 -0.16152791246E+04  0.16152791246E+04  0.25500000920E-02 0.  1.
    10030    2    1    2    0    0  0.00000000000E+00  0.00000000000E+00 -0.23517426550E+02  0.32070408227E+04  0.32069545942E+04 0.  0.
        5    1    3    3  502    0  0.10445050881E+04 -0.12159990072E+04  0.26620538327E+02  0.16032389739E+04  0.46999998093E+01 0.  1.
       -5    1    3    3    0  502 -0.10445050881E+04  0.12159990072E+04 -0.50137964877E+02  0.16038018487E+04  0.46999998093E+01 0. -1.
</event>
<event>
 5   0  0.2783875E-07  0.3212735E+04  0.7818609E-02  0.8185462E-01
       -1   -1    0    0    0  501  0.00000000000E+00  0.00000000000E+00  0.16993355333E+04  0.16993355333E+04  0.50400001928E-02 0.  1.
        1   -1    0    0  501    0  0.00000000000E+00  0.00000000000E+00 -0.15184859415E+04  0.15184859416E+04  0.50400001928E-02 0. -1.
    10030    2    1    2    0    0  0.00000000000E+00  0.00000000000E+00  0.18084959170E+03  0.32178214748E+04  0.32127353562E+04 0.  0.
        2    1    3    3  502    0  0.83454639588E+03 -0.11797525975E+03  0.14600805525E+04  0.16858888067E+04  0.25500000920E-02 0.  1.
       -2    1    3    3    0  502 -0.83454639588E+03  0.11797525975E+03 -0.12792309607E+04  0.15319326681E+04  0.25500000920E-02 0. -1.
</event>
<event>
 5   0  0.2783875E-07  0.3209696E+04  0.7818609E-02  0.8186261E-01
        1   -1    0    0  501    0  0.00000000000E+00  0.00000000000E+00  0.14742481181E+04  0.14742481181E+04  0.50400001928E-02 0.  1.
       -1   -1    0    0    0  501  0.00000000000E+00  0.00000000000E+00 -0.17470176336E+04  0.17470176336E+04  0.50400001928E-02 0. -1.
    10030    2    1    2    0    0  0.00000000000E+00  0.00000000000E+00 -0.27276951550E+03  0.32212657518E+04  0.32096962216E+04 0.  0.
        2    1    3    3  502    0  0.15530872460E+03 -0.11923951199E+04 -0.12030471705E+04  0.17009554422E+04  0.25500000920E-02 0. -1.
       -2    1    3    3    0  502 -0.15530872460E+03  0.11923951199E+04  0.93027765503E+03  0.15203103095E+04  0.25500000920E-02 0.  1.
</event>
<event>
 5   0  0.2997105E-07  0.3197109E+04  0.7818609E-02  0.8189581E-01
        1   -1    0    0  501    0  0.00000000000E+00  0.00000000000E+00  0.17763080330E+04  0.17763080330E+04  0.50400001928E-02 0.  1.
       -1   -1    0    0    0  501  0.00000000000E+00  0.00000000000E+00 -0.14385883463E+04  0.14385883463E+04  0.50400001928E-02 0. -1.
    10030    2    1    2    0    0  0.00000000000E+00  0.00000000000E+00  0.33771968675E+03  0.32148963793E+04  0.31971087161E+04 0.  0.
        3    1    3    3  502    0 -0.15111055057E+03 -0.24405667781E+02 -0.14312020922E+04  0.14393642604E+04  0.10100000352E+00 0. -1.
       -3    1    3    3    0  502  0.15111055057E+03  0.24405667781E+02  0.17689217790E+04  0.17755321189E+04  0.10100000352E+00 0.  1.
</event>
<event>
 5   0  0.8488469E-07  0.3166965E+04  0.7818609E-02  0.8197596E-01
       -2   -1    0    0    0  501  0.00000000000E+00  0.00000000000E+00  0.22848335484E+04  0.22848335484E+04  0.25500000920E-02 0. -1.
        2   -1    0    0  501    0  0.00000000000E+00  0.00000000000E+00 -0.10974178989E+04  0.10974178989E+04  0.25500000920E-02 0.  1.
    10030    2    1    2    0    0  0.00000000000E+00  0.00000000000E+00  0.11874156495E+04  0.33822514473E+04  0.31669652553E+04 0.  0.
        3    1    3    3  502    0 -0.72737628311E+03 -0.72468047746E+03  0.18811335253E+04  0.21431055508E+04  0.10100000352E+00 0. -1.
       -3    1    3    3    0  502  0.72737628311E+03  0.72468047746E+03 -0.69371787571E+03  0.12391458965E+04  0.10100000352E+00 0.  1.
</event>
<event>
 5   0  0.3075756E-07  0.3217479E+04  0.7818609E-02  0.8184216E-01
        1   -1    0    0  501    0  0.00000000000E+00  0.00000000000E+00  0.28501947036E+04  0.28501947036E+04  0.50400001928E-02 0.  1.
       -1   -1    0    0    0  501  0.00000000000E+00  0.00000000000E+00 -0.90802287680E+03  0.90802287681E+03  0.50400001928E-02 0. -1.
    10030    2    1    2    0    0  0.00000000000E+00  0.00000000000E+00  0.19421718268E+04  0.37582175804E+04  0.32174785123E+04 0.  0.
        5    1    3    3  502    0 -0.10875654666E+04 -0.11854052077E+04  0.97807028788E+03  0.18827181755E+04  0.46999998093E+01 0.  1.
       -5    1    3    3    0  502  0.10875654666E+04  0.11854052077E+04  0.96410153893E+03  0.18754994049E+04  0.46999998093E+01 0. -1.
</event>
<event>
 5   0  0.2783875E-07  0.3193217E+04  0.7818609E-02  0.8190611E-01
       -1   -1    0    0    0  501  0.00000000000E+00  0.00000000000E+00  0.12705373209E+04  0.12705373210E+04  0.50400001928E-02 0. -1.
        1   -1    0    0  501    0  0.00000000000E+00  0.00000000000E+00 -0.20063628368E+04  0.20063628368E+04  0.50400001928E-02 0.  1.
    10030    2    1    2    0    0  0.00000000000E+00  0.00000000000E+00 -0.73582551584E+03  0.32769001577E+04  0.31932171010E+04 0.  0.
        2    1    3    3  502    0  0.24563820559E+03  0.17880414983E+03  0.12405983604E+04  0.12772600925E+04  0.25500000920E-02 0. -1.
       -2    1    3    3    0  502 -0.24563820559E+03 -0.17880414983E+03 -0.19764238762E+04  0.19996400653E+04  0.25500000920E-02 0.  1.
</event>
<event>
 5   0  0.8195618E-07  0.3197240E+04  0.7818609E-02  0.8189547E-01
       -2   -1    0    0    0  501  0.00000000000E+00  0.00000000000E+00  0.13043660986E+04  0.13043660986E+04  0.25500000920E-02 0.  1.
        2   -1    0    0  501    0  0.00000000000E+00  0.00000000000E+00 -0.19592545693E+04  0.19592545693E+04  0.25500000920E-02 0. -1.
    10030    2    1    2    0    0  0.00000000000E+00  0.00000000000E+00 -0.65488847070E+03  0.32636206679E+04  0.31972395836E+04 0.  0.
        1    1    3    3  502    0 -0.11046929357E+04  0.92906533050E+02 -0.15031419057E+04  0.18677295561E+04  0.50400001928E-02 0. -1.
       -1    1    3    3    0  502  0.11046929357E+04 -0.92906533050E+02  0.84825343497E+03  0.13958911118E+04  0.50400001928E-02 0.  1.
</event>
<event>
 5   0  0.8802800E-07  0.3195878E+04  0.7818609E-02  0.8189907E-01
        2   -1    0    0  501    0  0.00000000000E+00  0.00000000000E+00  0.26640012033E+04  0.26640012033E+04  0.25500000920E-02 0. -1.
       -2   -1    0    0    0  501  0.00000000000E+00  0.00000000000E+00 -0.95848667710E+03  0.95848667710E+03  0.25500000920E-02 0.  1.
    10030    2    1    2    0    0  0.00000000000E+00  0.00000000000E+00  0.17055145262E+04  0.36224878804E+04  0.31958783839E+04 0.  0.
        5    1    3    3  502    0 -0.13418013971E+04 -0.16537731142E+03  0.18182908969E+04  0.22658297642E+04  0.46999998093E+01 0. -1.
       -5    1    3    3    0  502  0.13418013971E+04  0.16537731142E+03 -0.11277637077E+03  0.13566581162E+04  0.46999998093E+01 0.  1.
</event>
<event>
 5   0  0.8802800E-07  0.3193227E+04  0.7818609E-02  0.8190608E-01
       -2   -1    0    0    0  501  0.00000000000E+00  0.00000000000E+00  0.20841772811E+04  0.20841772811E+04  0.25500000920E-02 0.  1.
        2   -1    0    0  501    0  0.00000000000E+00  0.00000000000E+00 -0.12231087321E+04  0.12231087321E+04  0.25500000920E-02 0. -1.
    10030    2    1    2    0    0  0.00000000000E+00  0.00000000000E+00  0.86106854904E+03  0.33072860132E+04  0.31932274781E+04 0.  0.
        5    1    3    3  502    0 -0.74120091987E+03  0.14007274910E+04  0.63173325617E+03  0.17060261735E+04  0.46999998093E+01 0.  1.
       -5    1    3    3    0  502  0.74120091987E+03 -0.14007274910E+04  0.22933529287E+03  0.16012598397E+04  0.46999998093E+01 0. -1.
</event>
<event>
 5   0  0.8802800E-07  0.3222293E+04  0.7818609E-02  0.8182954E-01
       -2   -1    0    0    0  501  0.00000000000E+00  0.00000000000E+00  0.13342118913E+04  0.13342118913E+04  0.25500000920E-02 0. -1.
        2   -1    0    0  501    0  0.00000000000E+00  0.00000000000E+00 -0.19455623361E+04  0.19455623361E+04  0.25500000920E-02 0.  1.
    10030    2    1    2    0    0  0.00000000000E+00  0.00000000000E+00 -0.61135044477E+03  0.32797742274E+04  0.32222926026E+04 0.  0.
        5    1    3    3  502    0 -0.85139879640E+03 -0.90485481321E+02  0.10834799364E+04  0.13809483681E+04  0.46999998093E+01 0. -1.
       -5    1    3    3    0  502  0.85139879640E+03  0.90485481321E+02 -0.16948303812E+04  0.18988258593E+04  0.46999998093E+01 0.  1.
</event>
<event>
 5   0  0.8838951E-07  0.3167831E+04  0.7818609E-02  0.8197365E-01
       -2   -1    0    0    0  501  0.00000000000E+00  0.00000000000E+00  0.21647646292E+04  0.21647646292E+04  0.25500000920E-02 0.  1.
        2   -1    0    0  501    0  0.00000000000E+00  0.00000000000E+00 -0.11589197055E+04  0.11589197055E+04  0.25500000920E-02 0. -1.
    10030    2    1    2    0    0  0.00000000000E+00  0.00000000000E+00  0.10058449237E+04  0.33236843348E+04  0.31678310477E+04 0.  0.
        2    1    3    3  502    0  0.35015649632E+03  0.13093606707E+04 -0.35700676862E+03  0.14016022156E+04  0.25500000920E-02 0. -1.
       -2    1    3    3    0  502 -0.35015649632E+03 -0.13093606707E+04  0.13628516923E+04  0.19220821192E+04  0.25500000920E-02 0.  1.
</event>
<event>
 5   0  0.8335929E-07  0.3201247E+04  0.7818609E-02  0.8188488E-01
       -2   -1    0    0    0  501  0.00000000000E+00  0.00000000000E+00  0.13960365841E+04  0.13960365841E+04  0.25500000920E-02 0.  1.
        2   -1    0    0  501    0  0.00000000000E+00  0.00000000000E+00 -0.18351919306E+04  0.18351919306E+04  0.25500000920E-02 0. -1.
    10030    2    1    2    0    0  0.00000000000E+00  0.00000000000E+00 -0.43915534654E+03  0.32312285147E+04  0.32012466784E+04 0.  0.
        4    1    3    3  502    0 -0.32626524003E+02  0.78692324610E+03  0.11869149128E+04  0.14244582508E+04  0.12699999809E+01 0.  1.
       -4    1    3    3    0  502  0.32626524003E+02 -0.78692324610E+03 -0.16260702593E+04  0.18067702639E+04  0.12699999809E+01 0. -1.
</event>
<event>
 5   0  0.8488469E-07  0.3192531E+04  0.7818609E-02  0.8190793E-01
       -2   -1    0    0    0  501  0.00000000000E+00  0.00000000000E+00  0.17020827110E+04  0.17020827110E+04  0.25500000920E-02 0.  1.
        2   -1    0    0  501    0  0.00000000000E+00  0.00000000000E+00 -0.14970268016E+04  0.14970268016E+04  0.25500000920E-02 0. -1.
    10030    2    1    2    0    0  0.00000000000E+00  0.00000000000E+00  0.20505590935E+03  0.31991095126E+04  0.31925309314E+04 0.  0.
        3    1    3    3  502    0 -0.82247323873E+03 -0.10252426610E+04 -0.80514134181E+03  0.15413751434E+04  0.10100000352E+00 0. -1.
       -3    1    3    3    0  502  0.82247323873E+03  0.10252426610E+04  0.10101972512E+04  0.16577343692E+04  0.10100000352E+00 0.  1.
</event>
<event>
 5   0  0.8802800E-07  0.3197745E+04  0.7818609E-02  0.8189413E-01
       -2   -1    0    0    0  501  0.00000000000E+00  0.00000000000E+00  0.23124120274E+04  0.23124120274E+04  0.25500000920E-02 0.  1.
        2   -1    0    0  501    0  0.00000000000E+00  0.00000000000E+00 -0.11055095965E+04  0.11055095965E+04  0.25500000920E-02 0. -1.
    10030    2    1    2    0    0  0.00000000000E+00  0.00000000000E+00  0.12069024309E+04  0.34179216239E+04  0.31977452602E+04 0.  0.
        5    1    3    3  502    0 -0.64813384132E+03  0.11643904035E+04  0.15477331032E+04  0.20423962242E+04  0.46999998093E+01 0.  1.
       -5    1    3    3    0  502  0.64813384132E+03 -0.11643904035E+04 -0.34083067226E+03  0.13755253997E+04  0.46999998093E+01 0. -1.
</event>
<event>
 5   0  0.8195618E-07  0.3197115E+04  0.7818609E-02  0.8189579E-01
       -2   -1    0    0    0  501  0.00000000000E+00  0.00000000000E+00  0.16128507623E+04  0.16128507623E+04  0.25500000920E-02 0. -1.
        2   -1    0    0  501    0  0.00000000000E+00  0.00000000000E+00 -0.15843909721E+04  0.15843909721E+04  0.25500000920E-02 0.  1.
    10030    2    1    2    0    0  0.00000000000E+00  0.00000000000E+00  0.28459790227E+02  0.31972417344E+04  0.31971150665E+04 0.  0.
        1    1    3    3  502    0  0.14588559329E+04 -0.17610952543E+03  0.64362831994E+03  0.16042233673E+04  0.50400001928E-02 0.  1.
       -1    1    3    3    0  502 -0.14588559329E+04  0.17610952543E+03 -0.61516852971E+03  0.15930183671E+04  0.50400001928E-02 0. -1.
</event>
<event>
 5   0  0.2783875E-07  0.3198641E+04  0.7818609E-02  0.8189176E-01
       -3   -1    0    0    0  501  0.00000000000E+00  0.00000000000E+00  0.22202399491E+04  0.22202399514E+04  0.10100000352E+00 0. -1.
        3   -1    0    0  501    0  0.00000000000E+00  0.00000000000E+00 -0.11520490564E+04  0.11520490609E+04  0.10100000352E+00 0.  1.
    10030    2    1    2    0    0  0.00000000000E+00  0.00000000000E+00  0.10681908926E+04  0.33722890122E+04  0.31986405548E+04 0.  0.
        3    1    3    3  502    0 -0.89522113757E+02  0.14272074809E+04 -0.22094712223E+03  0.14469806645E+04  0.10100000352E+00 0.  1.
       -3    1    3    3    0  502  0.89522113757E+02 -0.14272074809E+04  0.12891380149E+04  0.19253083477E+04  0.10100000352E+00 0. -1.
</event>
<event>
 5   0  0.8195618E-07  0.3198696E+04  0.7818609E-02  0.8189162E-01
        2   -1    0    0  501    0  0.00000000000E+00  0.00000000000E+00  0.22868804602E+04  0.22868804602E+04  0.25500000920E-02 0.  1.
       -2   -1    0    0    0  501  0.00000000000E+00  0.00000000000E+00 -0.11185167021E+04  0.11185167021E+04  0.25500000920E-02 0. -1.
    10030    2    1    2    0    0  0.00000000000E+00  0.00000000000E+00  0.11683637580E+04  0.34053971623E+04  0.31986959784E+04 0.  0.
        1    1    3    3  502    0 -0.15563810596E+04  0.51957288027E+02  0.97228302369E+03  0.18358528919E+04  0.50400001928E-02 0. -1.
       -1    1    3    3    0  502  0.15563810596E+04 -0.51957288027E+02  0.19608073436E+03  0.15695442704E+04  0.50400001928E-02 0.  1.
</event>
<event>
 5   0  0.2783875E-07  0.3191307E+04  0.7818609E-02  0.8191117E-01
        1   -1    0    0  501    0  0.00000000000E+00  0.00000000000E+00  0.18987329522E+04  0.18987329522E+04  0.50400001928E-02 0.  1.
       -1   -1    0    0    0  501  0.00000000000E+00  0.00000000000E+00 -0.13409524678E+04  0.13409524678E+04  0.50400001928E-02 0. -1.
    10030    2    1    2    0    0  0.00000000000E+00  0.00000000000E+00  0.55778048440E+03  0.32396854199E+04  0.31913073420E+04 0.  0.
        2    1    3    3  502    0  0.15429527946E+04 -0.13679906542E+03 -0.10992151557E+03  0.15529005281E+04  0.25500000920E-02 0. -1.
       -2    1    3    3    0  502 -0.15429527946E+04  0.13679906542E+03  0.66770199998E+03  0.16867848918E+04  0.25500000920E-02 0.  1.
</event>
<event>
 5   0  0.8488469E-07  0.3203722E+04  0.7818609E-02  0.8187835E-01
        2   -1    0    0  501    0  0.00000000000E+00  0.00000000000E+00  0.22838793160E+04  0.22838793160E+04  0.25500000920E-02 0.  1.
       -2   -1    0    0    0  501  0.00000000000E+00  0.00000000000E+00 -0.11235090048E+04  0.11235090048E+04  0.25500000920E-02 0. -1.
    10030    2    1    2    0    0  0.00000000000E+00  0.00000000000E+00  0.11603703112E+04  0.34073883208E+04  0.32037221961E+04 0.  0.
        3    1    3    3  502    0 -0.12981455579E+03  0.13578703725E+04  0.14733924157E+04  0.20078717559E+04  0.10100000352E+00 0.  1.
       -3    1    3    3    0  502  0.12981455579E+03 -0.13578703725E+04 -0.31302210451E+03  0.13995165649E+04  0.10100000352E+00 0. -1.
</event>
<event>
 5   0  0.2891204E-07  0.3213298E+04  0.7818609E-02  0.8185314E-01
       -1   -1    0    0    0  501  0.00000000000E+00  0.00000000000E+00  0.11528365887E+04  0.11528365887E+04  0.50400001928E-02 0.  1.
        1   -1    0    0  501    0  0.00000000000E+00  0.00000000000E+00 -0.22391043816E+04  0.22391043816E+04  0.50400001928E-02 0. -1.
    10030    2    1    2    0    0  0.00000000000E+00  0.00000000000E+00 -0.10862677929E+04  0.33919409702E+04  0.32132982787E+04 0.  0.
        4    1    3    3  502    0  0.73237124297E+03 -0.13751171484E+04 -0.95738598231E+03  0.18286345565E+04  0.12699999809E+01 0. -1.
       -4    1    3    3    0  502 -0.73237124297E+03  0.13751171484E+04 -0.12888181060E+03  0.15633064137E+04  0.12699999809E+01 0.  1.
</event>
<event>
 5   0  0.3013888E-07  0.3191745E+04  0.7818609E-02  0.8191001E-01
       -1   -1    0    0    0  501  0.00000000000E+00  0.00000000000E+00  0.10726448486E+04  0.10726448487E+04  0.50400001928E-02 0.  1.
        1   -1    0    0  501    0  0.00000000000E+00  0.00000000000E+00 -0.23743264429E+04  0.23743264429E+04  0.50400001928E-02 0. -1.
    10030    2    1    2    0    0  0.00000000000E+00  0.00000000000E+00 -0.13016815943E+04  0.34469712916E+04  0.31917449948E+04 0.  0.
        1    1    3    3  502    0 -0.13344549931E+04  0.12556923799E+03  0.28460502002E+03  0.13702327465E+04  0.50400001928E-02 0.  1.
       -1    1    3    3    0  502  0.13344549931E+04 -0.12556923799E+03 -0.15862866143E+04  0.20767385451E+04  0.50400001928E-02 0. -1.
</event>
<event>
 5   0  0.3075756E-07  0.3210413E+04  0.7818609E-02  0.8186072E-01
        1   -1    0    0  501    0  0.00000000000E+00  0.00000000000E+00  0.16840614938E+04  0.16840614938E+04  0.50400001928E-02 0.  1.
       -1   -1    0    0    0  501  0.00000000000E+00  0.00000000000E+00 -0.15300441810E+04  0.15300441810E+04  0.50400001928E-02 0. -1.
    10030    2    1    2    0    0  0.00000000000E+00  0.00000000000E+00  0.15401731281E+03  0.32141056748E+04  0.32104133622E+04 0.  0.
        5    1    3    3  502    0 -0.12993946648E+04  0.26720739564E+03  0.98184018552E+03  0.16504116235E+04  0.46999998093E+01 0.  1.
       -5    1    3    3    0  502  0.12993946648E+04 -0.26720739564E+03 -0.82782287271E+03  0.15636940512E+04  0.46999998093E+01 0. -1.
</event>
<event>
 5   0  0.8335929E-07  0.3210756E+04  0.7818609E-02  0.8185982E-01
       -2   -1    0    0    0  501  0.00000000000E+00  0.00000000000E+00  0.12187394009E+04  0.12187394009E+04  0.25500000920E-02 0.  1.
        2   -1    0    0  501    0  0.00000000000E+00  0.00000000000E+00 -0.21146762323E+04  0.21146762323E+04  0.25500000920E-02 0. -1.
    10030    2    1    2    0    0  0.00000000000E+00  0.00000000000E+00 -0.89593683148E+03  0.33334156332E+04  0.32107564494E+04 0.  0.
        4    1    3    3  502    0  0.74092550803E+03  0.71063707021E+03 -0.17293232305E+04  0.20111032053E+04  0.12699999809E+01 0. -1.
       -4    1    3    3    0  502 -0.74092550803E+03 -0.71063707021E+03  0.83338639899E+03  0.13223124279E+04  0.12699999809E+01 0.  1.
</event>
<event>
 5   0  0.2783875E-07  0.3257947E+04  0.7818609E-02  0.8173679E-01
       -1   -1    0    0    0  501  0.00000000000E+00  0.00000000000E+00  0.30842584403E+04  0.30842584404E+04  0.50400001928E-02 0.  1.
        1   -1    0    0  501    0  0.00000000000E+00  0.00000000000E+00 -0.86035397691E+03  0.86035397692E+03  0.50400001928E-02 0. -1.
    10030    2    1    2    0    0  0.00000000000E+00  0.00000000000E+00  0.22239044634E+04  0.39446124173E+04  0.32579466018E+04 0.  0.
        2    1    3    3  502    0  0.55332164537E+03  0.13537333348E+04  0.24323660729E+03  0.14825393189E+04  0.25500000920E-02 0. -1.
       -2    1    3    3    0  502 -0.55332164537E+03 -0.13537333348E+04  0.19806678562E+04  0.24620730983E+04  0.25500000920E-02 0.  1.
</event>
<event>
 5   0  0.8838951E-07  0.3203371E+04  0.7818609E-02  0.8187928E-01
        2   -1    0    0  501    0  0.00000000000E+00  0.00000000000E+00  0.26196514494E+04  0.26196514494E+04  0.25500000920E-02 0.  1.
       -2   -1    0    0    0  501  0.00000000000E+00  0.00000000000E+00 -0.97928915138E+03  0.97928915138E+03  0.25500000920E-02 0. -1.
    10030    2    1    2    0    0  0.00000000000E+00  0.00000000000E+00  0.16403622981E+04  0.35989406008E+04  0.32033708776E+04 0.  0.
        2    1    3    3  502    0  0.12888051070E+04 -0.16287928852E+03 -0.23245216961E+03  0.13196902204E+04  0.25500000920E-02 0. -1.
       -2    1    3    3    0  502 -0.12888051070E+04  0.16287928852E+03  0.18728144677E+04  0.22792503805E+04  0.25500000920E-02 0.  1.
</event>
<event>
 5   0  0.8195618E-07  0.3209282E+04  0.7818609E-02  0.8186370E-01
       -2   -1    0    0    0  501  0.00000000000E+00  0.00000000000E+00  0.10572383959E+04  0.10572383959E+04  0.25500000920E-02 0. -1.
        2   -1    0    0  501    0  0.00000000000E+00  0.00000000000E+00 -0.24354700478E+04  0.24354700478E+04  0.25500000920E-02 0.  1.
    10030    2    1    2    0    0  0.00000000000E+00  0.00000000000E+00 -0.13782316519E+04  0.34927084437E+04  0.32092818178E+04 0.  0.
        1    1    3    3  502    0  0.15042572172E+04  0.16000782069E+03 -0.10660800585E+03  0.15164951517E+04  0.50400001928E-02 0. -1.
       -1    1    3    3    0  502 -0.15042572172E+04 -0.16000782069E+03 -0.12716236461E+04  0.19762132920E+04  0.50400001928E-02 0.  1.
</event>
<event>
 5   0  0.8802800E-07  0.3203675E+04  0.7818609E-02  0.8187847E-01
        2   -1    0    0  501    0  0.00000000000E+00  0.00000000000E+00  0.13666979407E+04  0.13666979407E+04  0.25500000920E-02 0.  1.
       -2   -1    0    0    0  501  0.00000000000E+00  0.00000000000E+00 -0.18774328598E+04  0.18774328598E+04  0.25500000920E-02 0. -1.
    10030    2    1    2    0    0  0.00000000000E+00  0.00000000000E+00 -0.51073491909E+03  0.32441308006E+04  0.32036751542E+04 0.  0.
        5    1    3    3  502    0 -0.38628649378E+03  0.11728981292E+04 -0.12885229926E+04  0.17847187087E+04  0.46999998093E+01 0.  1.
       -5    1    3    3    0  502  0.38628649378E+03 -0.11728981292E+04  0.77778807348E+03  0.14594120919E+04  0.46999998093E+01 0. -1.
</event>
<event>
 5   0  0.2783875E-07  0.3204573E+04  0.7818609E-02  0.8187611E-01
       -1   -1    0    0    0  501  0.00000000000E+00  0.00000000000E+00  0.13410199341E+04  0.13410199341E+04  0.50400001928E-02 0.  1.
        1   -1    0    0  501    0  0.00000000000E+00  0.00000000000E+00 -0.19144547054E+04  0.19144547054E+04  0.50400001928E-02 0. -1.
    10030    2    1    2    0    0  0.00000000000E+00  0.00000000000E+00 -0.57343477126E+03  0.32554746395E+04  0.32045729343E+04 0.  0.
        2    1    3    3  502    0 -0.43672673154E+03  0.11441498788E+04 -0.13363339829E+04  0.18126217744E+04  0.25500000920E-02 0. -1.
       -2    1    3    3    0  502  0.43672673154E+03 -0.11441498788E+04  0.76289921167E+03  0.14428528651E+04  0.25500000920E-02 0.  1.
</event>
<event>
 5   0  0.2891204E-07  0.3210287E+04  0.7818609E-02  0.8186106E-01
        1   -1    0    0  501    0  0.00000000000E+00  0.00000000000E+00  0.22617103267E+04  0.22617103267E+04  0.50400001928E-02 0.  1.
       -1   -1    0    0    0  501  0.00000000000E+00  0.00000000000E+00 -0.11391754563E+04  0.11391754563E+04  0.50400001928E-02 0. -1.
    10030    2    1    2    0    0  0.00000000000E+00  0.00000000000E+00  0.11225348704E+04  0.34008857830E+04  0.32102865252E+04 0.  0.
        4    1    3    3  502    0  0.38250720447E+03 -0.10801179128E+04  0.17520672638E+04  0.20934917666E+04  0.12699999809E+01 0.  1.
       -4    1    3    3    0  502 -0.38250720447E+03  0.10801179128E+04 -0.62953239342E+03  0.13073940165E+04  0.12699999809E+01 0. -1.
</event>
<event>
 5   0  0.8335929E-07  0.3212835E+04  0.7818609E-02  0.8185436E-01
       -2   -1    0    0    0  501  0.00000000000E+00  0.00000000000E+00  0.97768081855E+03  0.97768081855E+03  0.25500000920E-02 0. -1.
        2   -1    0    0  501    0  0.00000000000E+00  0.00000000000E+00 -0.26394881061E+04  0.26394881061E+04  0.25500000920E-02 0.  1.
    10030    2    1    2    0    0  0.00000000000E+00  0.00000000000E+00 -0.16618072875E+04  0.36171689246E+04  0.32128348181E+04 0.  0.
        4    1    3    3  502    0 -0.73994004119E+03 -0.80393792920E+03 -0.21567070775E+04  0.24176878395E+04  0.12699999809E+01 0.  1.
       -4    1    3    3    0  502  0.73994004119E+03  0.80393792920E+03  0.49489978992E+03  0.11994810851E+04  0.12699999809E+01 0. -1.
</event>
<event>
 5   0  0.8488469E-07  0.3220960E+04  0.7818609E-02  0.8183303E-01
       -2   -1    0    0    0  501  0.00000000000E+00  0.00000000000E+00  0.13353336876E+04  0.13353336876E+04  0.25500000920E-02 0. -1.
        2   -1    0    0  501    0  0.00000000000E+00  0.00000000000E+00 -0.19423208029E+04  0.19423208029E+04  0.25500000920E-02 0.  1.
    10030    2    1    2    0    0  0.00000000000E+00  0.00000000000E+00 -0.60698711528E+03  0.32776544905E+04  0.32209603538E+04 0.  0.
        3    1    3    3  502    0 -0.55760867383E+03 -0.13721528324E+04  0.34002628630E+03  0.15196541430E+04  0.10100000352E+00 0.  1.
       -3    1    3    3    0  502  0.55760867383E+03  0.13721528324E+04 -0.94701340159E+03  0.17580003475E+04  0.10100000352E+00 0. -1.
</event>
<event>
 5   0  0.3013888E-07  0.3217521E+04  0.7818609E-02  0.8184205E-01
        1   -1    0    0  501    0  0.00000000000E+00  0.00000000000E+00  0.16908649770E+04  0.16908649771E+04  0.50400001928E-02 0. -1.
       -1   -1    0    0    0  501  0.00000000000E+00  0.00000000000E+00 -0.15306431899E+04  0.15306431899E+04  0.50400001928E-02 0.  1.
    10030    2    1    2    0    0  0.00000000000E+00  0.00000000000E+00  0.16022178718E+03  0.32215081669E+04  0.32175213828E+04 0.  0.
        1    1    3    3  502    0  0.10482325036E+04  0.11902161788E+04  0.35008369822E+03  0.16241811875E+04  0.50400001928E-02 0.  1.
       -1    1    3    3    0  502 -0.10482325036E+04 -0.11902161788E+04 -0.18986191104E+03  0.15973269794E+04  0.50400001928E-02 0. -1.
</event>
<event>
 5   0  0.3013888E-07  0.3193398E+04  0.7818609E-02  0.8190563E-01
        1   -1    0    0  501    0  0.00000000000E+00  0.00000000000E+00  0.20415087984E+04  0.20415087984E+04  0.50400001928E-02 0. -1.
       -1   -1    0    0    0  501  0.00000000000E+00  0.00000000000E+00 -0.12488057954E+04  0.12488057954E+04  0.50400001928E-02 0.  1.
    10030    2    1    2    0    0  0.00000000000E+00  0.00000000000E+00  0.79270300305E+03  0.32903145938E+04  0.31933982018E+04 0.  0.
        1    1    3    3  502    0  0.12279974007E+04 -0.41992674627E+03 -0.56200152345E+03  0.14142707664E+04  0.50400001928E-02 0.  1.
       -1    1    3    3    0  502 -0.12279974007E+04  0.41992674627E+03  0.13547045265E+04  0.18760438274E+04  0.50400001928E-02 0. -1.
</event>
<event>
 5   0  0.2783875E-07  0.3127559E+04  0.7818609E-02  0.8208215E-01
        1   -1    0    0  501    0  0.00000000000E+00  0.00000000000E+00  0.14894964638E+04  0.14894964638E+04  0.50400001928E-02 0.  1.
       -1   -1    0    0    0  501  0.00000000000E+00  0.00000000000E+00 -0.16417676011E+04  0.16417676011E+04  0.50400001928E-02 0. -1.
    10030    2    1    2    0    0  0.00000000000E+00  0.00000000000E+00 -0.15227113730E+03  0.31312640649E+04  0.31275594551E+04 0.  0.
        2    1    3    3  502    0 -0.10173664721E+04 -0.25908077528E+03  0.10842237318E+04  0.15092045876E+04  0.25500000920E-02 0.  1.
       -2    1    3    3    0  502  0.10173664721E+04  0.25908077528E+03 -0.12364948691E+04  0.16220594773E+04  0.25500000920E-02 0. -1.
</event>
<event>
 5   0  0.2783875E-07  0.3197293E+04  0.7818609E-02  0.8189533E-01
       -1   -1    0    0    0  501  0.00000000000E+00  0.00000000000E+00  0.12177793305E+04  0.12177793305E+04  0.50400001928E-02 0. -1.
        1   -1    0    0  501    0  0.00000000000E+00  0.00000000000E+00 -0.20986315071E+04  0.20986315072E+04  0.50400001928E-02 0.  1.
    10030    2    1    2    0    0  0.00000000000E+00  0.00000000000E+00 -0.88085217663E+03  0.33164108377E+04  0.31972926496E+04 0.  0.
        2    1    3    3  502    0 -0.15037270318E+04 -0.22763572440E+03 -0.95138079548E+03  0.17939170625E+04  0.25500000920E-02 0.  1.
       -2    1    3    3    0  502  0.15037270318E+04  0.22763572440E+03  0.70528618853E+02  0.15224937751E+04  0.25500000920E-02 0. -1.
</event>
<event>
 5   0  0.8802800E-07  0.3198513E+04  0.7818609E-02  0.8189210E-01
        2   -1    0    0  501    0  0.00000000000E+00  0.00000000000E+00  0.18788275114E+04  0.18788275114E+04  0.25500000920E-02 0.  1.
       -2   -1    0    0    0  501  0.00000000000E+00  0.00000000000E+00 -0.13612862958E+04  0.13612862958E+04  0.25500000920E-02 0. -1.
    10030    2    1    2    0    0  0.00000000000E+00  0.00000000000E+00  0.51754121563E+03  0.32401138072E+04  0.31985134944E+04 0.  0.
        5    1    3    3  502    0 -0.15337809420E+04  0.32453823355E+03  0.57877636211E+03  0.16711712091E+04  0.46999998093E+01 0.  1.
       -5    1    3    3    0  502  0.15337809420E+04 -0.32453823355E+03 -0.61235146480E+02  0.15689425981E+04  0.46999998093E+01 0. -1.
</event>
<event>
 5   0  0.3075756E-07  0.3232042E+04  0.7818609E-02  0.8180406E-01
       -1   -1    0    0    0  501  0.00000000000E+00  0.00000000000E+00  0.34101952035E+04  0.34101952035E+04  0.50400001928E-02 0.  1.
        1   -1    0    0  501    0  0.00000000000E+00  0.00000000000E+00 -0.76579898303E+03  0.76579898305E+03  0.50400001928E-02 0. -1.
    10030    2    1    2    0    0  0.00000000000E+00  0.00000000000E+00  0.26443962205E+04  0.41759941865E+04  0.32320420906E+04 0.  0.
        5    1    3    3  502    0 -0.14537777599E+04  0.21320748377E+03  0.21914147357E+04  0.26384176773E+04  0.46999998093E+01 0.  1.
       -5    1    3    3    0  502  0.14537777599E+04 -0.21320748377E+03  0.45298148477E+03  0.15375765092E+04  0.46999998093E+01 0. -1.
</event>
<event>
 5   0  0.2997105E-07  0.3202809E+04  0.7818609E-02  0.8188076E-01
       -1   -1    0    0    0  501  0.00000000000E+00  0.00000000000E+00  0.15076132480E+04  0.15076132480E+04  0.50400001928E-02 0.  1.
        1   -1    0    0  501    0  0.00000000000E+00  0.00000000000E+00 -0.17010308303E+04  0.17010308304E+04  0.50400001928E-02 0. -1.
    10030    2    1    2    0    0  0.00000000000E+00  0.00000000000E+00 -0.19341758238E+03  0.32086440783E+04  0.32028091514E+04 0.  0.
        3    1    3    3  502    0  0.53736567882E+03 -0.14178177807E+04  0.41952355779E+03  0.15732034699E+04  0.10100000352E+00 0.  1.
       -3    1    3    3    0  502 -0.53736567882E+03  0.14178177807E+04 -0.61294114017E+03  0.16354406084E+04  0.10100000352E+00 0. -1.
</event>
<event>
 5   0  0.3075756E-07  0.3200126E+04  0.7818609E-02  0.8188784E-01
        1   -1    0    0  501    0  0.00000000000E+00  0.00000000000E+00  0.18801830962E+04  0.18801830962E+04  0.50400001928E-02 0.  1.
       -1   -1    0    0    0  501  0.00000000000E+00  0.00000000000E+00 -0.13616770375E+04  0.13616770375E+04  0.50400001928E-02 0. -1.
    10030    2    1    2    0    0  0.00000000000E+00  0.00000000000E+00  0.51850605864E+03  0.32418601337E+04  0.32001263403E+04 0.  0.
        5    1    3    3  502    0 -0.63251132247E+03  0.52959382905E+03 -0.11296261663E+04  0.13987914650E+04  0.46999998093E+01 0. -1.
       -5    1    3    3    0  502  0.63251132247E+03 -0.52959382905E+03  0.16481322249E+04  0.18430686687E+04  0.46999998093E+01 0.  1.
</event>
<event>
 5   0  0.2891204E-07  0.3208427E+04  0.7818609E-02  0.8186595E-01
       -1   -1    0    0    0  501  0.00000000000E+00  0.00000000000E+00  0.14644922226E+04  0.14644922226E+04  0.50400001928E-02 0.  1.
        1   -1    0    0  501    0  0.00000000000E+00  0.00000000000E+00 -0.17572655520E+04  0.17572655520E+04  0.50400001928E-02 0. -1.
    10030    2    1    2    0    0  0.00000000000E+00  0.00000000000E+00 -0.29277332934E+03  0.32217577746E+04  0.32084274865E+04 0.  0.
        4    1    3    3  502    0  0.11194157379E+04  0.81194792343E+03  0.67010237882E+03  0.15366814360E+04  0.12699999809E+01 0.  1.
       -4    1    3    3    0  502 -0.11194157379E+04 -0.81194792343E+03 -0.96287570816E+03  0.16850763386E+04  0.12699999809E+01 0. -1.
</event>
<event>
 5   0  0.8838951E-07  0.3153728E+04  0.7818609E-02  0.8201145E-01
       -2   -1    0    0    0  501  0.00000000000E+00  0.00000000000E+00  0.91630396512E+03  0.91630396513E+03  0.25500000920E-02 0.  1.
        2   -1    0    0  501    0  0.00000000000E+00  0.00000000000E+00 -0.27136200404E+04  0.27136200404E+04  0.25500000920E-02 0. -1.
    10030    2    1    2    0    0  0.00000000000E+00  0.00000000000E+00 -0.17973160752E+04  0.36299240055E+04  0.31537284619E+04 0.  0.
        2    1    3    3  502    0  0.80927385265E+03  0.73863995701E+03  0.40658574744E+03  0.11686852120E+04  0.25500000920E-02 0.  1.
       -2    1    3    3    0  502 -0.80927385265E+03 -0.73863995701E+03 -0.22039018227E+04  0.24612387935E+04  0.25500000920E-02 0. -1.
</event>
<event>
 5   0  0.8195618E-07  0.3201721E+04  0.7818609E-02  0.8188363E-01
        2   -1    0    0  501    0  0.00000000000E+00  0.00000000000E+00  0.23022449016E+04  0.23022449016E+04  0.25500000920E-02 0.  1.
       -2   -1    0    0    0  501  0.00000000000E+00  0.00000000000E+00 -0.11131543427E+04  0.11131543427E+04  0.25500000920E-02 0. -1.
    10030    2    1    2    0    0  0.00000000000E+00  0.00000000000E+00  0.11890905589E+04  0.34153992443E+04  0.32017207312E+04 0.  0.
        1    1    3    3  502    0  0.71122414479E+03  0.64090666778E+03  0.19631974748E+04  0.21842036229E+04  0.50400001928E-02 0.  1.
       -1    1    3    3    0  502 -0.71122414479E+03 -0.64090666778E+03 -0.77410691594E+03  0.12311956214E+04  0.50400001928E-02 0. -1.
</event>
<event>
 5   0  0.3075756E-07  0.3199050E+04  0.7818609E-02  0.8189068E-01
       -1   -1    0    0    0  501  0.00000000000E+00  0.00000000000E+00  0.14039105342E+04  0.14039105342E+04  0.50400001928E-02 0. -1.
        1   -1    0    0  501    0  0.00000000000E+00  0.00000000000E+00 -0.18223955006E+04  0.18223955006E+04  0.50400001928E-02 0.  1.
    10030    2    1    2    0    0  0.00000000000E+00  0.00000000000E+00 -0.41848496640E+03  0.32263060348E+04  0.31990500095E+04 0.  0.
        5    1    3    3  502    0  0.10265593636E+04 -0.88098830575E+03  0.65154790755E+03  0.15014996796E+04  0.46999998093E+01 0. -1.
       -5    1    3    3    0  502 -0.10265593636E+04  0.88098830575E+03 -0.10700328740E+04  0.17248063553E+04  0.46999998093E+01 0.  1.
</event>
<event>
 5   0  0.2783875E-07  0.3204339E+04  0.7818609E-02  0.8187672E-01
       -1   -1    0    0    0  501  0.00000000000E+00  0.00000000000E+00  0.20136661614E+04  0.20136661614E+04  0.50400001928E-02 0.  1.
        1   -1    0    0  501    0  0.00000000000E+00  0.00000000000E+00 -0.12747626427E+04  0.12747626427E+04  0.50400001928E-02 0. -1.
    10030    2    1    2    0    0  0.00000000000E+00  0.00000000000E+00  0.73890351871E+03  0.32884288041E+04  0.32043385573E+04 0.  0.
        2    1    3    3  502    0 -0.66227844227E+03  0.77147129529E+03  0.16401563408E+04  0.19297392355E+04  0.25500000920E-02 0.  1.
       -2    1    3    3    0  502  0.66227844227E+03 -0.77147129529E+03 -0.90125282211E+03  0.13586895686E+04  0.25500000920E-02 0. -1.
</event>
<event>
 5   0  0.2997105E-07  0.3219030E+04  0.7818609E-02  0.8183809E-01
       -1   -1    0    0    0  501  0.00000000000E+00  0.00000000000E+00  0.15923115805E+04  0.15923115805E+04  0.50400001928E-02 0.  1.
        1   -1    0    0  501    0  0.00000000000E+00  0.00000000000E+00 -0.16269044146E+04  0.16269044146E+04  0.50400001928E-02 0. -1.
    10030    2    1    2    0    0  0.00000000000E+00  0.00000000000E+00 -0.34592834114E+02  0.32192159952E+04  0.32190301271E+04 0.  0.
        3    1    3    3  502    0 -0.92122436432E+03  0.81689813879E+02  0.13000537884E+04  0.15954521046E+04  0.10100000352E+00 0.  1.
       -3    1    3    3    0  502  0.92122436432E+03 -0.81689813879E+02 -0.13346466225E+04  0.16237638906E+04  0.10100000352E+00 0. -1.
</event>
<event>
 5   0  0.8838951E-07  0.3205374E+04  0.7818609E-02  0.8187399E-01
        2   -1    0    0  501    0  0.00000000000E+00  0.00000000000E+00  0.17849516646E+04  0.17849516646E+04  0.25500000920E-02 0.  1.
       -2   -1    0    0    0  501  0.00000000000E+00  0.00000000000E+00 -0.14390337980E+04  0.14390337980E+04  0.25500000920E-02 0. -1.
    10030    2    1    2    0    0  0.00000000000E+00  0.00000000000E+00  0.34591786660E+03  0.32239854627E+04  0.32053740957E+04 0.  0.
        2    1    3    3  502    0 -0.65803271016E+03  0.10244856200E+04  0.12211364774E+04  0.17244570535E+04  0.25500000920E-02 0.  1.
       -2    1    3    3    0  502  0.65803271016E+03 -0.10244856200E+04 -0.87521861076E+03  0.14995284091E+04  0.25500000920E-02 0. -1.
</event>
<event>
 5   0  0.8195618E-07  0.3194618E+04  0.7818609E-02  0.8190240E-01
        2   -1    0    0  501    0  0.00000000000E+00  0.00000000000E+00  0.16754121686E+04  0.16754121686E+04  0.25500000920E-02 0. -1.
       -2   -1    0    0    0  501  0.00000000000E+00  0.00000000000E+00 -0.15228471704E+04  0.15228471704E+04  0.25500000920E-02 0.  1.
    10030    2    1    2    0    0  0.00000000000E+00  0.00000000000E+00  0.15256499826E+03  0.31982593390E+04  0.31946183999E+04 0.  0.
        1    1    3    3  502    0  0.97424792327E+03  0.11358900085E+04 -0.48291613993E+03  0.15724544908E+04  0.50400001928E-02 0.  1.
       -1    1    3    3    0  502 -0.97424792327E+03 -0.11358900085E+04  0.63548113819E+03  0.16258048482E+04  0.50400001928E-02 0. -1.
</event>
<event>
 5   0  0.3013888E-07  0.3210610E+04  0.7818609E-02  0.8186021E-01
       -1   -1    0    0    0  501  0.00000000000E+00  0.00000000000E+00  0.13661872720E+04  0.13661872720E+04  0.50400001928E-02 0.  1.
        1   -1    0    0  501    0  0.00000000000E+00  0.00000000000E+00 -0.18862748689E+04  0.18862748689E+04  0.50400001928E-02 0. -1.
    10030    2    1    2    0    0  0.00000000000E+00  0.00000000000E+00 -0.52008759697E+03  0.32524621409E+04  0.32106103578E+04 0.  0.
        1    1    3    3  502    0 -0.11735890124E+04  0.10369164570E+04 -0.61748573246E+03  0.16833881129E+04  0.50400001928E-02 0. -1.
       -1    1    3    3    0  502  0.11735890124E+04 -0.10369164570E+04  0.97398135490E+02  0.15690740281E+04  0.50400001928E-02 0.  1.
</event>
<event>
 5   0  0.8838951E-07  0.3201104E+04  0.7818609E-02  0.8188526E-01
        2   -1    0    0  501    0  0.00000000000E+00  0.00000000000E+00  0.17172969289E+04  0.17172969289E+04  0.25500000920E-02 0.  1.
       -2   -1    0    0    0  501  0.00000000000E+00  0.00000000000E+00 -0.14917433111E+04  0.14917433111E+04  0.25500000920E-02 0. -1.
    10030    2    1    2    0    0  0.00000000000E+00  0.00000000000E+00  0.22555361780E+03  0.32090402401E+04  0.32011036890E+04 0.  0.
        2    1    3    3  502    0  0.33821353348E+03 -0.15621076467E+04  0.27728310312E+02  0.15985423214E+04  0.25500000920E-02 0.  1.
       -2    1    3    3    0  502 -0.33821353348E+03  0.15621076467E+04  0.19782530749E+03  0.16104979187E+04  0.25500000920E-02 0. -1.
</event>
<event>
 5   0  0.2891204E-07  0.3206225E+04  0.7818609E-02  0.8187175E-01
       -1   -1    0    0    0  501  0.00000000000E+00  0.00000000000E+00  0.17380533482E+04  0.17380533482E+04  0.50400001928E-02 0. -1.
        1   -1    0    0  501    0  0.00000000000E+00  0.00000000000E+00 -0.14786485003E+04  0.14786485003E+04  0.50400001928E-02 0.  1.
    10030    2    1    2    0    0  0.00000000000E+00  0.00000000000E+00  0.25940484797E+03  0.32167018485E+04  0.32062251803E+04 0.  0.
        4    1    3    3  502    0  0.16969543677E+03  0.14927752831E+04 -0.43140477424E+03  0.15631014935E+04  0.12699999809E+01 0. -1.
       -4    1    3    3    0  502 -0.16969543677E+03 -0.14927752831E+04  0.69080962221E+03  0.16536003550E+04  0.12699999809E+01 0.  1.
</event>
<event>
 5   0  0.2997105E-07  0.3203923E+04  0.7818609E-02  0.8187782E-01
        1   -1    0    0  501    0  0.00000000000E+00  0.00000000000E+00  0.20899426316E+04  0.20899426316E+04  0.50400001928E-02 0. -1.
       -1   -1    0    0    0  501  0.00000000000E+00  0.00000000000E+00 -0.12279189976E+04  0.12279189976E+04  0.50400001928E-02 0.  1.
    10030    2    1    2    0    0  0.00000000000E+00  0.00000000000E+00  0.86202363398E+03  0.33178616293E+04  0.32039227590E+04 0.  0.
        3    1    3    3  502    0  0.73740406194E+03  0.27910687844E+03  0.18750977301E+04  0.20341231300E+04  0.10100000352E+00 0. -1.
       -3    1    3    3    0  502 -0.73740406194E+03 -0.27910687844E+03 -0.10130740961E+04  0.12837384993E+04  0.10100000352E+00 0.  1.
</event>
<event>
 5   0  0.8802800E-07  0.3209296E+04  0.7818609E-02  0.8186367E-01
        2   -1    0    0  501    0  0.00000000000E+00  0.00000000000E+00  0.22259242946E+04  0.22259242946E+04  0.25500000920E-02 0.  1.
       -2   -1    0    0    0  501  0.00000000000E+00  0.00000000000E+00 -0.11567753876E+04  0.11567753876E+04  0.25500000920E-02 0. -1.
    10030    2    1    2    0    0  0.00000000000E+00  0.00000000000E+00  0.10691489071E+04  0.33826996822E+04  0.32092955230E+04 0.  0.
        5    1    3    3  502    0  0.88251124124E+03  0.11436207744E+04 -0.20187464901E+03  0.14585849411E+04  0.46999998093E+01 0. -1.
       -5    1    3    3    0  502 -0.88251124124E+03 -0.11436207744E+04  0.12710235561E+04  0.19241147410E+04  0.46999998093E+01 0.  1.
</event>
<event>
 5   0  0.8838951E-07  0.3185710E+04  0.7818609E-02  0.8192601E-01
        2   -1    0    0  501    0  0.00000000000E+00  0.00000000000E+00  0.16814175768E+04  0.16814175768E+04  0.25500000920E-02 0. -1.
       -2   -1    0    0    0  501  0.00000000000E+00  0.00000000000E+00 -0.15089571111E+04  0.15089571111E+04  0.25500000920E-02 0.  1.
    10030    2    1    2    0    0  0.00000000000E+00  0.00000000000E+00  0.17246046565E+03  0.31903746879E+04  0.31857099738E+04 0.  0.
        2    1    3    3  502    0  0.15829950562E+04  0.17114041937E+03  0.13129187367E+03  0.15976232182E+04  0.25500000920E-02 0.  1.
       -2    1    3    3    0  502 -0.15829950562E+04 -0.17114041937E+03  0.41168591986E+02  0.15927514697E+04  0.25500000920E-02 0. -1.
</event>
<event>
 5   0  0.2783875E-07  0.3191628E+04  0.7818609E-02  0.8191032E-01
       -3   -1    0    0    0  501  0.00000000000E+00  0.00000000000E+00  0.13358414122E+04  0.13358414160E+04  0.10100000352E+00 0. -1.
        3   -1    0    0  501    0  0.00000000000E+00  0.00000000000E+00 -0.19063801616E+04  0.19063801643E+04  0.10100000352E+00 0.  1.
    10030    2    1    2    0    0  0.00000000000E+00  0.00000000000E+00 -0.57053874947E+03  0.32422215803E+04  0.31916275333E+04 0.  0.
        1    1    3    3  502    0  0.33756191840E+03 -0.13968548680E+04  0.41961049511E+03  0.14970719885E+04  0.50400001928E-02 0. -1.
       -1    1    3    3    0  502 -0.33756191840E+03  0.13968548680E+04 -0.99014924459E+03  0.17451495918E+04  0.50400001928E-02 0.  1.
</event>
<event>
 5   0  0.3075756E-07  0.3197579E+04  0.7818609E-02  0.8189457E-01
        1   -1    0    0  501    0  0.00000000000E+00  0.00000000000E+00  0.13702356363E+04  0.13702356363E+04  0.50400001928E-02 0. -1.
       -1   -1    0    0    0  501  0.00000000000E+00  0.00000000000E+00 -0.18654662457E+04  0.18654662457E+04  0.50400001928E-02 0.  1.
    10030    2    1    2    0    0  0.00000000000E+00  0.00000000000E+00 -0.49523060943E+03  0.32357018820E+04  0.31975792895E+04 0.  0.
        5    1    3    3  502    0 -0.43884798873E+03  0.58737559498E+03  0.11900655199E+04  0.13978110310E+04  0.46999998093E+01 0. -1.
       -5    1    3    3    0  502  0.43884798873E+03 -0.58737559498E+03 -0.16852961293E+04  0.18378908510E+04  0.46999998093E+01 0.  1.
</event>
<event>
 5   0  0.2783875E-07  0.3197328E+04  0.7818609E-02  0.8189523E-01
       -1   -1    0    0    0  501  0.00000000000E+00  0.00000000000E+00  0.19908517406E+04  0.19908517406E+04  0.50400001928E-02 0.  1.
        1   -1    0    0  501    0  0.00000000000E+00  0.00000000000E+00 -0.12837353614E+04  0.12837353614E+04  0.50400001928E-02 0. -1.
    10030    2    1    2    0    0  0.00000000000E+00  0.00000000000E+00  0.70711637919E+03  0.32745871020E+04  0.31973281213E+04 0.  0.
        2    1    3    3  502    0  0.15131984339E+04 -0.51139035927E+03  0.42177993111E+03  0.16520253964E+04  0.25500000920E-02 0. -1.
       -2    1    3    3    0  502 -0.15131984339E+04  0.51139035927E+03  0.28533644808E+03  0.16225617057E+04  0.25500000920E-02 0.  1.
</event>
<event>
 5   0  0.3013888E-07  0.3205907E+04  0.7818609E-02  0.8187259E-01
        1   -1    0    0  501    0  0.00000000000E+00  0.00000000000E+00  0.19191271990E+04  0.19191271991E+04  0.50400001928E-02 0. -1.
       -1   -1    0    0    0  501  0.00000000000E+00  0.00000000000E+00 -0.13388687094E+04  0.13388687094E+04  0.50400001928E-02 0.  1.
    10030    2    1    2    0    0  0.00000000000E+00  0.00000000000E+00  0.58025848970E+03  0.32579959084E+04  0.32059066462E+04 0.  0.
        1    1    3    3  502    0 -0.80597087012E+03 -0.30024435401E+03  0.16647801183E+04  0.18738272487E+04  0.50400001928E-02 0. -1.
       -1    1    3    3    0  502  0.80597087012E+03  0.30024435401E+03 -0.10845216286E+04  0.13841686597E+04  0.50400001928E-02 0.  1.
</event>
<event>
 5   0  0.8838951E-07  0.3197377E+04  0.7818609E-02  0.8189510E-01
        2   -1    0    0  501    0  0.00000000000E+00  0.00000000000E+00  0.18546164177E+04  0.18546164177E+04  0.25500000920E-02 0.  1.
       -2   -1    0    0    0  501  0.00000000000E+00  0.00000000000E+00 -0.13780774725E+04  0.13780774725E+04  0.25500000920E-02 0. -1.
    10030    2    1    2    0    0  0.00000000000E+00  0.00000000000E+00  0.47653894518E+03  0.32326938902E+04  0.31973771159E+04 0.  0.
        2    1    3    3  502    0 -0.10438114978E+04  0.11527290572E+04  0.61314572332E+03  0.16716083275E+04  0.25500000920E-02 0.  1.
       -2    1    3    3    0  502  0.10438114978E+04 -0.11527290572E+04 -0.13660677815E+03  0.15610855627E+04  0.25500000920E-02 0. -1.
</event>
<event>
 5   0  0.3013888E-07  0.3195631E+04  0.7818609E-02  0.8189972E-01
        1   -1    0    0  501    0  0.00000000000E+00  0.00000000000E+00  0.24428653734E+04  0.24428653734E+04  0.50400001928E-02 0. -1.
       -1   -1    0    0    0  501  0.00000000000E+00  0.00000000000E+00 -0.10450898456E+04  0.10450898456E+04  0.50400001928E-02 0.  1.
    10030    2    1    2    0    0  0.00000000000E+00  0.00000000000E+00  0.13977755278E+04  0.34879552189E+04  0.31956306394E+04 0.  0.
        1    1    3    3  502    0 -0.14770702545E+04 -0.47303742851E+03  0.27968006385E+03  0.15759828310E+04  0.50400001928E-02 0.  1.
       -1    1    3    3    0  502  0.14770702545E+04  0.47303742851E+03  0.11180954639E+04  0.19119723879E+04  0.50400001928E-02 0. -1.
</event>
<event>
 5   0  0.8802800E-07  0.3207225E+04  0.7818609E-02  0.8186912E-01
       -2   -1    0    0    0  501  0.00000000000E+00  0.00000000000E+00  0.17784221078E+04  0.17784221078E+04  0.25500000920E-02 0.  1.
        2   -1    0    0  501    0  0.00000000000E+00  0.00000000000E+00 -0.14459853788E+04  0.14459853788E+04  0.25500000920E-02 0. -1.
    10030    2    1    2    0    0  0.00000000000E+00  0.00000000000E+00  0.33243672904E+03  0.32244074866E+04  0.32072245728E+04 0.  0.
        5    1    3    3  502    0  0.10085699698E+04  0.11969495898E+04  0.51686853589E+03  0.16483558104E+04  0.46999998093E+01 0. -1.
       -5    1    3    3    0  502 -0.10085699698E+04 -0.11969495898E+04 -0.18443180685E+03  0.15760516761E+04  0.46999998093E+01 0.  1.
</event>
<event>
 5   0  0.2997105E-07  0.3199654E+04  0.7818609E-02  0.8188909E-01
       -1   -1    0    0    0  501  0.00000000000E+00  0.00000000000E+00  0.15095251138E+04  0.15095251138E+04  0.50400001928E-02 0. -1.
        1   -1    0    0  501    0  0.00000000000E+00  0.00000000000E+00 -0.16955305625E+04  0.16955305625E+04  0.50400001928E-02 0.  1.
    10030    2    1    2    0    0  0.00000000000E+00  0.00000000000E+00 -0.18600544878E+03  0.32050556763E+04  0.31996537096E+04 0.  0.
        3    1    3    3  502    0  0.19878755416E+03 -0.96601206460E+03 -0.13547921241E+04  0.16757558027E+04  0.10100000352E+00 0.  1.
       -3    1    3    3    0  502 -0.19878755416E+03  0.96601206460E+03  0.11687866753E+04  0.15292998736E+04  0.10100000352E+00 0. -1.
</event>
<event>
 5   0  0.2783875E-07  0.3200841E+04  0.7818609E-02  0.8188595E-01
        3   -1    0    0  501    0  0.00000000000E+00  0.00000000000E+00  0.18761635768E+04  0.18761635795E+04  0.10100000352E+00 0. -1.
       -3   -1    0    0    0  501  0.00000000000E+00  0.00000000000E+00 -0.13652036958E+04  0.13652036995E+04  0.10100000352E+00 0.  1.
    10030    2    1    2    0    0  0.00000000000E+00  0.00000000000E+00  0.51095988105E+03  0.32413672790E+04  0.32008408016E+04 0.  0.
        4    1    3    3  502    0 -0.30481261030E+03 -0.10075677656E+04 -0.96528736120E+03  0.14282453684E+04  0.12699999809E+01 0.  1.
       -4    1    3    3    0  502  0.30481261030E+03  0.10075677656E+04  0.14762472423E+04  0.18131219106E+04  0.12699999809E+01 0. -1.
</event>
<event>
 5   0  0.3075756E-07  0.3218157E+04  0.7818609E-02  0.8184038E-01
       -1   -1    0    0    0  501  0.00000000000E+00  0.00000000000E+00  0.18471216411E+04  0.18471216411E+04  0.50400001928E-02 0.  1.
        1   -1    0    0  501    0  0.00000000000E+00  0.00000000000E+00 -0.14017121604E+04  0.14017121604E+04  0.50400001928E-02 0. -1.
    10030    2    1    2    0    0  0.00000000000E+00  0.00000000000E+00  0.44540948071E+03  0.32488338015E+04  0.32181565320E+04 0.  0.
        5    1    3    3  502    0 -0.67930572594E+03 -0.38532185248E+03  0.16429493523E+04  0.18191299743E+04  0.46999998093E+01 0.  1.
       -5    1    3    3    0  502  0.67930572594E+03  0.38532185248E+03 -0.11975398716E+04  0.14297038271E+04  0.46999998093E+01 0. -1.
</event>
<event>
 5   0  0.8838951E-07  0.3209253E+04  0.7818609E-02  0.8186378E-01
        2   -1    0    0  501    0  0.00000000000E+00  0.00000000000E+00  0.27228116939E+04  0.27228116939E+04  0.25500000920E-02 0. -1.
       -2   -1    0    0    0  501  0.00000000000E+00  0.00000000000E+00 -0.94565004653E+03  0.94565004653E+03  0.25500000920E-02 0.  1.
    10030    2    1    2    0    0  0.00000000000E+00  0.00000000000E+00  0.17771616473E+04  0.36684617404E+04  0.32092534989E+04 0.  0.
        2    1    3    3  502    0  0.70953688932E+03  0.59471272840E+03  0.23867255763E+04  0.25599970319E+04  0.25500000920E-02 0. -1.
       -2    1    3    3    0  502 -0.70953688932E+03 -0.59471272840E+03 -0.60956392894E+03  0.11084647085E+04  0.25500000920E-02 0.  1.
</event>
<event>
 5   0  0.2783875E-07  0.3203885E+04  0.7818609E-02  0.8187792E-01
       -3   -1    0    0    0  501  0.00000000000E+00  0.00000000000E+00  0.18941991517E+04  0.18941991543E+04  0.10100000352E+00 0.  1.
        3   -1    0    0  501    0  0.00000000000E+00  0.00000000000E+00 -0.13547781889E+04  0.13547781927E+04  0.10100000352E+00 0. -1.
    10030    2    1    2    0    0  0.00000000000E+00  0.00000000000E+00  0.53942096272E+03  0.32489773471E+04  0.32038849584E+04 0.  0.
        1    1    3    3  502    0  0.52422103498E+03  0.12537437331E+04 -0.59048436802E+03  0.14816723088E+04  0.50400001928E-02 0. -1.
       -1    1    3    3    0  502 -0.52422103498E+03 -0.12537437331E+04  0.11299053307E+04  0.17673050382E+04  0.50400001928E-02 0.  1.
</event>
<event>
 5   0  0.3013888E-07  0.3205065E+04  0.7818609E-02  0.8187481E-01
       -1   -1    0    0    0  501  0.00000000000E+00  0.00000000000E+00  0.24291974997E+04  0.24291974997E+04  0.50400001928E-02 0. -1.
        1   -1    0    0  501    0  0.00000000000E+00  0.00000000000E+00 -0.10571845766E+04  0.10571845767E+04  0.50400001928E-02 0.  1.
    10030    2    1    2    0    0  0.00000000000E+00  0.00000000000E+00  0.13720129230E+04  0.34863820763E+04  0.32050648232E+04 0.  0.
        1    1    3    3  502    0  0.11146710898E+04 -0.22490767615E+03  0.19142916664E+04  0.22265640986E+04  0.50400001928E-02 0. -1.
       -1    1    3    3    0  502 -0.11146710898E+04  0.22490767615E+03 -0.54227874338E+03  0.12598179777E+04  0.50400001928E-02 0.  1.
</event>
<event>
 5   0  0.8838951E-07  0.3172801E+04  0.7818609E-02  0.8196037E-01
        2   -1    0    0  501    0  0.00000000000E+00  0.00000000000E+00  0.16805957071E+04  0.16805957071E+04  0.25500000920E-02 0. -1.
       -2   -1    0    0    0  501  0.00000000000E+00  0.00000000000E+00 -0.14974849084E+04  0.14974849084E+04  0.25500000920E-02 0.  1.
    10030    2    1    2    0    0  0.00000000000E+00  0.00000000000E+00  0.18311079863E+03  0.31780806155E+04  0.31728011022E+04 0.  0.
        2    1    3    3  502    0  0.10207234739E+04 -0.11074202926E+04  0.59079280537E+03  0.16178047638E+04  0.25500000920E-02 0. -1.
       -2    1    3    3    0  502 -0.10207234739E+04  0.11074202926E+04 -0.40768200674E+03  0.15602758517E+04  0.25500000920E-02 0.  1.
</event>
<event>
 5   0  0.2783875E-07  0.3110403E+04  0.7818609E-02  0.8212889E-01
        1   -1    0    0  501    0  0.00000000000E+00  0.00000000000E+00  0.13580466239E+04  0.13580466239E+04  0.50400001928E-02 0. -1.
       -1   -1    0    0    0  501  0.00000000000E+00  0.00000000000E+00 -0.17809786664E+04  0.17809786664E+04  0.50400001928E-02 0.  1.
    10030    2    1    2    0    0  0.00000000000E+00  0.00000000000E+00 -0.42293204247E+03  0.31390252903E+04  0.31104032312E+04 0.  0.
        2    1    3    3  502    0 -0.14305939955E+04 -0.48329987528E+03 -0.58701139860E+03  0.16201112096E+04  0.25500000920E-02 0.  1.
       -2    1    3    3    0  502  0.14305939955E+04  0.48329987528E+03  0.16407935613E+03  0.15189140807E+04  0.25500000920E-02 0. -1.
</event>
<event>
 5   0  0.2783875E-07  0.3188998E+04  0.7818609E-02  0.8191729E-01
        1   -1    0    0  501    0  0.00000000000E+00  0.00000000000E+00  0.88220244444E+03  0.88220244445E+03  0.50400001928E-02 0.  1.
       -1   -1    0    0    0  501  0.00000000000E+00  0.00000000000E+00 -0.28819080359E+04  0.28819080359E+04  0.50400001928E-02 0. -1.
    10030    2    1    2    0    0  0.00000000000E+00  0.00000000000E+00 -0.19997055915E+04  0.37641104804E+04  0.31889975315E+04 0.  0.
        2    1    3    3  502    0  0.51911800097E+03 -0.18309675585E+03  0.76649328604E+03  0.94367360802E+03  0.25500000920E-02 0.  1.
       -2    1    3    3    0  502 -0.51911800097E+03  0.18309675585E+03 -0.27661988775E+04  0.28204368724E+04  0.25500000920E-02 0. -1.
</event>
<event>
 5   0  0.2891204E-07  0.3213254E+04  0.7818609E-02  0.8185325E-01
        1   -1    0    0  501    0  0.00000000000E+00  0.00000000000E+00  0.20045702309E+04  0.20045702309E+04  0.50400001928E-02 0.  1.
       -1   -1    0    0    0  501  0.00000000000E+00  0.00000000000E+00 -0.12876830245E+04  0.12876830245E+04  0.50400001928E-02 0. -1.
    10030    2    1    2    0    0  0.00000000000E+00  0.00000000000E+00  0.71688720636E+03  0.32922532554E+04  0.32132544610E+04 0.  0.
        4    1    3    3  502    0  0.21980998249E+03  0.75903179375E+03  0.17916929512E+04  0.19582162640E+04  0.12699999809E+01 0.  1.
       -4    1    3    3    0  502 -0.21980998249E+03 -0.75903179375E+03 -0.10748057449E+04  0.13340369914E+04  0.12699999809E+01 0. -1.
</event>
<event>
 5   0  0.2891204E-07  0.3193819E+04  0.7818609E-02  0.8190451E-01
        1   -1    0    0  501    0  0.00000000000E+00  0.00000000000E+00  0.20085008117E+04  0.20085008117E+04  0.50400001928E-02 0.  1.
       -1   -1    0    0    0  501  0.00000000000E+00  0.00000000000E+00 -0.12696634111E+04  0.12696634111E+04  0.50400001928E-02 0. -1.
    10030    2    1    2    0    0  0.00000000000E+00  0.00000000000E+00  0.73883740063E+03  0.32781642228E+04  0.31938190254E+04 0.  0.
        4    1    3    3  502    0  0.61981160846E+03  0.99155929674E+03  0.14856883175E+04  0.18906685745E+04  0.12699999809E+01 0.  1.
       -4    1    3    3    0  502 -0.61981160846E+03 -0.99155929674E+03 -0.74685091690E+03  0.13874956482E+04  0.12699999809E+01 0. -1.
</event>
<event>
 5   0  0.3075756E-07  0.3209416E+04  0.7818609E-02  0.8186335E-01
        1   -1    0    0  501    0  0.00000000000E+00  0.00000000000E+00  0.18301975415E+04  0.18301975416E+04  0.50400001928E-02 0.  1.
       -1   -1    0    0    0  501  0.00000000000E+00  0.00000000000E+00 -0.14069998074E+04  0.14069998075E+04  0.50400001928E-02 0. -1.
    10030    2    1    2    0    0  0.00000000000E+00  0.00000000000E+00  0.42319773410E+03  0.32371973490E+04  0.32094158899E+04 0.  0.
        5    1    3    3  502    0 -0.13478923990E+04  0.41863082234E+03 -0.55855479645E+03  0.15179167419E+04  0.46999998093E+01 0. -1.
       -5    1    3    3    0  502  0.13478923990E+04 -0.41863082234E+03  0.98175253055E+03  0.17192806071E+04  0.46999998093E+01 0.  1.
</event>
<event>
 5   0  0.2997105E-07  0.3189256E+04  0.7818609E-02  0.8191660E-01
        1   -1    0    0  501    0  0.00000000000E+00  0.00000000000E+00  0.72692627041E+03  0.72692627043E+03  0.50400001928E-02 0. -1.
       -1   -1    0    0    0  501  0.00000000000E+00  0.00000000000E+00 -0.34980696880E+04  0.34980696880E+04  0.50400001928E-02 0.  1.
    10030    2    1    2    0    0  0.00000000000E+00  0.00000000000E+00 -0.27711434176E+04  0.42249959584E+04  0.31892561841E+04 0.  0.
        3    1    3    3  502    0  0.82909687062E+03 -0.74336903998E+03 -0.28976781568E+04  0.31042773493E+04  0.10100000352E+00 0.  1.
       -3    1    3    3    0  502 -0.82909687062E+03  0.74336903998E+03  0.12653473923E+03  0.11207186092E+04  0.10100000352E+00 0. -1.
</event>
<event>
 5   0  0.8802800E-07  0.3172300E+04  0.7818609E-02  0.8196171E-01
       -2   -1    0    0    0  501  0.00000000000E+00  0.00000000000E+00  0.10942923726E+04  0.10942923726E+04  0.25500000920E-02 0. -1.
        2   -1    0    0  501    0  0.00000000000E+00  0.00000000000E+00 -0.22990856202E+04  0.22990856202E+04  0.25500000920E-02 0.  1.
    10030    2    1    2    0    0  0.00000000000E+00  0.00000000000E+00 -0.12047932476E+04  0.33933779928E+04  0.31723000225E+04 0.  0.
        5    1    3    3  502    0 -0.51742827036E+03 -0.14544319589E+04 -0.99213015649E+03  0.18350609460E+04  0.46999998093E+01 0.  1.
       -5    1    3    3    0  502  0.51742827036E+03  0.14544319589E+04 -0.21266309107E+03  0.15583170468E+04  0.46999998093E+01 0. -1.
</event>
<event>
 5   0  0.3075756E-07  0.3204009E+04  0.7818609E-02  0.8187759E-01
        1   -1    0    0  501    0  0.00000000000E+00  0.00000000000E+00  0.19168073671E+04  0.19168073671E+04  0.50400001928E-02 0. -1.
       -1   -1    0    0    0  501  0.00000000000E+00  0.00000000000E+00 -0.13389023681E+04  0.13389023681E+04  0.50400001928E-02 0.  1.
    10030    2    1    2    0    0  0.00000000000E+00  0.00000000000E+00  0.57790499906E+03  0.32557097352E+04  0.32040086910E+04 0.  0.
        5    1    3    3  502    0 -0.14659630322E+04  0.27321942518E+03 -0.30589911387E+03  0.15222656877E+04  0.46999998093E+01 0.  1.
       -5    1    3    3    0  502  0.14659630322E+04 -0.27321942518E+03  0.88380411293E+03  0.17334440476E+04  0.46999998093E+01 0. -1.
</event>
<event>
 5   0  0.8195618E-07  0.3231296E+04  0.7818609E-02  0.8180601E-01
        2   -1    0    0  501    0  0.00000000000E+00  0.00000000000E+00  0.20640061968E+04  0.20640061968E+04  0.25500000920E-02 0.  1.
       -2   -1    0    0    0  501  0.00000000000E+00  0.00000000000E+00 -0.12646851836E+04  0.12646851836E+04  0.25500000920E-02 0. -1.
    10030    2    1    2    0    0  0.00000000000E+00  0.00000000000E+00  0.79932101315E+03  0.33286913804E+04  0.32312957500E+04 0.  0.
        1    1    3    3  502    0 -0.89456519474E+02 -0.44076615258E+03 -0.11988987558E+04  0.12804825250E+04  0.50400001928E-02 0. -1.
       -1    1    3    3    0  502  0.89456519474E+02  0.44076615258E+03  0.19982197690E+04  0.20482088554E+04  0.50400001928E-02 0.  1.
</event>
<event>
 5   0  0.2997105E-07  0.3189209E+04  0.7818609E-02  0.8191673E-01
        1   -1    0    0  501    0  0.00000000000E+00  0.00000000000E+00  0.17425128306E+04  0.17425128306E+04  0.50400001928E-02 0.  1.
       -1   -1    0    0    0  501  0.00000000000E+00  0.00000000000E+00 -0.14592508512E+04  0.14592508512E+04  0.50400001928E-02 0. -1.
    10030    2    1    2    0    0  0.00000000000E+00  0.00000000000E+00  0.28326197937E+03  0.32017636818E+04  0.31892088870E+04 0.  0.
        3    1    3    3  502    0  0.65244144706E+03 -0.40627996629E+03 -0.12610162052E+04  0.14767887908E+04  0.10100000352E+00 0. -1.
       -3    1    3    3    0  502 -0.65244144706E+03  0.40627996629E+03  0.15442781845E+04  0.17249748909E+04  0.10100000352E+00 0.  1.
</event>
<event>
 5   0  0.2783875E-07  0.3190205E+04  0.7818609E-02  0.8191409E-01
       -1   -1    0    0    0  501  0.00000000000E+00  0.00000000000E+00  0.10472948622E+04  0.10472948622E+04  0.50400001928E-02 0.  1.
        1   -1    0    0  501    0  0.00000000000E+00  0.00000000000E+00 -0.24294518360E+04  0.24294518360E+04  0.50400001928E-02 0. -1.
    10030    2    1    2    0    0  0.00000000000E+00  0.00000000000E+00 -0.13821569738E+04  0.34767466982E+04  0.31902052760E+04 0.  0.
        2    1    3    3  502    0 -0.42594863291E+03 -0.19804071164E+03  0.97020771106E+03  0.10779403341E+04  0.25500000920E-02 0.  1.
       -2    1    3    3    0  502  0.42594863291E+03  0.19804071164E+03 -0.23523646849E+04  0.23988063640E+04  0.25500000920E-02 0. -1.
</event>
<event>
 5   0  0.8195618E-07  0.3213264E+04  0.7818609E-02  0.8185323E-01
        2   -1    0    0  501    0  0.00000000000E+00  0.00000000000E+00  0.16987262062E+04  0.16987262062E+04  0.25500000920E-02 0.  1.
       -2   -1    0    0    0  501  0.00000000000E+00  0.00000000000E+00 -0.15195303826E+04  0.15195303826E+04  0.25500000920E-02 0. -1.
    10030    2    1    2    0    0  0.00000000000E+00  0.00000000000E+00  0.17919582367E+03  0.32182565888E+04  0.32132638124E+04 0.  0.
        1    1    3    3  502    0  0.23129653972E+03  0.11707242779E+04  0.11669889673E+04  0.16691185321E+04  0.50400001928E-02 0.  1.
       -1    1    3    3    0  502 -0.23129653972E+03 -0.11707242779E+04 -0.98779314362E+03  0.15491380567E+04  0.50400001928E-02 0. -1.
</event>
<event>
 5   0  0.8488469E-07  0.3164834E+04  0.7818609E-02  0.8198167E-01
       -2   -1    0    0    0  501  0.00000000000E+00  0.00000000000E+00  0.11495538756E+04  0.11495538756E+04  0.25500000920E-02 0.  1.
        2   -1    0    0  501    0  0.00000000000E+00  0.00000000000E+00 -0.21782740393E+04  0.21782740393E+04  0.25500000920E-02 0. -1.
    10030    2    1    2    0    0  0.00000000000E+00  0.00000000000E+00 -0.10287201637E+04  0.33278279149E+04  0.31648338750E+04 0.  0.
        3    1    3    3  502    0  0.11694001510E+04  0.45106734059E+03 -0.15300719371E+04  0.19778975205E+04  0.10100000352E+00 0. -1.
       -3    1    3    3    0  502 -0.11694001510E+04 -0.45106734059E+03  0.50135177338E+03  0.13499303944E+04  0.10100000352E+00 0.  1.
</event>
<event>
 5   0  0.8195618E-07  0.3205344E+04  0.7818609E-02  0.8187407E-01
       -2   -1    0    0    0  501  0.00000000000E+00  0.00000000000E+00  0.10480584594E+04  0.10480584594E+04  0.25500000920E-02 0.  1.
        2   -1    0    0  501    0  0.00000000000E+00  0.00000000000E+00 -0.24507774727E+04  0.24507774727E+04  0.25500000920E-02 0. -1.
    10030    2    1    2    0    0  0.00000000000E+00  0.00000000000E+00 -0.14027190133E+04  0.34988359321E+04  0.32053443262E+04 0.  0.
        1    1    3    3  502    0 -0.13226423935E+04 -0.80881837830E+03 -0.25798057023E+03  0.15716628280E+04  0.50400001928E-02 0.  1.
       -1    1    3    3    0  502  0.13226423935E+04  0.80881837830E+03 -0.11447384431E+04  0.19271731041E+04  0.50400001928E-02 0. -1.
</event>
<event>
 5   0  0.8488469E-07  0.3196464E+04  0.7818609E-02  0.8189752E-01
        2   -1    0    0  501    0  0.00000000000E+00  0.00000000000E+00  0.24436339601E+04  0.24436339601E+04  0.25500000920E-02 0.  1.
       -2   -1    0    0    0  501  0.00000000000E+00  0.00000000000E+00 -0.10453059078E+04  0.10453059078E+04  0.25500000920E-02 0. -1.
    10030    2    1    2    0    0  0.00000000000E+00  0.00000000000E+00  0.13983280523E+04  0.34889398679E+04  0.31964636804E+04 0.  0.
        3    1    3    3  502    0  0.12924543827E+04  0.84019440010E+03  0.11596425336E+04  0.19290245663E+04  0.10100000352E+00 0.  1.
       -3    1    3    3    0  502 -0.12924543827E+04 -0.84019440010E+03  0.23868551873E+03  0.15599153017E+04  0.10100000352E+00 0. -1.
</event>
<event>
 5   0  0.8838951E-07  0.3199043E+04  0.7818609E-02  0.8189070E-01
       -2   -1    0    0    0  501  0.00000000000E+00  0.00000000000E+00  0.16940186885E+04  0.16940186885E+04  0.25500000920E-02 0.  1.
        2   -1    0    0  501    0  0.00000000000E+00  0.00000000000E+00 -0.15102960435E+04  0.15102960435E+04  0.25500000920E-02 0. -1.
    10030    2    1    2    0    0  0.00000000000E+00  0.00000000000E+00  0.18372264503E+03  0.32043147320E+04  0.31990434338E+04 0.  0.
        2    1    3    3  502    0 -0.10972616819E+04 -0.54458865920E+03 -0.93838087210E+03  0.15430873817E+04  0.25500000920E-02 0. -1.
       -2    1    3    3    0  502  0.10972616819E+04  0.54458865920E+03  0.11221035171E+04  0.16612273503E+04  0.25500000920E-02 0.  1.
</event>
<event>
 5   0  0.8195618E-07  0.3209242E+04  0.7818609E-02  0.8186381E-01
       -2   -1    0    0    0  501  0.00000000000E+00  0.00000000000E+00  0.15360430137E+04  0.15360430137E+04  0.25500000920E-02 0. -1.
        2   -1    0    0  501    0  0.00000000000E+00  0.00000000000E+00 -0.16762609960E+04  0.16762609960E+04  0.25500000920E-02 0.  1.
    10030    2    1    2    0    0  0.00000000000E+00  0.00000000000E+00 -0.14021798232E+03  0.32123040097E+04  0.32092422733E+04 0.  0.
        1    1    3    3  502    0  0.13349138584E+04  0.63694027980E+02 -0.95907624511E+03  0.16449556780E+04  0.50400001928E-02 0.  1.
       -1    1    3    3    0  502 -0.13349138584E+04 -0.63694027980E+02  0.81885826279E+03  0.15673483318E+04  0.50400001928E-02 0. -1.
</event>
<event>
 5   0  0.3075756E-07  0.3193897E+04  0.7818609E-02  0.8190431E-01
        1   -1    0    0  501    0  0.00000000000E+00  0.00000000000E+00  0.22283517487E+04  0.22283517487E+04  0.50400001928E-02 0. -1.
       -1   -1    0    0    0  501  0.00000000000E+00  0.00000000000E+00 -0.11444532797E+04  0.11444532797E+04  0.50400001928E-02 0.  1.
    10030    2    1    2    0    0  0.00000000000E+00  0.00000000000E+00  0.10838984690E+04  0.33728050284E+04  0.31938969721E+04 0.  0.
        5    1    3    3  502    0 -0.99376922913E+03  0.11639503737E+04  0.10234096939E+04  0.18411266238E+04  0.46999998093E+01 0. -1.
       -5    1    3    3    0  502  0.99376922913E+03 -0.11639503737E+04  0.60488775096E+02  0.15316784046E+04  0.46999998093E+01 0.  1.
</event>
<event>
 5   0  0.3075756E-07  0.3268310E+04  0.7818609E-02  0.8171006E-01
        1   -1    0    0  501    0  0.00000000000E+00  0.00000000000E+00  0.27491267909E+04  0.27491267909E+04  0.50400001928E-02 0.  1.
       -1   -1    0    0    0  501  0.00000000000E+00  0.00000000000E+00 -0.97138547931E+03  0.97138547933E+03  0.50400001928E-02 0. -1.
    10030    2    1    2    0    0  0.00000000000E+00  0.00000000000E+00  0.17777413116E+04  0.37205122702E+04  0.32683095603E+04 0.  0.
        5    1    3    3  502    0 -0.70127242371E+03  0.14738414908E+04  0.79746097839E+03  0.18165786122E+04  0.46999998093E+01 0.  1.
       -5    1    3    3    0  502  0.70127242371E+03 -0.14738414908E+04  0.98028033317E+03  0.19039336580E+04  0.46999998093E+01 0. -1.
</event>
<event>
 5   0  0.8838951E-07  0.3188868E+04  0.7818609E-02  0.8191763E-01
       -2   -1    0    0    0  501  0.00000000000E+00  0.00000000000E+00  0.14997204119E+04  0.14997204119E+04  0.25500000920E-02 0.  1.
        2   -1    0    0  501    0  0.00000000000E+00  0.00000000000E+00 -0.16951292365E+04  0.16951292365E+04  0.25500000920E-02 0. -1.
    10030    2    1    2    0    0  0.00000000000E+00  0.00000000000E+00 -0.19540882464E+03  0.31948496484E+04  0.31888680856E+04 0.  0.
        2    1    3    3  502    0  0.87855257300E+03 -0.13171162884E+04 -0.28665822431E+03  0.16089819384E+04  0.25500000920E-02 0. -1.
       -2    1    3    3    0  502 -0.87855257300E+03  0.13171162884E+04  0.91249399671E+02  0.15858677100E+04  0.25500000920E-02 0.  1.
</event>
<event>
 5   0  0.2997105E-07  0.3099032E+04  0.7818609E-02  0.8216004E-01
       -1   -1    0    0    0  501  0.00000000000E+00  0.00000000000E+00  0.16064688782E+04  0.16064688783E+04  0.50400001928E-02 0. -1.
        1   -1    0    0  501    0  0.00000000000E+00  0.00000000000E+00 -0.14945825072E+04  0.14945825072E+04  0.50400001928E-02 0.  1.
    10030    2    1    2    0    0  0.00000000000E+00  0.00000000000E+00  0.11188637108E+03  0.31010513854E+04  0.30990322901E+04 0.  0.
        3    1    3    3  502    0 -0.10301892458E+04  0.11247879652E+04  0.32918230224E+03  0.15603841986E+04  0.10100000352E+00 0.  1.
       -3    1    3    3    0  502  0.10301892458E+04 -0.11247879652E+04 -0.21729593116E+03  0.15406671869E+04  0.10100000352E+00 0. -1.
</event>
<event>
 5   0  0.3075756E-07  0.3185941E+04  0.7818609E-02  0.8192540E-01
        1   -1    0    0  501    0  0.00000000000E+00  0.00000000000E+00  0.24571830667E+04  0.24571830667E+04  0.50400001928E-02 0. -1.
       -1   -1    0    0    0  501  0.00000000000E+00  0.00000000000E+00 -0.10327086557E+04  0.10327086557E+04  0.50400001928E-02 0.  1.
    10030    2    1    2    0    0  0.00000000000E+00  0.00000000000E+00  0.14244744110E+04  0.34898917224E+04  0.31859405027E+04 0.  0.
        5    1    3    3  502    0  0.21893430117E+03 -0.11726371617E+04  0.18686652431E+04  0.22169668518E+04  0.46999998093E+01 0. -1.
       -5    1    3    3    0  502 -0.21893430117E+03  0.11726371617E+04 -0.44419083204E+03  0.12729248707E+04  0.46999998093E+01 0.  1.
</event>
<event>
 5   0  0.8802800E-07  0.3207362E+04  0.7818609E-02  0.8186876E-01
        2   -1    0    0  501    0  0.00000000000E+00  0.00000000000E+00  0.15202360883E+04  0.15202360884E+04  0.25500000920E-02 0. -1.
       -2   -1    0    0    0  501  0.00000000000E+00  0.00000000000E+00 -0.16917058278E+04  0.16917058278E+04  0.25500000920E-02 0.  1.
    10030    2    1    2    0    0  0.00000000000E+00  0.00000000000E+00 -0.17146973943E+03  0.32119419161E+04  0.32073616885E+04 0.  0.
        5    1    3    3  502    0 -0.12463381440E+04 -0.82869862354E+03  0.49099551112E+03  0.15751821671E+04  0.46999998093E+01 0. -1.
       -5    1    3    3    0  502  0.12463381440E+04  0.82869862354E+03 -0.66246525055E+03  0.16367597490E+04  0.46999998093E+01 0.  1.
</event>
<event>
 5   0  0.8488469E-07  0.3197427E+04  0.7818609E-02  0.8189497E-01
        2   -1    0    0  501    0  0.00000000000E+00  0.00000000000E+00  0.14508410117E+04  0.14508410117E+04  0.25500000920E-02 0.  1.
       -2   -1    0    0    0  501  0.00000000000E+00  0.00000000000E+00 -0.17616570863E+04  0.17616570863E+04  0.25500000920E-02 0. -1.
    10030    2    1    2    0    0  0.00000000000E+00  0.00000000000E+00 -0.31081607468E+03  0.32124980980E+04  0.31974266837E+04 0.  0.
        3    1    3    3  502    0 -0.47456463533E+03 -0.14189414461E+04  0.41052130022E+03  0.15514941729E+04  0.10100000352E+00 0.  1.
       -3    1    3    3    0  502  0.47456463533E+03  0.14189414461E+04 -0.72133737490E+03  0.16610039251E+04  0.10100000352E+00 0. -1.
</event>
<event>
 5   0  0.3075756E-07  0.3202657E+04  0.7818609E-02  0.8188116E-01
       -1   -1    0    0    0  501  0.00000000000E+00  0.00000000000E+00  0.15052186040E+04  0.15052186040E+04  0.50400001928E-02 0.  1.
        1   -1    0    0  501    0  0.00000000000E+00  0.00000000000E+00 -0.17035747848E+04  0.17035747848E+04  0.50400001928E-02 0. -1.
    10030    2    1    2    0    0  0.00000000000E+00  0.00000000000E+00 -0.19835618081E+03  0.32087933887E+04  0.32026566842E+04 0.  0.
        5    1    3    3  502    0  0.29550578885E+03  0.15643995519E+04 -0.27143990578E+03  0.16150453064E+04  0.46999998093E+01 0. -1.
       -5    1    3    3    0  502 -0.29550578885E+03 -0.15643995519E+04  0.73083724974E+02  0.15937480824E+04  0.46999998093E+01 0.  1.
</event>
<event>
 5   0  0.8838951E-07  0.3214338E+04  0.7818609E-02  0.8185041E-01
        2   -1    0    0  501    0  0.00000000000E+00  0.00000000000E+00  0.12010930662E+04  0.12010930662E+04  0.25500000920E-02 0.  1.
       -2   -1    0    0    0  501  0.00000000000E+00  0.00000000000E+00 -0.21505348677E+04  0.21505348677E+04  0.25500000920E-02 0. -1.
    10030    2    1    2    0    0  0.00000000000E+00  0.00000000000E+00 -0.94944180154E+03  0.33516279340E+04  0.32143382014E+04 0.  0.
        2    1    3    3  502    0  0.32635391773E+02 -0.14130630710E+04  0.32292299440E+03  0.14498591558E+04  0.25500000920E-02 0. -1.
       -2    1    3    3    0  502 -0.32635391773E+02  0.14130630710E+04 -0.12723647959E+04  0.19017687781E+04  0.25500000920E-02 0.  1.
</event>
<event>
 5   0  0.3013888E-07  0.3226422E+04  0.7818609E-02  0.8181874E-01
       -1   -1    0    0    0  501  0.00000000000E+00  0.00000000000E+00  0.98893620291E+03  0.98893620292E+03  0.50400001928E-02 0.  1.
        1   -1    0    0  501    0  0.00000000000E+00  0.00000000000E+00 -0.26315648222E+04  0.26315648222E+04  0.50400001928E-02 0. -1.
    10030    2    1    2    0    0  0.00000000000E+00  0.00000000000E+00 -0.16426286193E+04  0.36205010251E+04  0.32264219954E+04 0.  0.
        1    1    3    3  502    0  0.12357221992E+04 -0.14607343081E+03 -0.19734112247E+04  0.23329592072E+04  0.50400001928E-02 0. -1.
       -1    1    3    3    0  502 -0.12357221992E+04  0.14607343081E+03  0.33078260540E+03  0.12875418179E+04  0.50400001928E-02 0.  1.
</event>
<event>
 5   0  0.8195618E-07  0.3197723E+04  0.7818609E-02  0.8189419E-01
       -2   -1    0    0    0  501  0.00000000000E+00  0.00000000000E+00  0.12181464222E+04  0.12181464222E+04  0.25500000920E-02 0.  1.
        2   -1    0    0  501    0  0.00000000000E+00  0.00000000000E+00 -0.20985639090E+04  0.20985639090E+04  0.25500000920E-02 0. -1.
    10030    2    1    2    0    0  0.00000000000E+00  0.00000000000E+00 -0.88041748679E+03  0.33167103312E+04  0.31977230133E+04 0.  0.
        1    1    3    3  502    0 -0.11089932886E+04 -0.50255050828E+03  0.63466065151E+03  0.13730321446E+04  0.50400001928E-02 0. -1.
       -1    1    3    3    0  502  0.11089932886E+04  0.50255050828E+03 -0.15150781383E+04  0.19436781865E+04  0.50400001928E-02 0.  1.
</event>
<event>
 5   0  0.2783875E-07  0.3233029E+04  0.7818609E-02  0.8180148E-01
       -1   -1    0    0    0  501  0.00000000000E+00  0.00000000000E+00  0.18004238449E+04  0.18004238449E+04  0.50400001928E-02 0.  1.
        1   -1    0    0  501    0  0.00000000000E+00  0.00000000000E+00 -0.14513906648E+04  0.14513906648E+04  0.50400001928E-02 0. -1.
    10030    2    1    2    0    0  0.00000000000E+00  0.00000000000E+00  0.34903318012E+03  0.32518145098E+04  0.32330285252E+04 0.  0.
        2    1    3    3  502    0 -0.38346873369E+03 -0.15193496181E+04 -0.22483815451E+03  0.15830425539E+04  0.25500000920E-02 0. -1.
       -2    1    3    3    0  502  0.38346873369E+03  0.15193496181E+04  0.57387133463E+03  0.16687719558E+04  0.25500000920E-02 0.  1.
</event>
<event>
 5   0  0.2997105E-07  0.3041435E+04  0.7818609E-02  0.8231997E-01
        1   -1    0    0  501    0  0.00000000000E+00  0.00000000000E+00  0.14423406847E+04  0.14423406847E+04  0.50400001928E-02 0.  1.
       -1   -1    0    0    0  501  0.00000000000E+00  0.00000000000E+00 -0.16033532125E+04  0.16033532125E+04  0.50400001928E-02 0. -1.
    10030    2    1    2    0    0  0.00000000000E+00  0.00000000000E+00 -0.16101252774E+03  0.30456938972E+04  0.30414349050E+04 0.  0.
        3    1    3    3  502    0 -0.23360995702E+03 -0.11630450998E+04  0.87231656324E+03  0.14724753692E+04  0.10100000352E+00 0.  1.
       -3    1    3    3    0  502  0.23360995702E+03  0.11630450998E+04 -0.10333290910E+04  0.15732185280E+04  0.10100000352E+00 0. -1.
</event>
<event>
 5   0  0.3075756E-07  0.3183009E+04  0.7818609E-02  0.8193319E-01
       -1   -1    0    0    0  501  0.00000000000E+00  0.00000000000E+00  0.89656167274E+03  0.89656167275E+03  0.50400001928E-02 0.  1.
        1   -1    0    0  501    0  0.00000000000E+00  0.00000000000E+00 -0.28251119554E+04  0.28251119554E+04  0.50400001928E-02 0. -1.
    10030    2    1    2    0    0  0.00000000000E+00  0.00000000000E+00 -0.19285502827E+04  0.37216736282E+04  0.31830093311E+04 0.  0.
        5    1    3    3  502    0  0.11161096898E+04  0.82669957551E+03 -0.55780301639E+02  0.13900599124E+04  0.46999998093E+01 0.  1.
       -5    1    3    3    0  502 -0.11161096898E+04 -0.82669957551E+03 -0.18727699811E+04  0.23316137158E+04  0.46999998093E+01 0. -1.
</event>
<event>
 5   0  0.2783875E-07  0.3227182E+04  0.7818609E-02  0.8181675E-01
        1   -1    0    0  501    0  0.00000000000E+00  0.00000000000E+00  0.11543803244E+04  0.11543803244E+04  0.50400001928E-02 0.  1.
       -1   -1    0    0    0  501  0.00000000000E+00  0.00000000000E+00 -0.22554745179E+04  0.22554745179E+04  0.50400001928E-02 0. -1.
    10030    2    1    2    0    0  0.00000000000E+00  0.00000000000E+00 -0.11010941935E+04  0.34098548423E+04  0.32271816841E+04 0.  0.
        2    1    3    3  502    0  0.39136765924E+02 -0.51000093105E+03 -0.21675465992E+04  0.22270812503E+04  0.25500000920E-02 0. -1.
       -2    1    3    3    0  502 -0.39136765924E+02  0.51000093105E+03  0.10664524057E+04  0.11827735919E+04  0.25500000920E-02 0.  1.
</event>
<event>
 5   0  0.8335929E-07  0.3197283E+04  0.7818609E-02  0.8189535E-01
       -2   -1    0    0    0  501  0.00000000000E+00  0.00000000000E+00  0.13424957748E+04  0.13424957748E+04  0.25500000920E-02 0.  1.
        2   -1    0    0  501    0  0.00000000000E+00  0.00000000000E+00 -0.19036590043E+04  0.19036590043E+04  0.25500000920E-02 0. -1.
    10030    2    1    2    0    0  0.00000000000E+00  0.00000000000E+00 -0.56116322949E+03  0.32461547791E+04  0.31972827025E+04 0.  0.
        4    1    3    3  502    0 -0.11251960918E+04 -0.54119265413E+03  0.73302566821E+03  0.14478549572E+04  0.12699999809E+01 0.  1.
       -4    1    3    3    0  502  0.11251960918E+04  0.54119265413E+03 -0.12941888977E+04  0.17982998220E+04  0.12699999809E+01 0. -1.
</event>
<event>
 5   0  0.2891204E-07  0.3224195E+04  0.7818609E-02  0.8182456E-01
       -1   -1    0    0    0  501  0.00000000000E+00  0.00000000000E+00  0.14281944452E+04  0.14281944452E+04  0.50400001928E-02 0.  1.
        1   -1    0    0  501    0  0.00000000000E+00  0.00000000000E+00 -0.18196812517E+04  0.18196812517E+04  0.50400001928E-02 0. -1.
    10030    2    1    2    0    0  0.00000000000E+00  0.00000000000E+00 -0.39148680656E+03  0.32478756969E+04  0.32241951900E+04 0.  0.
        4    1    3    3  502    0 -0.70588265503E+03 -0.20631242334E+03 -0.16408606035E+04  0.17981268786E+04  0.12699999809E+01 0. -1.
       -4    1    3    3    0  502  0.70588265503E+03  0.20631242334E+03  0.12493737969E+04  0.14497488183E+04  0.12699999809E+01 0.  1.
</event>
<event>
 5   0  0.3075756E-07  0.3204410E+04  0.7818609E-02  0.8187653E-01
       -1   -1    0    0    0  501  0.00000000000E+00  0.00000000000E+00  0.14471811019E+04  0.14471811019E+04  0.50400001928E-02 0. -1.
        1   -1    0    0  501    0  0.00000000000E+00  0.00000000000E+00 -0.17738354035E+04  0.17738354035E+04  0.50400001928E-02 0.  1.
    10030    2    1    2    0    0  0.00000000000E+00  0.00000000000E+00 -0.32665430161E+03  0.32210165054E+04  0.32044101321E+04 0.  0.
        5    1    3    3  502    0 -0.92271500902E+03  0.10078305570E+04  0.67761681583E+03  0.15252252485E+04  0.46999998093E+01 0.  1.
       -5    1    3    3    0  502  0.92271500902E+03 -0.10078305570E+04 -0.10042711174E+04  0.16957912569E+04  0.46999998093E+01 0. -1.
</event>
<event>
 5   0  0.2783875E-07  0.3201525E+04  0.7818609E-02  0.8188414E-01
        1   -1    0    0  501    0  0.00000000000E+00  0.00000000000E+00  0.14059433217E+04  0.14059433217E+04  0.50400001928E-02 0.  1.
       -1   -1    0    0    0  501  0.00000000000E+00  0.00000000000E+00 -0.18225779314E+04  0.18225779314E+04  0.50400001928E-02 0. -1.
    10030    2    1    2    0    0  0.00000000000E+00  0.00000000000E+00 -0.41663460965E+03  0.32285212531E+04  0.32015254307E+04 0.  0.
        2    1    3    3  502    0 -0.17721656722E+03  0.10448505655E+04  0.10015167488E+04  0.14581338121E+04  0.25500000920E-02 0.  1.
       -2    1    3    3    0  502  0.17721656722E+03 -0.10448505655E+04 -0.14181513584E+04  0.17703874410E+04  0.25500000920E-02 0. -1.
</event>
<event>
 5   0  0.8195618E-07  0.3150702E+04  0.7818609E-02  0.8201959E-01
       -2   -1    0    0    0  501  0.00000000000E+00  0.00000000000E+00  0.32837885195E+04  0.32837885195E+04  0.25500000920E-02 0. -1.
        2   -1    0    0  501    0  0.00000000000E+00  0.00000000000E+00 -0.75575223706E+03  0.75575223707E+03  0.25500000920E-02 0.  1.
    10030    2    1    2    0    0  0.00000000000E+00  0.00000000000E+00  0.25280362824E+04  0.40395407565E+04  0.31507018390E+04 0.  0.
        1    1    3    3  502    0  0.58776426218E+03 -0.30426195761E+03 -0.56885337770E+03  0.87271778491E+03  0.50400001928E-02 0.  1.
       -1    1    3    3    0  502 -0.58776426218E+03  0.30426195761E+03  0.30968896601E+04  0.31668229716E+04  0.50400001928E-02 0. -1.
</event>
<event>
 5   0  0.8488469E-07  0.3207055E+04  0.7818609E-02  0.8186956E-01
        2   -1    0    0  501    0  0.00000000000E+00  0.00000000000E+00  0.13071582667E+04  0.13071582667E+04  0.25500000920E-02 0.  1.
       -2   -1    0    0    0  501  0.00000000000E+00  0.00000000000E+00 -0.19670917001E+04  0.19670917001E+04  0.25500000920E-02 0. -1.
    10030    2    1    2    0    0  0.00000000000E+00  0.00000000000E+00 -0.65993343331E+03  0.32742499668E+04  0.32070548341E+04 0.  0.
        3    1    3    3  502    0 -0.12513365425E+03  0.15979580540E+04 -0.28238778684E+03  0.16275353287E+04  0.10100000352E+00 0. -1.
       -3    1    3    3    0  502  0.12513365425E+03 -0.15979580540E+04 -0.37754564647E+03  0.16467146381E+04  0.10100000352E+00 0.  1.
</event>
<event>
 5   0  0.8488469E-07  0.3202068E+04  0.7818609E-02  0.8188271E-01
       -2   -1    0    0    0  501  0.00000000000E+00  0.00000000000E+00  0.10643878612E+04  0.10643878612E+04  0.25500000920E-02 0. -1.
        2   -1    0    0  501    0  0.00000000000E+00  0.00000000000E+00 -0.24082480097E+04  0.24082480097E+04  0.25500000920E-02 0.  1.
    10030    2    1    2    0    0  0.00000000000E+00  0.00000000000E+00 -0.13438601485E+04  0.34726358708E+04  0.32020680493E+04 0.  0.
        3    1    3    3  502    0  0.46198463191E+03  0.15319272043E+04 -0.61175091197E+03  0.17130294649E+04  0.10100000352E+00 0.  1.
       -3    1    3    3    0  502 -0.46198463191E+03 -0.15319272043E+04 -0.73210923652E+03  0.17596064059E+04  0.10100000352E+00 0. -1.
</event>
<event>
 5   0  0.2891204E-07  0.3221434E+04  0.7818609E-02  0.8183179E-01
       -1   -1    0    0    0  501  0.00000000000E+00  0.00000000000E+00  0.24795259578E+04  0.24795259578E+04  0.50400001928E-02 0.  1.
        1   -1    0    0  501    0  0.00000000000E+00  0.00000000000E+00 -0.10463329481E+04  0.10463329481E+04  0.50400001928E-02 0. -1.
    10030    2    1    2    0    0  0.00000000000E+00  0.00000000000E+00  0.14331930097E+04  0.35258589059E+04  0.32214342801E+04 0.  0.
        4    1    3    3  502    0  0.10978042346E+04  0.81005370170E+03 -0.22049402819E+03  0.13820203930E+04  0.12699999809E+01 0. -1.
       -4    1    3    3    0  502 -0.10978042346E+04 -0.81005370170E+03  0.16536870379E+04  0.21438385129E+04  0.12699999809E+01 0.  1.
</event>
<event>
 5   0  0.8195618E-07  0.3203122E+04  0.7818609E-02  0.8187993E-01
       -2   -1    0    0    0  501  0.00000000000E+00  0.00000000000E+00  0.16441944549E+04  0.16441944549E+04  0.25500000920E-02 0. -1.
        2   -1    0    0  501    0  0.00000000000E+00  0.00000000000E+00 -0.15600332487E+04  0.15600332487E+04  0.25500000920E-02 0.  1.
    10030    2    1    2    0    0  0.00000000000E+00  0.00000000000E+00  0.84161206136E+02  0.32042277036E+04  0.32031222374E+04 0.  0.
        1    1    3    3  502    0  0.44038491002E+03 -0.10692434909E+04  0.11505142348E+04  0.16312276102E+04  0.50400001928E-02 0. -1.
       -1    1    3    3    0  502 -0.44038491002E+03  0.10692434909E+04 -0.10663530287E+04  0.15730000933E+04  0.50400001928E-02 0.  1.
</event>
<event>
 5   0  0.2783875E-07  0.3206105E+04  0.7818609E-02  0.8187207E-01
       -1   -1    0    0    0  501  0.00000000000E+00  0.00000000000E+00  0.18024447859E+04  0.18024447860E+04  0.50400001928E-02 0. -1.
        1   -1    0    0  501    0  0.00000000000E+00  0.00000000000E+00 -0.14257176502E+04  0.14257176502E+04  0.50400001928E-02 0.  1.
    10030    2    1    2    0    0  0.00000000000E+00  0.00000000000E+00  0.37672713580E+03  0.32281624361E+04  0.32061050169E+04 0.  0.
        2    1    3    3  502    0  0.69073991576E+03 -0.13626133746E+04 -0.30071528879E+03  0.15570056277E+04  0.25500000920E-02 0.  1.
       -2    1    3    3    0  502 -0.69073991576E+03  0.13626133746E+04  0.67744242458E+03  0.16711568084E+04  0.25500000920E-02 0. -1.
</event>
<event>
 5   0  0.3013888E-07  0.3209173E+04  0.7818609E-02  0.8186399E-01
        1   -1    0    0  501    0  0.00000000000E+00  0.00000000000E+00  0.80501712508E+03  0.80501712510E+03  0.50400001928E-02 0.  1.
       -1   -1    0    0    0  501  0.00000000000E+00  0.00000000000E+00 -0.31983134700E+04  0.31983134700E+04  0.50400001928E-02 0. -1.
    10030    2    1    2    0    0  0.00000000000E+00  0.00000000000E+00 -0.23932963449E+04  0.40033305951E+04  0.32091725505E+04 0.  0.
        1    1    3    3  502    0 -0.44668341287E+03  0.45744887420E+03  0.63925066788E+03  0.90411667402E+03  0.50400001928E-02 0.  1.
       -1    1    3    3    0  502  0.44668341287E+03 -0.45744887420E+03 -0.30325470128E+04  0.30992139211E+04  0.50400001928E-02 0. -1.
</event>
<event>
 5   0  0.3075756E-07  0.3230061E+04  0.7818609E-02  0.8180923E-01
       -1   -1    0    0    0  501  0.00000000000E+00  0.00000000000E+00  0.23300382350E+04  0.23300382350E+04  0.50400001928E-02 0.  1.
        1   -1    0    0  501    0  0.00000000000E+00  0.00000000000E+00 -0.11194339466E+04  0.11194339466E+04  0.50400001928E-02 0. -1.
    10030    2    1    2    0    0  0.00000000000E+00  0.00000000000E+00  0.12106042884E+04  0.34494721816E+04  0.32300612360E+04 0.  0.
        5    1    3    3  502    0  0.13856505209E+04  0.59586695613E+03 -0.11158667333E+02  0.15083870197E+04  0.46999998093E+01 0.  1.
       -5    1    3    3    0  502 -0.13856505209E+04 -0.59586695613E+03  0.12217629558E+04  0.19410851619E+04  0.46999998093E+01 0. -1.
</event>
<event>
 5   0  0.8838951E-07  0.3214775E+04  0.7818609E-02  0.8184926E-01
        2   -1    0    0  501    0  0.00000000000E+00  0.00000000000E+00  0.93213165860E+03  0.93213165861E+03  0.25500000920E-02 0.  1.
       -2   -1    0    0    0  501  0.00000000000E+00  0.00000000000E+00 -0.27718130539E+04  0.27718130539E+04  0.25500000920E-02 0. -1.
    10030    2    1    2    0    0  0.00000000000E+00  0.00000000000E+00 -0.18396813953E+04  0.37039447126E+04  0.32147750772E+04 0.  0.
        2    1    3    3  502    0  0.15669524078E+04  0.23143232098E+03 -0.60474165431E+03  0.16954684415E+04  0.25500000920E-02 0.  1.
       -2    1    3    3    0  502 -0.15669524078E+04 -0.23143232098E+03 -0.12349397410E+04  0.20084762711E+04  0.25500000920E-02 0. -1.
</event>
<event>
 5   0  0.8195618E-07  0.3207160E+04  0.7818609E-02  0.8186929E-01
        2   -1    0    0  501    0  0.00000000000E+00  0.00000000000E+00  0.13814143456E+04  0.13814143456E+04  0.25500000920E-02 0.  1.
       -2   -1    0    0    0  501  0.00000000000E+00  0.00000000000E+00 -0.18614748600E+04  0.18614748600E+04  0.25500000920E-02 0. -1.
    10030    2    1    2    0    0  0.00000000000E+00  0.00000000000E+00 -0.48006051435E+03  0.32428892056E+04  0.32071595380E+04 0.  0.
        1    1    3    3  502    0 -0.16019104359E+03 -0.15952965776E+04 -0.21079911643E+03  0.16171173762E+04  0.50400001928E-02 0. -1.
       -1    1    3    3    0  502  0.16019104359E+03  0.15952965776E+04 -0.26926139792E+03  0.16257718294E+04  0.50400001928E-02 0.  1.
</event>
<event>
 5   0  0.8488469E-07  0.3200776E+04  0.7818609E-02  0.8188612E-01
        2   -1    0    0  501    0  0.00000000000E+00  0.00000000000E+00  0.16402075868E+04  0.16402075868E+04  0.25500000920E-02 0. -1.
       -2   -1    0    0    0  501  0.00000000000E+00  0.00000000000E+00 -0.15615347359E+04  0.15615347359E+04  0.25500000920E-02 0.  1.
    10030    2    1    2    0    0  0.00000000000E+00  0.00000000000E+00  0.78672850853E+02  0.32017423227E+04  0.32007756066E+04 0.  0.
        3    1    3    3  502    0 -0.66815416527E+03  0.66543198069E+03  0.13327897621E+04  0.16326537507E+04  0.10100000352E+00 0. -1.
       -3    1    3    3    0  502  0.66815416527E+03 -0.66543198069E+03 -0.12541169113E+04  0.15690885720E+04  0.10100000352E+00 0.  1.
</event>
<event>
 5   0  0.2783875E-07  0.3190065E+04  0.7818609E-02  0.8191446E-01
       -3   -1    0    0    0  501  0.00000000000E+00  0.00000000000E+00  0.71651965698E+03  0.71651966409E+03  0.10100000352E+00 0.  1.
        3   -1    0    0  501    0  0.00000000000E+00  0.00000000000E+00 -0.35506749704E+04  0.35506749718E+04  0.10100000352E+00 0. -1.
    10030    2    1    2    0    0  0.00000000000E+00  0.00000000000E+00 -0.28341553134E+04  0.42671946359E+04  0.31900648458E+04 0.  0.
        3    1    3    3  502    0  0.15092291929E+03  0.88089234099E+03  0.35013112551E+03  0.95986502136E+03  0.10100000352E+00 0.  1.
       -3    1    3    3    0  502 -0.15092291929E+03 -0.88089234099E+03 -0.31842864389E+04  0.33073296145E+04  0.10100000352E+00 0. -1.
</event>
<event>
 5   0  0.2783875E-07  0.3198203E+04  0.7818609E-02  0.8189292E-01
       -4   -1    0    0    0  501  0.00000000000E+00  0.00000000000E+00  0.17711076025E+04  0.17711080579E+04  0.12699999809E+01 0. -1.
        4   -1    0    0  501    0  0.00000000000E+00  0.00000000000E+00 -0.14437992205E+04  0.14437997791E+04  0.12699999809E+01 0.  1.
    10030    2    1    2    0    0  0.00000000000E+00  0.00000000000E+00  0.32730838200E+03  0.32149078369E+04  0.31982028740E+04 0.  0.
        5    1    3    3  502    0  0.75183047359E+03  0.89463352003E+03  0.12609073240E+04  0.17191647873E+04  0.46999998093E+01 0. -1.
       -5    1    3    3    0  502 -0.75183047359E+03 -0.89463352003E+03 -0.93359894197E+03  0.14957430497E+04  0.46999998093E+01 0.  1.
</event>
<event>
 5   0  0.8335929E-07  0.3198565E+04  0.7818609E-02  0.8189196E-01
        2   -1    0    0  501    0  0.00000000000E+00  0.00000000000E+00  0.23895539610E+04  0.23895539610E+04  0.25500000920E-02 0. -1.
       -2   -1    0    0    0  501  0.00000000000E+00  0.00000000000E+00 -0.10703691443E+04  0.10703691443E+04  0.25500000920E-02 0.  1.
    10030    2    1    2    0    0  0.00000000000E+00  0.00000000000E+00  0.13191848167E+04  0.34599231053E+04  0.31985651961E+04 0.  0.
        4    1    3    3  502    0  0.11139220689E+04  0.47994856283E+03 -0.46794807567E+03  0.13000576960E+04  0.12699999809E+01 0.  1.
       -4    1    3    3    0  502 -0.11139220689E+04 -0.47994856283E+03  0.17871328923E+04  0.21598654093E+04  0.12699999809E+01 0. -1.
</event>
<event>
 5   0  0.8195618E-07  0.3185377E+04  0.7818609E-02  0.8192690E-01
        2   -1    0    0  501    0  0.00000000000E+00  0.00000000000E+00  0.17836062293E+04  0.17836062293E+04  0.25500000920E-02 0. -1.
       -2   -1    0    0    0  501  0.00000000000E+00  0.00000000000E+00 -0.14222069187E+04  0.14222069187E+04  0.25500000920E-02 0.  1.
    10030    2    1    2    0    0  0.00000000000E+00  0.00000000000E+00  0.36139931066E+03  0.32058131480E+04  0.31853772897E+04 0.  0.
        1    1    3    3  502    0 -0.12626256356E+04 -0.93321885561E+03 -0.88478760798E+02  0.15725614199E+04  0.50400001928E-02 0.  1.
       -1    1    3    3    0  502  0.12626256356E+04  0.93321885561E+03  0.44987807146E+03  0.16332517281E+04  0.50400001928E-02 0. -1.
</event>
<event>
 5   0  0.3013888E-07  0.3184537E+04  0.7818609E-02  0.8192913E-01
        1   -1    0    0  501    0  0.00000000000E+00  0.00000000000E+00  0.20593043628E+04  0.20593043628E+04  0.50400001928E-02 0.  1.
       -1   -1    0    0    0  501  0.00000000000E+00  0.00000000000E+00 -0.12311532475E+04  0.12311532475E+04  0.50400001928E-02 0. -1.
    10030    2    1    2    0    0  0.00000000000E+00  0.00000000000E+00  0.82815111536E+03  0.32904576103E+04  0.31845371745E+04 0.  0.
        1    1    3    3  502    0  0.15811833022E+04  0.79722293008E+02  0.23865544842E+03  0.16010786059E+04  0.50400001928E-02 0. -1.
       -1    1    3    3    0  502 -0.15811833022E+04 -0.79722293008E+02  0.58949566694E+03  0.16893790044E+04  0.50400001928E-02 0.  1.
</event>
<event>
 5   0  0.3075756E-07  0.3201753E+04  0.7818609E-02  0.8188354E-01
        1   -1    0    0  501    0  0.00000000000E+00  0.00000000000E+00  0.17052812902E+04  0.17052812902E+04  0.50400001928E-02 0. -1.
       -1   -1    0    0    0  501  0.00000000000E+00  0.00000000000E+00 -0.15028638656E+04  0.15028638656E+04  0.50400001928E-02 0.  1.
    10030    2    1    2    0    0  0.00000000000E+00  0.00000000000E+00  0.20241742453E+03  0.32081451558E+04  0.32017530397E+04 0.  0.
        5    1    3    3  502    0 -0.11690098797E+04  0.11598447396E+03  0.11909216709E+04  0.16728278492E+04  0.46999998093E+01 0. -1.
       -5    1    3    3    0  502  0.11690098797E+04 -0.11598447396E+03 -0.98850424634E+03  0.15353173066E+04  0.46999998093E+01 0.  1.
</event>
<event>
 5   0  0.8802800E-07  0.3186984E+04  0.7818609E-02  0.8192263E-01
       -2   -1    0    0    0  501  0.00000000000E+00  0.00000000000E+00  0.12901273349E+04  0.12901273349E+04  0.25500000920E-02 0.  1.
        2   -1    0    0  501    0  0.00000000000E+00  0.00000000000E+00 -0.19681913045E+04  0.19681913045E+04  0.25500000920E-02 0. -1.
    10030    2    1    2    0    0  0.00000000000E+00  0.00000000000E+00 -0.67806396959E+03  0.32583186394E+04  0.31869844067E+04 0.  0.
        5    1    3    3  502    0 -0.69554281649E+03  0.11309485822E+04  0.56180915752E+03  0.14416921047E+04  0.46999998093E+01 0.  1.
       -5    1    3    3    0  502  0.69554281649E+03 -0.11309485822E+04 -0.12398731271E+04  0.18166265347E+04  0.46999998093E+01 0. -1.
</event>
<event>
 5   0  0.8802800E-07  0.3209978E+04  0.7818609E-02  0.8186187E-01
       -2   -1    0    0    0  501  0.00000000000E+00  0.00000000000E+00  0.25322141617E+04  0.25322141617E+04  0.25500000920E-02 0. -1.
        2   -1    0    0  501    0  0.00000000000E+00  0.00000000000E+00 -0.10172872580E+04  0.10172872580E+04  0.25500000920E-02 0.  1.
    10030    2    1    2    0    0  0.00000000000E+00  0.00000000000E+00  0.15149269037E+04  0.35495014198E+04  0.32099776955E+04 0.  0.
        5    1    3    3  502    0 -0.11713570316E+04  0.13347377913E+03 -0.44679952838E+03  0.12607713725E+04  0.46999998093E+01 0.  1.
       -5    1    3    3    0  502  0.11713570316E+04 -0.13347377913E+03  0.19617264321E+04  0.22887300473E+04  0.46999998093E+01 0. -1.
</event>
<event>
 5   0  0.8802800E-07  0.3184269E+04  0.7818609E-02  0.8192984E-01
        2   -1    0    0  501    0  0.00000000000E+00  0.00000000000E+00  0.21501666881E+04  0.21501666881E+04  0.25500000920E-02 0.  1.
       -2   -1    0    0    0  501  0.00000000000E+00  0.00000000000E+00 -0.11789282971E+04  0.11789282971E+04  0.25500000920E-02 0. -1.
    10030    2    1    2    0    0  0.00000000000E+00  0.00000000000E+00  0.97123839109E+03  0.33290949852E+04  0.31842690540E+04 0.  0.
        5    1    3    3  502    0 -0.84542687941E+03  0.87020853509E+03  0.15634599901E+04  0.19789994274E+04  0.46999998093E+01 0.  1.
       -5    1    3    3    0  502  0.84542687941E+03 -0.87020853509E+03 -0.59222159898E+03  0.13500955578E+04  0.46999998093E+01 0. -1.
</event>
<event>
 5   0  0.8335929E-07  0.3197977E+04  0.7818609E-02  0.8189352E-01
        2   -1    0    0  501    0  0.00000000000E+00  0.00000000000E+00  0.18259822833E+04  0.18259822833E+04  0.25500000920E-02 0. -1.
       -2   -1    0    0    0  501  0.00000000000E+00  0.00000000000E+00 -0.14002131145E+04  0.14002131146E+04  0.25500000920E-02 0.  1.
    10030    2    1    2    0    0  0.00000000000E+00  0.00000000000E+00  0.42576916871E+03  0.32261953978E+04  0.31979770731E+04 0.  0.
        4    1    3    3  502    0  0.14030665634E+04 -0.21046268068E+03  0.95686899208E+03  0.17112832034E+04  0.12699999809E+01 0. -1.
       -4    1    3    3    0  502 -0.14030665634E+04  0.21046268068E+03 -0.53109982336E+03  0.15149121944E+04  0.12699999809E+01 0.  1.
</event>
<event>
 5   0  0.8335929E-07  0.3213756E+04  0.7818609E-02  0.8185194E-01
       -2   -1    0    0    0  501  0.00000000000E+00  0.00000000000E+00  0.12712077537E+04  0.12712077537E+04  0.25500000920E-02 0.  1.
        2   -1    0    0  501    0  0.00000000000E+00  0.00000000000E+00 -0.20311845468E+04  0.20311845468E+04  0.25500000920E-02 0. -1.
    10030    2    1    2    0    0  0.00000000000E+00  0.00000000000E+00 -0.75997679304E+03  0.33023923005E+04  0.32137563972E+04 0.  0.
        4    1    3    3  502    0 -0.12561910098E+04  0.99685778243E+03 -0.48435048500E+03  0.16752129108E+04  0.12699999809E+01 0. -1.
       -4    1    3    3    0  502  0.12561910098E+04 -0.99685778243E+03 -0.27562630804E+03  0.16271793896E+04  0.12699999809E+01 0.  1.
</event>
<event>
 5   0  0.3075756E-07  0.3193030E+04  0.7818609E-02  0.8190660E-01
        1   -1    0    0  501    0  0.00000000000E+00  0.00000000000E+00  0.21116516135E+04  0.21116516135E+04  0.50400001928E-02 0. -1.
       -1   -1    0    0    0  501  0.00000000000E+00  0.00000000000E+00 -0.12070459948E+04  0.12070459948E+04  0.50400001928E-02 0.  1.
    10030    2    1    2    0    0  0.00000000000E+00  0.00000000000E+00  0.90460561870E+03  0.33186976083E+04  0.31930302990E+04 0.  0.
        5    1    3    3  502    0  0.10936686556E+03  0.10654634741E+04  0.16828173733E+04  0.19947606192E+04  0.46999998093E+01 0. -1.
       -5    1    3    3    0  502 -0.10936686556E+03 -0.10654634741E+04 -0.77821175465E+03  0.13239369891E+04  0.46999998093E+01 0.  1.
</event>
<event>
 5   0  0.8488469E-07  0.3187903E+04  0.7818609E-02  0.8192019E-01
        2   -1    0    0  501    0  0.00000000000E+00  0.00000000000E+00  0.14189209137E+04  0.14189209137E+04  0.25500000920E-02 0.  1.
       -2   -1    0    0    0  501  0.00000000000E+00  0.00000000000E+00 -0.17905730795E+04  0.17905730795E+04  0.25500000920E-02 0. -1.
    10030    2    1    2    0    0  0.00000000000E+00  0.00000000000E+00 -0.37165216580E+03  0.32094939932E+04  0.31879031291E+04 0.  0.
        3    1    3    3  502    0  0.34193788262E+03  0.12366051396E+03 -0.17482608858E+04  0.17856734229E+04  0.10100000352E+00 0. -1.
       -3    1    3    3    0  502 -0.34193788262E+03 -0.12366051396E+03  0.13766087200E+04  0.14238205703E+04  0.10100000352E+00 0.  1.
</event>
<event>
 5   0  0.8838951E-07  0.3192484E+04  0.7818609E-02  0.8190805E-01
       -2   -1    0    0    0  501  0.00000000000E+00  0.00000000000E+00  0.15159380047E+04  0.15159380047E+04  0.25500000920E-02 0. -1.
        2   -1    0    0  501    0  0.00000000000E+00  0.00000000000E+00 -0.16807998479E+04  0.16807998479E+04  0.25500000920E-02 0.  1.
    10030    2    1    2    0    0  0.00000000000E+00  0.00000000000E+00 -0.16486184315E+03  0.31967378526E+04  0.31924839030E+04 0.  0.
        2    1    3    3  502    0  0.38534050761E+03 -0.11971521166E+04 -0.10667605559E+04  0.16491326753E+04  0.25500000920E-02 0.  1.
       -2    1    3    3    0  502 -0.38534050761E+03  0.11971521166E+04  0.90189871274E+03  0.15476051774E+04  0.25500000920E-02 0. -1.
</event>
<event>
 5   0  0.2997105E-07  0.3196707E+04  0.7818609E-02  0.8189687E-01
       -1   -1    0    0    0  501  0.00000000000E+00  0.00000000000E+00  0.25839228686E+04  0.25839228686E+04  0.50400001928E-02 0. -1.
        1   -1    0    0  501    0  0.00000000000E+00  0.00000000000E+00 -0.98870385349E+03  0.98870385350E+03  0.50400001928E-02 0.  1.
    10030    2    1    2    0    0  0.00000000000E+00  0.00000000000E+00  0.15952190151E+04  0.35726267221E+04  0.31967073668E+04 0.  0.
        3    1    3    3  502    0 -0.90329698948E+03 -0.31126418411E+03  0.22296608663E+04  0.24257408008E+04  0.10100000352E+00 0. -1.
       -3    1    3    3    0  502  0.90329698948E+03  0.31126418411E+03 -0.63444185128E+03  0.11468859213E+04  0.10100000352E+00 0.  1.
</event>
<event>
 5   0  0.8802800E-07  0.3196301E+04  0.7818609E-02  0.8189795E-01
       -2   -1    0    0    0  501  0.00000000000E+00  0.00000000000E+00  0.24371356369E+04  0.24371356369E+04  0.25500000920E-02 0.  1.
        2   -1    0    0  501    0  0.00000000000E+00  0.00000000000E+00 -0.10479861455E+04  0.10479861455E+04  0.25500000920E-02 0. -1.
    10030    2    1    2    0    0  0.00000000000E+00  0.00000000000E+00  0.13891494914E+04  0.34851217823E+04  0.31963006004E+04 0.  0.
        5    1    3    3  502    0 -0.71287599724E+03  0.13006389836E+04  0.13435075560E+04  0.20012217759E+04  0.46999998093E+01 0.  1.
       -5    1    3    3    0  502  0.71287599724E+03 -0.13006389836E+04  0.45641935380E+02  0.14839000065E+04  0.46999998093E+01 0. -1.
</event>
<event>
 5   0  0.8838951E-07  0.3179552E+04  0.7818609E-02  0.8194239E-01
       -2   -1    0    0    0  501  0.00000000000E+00  0.00000000000E+00  0.12533530469E+04  0.12533530469E+04  0.25500000920E-02 0.  1.
        2   -1    0    0  501    0  0.00000000000E+00  0.00000000000E+00 -0.20165004976E+04  0.20165004976E+04  0.25500000920E-02 0. -1.
    10030    2    1    2    0    0  0.00000000000E+00  0.00000000000E+00 -0.76314745069E+03  0.32698535445E+04  0.31795515676E+04 0.  0.
        2    1    3    3  502    0 -0.14750196992E+04  0.42684752211E+03 -0.80497663860E+03  0.17337443032E+04  0.25500000920E-02 0. -1.
       -2    1    3    3    0  502  0.14750196992E+04 -0.42684752211E+03  0.41829187909E+02  0.15361092413E+04  0.25500000920E-02 0.  1.
</event>
<event>
 5   0  0.3013888E-07  0.3203091E+04  0.7818609E-02  0.8188001E-01
       -1   -1    0    0    0  501  0.00000000000E+00  0.00000000000E+00  0.16058711727E+04  0.16058711727E+04  0.50400001928E-02 0.  1.
        1   -1    0    0  501    0  0.00000000000E+00  0.00000000000E+00 -0.15972317356E+04  0.15972317356E+04  0.50400001928E-02 0. -1.
    10030    2    1    2    0    0  0.00000000000E+00  0.00000000000E+00  0.86394370685E+01  0.32031029083E+04  0.32030912571E+04 0.  0.
        1    1    3    3  502    0 -0.85379256887E+02  0.87884324007E+03 -0.13318338393E+04  0.15979475691E+04  0.50400001928E-02 0. -1.
       -1    1    3    3    0  502  0.85379256887E+02 -0.87884324007E+03  0.13404732764E+04  0.16051553391E+04  0.50400001928E-02 0.  1.
</event>
<event>
 5   0  0.8802800E-07  0.3260087E+04  0.7818609E-02  0.8173126E-01
        2   -1    0    0  501    0  0.00000000000E+00  0.00000000000E+00  0.26389541496E+04  0.26389541496E+04  0.25500000920E-02 0.  1.
       -2   -1    0    0    0  501  0.00000000000E+00  0.00000000000E+00 -0.10068543116E+04  0.10068543116E+04  0.25500000920E-02 0. -1.
    10030    2    1    2    0    0  0.00000000000E+00  0.00000000000E+00  0.16320998381E+04  0.36458084612E+04  0.32600873385E+04 0.  0.
        5    1    3    3  502    0 -0.11384565243E+04  0.75250374632E+03  0.18129678872E+04  0.22691892375E+04  0.46999998093E+01 0.  1.
       -5    1    3    3    0  502  0.11384565243E+04 -0.75250374632E+03 -0.18086804912E+03  0.13766192237E+04  0.46999998093E+01 0. -1.
</event>
<event>
 5   0  0.8802800E-07  0.3204429E+04  0.7818609E-02  0.8187648E-01
        2   -1    0    0  501    0  0.00000000000E+00  0.00000000000E+00  0.28071972733E+04  0.28071972733E+04  0.25500000920E-02 0. -1.
       -2   -1    0    0    0  501  0.00000000000E+00  0.00000000000E+00 -0.91446791609E+03  0.91446791609E+03  0.25500000920E-02 0.  1.
    10030    2    1    2    0    0  0.00000000000E+00  0.00000000000E+00  0.18927293572E+04  0.37216651894E+04  0.32044293349E+04 0.  0.
        5    1    3    3  502    0 -0.11082314617E+04  0.49384798345E+03  0.21616969740E+04  0.24789148233E+04  0.46999998093E+01 0. -1.
       -5    1    3    3    0  502  0.11082314617E+04 -0.49384798345E+03 -0.26896761684E+03  0.12427503661E+04  0.46999998093E+01 0.  1.
</event>
<event>
 5   0  0.8488469E-07  0.3198997E+04  0.7818609E-02  0.8189082E-01
        2   -1    0    0  501    0  0.00000000000E+00  0.00000000000E+00  0.19029275215E+04  0.19029275215E+04  0.25500000920E-02 0. -1.
       -2   -1    0    0    0  501  0.00000000000E+00  0.00000000000E+00 -0.13444523542E+04  0.13444523542E+04  0.25500000920E-02 0.  1.
    10030    2    1    2    0    0  0.00000000000E+00  0.00000000000E+00  0.55847516729E+03  0.32473798757E+04  0.31989969591E+04 0.  0.
        3    1    3    3  502    0 -0.29899678474E+03 -0.15702036323E+04  0.21955334829E+03  0.16134256126E+04  0.10100000352E+00 0.  1.
       -3    1    3    3    0  502  0.29899678474E+03  0.15702036323E+04  0.33892181899E+03  0.16339542631E+04  0.10100000352E+00 0. -1.
</event>
<event>
 5   0  0.2783875E-07  0.3213742E+04  0.7818609E-02  0.8185197E-01
        1   -1    0    0  501    0  0.00000000000E+00  0.00000000000E+00  0.17705890558E+04  0.17705890558E+04  0.50400001928E-02 0. -1.
       -1   -1    0    0    0  501  0.00000000000E+00  0.00000000000E+00 -0.14582911775E+04  0.14582911775E+04  0.50400001928E-02 0.  1.
    10030    2    1    2    0    0  0.00000000000E+00  0.00000000000E+00  0.31229787827E+03  0.32288802332E+04  0.32137419927E+04 0.  0.
        2    1    3    3  502    0  0.29225500996E+03 -0.12605818370E+04  0.11132931291E+04  0.17070152752E+04  0.25500000920E-02 0. -1.
       -2    1    3    3    0  502 -0.29225500996E+03  0.12605818370E+04 -0.80099525081E+03  0.15218649580E+04  0.25500000920E-02 0.  1.
</event>
<event>
 5   0  0.3075756E-07  0.3200697E+04  0.7818609E-02  0.8188633E-01
       -1   -1    0    0    0  501  0.00000000000E+00  0.00000000000E+00  0.14029080692E+04  0.14029080692E+04  0.50400001928E-02 0. -1.
        1   -1    0    0  501    0  0.00000000000E+00  0.00000000000E+00 -0.18255759882E+04  0.18255759882E+04  0.50400001928E-02 0.  1.
    10030    2    1    2    0    0  0.00000000000E+00  0.00000000000E+00 -0.42266791904E+03  0.32284840574E+04  0.32006969771E+04 0.  0.
        5    1    3    3  502    0  0.24464829071E+02  0.15271296953E+04  0.27069507114E+03  0.15511355665E+04  0.46999998093E+01 0. -1.
       -5    1    3    3    0  502 -0.24464829071E+02 -0.15271296953E+04 -0.69336299018E+03  0.16773484910E+04  0.46999998093E+01 0.  1.
</event>
<event>
 5   0  0.8838951E-07  0.3220111E+04  0.7818609E-02  0.8183526E-01
        2   -1    0    0  501    0  0.00000000000E+00  0.00000000000E+00  0.22074767710E+04  0.22074767710E+04  0.25500000920E-02 0.  1.
       -2   -1    0    0    0  501  0.00000000000E+00  0.00000000000E+00 -0.11743174941E+04  0.11743174941E+04  0.25500000920E-02 0. -1.
    10030    2    1    2    0    0  0.00000000000E+00  0.00000000000E+00  0.10331592769E+04  0.33817942651E+04  0.32201109236E+04 0.  0.
        2    1    3    3  502    0 -0.16009886483E+03 -0.15379250271E+04  0.45230997304E+02  0.15468971778E+04  0.25500000920E-02 0. -1.
       -2    1    3    3    0  502  0.16009886483E+03  0.15379250271E+04  0.98792827959E+03  0.18348970873E+04  0.25500000920E-02 0.  1.
</event>
<event>
 5   0  0.8195618E-07  0.3203635E+04  0.7818609E-02  0.8187858E-01
       -2   -1    0    0    0  501  0.00000000000E+00  0.00000000000E+00  0.16466561686E+04  0.16466561686E+04  0.25500000920E-02 0. -1.
        2   -1    0    0  501    0  0.00000000000E+00  0.00000000000E+00 -0.15581997845E+04  0.15581997845E+04  0.25500000920E-02 0.  1.
    10030    2    1    2    0    0  0.00000000000E+00  0.00000000000E+00  0.88456384112E+02  0.32048559532E+04  0.32036349899E+04 0.  0.
        1    1    3    3  502    0 -0.50808684638E+03  0.10791876738E+04 -0.10253008755E+04  0.15729081868E+04  0.50400001928E-02 0.  1.
       -1    1    3    3    0  502  0.50808684638E+03 -0.10791876738E+04  0.11137572596E+04  0.16319477664E+04  0.50400001928E-02 0. -1.
</event>
<event>
 5   0  0.2783875E-07  0.3190620E+04  0.7818609E-02  0.8191299E-01
       -1   -1    0    0    0  501  0.00000000000E+00  0.00000000000E+00  0.20437703563E+04  0.20437703564E+04  0.50400001928E-02 0.  1.
        1   -1    0    0  501    0  0.00000000000E+00  0.00000000000E+00 -0.12452542273E+04  0.12452542273E+04  0.50400001928E-02 0. -1.
    10030    2    1    2    0    0  0.00000000000E+00  0.00000000000E+00  0.79851612901E+03  0.32890245837E+04  0.31906197993E+04 0.  0.
        2    1    3    3  502    0 -0.14493464307E+03 -0.10814303081E+04 -0.80047368395E+03  0.13532389592E+04  0.25500000920E-02 0. -1.
       -2    1    3    3    0  502  0.14493464307E+03  0.10814303081E+04  0.15989898130E+04  0.19357856245E+04  0.25500000920E-02 0.  1.
</event>
<event>
 5   0  0.2997105E-07  0.3179603E+04  0.7818609E-02  0.8194225E-01
       -1   -1    0    0    0  501  0.00000000000E+00  0.00000000000E+00  0.18446667933E+04  0.18446667933E+04  0.50400001928E-02 0. -1.
        1   -1    0    0  501    0  0.00000000000E+00  0.00000000000E+00 -0.13701493961E+04  0.13701493961E+04  0.50400001928E-02 0.  1.
    10030    2    1    2    0    0  0.00000000000E+00  0.00000000000E+00  0.47451739714E+03  0.32148161894E+04  0.31796031783E+04 0.  0.
        3    1    3    3  502    0  0.30528935946E+03  0.14475327876E+04 -0.35135377924E+03  0.15205269654E+04  0.10100000352E+00 0.  1.
       -3    1    3    3    0  502 -0.30528935946E+03 -0.14475327876E+04  0.82587117637E+03  0.16942892240E+04  0.10100000352E+00 0. -1.
</event>
<event>
 5   0  0.8838951E-07  0.3201300E+04  0.7818609E-02  0.8188474E-01
        2   -1    0    0  501    0  0.00000000000E+00  0.00000000000E+00  0.13134711670E+04  0.13134711670E+04  0.25500000920E-02 0. -1.
       -2   -1    0    0    0  501  0.00000000000E+00  0.00000000000E+00 -0.19506180326E+04  0.19506180326E+04  0.25500000920E-02 0.  1.
    10030    2    1    2    0    0  0.00000000000E+00  0.00000000000E+00 -0.63714686557E+03  0.32640891995E+04  0.32013000756E+04 0.  0.
        2    1    3    3  502    0  0.12838224607E+04  0.90416085362E+03 -0.20436076792E+01  0.15702583024E+04  0.25500000920E-02 0. -1.
       -2    1    3    3    0  502 -0.12838224607E+04 -0.90416085362E+03 -0.63510325789E+03  0.16938308971E+04  0.25500000920E-02 0.  1.
</event>
<event>
 5   0  0.3013888E-07  0.3238494E+04  0.7818609E-02  0.8178724E-01
       -1   -1    0    0    0  501  0.00000000000E+00  0.00000000000E+00  0.11543136385E+04  0.11543136385E+04  0.50400001928E-02 0. -1.
        1   -1    0    0  501    0  0.00000000000E+00  0.00000000000E+00 -0.22714459268E+04  0.22714459268E+04  0.50400001928E-02 0.  1.
    10030    2    1    2    0    0  0.00000000000E+00  0.00000000000E+00 -0.11171322883E+04  0.34257595653E+04  0.32384941021E+04 0.  0.
        1    1    3    3  502    0 -0.54415722884E+03  0.56905438486E+03 -0.20553158131E+04  0.22009663955E+04  0.50400001928E-02 0.  1.
       -1    1    3    3    0  502  0.54415722884E+03 -0.56905438486E+03  0.93818352473E+03  0.12247931698E+04  0.50400001928E-02 0. -1.
</event>
<event>
 5   0  0.3013888E-07  0.3265204E+04  0.7818609E-02  0.8171806E-01
       -1   -1    0    0    0  501  0.00000000000E+00  0.00000000000E+00  0.18077937899E+04  0.18077937899E+04  0.50400001928E-02 0.  1.
        1   -1    0    0  501    0  0.00000000000E+00  0.00000000000E+00 -0.14743877630E+04  0.14743877630E+04  0.50400001928E-02 0. -1.
    10030    2    1    2    0    0  0.00000000000E+00  0.00000000000E+00  0.33340602693E+03  0.32821815529E+04  0.32652038477E+04 0.  0.
        1    1    3    3  502    0  0.66711022729E+03 -0.42574902182E+03  0.16020952026E+04  0.17868988005E+04  0.50400001928E-02 0.  1.
       -1    1    3    3    0  502 -0.66711022729E+03  0.42574902182E+03 -0.12686891757E+04  0.14952827524E+04  0.50400001928E-02 0. -1.
</event>
<event>
 5   0  0.2783875E-07  0.3197695E+04  0.7818609E-02  0.8189426E-01
        1   -1    0    0  501    0  0.00000000000E+00  0.00000000000E+00  0.17286462566E+04  0.17286462566E+04  0.50400001928E-02 0.  1.
       -1   -1    0    0    0  501  0.00000000000E+00  0.00000000000E+00 -0.14787953405E+04  0.14787953405E+04  0.50400001928E-02 0. -1.
    10030    2    1    2    0    0  0.00000000000E+00  0.00000000000E+00  0.24985091605E+03  0.32074415971E+04  0.31976954387E+04 0.  0.
        2    1    3    3  502    0  0.29909660216E+03  0.82268150691E+02 -0.14483215366E+04  0.14811691664E+04  0.25500000920E-02 0. -1.
       -2    1    3    3    0  502 -0.29909660216E+03 -0.82268150691E+02  0.16981724527E+04  0.17262724307E+04  0.25500000920E-02 0.  1.
</event>
<event>
 5   0  0.8335929E-07  0.3241289E+04  0.7818609E-02  0.8177997E-01
       -2   -1    0    0    0  501  0.00000000000E+00  0.00000000000E+00  0.10432757388E+04  0.10432757388E+04  0.25500000920E-02 0.  1.
        2   -1    0    0  501    0  0.00000000000E+00  0.00000000000E+00 -0.25175397214E+04  0.25175397214E+04  0.25500000920E-02 0. -1.
    10030    2    1    2    0    0  0.00000000000E+00  0.00000000000E+00 -0.14742639826E+04  0.35608154601E+04  0.32412887022E+04 0.  0.
        4    1    3    3  502    0  0.10924795195E+04  0.84441040106E+03  0.19500927595E+03  0.13944786325E+04  0.12699999809E+01 0.  1.
       -4    1    3    3    0  502 -0.10924795195E+04 -0.84441040106E+03 -0.16692732585E+04  0.21663368276E+04  0.12699999809E+01 0. -1.
</event>
<event>
 5   0  0.8802800E-07  0.3199485E+04  0.7818609E-02  0.8188953E-01
        2   -1    0    0  501    0  0.00000000000E+00  0.00000000000E+00  0.18923747705E+04  0.18923747705E+04  0.25500000920E-02 0.  1.
       -2   -1    0    0    0  501  0.00000000000E+00  0.00000000000E+00 -0.13523625232E+04  0.13523625232E+04  0.25500000920E-02 0. -1.
    10030    2    1    2    0    0  0.00000000000E+00  0.00000000000E+00  0.54001224739E+03  0.32447372937E+04  0.31994854083E+04 0.  0.
        5    1    3    3  502    0  0.27947820656E+03  0.45719183566E+02  0.18667447951E+04  0.18881092478E+04  0.46999998093E+01 0.  1.
       -5    1    3    3    0  502 -0.27947820656E+03 -0.45719183566E+02 -0.13267325477E+04  0.13566280459E+04  0.46999998093E+01 0. -1.
</event>
<event>
 5   0  0.8335929E-07  0.3196729E+04  0.7818609E-02  0.8189682E-01
       -2   -1    0    0    0  501  0.00000000000E+00  0.00000000000E+00  0.27499901809E+04  0.27499901809E+04  0.25500000920E-02 0.  1.
        2   -1    0    0  501    0  0.00000000000E+00  0.00000000000E+00 -0.92901015705E+03  0.92901015706E+03  0.25500000920E-02 0. -1.
    10030    2    1    2    0    0  0.00000000000E+00  0.00000000000E+00  0.18209800239E+04  0.36790003380E+04  0.31967288342E+04 0.  0.
        4    1    3    3  502    0 -0.46399642681E+03 -0.14984953612E+04  0.55766773802E+03  0.16648651449E+04  0.12699999809E+01 0.  1.
       -4    1    3    3    0  502  0.46399642681E+03  0.14984953612E+04  0.12633122858E+04  0.20141351931E+04  0.12699999809E+01 0. -1.
</event>
<event>
 5   0  0.8195618E-07  0.3179787E+04  0.7818609E-02  0.8194176E-01
        2   -1    0    0  501    0  0.00000000000E+00  0.00000000000E+00  0.18301515753E+04  0.18301515753E+04  0.25500000920E-02 0.  1.
       -2   -1    0    0    0  501  0.00000000000E+00  0.00000000000E+00 -0.13811763534E+04  0.13811763534E+04  0.25500000920E-02 0. -1.
    10030    2    1    2    0    0  0.00000000000E+00  0.00000000000E+00  0.44897522192E+03  0.32113279286E+04  0.31797874639E+04 0.  0.
        1    1    3    3  502    0 -0.69380025900E+03 -0.98895665325E+03 -0.81938379826E+03  0.14597204768E+04  0.50400001928E-02 0. -1.
       -1    1    3    3    0  502  0.69380025900E+03  0.98895665325E+03  0.12683590202E+04  0.17516074519E+04  0.50400001928E-02 0.  1.
</event>
<event>
 5   0  0.8802800E-07  0.3206085E+04  0.7818609E-02  0.8187212E-01
       -2   -1    0    0    0  501  0.00000000000E+00  0.00000000000E+00  0.16765827837E+04  0.16765827837E+04  0.25500000920E-02 0.  1.
        2   -1    0    0  501    0  0.00000000000E+00  0.00000000000E+00 -0.15327276985E+04  0.15327276985E+04  0.25500000920E-02 0. -1.
    10030    2    1    2    0    0  0.00000000000E+00  0.00000000000E+00  0.14385508518E+03  0.32093104822E+04  0.32060847596E+04 0.  0.
        5    1    3    3  502    0  0.32793628716E+03  0.14491752851E+04  0.67425678080E+03  0.16316542256E+04  0.46999998093E+01 0.  1.
       -5    1    3    3    0  502 -0.32793628716E+03 -0.14491752851E+04 -0.53040169562E+03  0.15776562566E+04  0.46999998093E+01 0. -1.
</event>
<event>
 5   0  0.8488469E-07  0.3203422E+04  0.7818609E-02  0.8187914E-01
       -2   -1    0    0    0  501  0.00000000000E+00  0.00000000000E+00  0.13142513944E+04  0.13142513944E+04  0.25500000920E-02 0. -1.
        2   -1    0    0  501    0  0.00000000000E+00  0.00000000000E+00 -0.19520452224E+04  0.19520452224E+04  0.25500000920E-02 0.  1.
    10030    2    1    2    0    0  0.00000000000E+00  0.00000000000E+00 -0.63779382801E+03  0.32662966167E+04  0.32034220174E+04 0.  0.
        3    1    3    3  502    0  0.49779167525E+03 -0.47263662281E+03 -0.17944692989E+04  0.19212761394E+04  0.10100000352E+00 0.  1.
       -3    1    3    3    0  502 -0.49779167525E+03  0.47263662281E+03  0.11566754709E+04  0.13450204773E+04  0.10100000352E+00 0. -1.
</event>
<event>
 5   0  0.8335929E-07  0.3208160E+04  0.7818609E-02  0.8186665E-01
       -2   -1    0    0    0  501  0.00000000000E+00  0.00000000000E+00  0.16681024690E+04  0.16681024690E+04  0.25500000920E-02 0.  1.
        2   -1    0    0  501    0  0.00000000000E+00  0.00000000000E+00 -0.15425147309E+04  0.15425147309E+04  0.25500000920E-02 0. -1.
    10030    2    1    2    0    0  0.00000000000E+00  0.00000000000E+00  0.12558773812E+03  0.32106171998E+04  0.32081599904E+04 0.  0.
        4    1    3    3  502    0 -0.13785571847E+03 -0.13540077100E+04  0.91240225700E+03  0.16385422086E+04  0.12699999809E+01 0.  1.
       -4    1    3    3    0  502  0.13785571847E+03  0.13540077100E+04 -0.78681451888E+03  0.15720749912E+04  0.12699999809E+01 0. -1.
</event>
<event>
 5   0  0.2997105E-07  0.3199198E+04  0.7818609E-02  0.8189029E-01
       -1   -1    0    0    0  501  0.00000000000E+00  0.00000000000E+00  0.98051607239E+03  0.98051607240E+03  0.50400001928E-02 0.  1.
        1   -1    0    0  501    0  0.00000000000E+00  0.00000000000E+00 -0.26095616208E+04  0.26095616208E+04  0.50400001928E-02 0. -1.
    10030    2    1    2    0    0  0.00000000000E+00  0.00000000000E+00 -0.16290455484E+04  0.35900776932E+04  0.31991980939E+04 0.  0.
        3    1    3    3  502    0  0.65191519393E+03  0.13211583969E+04 -0.15137629491E+04  0.21123283850E+04  0.10100000352E+00 0. -1.
       -3    1    3    3    0  502 -0.65191519393E+03 -0.13211583969E+04 -0.11528259924E+03  0.14777493081E+04  0.10100000352E+00 0.  1.
</event>
<event>
 5   0  0.2783875E-07  0.3196275E+04  0.7818609E-02  0.8189802E-01
        1   -1    0    0  501    0  0.00000000000E+00  0.00000000000E+00  0.20038839048E+04  0.20038839048E+04  0.50400001928E-02 0.  1.
       -1   -1    0    0    0  501  0.00000000000E+00  0.00000000000E+00 -0.12745462410E+04  0.12745462411E+04  0.50400001928E-02 0. -1.
    10030    2    1    2    0    0  0.00000000000E+00  0.00000000000E+00  0.72933766377E+03  0.32784301459E+04  0.31962745179E+04 0.  0.
        2    1    3    3  502    0  0.10068095124E+03  0.13562622464E+03 -0.12653647187E+04  0.12765888132E+04  0.25500000920E-02 0. -1.
       -2    1    3    3    0  502 -0.10068095124E+03 -0.13562622464E+03  0.19947023824E+04  0.20018413327E+04  0.25500000920E-02 0.  1.
</event>
<event>
 5   0  0.3075756E-07  0.3194243E+04  0.7818609E-02  0.8190339E-01
       -1   -1    0    0    0  501  0.00000000000E+00  0.00000000000E+00  0.17193311540E+04  0.17193311540E+04  0.50400001928E-02 0.  1.
        1   -1    0    0  501    0  0.00000000000E+00  0.00000000000E+00 -0.14835981701E+04  0.14835981701E+04  0.50400001928E-02 0. -1.
    10030    2    1    2    0    0  0.00000000000E+00  0.00000000000E+00  0.23573298390E+03  0.32029293241E+04  0.31942426670E+04 0.  0.
        5    1    3    3  502    0  0.15326641163E+04 -0.17019225048E+03 -0.29889557767E+03  0.15707913139E+04  0.46999998093E+01 0. -1.
       -5    1    3    3    0  502 -0.15326641163E+04  0.17019225048E+03  0.53462856157E+03  0.16321380102E+04  0.46999998093E+01 0.  1.
</event>
<event>
 5   0  0.8335929E-07  0.3205468E+04  0.7818609E-02  0.8187375E-01
       -2   -1    0    0    0  501  0.00000000000E+00  0.00000000000E+00  0.33184640157E+04  0.33184640157E+04  0.25500000920E-02 0.  1.
        2   -1    0    0  501    0  0.00000000000E+00  0.00000000000E+00 -0.77407999445E+03  0.77407999445E+03  0.25500000920E-02 0. -1.
    10030    2    1    2    0    0  0.00000000000E+00  0.00000000000E+00  0.25443840213E+04  0.40925440102E+04  0.32054682072E+04 0.  0.
        4    1    3    3  502    0 -0.11023598744E+04  0.68263159361E+03  0.24750203020E+04  0.27940848758E+04  0.12699999809E+01 0.  1.
       -4    1    3    3    0  502  0.11023598744E+04 -0.68263159361E+03  0.69363719327E+02  0.12984591344E+04  0.12699999809E+01 0. -1.
</event>
<event>
 5   0  0.3013888E-07  0.3206142E+04  0.7818609E-02  0.8187197E-01
        1   -1    0    0  501    0  0.00000000000E+00  0.00000000000E+00  0.19648465362E+04  0.19648465362E+04  0.50400001928E-02 0.  1.
       -1   -1    0    0    0  501  0.00000000000E+00  0.00000000000E+00 -0.13079071863E+04  0.13079071863E+04  0.50400001928E-02 0. -1.
    10030    2    1    2    0    0  0.00000000000E+00  0.00000000000E+00  0.65693934989E+03  0.32727537225E+04  0.32061421707E+04 0.  0.
        1    1    3    3  502    0 -0.13210901066E+04 -0.86727211381E+03  0.60312661706E+03  0.16915087069E+04  0.50400001928E-02 0.  1.
       -1    1    3    3    0  502  0.13210901066E+04  0.86727211381E+03  0.53812732835E+02  0.15812450157E+04  0.50400001928E-02 0. -1.
</event>
<event>
 5   0  0.3075756E-07  0.3202771E+04  0.7818609E-02  0.8188086E-01
        1   -1    0    0  501    0  0.00000000000E+00  0.00000000000E+00  0.12118023676E+04  0.12118023676E+04  0.50400001928E-02 0. -1.
       -1   -1    0    0    0  501  0.00000000000E+00  0.00000000000E+00 -0.21162154686E+04  0.21162154686E+04  0.50400001928E-02 0.  1.
    10030    2    1    2    0    0  0.00000000000E+00  0.00000000000E+00 -0.90441310105E+03  0.33280178362E+04  0.32027706225E+04 0.  0.
        5    1    3    3  502    0 -0.31212625461E+03  0.34343568223E+02  0.11794910005E+04  0.12205832170E+04  0.46999998093E+01 0. -1.
       -5    1    3    3    0  502  0.31212625461E+03 -0.34343568223E+02 -0.20839041015E+04  0.21074346191E+04  0.46999998093E+01 0.  1.
</event>
<event>
 5   0  0.3013888E-07  0.3203639E+04  0.7818609E-02  0.8187857E-01
       -1   -1    0    0    0  501  0.00000000000E+00  0.00000000000E+00  0.14428610197E+04  0.14428610197E+04  0.50400001928E-02 0. -1.
        1   -1    0    0  501    0  0.00000000000E+00  0.00000000000E+00 -0.17782901909E+04  0.17782901909E+04  0.50400001928E-02 0.  1.
    10030    2    1    2    0    0  0.00000000000E+00  0.00000000000E+00 -0.33542917120E+03  0.32211512106E+04  0.32036389299E+04 0.  0.
        1    1    3    3  502    0  0.99547112895E+03 -0.12324966322E+04 -0.40525775819E+03  0.16353117646E+04  0.50400001928E-02 0.  1.
       -1    1    3    3    0  502 -0.99547112895E+03  0.12324966322E+04  0.69828586988E+02  0.15858394460E+04  0.50400001928E-02 0. -1.
</event>
<event>
 5   0  0.2783875E-07  0.3199980E+04  0.7818609E-02  0.8188822E-01
       -1   -1    0    0    0  501  0.00000000000E+00  0.00000000000E+00  0.15111961373E+04  0.15111961373E+04  0.50400001928E-02 0. -1.
        1   -1    0    0  501    0  0.00000000000E+00  0.00000000000E+00 -0.16940016577E+04  0.16940016577E+04  0.50400001928E-02 0.  1.
    10030    2    1    2    0    0  0.00000000000E+00  0.00000000000E+00 -0.18280552036E+03  0.32051977950E+04  0.31999804760E+04 0.  0.
        2    1    3    3  502    0 -0.12701188196E+04  0.21191048264E+03 -0.10426146810E+04  0.16568503981E+04  0.25500000920E-02 0.  1.
       -2    1    3    3    0  502  0.12701188196E+04 -0.21191048264E+03  0.85980916066E+03  0.15483473969E+04  0.25500000920E-02 0. -1.
</event>
<event>
 5   0  0.8802800E-07  0.3201676E+04  0.7818609E-02  0.8188375E-01
        2   -1    0    0  501    0  0.00000000000E+00  0.00000000000E+00  0.99406812502E+03  0.99406812503E+03  0.25500000920E-02 0.  1.
       -2   -1    0    0    0  501  0.00000000000E+00  0.00000000000E+00 -0.25779742684E+04  0.25779742684E+04  0.25500000920E-02 0. -1.
    10030    2    1    2    0    0  0.00000000000E+00  0.00000000000E+00 -0.15839061434E+04  0.35720423934E+04  0.32016758408E+04 0.  0.
        5    1    3    3  502    0 -0.63351156168E+03  0.53891292187E+03 -0.23179865442E+04  0.24626911591E+04  0.46999998093E+01 0. -1.
       -5    1    3    3    0  502  0.63351156168E+03 -0.53891292187E+03  0.73408040084E+03  0.11093512343E+04  0.46999998093E+01 0.  1.
</event>
<event>
 5   0  0.8335929E-07  0.3193407E+04  0.7818609E-02  0.8190561E-01
        2   -1    0    0  501    0  0.00000000000E+00  0.00000000000E+00  0.19508230142E+04  0.19508230142E+04  0.25500000920E-02 0. -1.
       -2   -1    0    0    0  501  0.00000000000E+00  0.00000000000E+00 -0.13068649803E+04  0.13068649803E+04  0.25500000920E-02 0.  1.
    10030    2    1    2    0    0  0.00000000000E+00  0.00000000000E+00  0.64395803394E+03  0.32576879945E+04  0.31934071335E+04 0.  0.
        4    1    3    3  502    0  0.41150741841E+02 -0.78162153968E+03 -0.10977371059E+04  0.13482039836E+04  0.12699999809E+01 0.  1.
       -4    1    3    3    0  502 -0.41150741841E+02  0.78162153968E+03  0.17416951399E+04  0.19094840109E+04  0.12699999809E+01 0. -1.
</event>
<event>
 5   0  0.2997105E-07  0.3195609E+04  0.7818609E-02  0.8189978E-01
        1   -1    0    0  501    0  0.00000000000E+00  0.00000000000E+00  0.21888488836E+04  0.21888488836E+04  0.50400001928E-02 0. -1.
       -1   -1    0    0    0  501  0.00000000000E+00  0.00000000000E+00 -0.11663569156E+04  0.11663569156E+04  0.50400001928E-02 0.  1.
    10030    2    1    2    0    0  0.00000000000E+00  0.00000000000E+00  0.10224919680E+04  0.33552057993E+04  0.31956088826E+04 0.  0.
        3    1    3    3  502    0 -0.14519065224E+04 -0.53454928390E+03  0.93017640514E+03  0.18052710715E+04  0.10100000352E+00 0. -1.
       -3    1    3    3    0  502  0.14519065224E+04  0.53454928390E+03  0.92315562851E+02  0.15499347277E+04  0.10100000352E+00 0.  1.
</event>
<event>
 5   0  0.2783875E-07  0.3198822E+04  0.7818609E-02  0.8189128E-01
       -1   -1    0    0    0  501  0.00000000000E+00  0.00000000000E+00  0.15339386920E+04  0.15339386920E+04  0.50400001928E-02 0.  1.
        1   -1    0    0  501    0  0.00000000000E+00  0.00000000000E+00 -0.16676777555E+04  0.16676777555E+04  0.50400001928E-02 0. -1.
    10030    2    1    2    0    0  0.00000000000E+00  0.00000000000E+00 -0.13373906346E+03  0.32016164475E+04  0.31988219300E+04 0.  0.
        2    1    3    3  502    0  0.80319083052E+03 -0.11003808559E+04 -0.90555258364E+03  0.16358419912E+04  0.25500000920E-02 0. -1.
       -2    1    3    3    0  502 -0.80319083052E+03  0.11003808559E+04  0.77181352018E+03  0.15657744564E+04  0.25500000920E-02 0.  1.
</event>
<event>
 5   0  0.8335929E-07  0.3194408E+04  0.7818609E-02  0.8190296E-01
       -2   -1    0    0    0  501  0.00000000000E+00  0.00000000000E+00  0.12317441118E+04  0.12317441118E+04  0.25500000920E-02 0. -1.
        2   -1    0    0  501    0  0.00000000000E+00  0.00000000000E+00 -0.20710962463E+04  0.20710962463E+04  0.25500000920E-02 0.  1.
    10030    2    1    2    0    0  0.00000000000E+00  0.00000000000E+00 -0.83935213442E+03  0.33028403581E+04  0.31944079930E+04 0.  0.
        4    1    3    3  502    0  0.72062561781E+03 -0.10314252569E+04  0.59754852863E+03  0.13929124877E+04  0.12699999809E+01 0. -1.
       -4    1    3    3    0  502 -0.72062561781E+03  0.10314252569E+04 -0.14369006631E+04  0.19099278703E+04  0.12699999809E+01 0.  1.
</event>
<event>
 5   0  0.3013888E-07  0.3189816E+04  0.7818609E-02  0.8191512E-01
       -1   -1    0    0    0  501  0.00000000000E+00  0.00000000000E+00  0.14501615211E+04  0.14501615211E+04  0.50400001928E-02 0.  1.
        1   -1    0    0  501    0  0.00000000000E+00  0.00000000000E+00 -0.17541023410E+04  0.17541023410E+04  0.50400001928E-02 0. -1.
    10030    2    1    2    0    0  0.00000000000E+00  0.00000000000E+00 -0.30394081991E+03  0.32042638621E+04  0.31898161195E+04 0.  0.
        1    1    3    3  502    0  0.15313124718E+04  0.31667148463E+03  0.16335101776E+03  0.15722220805E+04  0.50400001928E-02 0. -1.
       -1    1    3    3    0  502 -0.15313124718E+04 -0.31667148463E+03 -0.46729183767E+03  0.16320417816E+04  0.50400001928E-02 0.  1.
</event>
<event>
 5   0  0.8195618E-07  0.3195399E+04  0.7818609E-02  0.8190033E-01
        2   -1    0    0  501    0  0.00000000000E+00  0.00000000000E+00  0.20923422698E+04  0.20923422698E+04  0.25500000920E-02 0. -1.
       -2   -1    0    0    0  501  0.00000000000E+00  0.00000000000E+00 -0.12199931653E+04  0.12199931653E+04  0.25500000920E-02 0.  1.
    10030    2    1    2    0    0  0.00000000000E+00  0.00000000000E+00  0.87234910446E+03  0.33123354351E+04  0.31953987349E+04 0.  0.
        1    1    3    3  502    0  0.92658613523E+03 -0.12266690491E+04 -0.14910538921E+02  0.15373682533E+04  0.50400001928E-02 0.  1.
       -1    1    3    3    0  502 -0.92658613523E+03  0.12266690491E+04  0.88725964338E+03  0.17749671819E+04  0.50400001928E-02 0. -1.
</event>
<event>
 5   0  0.3013888E-07  0.3198740E+04  0.7818609E-02  0.8189150E-01
       -1   -1    0    0    0  501  0.00000000000E+00  0.00000000000E+00  0.10554286694E+04  0.10554286695E+04  0.50400001928E-02 0. -1.
        1   -1    0    0  501    0  0.00000000000E+00  0.00000000000E+00 -0.24236447600E+04  0.24236447600E+04  0.50400001928E-02 0.  1.
    10030    2    1    2    0    0  0.00000000000E+00  0.00000000000E+00 -0.13682160906E+04  0.34790734295E+04  0.31987398545E+04 0.  0.
        1    1    3    3  502    0  0.39623924637E+03 -0.14835689729E+04 -0.19769910808E+03  0.15482465485E+04  0.50400001928E-02 0. -1.
       -1    1    3    3    0  502 -0.39623924637E+03  0.14835689729E+04 -0.11705169825E+04  0.19308268809E+04  0.50400001928E-02 0.  1.
</event>
<event>
 5   0  0.3013888E-07  0.3198574E+04  0.7818609E-02  0.8189194E-01
        1   -1    0    0  501    0  0.00000000000E+00  0.00000000000E+00  0.22070764291E+04  0.22070764291E+04  0.50400001928E-02 0. -1.
       -1   -1    0    0    0  501  0.00000000000E+00  0.00000000000E+00 -0.11588716388E+04  0.11588716388E+04  0.50400001928E-02 0.  1.
    10030    2    1    2    0    0  0.00000000000E+00  0.00000000000E+00  0.10482047903E+04  0.33659480679E+04  0.31985736060E+04 0.  0.
        1    1    3    3  502    0  0.88370480552E+03 -0.98784001758E+02  0.19229567820E+04  0.21185974719E+04  0.50400001928E-02 0. -1.
       -1    1    3    3    0  502 -0.88370480552E+03  0.98784001758E+02 -0.87475199171E+03  0.12473505960E+04  0.50400001928E-02 0.  1.
</event>
<event>
 5   0  0.8488469E-07  0.3272452E+04  0.7818609E-02  0.8169941E-01
       -2   -1    0    0    0  501  0.00000000000E+00  0.00000000000E+00  0.12310795493E+04  0.12310795493E+04  0.25500000920E-02 0. -1.
        2   -1    0    0  501    0  0.00000000000E+00  0.00000000000E+00 -0.21747056253E+04  0.21747056253E+04  0.25500000920E-02 0.  1.
    10030    2    1    2    0    0  0.00000000000E+00  0.00000000000E+00 -0.94362607596E+03  0.34057851747E+04  0.32724520599E+04 0.  0.
        3    1    3    3  502    0 -0.52133698678E+03  0.96247730497E+03  0.79391356039E+03  0.13522032273E+04  0.10100000352E+00 0. -1.
       -3    1    3    3    0  502  0.52133698678E+03 -0.96247730497E+03 -0.17375396363E+04  0.20535819473E+04  0.10100000352E+00 0.  1.
</event>
<event>
 5   0  0.3075756E-07  0.3181344E+04  0.7818609E-02  0.8193762E-01
       -1   -1    0    0    0  501  0.00000000000E+00  0.00000000000E+00  0.23158989842E+04  0.23158989842E+04  0.50400001928E-02 0. -1.
        1   -1    0    0  501    0  0.00000000000E+00  0.00000000000E+00 -0.10925506743E+04  0.10925506744E+04  0.50400001928E-02 0.  1.
    10030    2    1    2    0    0  0.00000000000E+00  0.00000000000E+00  0.12233483099E+04  0.34084496586E+04  0.31813437393E+04 0.  0.
        5    1    3    3  502    0 -0.10538122373E+04 -0.89169459459E+03  0.14583920407E+04  0.20081257222E+04  0.46999998093E+01 0. -1.
       -5    1    3    3    0  502  0.10538122373E+04  0.89169459459E+03 -0.23504373085E+03  0.14003239364E+04  0.46999998093E+01 0.  1.
</event>
<event>
 5   0  0.8488469E-07  0.3197075E+04  0.7818609E-02  0.8189590E-01
        2   -1    0    0  501    0  0.00000000000E+00  0.00000000000E+00  0.22502873737E+04  0.22502873737E+04  0.25500000920E-02 0. -1.
       -2   -1    0    0    0  501  0.00000000000E+00  0.00000000000E+00 -0.11355533866E+04  0.11355533866E+04  0.25500000920E-02 0.  1.
    10030    2    1    2    0    0  0.00000000000E+00  0.00000000000E+00  0.11147339871E+04  0.33858407602E+04  0.31970745677E+04 0.  0.
        3    1    3    3  502    0 -0.33740956500E+03 -0.15423988756E+04  0.82208957381E+03  0.17800760612E+04  0.10100000352E+00 0.  1.
       -3    1    3    3    0  502  0.33740956500E+03  0.15423988756E+04  0.29264441330E+03  0.16057646991E+04  0.10100000352E+00 0. -1.
</event>
<event>
 5   0  0.8335929E-07  0.3209742E+04  0.7818609E-02  0.8186249E-01
       -2   -1    0    0    0  501  0.00000000000E+00  0.00000000000E+00  0.12810744080E+04  0.12810744080E+04  0.25500000920E-02 0.  1.
        2   -1    0    0  501    0  0.00000000000E+00  0.00000000000E+00 -0.20105082562E+04  0.20105082562E+04  0.25500000920E-02 0. -1.
    10030    2    1    2    0    0  0.00000000000E+00  0.00000000000E+00 -0.72943384817E+03  0.32915826641E+04  0.32097418426E+04 0.  0.
        4    1    3    3  502    0 -0.11392445556E+04 -0.63807989016E+03 -0.13215589502E+04  0.18578330860E+04  0.12699999809E+01 0. -1.
       -4    1    3    3    0  502  0.11392445556E+04  0.63807989016E+03  0.59212510201E+03  0.14337495782E+04  0.12699999809E+01 0.  1.
</event>
<event>
 5   0  0.8488469E-07  0.3236717E+04  0.7818609E-02  0.8179187E-01
        2   -1    0    0  501    0  0.00000000000E+00  0.00000000000E+00  0.21680649230E+04  0.21680649230E+04  0.25500000920E-02 0. -1.
       -2   -1    0    0    0  501  0.00000000000E+00  0.00000000000E+00 -0.12080288304E+04  0.12080288304E+04  0.25500000920E-02 0.  1.
    10030    2    1    2    0    0  0.00000000000E+00  0.00000000000E+00  0.96003609263E+03  0.33760937533E+04  0.32367174316E+04 0.  0.
        3    1    3    3  502    0 -0.13153429256E+04  0.92868298822E+03  0.64983471623E+03  0.17363364516E+04  0.10100000352E+00 0. -1.
       -3    1    3    3    0  502  0.13153429256E+04 -0.92868298822E+03  0.31020137640E+03  0.16397573017E+04  0.10100000352E+00 0.  1.
</event>
<event>
 5   0  0.8195618E-07  0.3209312E+04  0.7818609E-02  0.8186362E-01
        2   -1    0    0  501    0  0.00000000000E+00  0.00000000000E+00  0.12387081952E+04  0.12387081952E+04  0.25500000920E-02 0.  1.
       -2   -1    0    0    0  501  0.00000000000E+00  0.00000000000E+00 -0.20787147955E+04  0.20787147955E+04  0.25500000920E-02 0. -1.
    10030    2    1    2    0    0  0.00000000000E+00  0.00000000000E+00 -0.84000660035E+03  0.33174229907E+04  0.32093121086E+04 0.  0.
        1    1    3    3  502    0  0.87660246703E+03  0.20624148731E+03 -0.17928829766E+04  0.20063391548E+04  0.50400001928E-02 0. -1.
       -1    1    3    3    0  502 -0.87660246703E+03 -0.20624148731E+03  0.95287637625E+03  0.13110838359E+04  0.50400001928E-02 0.  1.
</event>
<event>
 5   0  0.2783875E-07  0.3213391E+04  0.7818609E-02  0.8185290E-01
       -1   -1    0    0    0  501  0.00000000000E+00  0.00000000000E+00  0.10485695512E+04  0.10485695512E+04  0.50400001928E-02 0.  1.
        1   -1    0    0  501    0  0.00000000000E+00  0.00000000000E+00 -0.24618971004E+04  0.24618971004E+04  0.50400001928E-02 0. -1.
    10030    2    1    2    0    0  0.00000000000E+00  0.00000000000E+00 -0.14133275492E+04  0.35104666516E+04  0.32133909428E+04 0.  0.
        2    1    3    3  502    0 -0.81187806966E+03  0.16934399616E+03 -0.22099815501E+04  0.23604749185E+04  0.25500000920E-02 0. -1.
       -2    1    3    3    0  502  0.81187806966E+03 -0.16934399616E+03  0.79665400094E+03  0.11499917331E+04  0.25500000920E-02 0.  1.
</event>
<event>
 5   0  0.2891204E-07  0.3248492E+04  0.7818609E-02  0.8176127E-01
        1   -1    0    0  501    0  0.00000000000E+00  0.00000000000E+00  0.21658310060E+04  0.21658310060E+04  0.50400001928E-02 0.  1.
       -1   -1    0    0    0  501  0.00000000000E+00  0.00000000000E+00 -0.12180891424E+04  0.12180891424E+04  0.50400001928E-02 0. -1.
    10030    2    1    2    0    0  0.00000000000E+00  0.00000000000E+00  0.94774186359E+03  0.33839201484E+04  0.32484921010E+04 0.  0.
        4    1    3    3  502    0  0.15011370319E+04  0.61967175772E+03  0.44500008054E+03  0.16838741522E+04  0.12699999809E+01 0. -1.
       -4    1    3    3    0  502 -0.15011370319E+04 -0.61967175772E+03  0.50274178306E+03  0.17000459962E+04  0.12699999809E+01 0.  1.
</event>
<event>
 5   0  0.8802800E-07  0.3199628E+04  0.7818609E-02  0.8188915E-01
        2   -1    0    0  501    0  0.00000000000E+00  0.00000000000E+00  0.25233365085E+04  0.25233365085E+04  0.25500000920E-02 0.  1.
       -2   -1    0    0    0  501  0.00000000000E+00  0.00000000000E+00 -0.10142938641E+04  0.10142938641E+04  0.25500000920E-02 0. -1.
    10030    2    1    2    0    0  0.00000000000E+00  0.00000000000E+00  0.15090426444E+04  0.35376303726E+04  0.31996279394E+04 0.  0.
        5    1    3    3  502    0  0.12827297969E+04  0.76766073943E+03  0.12451725420E+03  0.15000751246E+04  0.46999998093E+01 0.  1.
       -5    1    3    3    0  502 -0.12827297969E+04 -0.76766073943E+03  0.13845253902E+04  0.20375552481E+04  0.46999998093E+01 0. -1.
</event>
<event>
 5   0  0.3013888E-07  0.3193298E+04  0.7818609E-02  0.8190589E-01
        1   -1    0    0  501    0  0.00000000000E+00  0.00000000000E+00  0.15725697241E+04  0.15725697241E+04  0.50400001928E-02 0. -1.
       -1   -1    0    0    0  501  0.00000000000E+00  0.00000000000E+00 -0.16210971526E+04  0.16210971526E+04  0.50400001928E-02 0.  1.
    10030    2    1    2    0    0  0.00000000000E+00  0.00000000000E+00 -0.48527428550E+02  0.31936668767E+04  0.31932981709E+04 0.  0.
        1    1    3    3  502    0  0.75190548849E+02  0.96672711178E+02 -0.16163925829E+04  0.16210256672E+04  0.50400001928E-02 0.  1.
       -1    1    3    3    0  502 -0.75190548849E+02 -0.96672711178E+02  0.15678651543E+04  0.15726412095E+04  0.50400001928E-02 0. -1.
</event>
<event>
 5   0  0.2891204E-07  0.3205592E+04  0.7818609E-02  0.8187342E-01
        1   -1    0    0  501    0  0.00000000000E+00  0.00000000000E+00  0.11442230980E+04  0.11442230981E+04  0.50400001928E-02 0.  1.
       -1   -1    0    0    0  501  0.00000000000E+00  0.00000000000E+00 -0.22451522424E+04  0.22451522424E+04  0.50400001928E-02 0. -1.
    10030    2    1    2    0    0  0.00000000000E+00  0.00000000000E+00 -0.11009291443E+04  0.33893753404E+04  0.32055920229E+04 0.  0.
        4    1    3    3  502    0 -0.43259497199E+03  0.12042852970E+04  0.47001809637E+03  0.13632168243E+04  0.12699999809E+01 0.  1.
       -4    1    3    3    0  502  0.43259497199E+03 -0.12042852970E+04 -0.15709472407E+04  0.20261585161E+04  0.12699999809E+01 0. -1.
</event>
<event>
 5   0  0.3075756E-07  0.3189583E+04  0.7818609E-02  0.8191574E-01
        1   -1    0    0  501    0  0.00000000000E+00  0.00000000000E+00  0.12646332058E+04  0.12646332058E+04  0.50400001928E-02 0. -1.
       -1   -1    0    0    0  501  0.00000000000E+00  0.00000000000E+00 -0.20111447369E+04  0.20111447369E+04  0.50400001928E-02 0.  1.
    10030    2    1    2    0    0  0.00000000000E+00  0.00000000000E+00 -0.74651153110E+03  0.32757779426E+04  0.31895833056E+04 0.  0.
        5    1    3    3  502    0  0.69182459523E+03  0.47390525015E+03  0.10199166283E+04  0.13204012554E+04  0.46999998093E+01 0. -1.
       -5    1    3    3    0  502 -0.69182459523E+03 -0.47390525015E+03 -0.17664281594E+04  0.19553766872E+04  0.46999998093E+01 0.  1.
</event>
<event>
 5   0  0.8335929E-07  0.3173254E+04  0.7818609E-02  0.8195917E-01
        2   -1    0    0  501    0  0.00000000000E+00  0.00000000000E+00  0.77178275721E+03  0.77178275721E+03  0.25500000920E-02 0.  1.
       -2   -1    0    0    0  501  0.00000000000E+00  0.00000000000E+00 -0.32617796214E+04  0.32617796214E+04  0.25500000920E-02 0. -1.
    10030    2    1    2    0    0  0.00000000000E+00  0.00000000000E+00 -0.24899968642E+04  0.40335623786E+04  0.31732540205E+04 0.  0.
        4    1    3    3  502    0 -0.75380255355E+03 -0.30810621978E+03  0.48587947305E+03  0.94827644051E+03  0.12699999809E+01 0.  1.
       -4    1    3    3    0  502  0.75380255355E+03  0.30810621978E+03 -0.29758763373E+04  0.30852859381E+04  0.12699999809E+01 0. -1.
</event>
<event>
 5   0  0.3013888E-07  0.3219783E+04  0.7818609E-02  0.8183612E-01
        1   -1    0    0  501    0  0.00000000000E+00  0.00000000000E+00  0.28002502228E+04  0.28002502228E+04  0.50400001928E-02 0. -1.
       -1   -1    0    0    0  501  0.00000000000E+00  0.00000000000E+00 -0.92554255627E+03  0.92554255629E+03  0.50400001928E-02 0.  1.
    10030    2    1    2    0    0  0.00000000000E+00  0.00000000000E+00  0.18747076665E+04  0.37257927791E+04  0.32197830669E+04 0.  0.
        1    1    3    3  502    0 -0.16004641564E+04  0.12318261475E+03  0.10795065217E+04  0.19344233774E+04  0.50400001928E-02 0. -1.
       -1    1    3    3    0  502  0.16004641564E+04 -0.12318261475E+03  0.79520114482E+03  0.17913694017E+04  0.50400001928E-02 0.  1.
</event>
<event>
 5   0  0.8838951E-07  0.3198556E+04  0.7818609E-02  0.8189199E-01
        2   -1    0    0  501    0  0.00000000000E+00  0.00000000000E+00  0.22990460278E+04  0.22990460278E+04  0.25500000920E-02 0. -1.
       -2   -1    0    0    0  501  0.00000000000E+00  0.00000000000E+00 -0.11125002681E+04  0.11125002681E+04  0.25500000920E-02 0.  1.
    10030    2    1    2    0    0  0.00000000000E+00  0.00000000000E+00  0.11865457597E+04  0.34115462958E+04  0.31985555004E+04 0.  0.
        2    1    3    3  502    0  0.12004152880E+04  0.51284933930E+03  0.15787451912E+04  0.20485232943E+04  0.25500000920E-02 0. -1.
       -2    1    3    3    0  502 -0.12004152880E+04 -0.51284933930E+03 -0.39219943154E+03  0.13630230015E+04  0.25500000920E-02 0.  1.
</event>
<event>
 5   0  0.8802800E-07  0.3200596E+04  0.7818609E-02  0.8188660E-01
        2   -1    0    0  501    0  0.00000000000E+00  0.00000000000E+00  0.18645136878E+04  0.18645136878E+04  0.25500000920E-02 0. -1.
       -2   -1    0    0    0  501  0.00000000000E+00  0.00000000000E+00 -0.13735234872E+04  0.13735234872E+04  0.25500000920E-02 0.  1.
    10030    2    1    2    0    0  0.00000000000E+00  0.00000000000E+00  0.49099020063E+03  0.32380371750E+04  0.32005957836E+04 0.  0.
        5    1    3    3  502    0 -0.81008695418E+03 -0.38294870431E+03  0.15869172106E+04  0.18224211661E+04  0.46999998093E+01 0. -1.
       -5    1    3    3    0  502  0.81008695418E+03  0.38294870431E+03 -0.10959270100E+04  0.14156160089E+04  0.46999998093E+01 0.  1.
</event>
<event>
 5   0  0.2997105E-07  0.3194864E+04  0.7818609E-02  0.8190175E-01
        1   -1    0    0  501    0  0.00000000000E+00  0.00000000000E+00  0.17851670576E+04  0.17851670576E+04  0.50400001928E-02 0.  1.
       -1   -1    0    0    0  501  0.00000000000E+00  0.00000000000E+00 -0.14294400944E+04  0.14294400944E+04  0.50400001928E-02 0. -1.
    10030    2    1    2    0    0  0.00000000000E+00  0.00000000000E+00  0.35572696315E+03  0.32146071520E+04  0.31948642333E+04 0.  0.
        3    1    3    3  502    0 -0.15090598069E+04  0.49811114197E+03  0.14337949935E+02  0.15892079151E+04  0.10100000352E+00 0. -1.
       -3    1    3    3    0  502  0.15090598069E+04 -0.49811114197E+03  0.34138901321E+03  0.16253992368E+04  0.10100000352E+00 0.  1.
</event>
<event>
 5   0  0.3075756E-07  0.3199640E+04  0.7818609E-02  0.8188912E-01
       -1   -1    0    0    0  501  0.00000000000E+00  0.00000000000E+00  0.11655045126E+04  0.11655045126E+04  0.50400001928E-02 0.  1.
        1   -1    0    0  501    0  0.00000000000E+00  0.00000000000E+00 -0.21959790129E+04  0.21959790129E+04  0.50400001928E-02 0. -1.
    10030    2    1    2    0    0  0.00000000000E+00  0.00000000000E+00 -0.10304745004E+04  0.33614835255E+04  0.31996396354E+04 0.  0.
        5    1    3    3  502    0 -0.52138747800E+03  0.98389369587E+03  0.69156526011E+03  0.13107922436E+04  0.46999998093E+01 0.  1.
       -5    1    3    3    0  502  0.52138747800E+03 -0.98389369587E+03 -0.17220397605E+04  0.20506912819E+04  0.46999998093E+01 0. -1.
</event>
<event>
 5   0  0.8838951E-07  0.3191444E+04  0.7818609E-02  0.8191081E-01
        2   -1    0    0  501    0  0.00000000000E+00  0.00000000000E+00  0.24441018070E+04  0.24441018070E+04  0.25500000920E-02 0.  1.
       -2   -1    0    0    0  501  0.00000000000E+00  0.00000000000E+00 -0.10418257107E+04  0.10418257107E+04  0.25500000920E-02 0. -1.
    10030    2    1    2    0    0  0.00000000000E+00  0.00000000000E+00  0.14022760963E+04  0.34859275176E+04  0.31914436244E+04 0.  0.
        2    1    3    3  502    0 -0.65553626644E+03 -0.12583741016E+04 -0.96367016620E+02  0.14221532189E+04  0.25500000920E-02 0. -1.
       -2    1    3    3    0  502  0.65553626644E+03  0.12583741016E+04  0.14986431129E+04  0.20637742987E+04  0.25500000920E-02 0.  1.
</event>
<event>
 5   0  0.2891204E-07  0.3194003E+04  0.7818609E-02  0.8190403E-01
        1   -1    0    0  501    0  0.00000000000E+00  0.00000000000E+00  0.21822563821E+04  0.21822563821E+04  0.50400001928E-02 0.  1.
       -1   -1    0    0    0  501  0.00000000000E+00  0.00000000000E+00 -0.11687051135E+04  0.11687051135E+04  0.50400001928E-02 0. -1.
    10030    2    1    2    0    0  0.00000000000E+00  0.00000000000E+00  0.10135512686E+04  0.33509614956E+04  0.31940032516E+04 0.  0.
        4    1    3    3  502    0  0.45719494694E+03 -0.76558798077E+03  0.18967438251E+04  0.20958985965E+04  0.12699999809E+01 0.  1.
       -4    1    3    3    0  502 -0.45719494694E+03  0.76558798077E+03 -0.88319255655E+03  0.12550628991E+04  0.12699999809E+01 0. -1.
</event>
<event>
 5   0  0.8488469E-07  0.3186928E+04  0.7818609E-02  0.8192278E-01
       -2   -1    0    0    0  501  0.00000000000E+00  0.00000000000E+00  0.13730105161E+04  0.13730105161E+04  0.25500000920E-02 0. -1.
        2   -1    0    0  501    0  0.00000000000E+00  0.00000000000E+00 -0.18493140524E+04  0.18493140524E+04  0.25500000920E-02 0.  1.
    10030    2    1    2    0    0  0.00000000000E+00  0.00000000000E+00 -0.47630353632E+03  0.32223245685E+04  0.31869280767E+04 0.  0.
        3    1    3    3  502    0  0.63608418804E+03 -0.48659458433E+03  0.11547373600E+04  0.14052742667E+04  0.10100000352E+00 0. -1.
       -3    1    3    3    0  502 -0.63608418804E+03  0.48659458433E+03 -0.16310408963E+04  0.18170503018E+04  0.10100000352E+00 0.  1.
</event>
<event>
 5   0  0.8802800E-07  0.3197641E+04  0.7818609E-02  0.8189440E-01
       -2   -1    0    0    0  501  0.00000000000E+00  0.00000000000E+00  0.14906237159E+04  0.14906237159E+04  0.25500000920E-02 0. -1.
        2   -1    0    0  501    0  0.00000000000E+00  0.00000000000E+00 -0.17148706240E+04  0.17148706240E+04  0.25500000920E-02 0.  1.
    10030    2    1    2    0    0  0.00000000000E+00  0.00000000000E+00 -0.22424690812E+03  0.32054943400E+04  0.31976408941E+04 0.  0.
        5    1    3    3  502    0 -0.36887259867E+03  0.15018584383E+04 -0.51877844246E+03  0.16311955508E+04  0.46999998093E+01 0.  1.
       -5    1    3    3    0  502  0.36887259867E+03 -0.15018584383E+04  0.29453153435E+03  0.15742987891E+04  0.46999998093E+01 0. -1.
</event>
<event>
 5   0  0.8195618E-07  0.3209371E+04  0.7818609E-02  0.8186347E-01
        2   -1    0    0  501    0  0.00000000000E+00  0.00000000000E+00  0.15365198038E+04  0.15365198038E+04  0.25500000920E-02 0. -1.
       -2   -1    0    0    0  501  0.00000000000E+00  0.00000000000E+00 -0.16758748881E+04  0.16758748881E+04  0.25500000920E-02 0.  1.
    10030    2    1    2    0    0  0.00000000000E+00  0.00000000000E+00 -0.13935508432E+03  0.32123946919E+04  0.32093706263E+04 0.  0.
        1    1    3    3  502    0  0.41749744996E+03  0.11743227307E+03  0.14767443988E+04  0.15391128869E+04  0.50400001928E-02 0. -1.
       -1    1    3    3    0  502 -0.41749744996E+03 -0.11743227307E+03 -0.16160994831E+04  0.16732818049E+04  0.50400001928E-02 0.  1.
</event>
<event>
 5   0  0.2891204E-07  0.3218391E+04  0.7818609E-02  0.8183977E-01
       -1   -1    0    0    0  501  0.00000000000E+00  0.00000000000E+00  0.13727801410E+04  0.13727801410E+04  0.50400001928E-02 0.  1.
        1   -1    0    0  501    0  0.00000000000E+00  0.00000000000E+00 -0.18863254219E+04  0.18863254219E+04  0.50400001928E-02 0. -1.
    10030    2    1    2    0    0  0.00000000000E+00  0.00000000000E+00 -0.51354528090E+03  0.32591055629E+04  0.32183909511E+04 0.  0.
        4    1    3    3  502    0  0.58830327136E+03  0.99639486552E+03 -0.13892243954E+04  0.18079959903E+04  0.12699999809E+01 0. -1.
       -4    1    3    3    0  502 -0.58830327136E+03 -0.99639486552E+03  0.87567911453E+03  0.14511095726E+04  0.12699999809E+01 0.  1.
</event>
<event>
 5   0  0.8195618E-07  0.3205430E+04  0.7818609E-02  0.8187385E-01
        2   -1    0    0  501    0  0.00000000000E+00  0.00000000000E+00  0.18733175654E+04  0.18733175654E+04  0.25500000920E-02 0.  1.
       -2   -1    0    0    0  501  0.00000000000E+00  0.00000000000E+00 -0.13712012267E+04  0.13712012267E+04  0.25500000920E-02 0. -1.
    10030    2    1    2    0    0  0.00000000000E+00  0.00000000000E+00  0.50211633863E+03  0.32445187921E+04  0.32054299828E+04 0.  0.
        1    1    3    3  502    0 -0.10510911600E+04 -0.12027749855E+04  0.11817490538E+03  0.16016946029E+04  0.50400001928E-02 0. -1.
       -1    1    3    3    0  502  0.10510911600E+04  0.12027749855E+04  0.38394143326E+03  0.16428241892E+04  0.50400001928E-02 0.  1.
</event>
<event>
 5   0  0.2891204E-07  0.3210064E+04  0.7818609E-02  0.8186164E-01
       -1   -1    0    0    0  501  0.00000000000E+00  0.00000000000E+00  0.18213789846E+04  0.18213789846E+04  0.50400001928E-02 0.  1.
        1   -1    0    0  501    0  0.00000000000E+00  0.00000000000E+00 -0.14143833348E+04  0.14143833348E+04  0.50400001928E-02 0. -1.
    10030    2    1    2    0    0  0.00000000000E+00  0.00000000000E+00  0.40699564975E+03  0.32357623194E+04  0.32100642251E+04 0.  0.
        4    1    3    3  502    0  0.15298524949E+04 -0.25416212803E+03 -0.21343086753E+03  0.15654396800E+04  0.12699999809E+01 0. -1.
       -4    1    3    3    0  502 -0.15298524949E+04  0.25416212803E+03  0.62042651728E+03  0.16703226394E+04  0.12699999809E+01 0.  1.
</event>
<event>
 5   0  0.8335929E-07  0.3379731E+04  0.7818609E-02  0.8142899E-01
        2   -1    0    0  501    0  0.00000000000E+00  0.00000000000E+00  0.17934137941E+04  0.17934137941E+04  0.25500000920E-02 0. -1.
       -2   -1    0    0    0  501  0.00000000000E+00  0.00000000000E+00 -0.15922957134E+04  0.15922957134E+04  0.25500000920E-02 0.  1.
    10030    2    1    2    0    0  0.00000000000E+00  0.00000000000E+00  0.20111808075E+03  0.33857095075E+04  0.33797308158E+04 0.  0.
        4    1    3    3  502    0 -0.11744248483E+04  0.84723816331E+03 -0.77193358427E+03  0.16410269045E+04  0.12699999809E+01 0.  1.
       -4    1    3    3    0  502  0.11744248483E+04 -0.84723816331E+03  0.97305166502E+03  0.17446826031E+04  0.12699999809E+01 0. -1.
</event>
<event>
 5   0  0.3013888E-07  0.3198434E+04  0.7818609E-02  0.8189231E-01
        1   -1    0    0  501    0  0.00000000000E+00  0.00000000000E+00  0.14341116246E+04  0.14341116246E+04  0.50400001928E-02 0.  1.
       -1   -1    0    0    0  501  0.00000000000E+00  0.00000000000E+00 -0.17833308933E+04  0.17833308933E+04  0.50400001928E-02 0. -1.
    10030    2    1    2    0    0  0.00000000000E+00  0.00000000000E+00 -0.34921926870E+03  0.32174425179E+04  0.31984343449E+04 0.  0.
        1    1    3    3  502    0  0.49412181164E+03 -0.47789559557E+03 -0.16271282240E+04  0.17663767499E+04  0.50400001928E-02 0. -1.
       -1    1    3    3    0  502 -0.49412181164E+03  0.47789559557E+03  0.12779089553E+04  0.14510657680E+04  0.50400001928E-02 0.  1.
</event>
<event>
 5   0  0.8802800E-07  0.3217779E+04  0.7818609E-02  0.8184137E-01
        2   -1    0    0  501    0  0.00000000000E+00  0.00000000000E+00  0.15581914047E+04  0.15581914047E+04  0.25500000920E-02 0. -1.
       -2   -1    0    0    0  501  0.00000000000E+00  0.00000000000E+00 -0.16612375126E+04  0.16612375126E+04  0.25500000920E-02 0.  1.
    10030    2    1    2    0    0  0.00000000000E+00  0.00000000000E+00 -0.10304610789E+03  0.32194289172E+04  0.32177793667E+04 0.  0.
        5    1    3    3  502    0 -0.10027201828E+03 -0.14104221919E+04 -0.81948326725E+03  0.16342950016E+04  0.46999998093E+01 0.  1.
       -5    1    3    3    0  502  0.10027201828E+03  0.14104221919E+04  0.71643715935E+03  0.15851339156E+04  0.46999998093E+01 0. -1.
</event>
<event>
 5   0  0.8802800E-07  0.3193843E+04  0.7818609E-02  0.8190445E-01
        2   -1    0    0  501    0  0.00000000000E+00  0.00000000000E+00  0.13464657896E+04  0.13464657896E+04  0.25500000920E-02 0.  1.
       -2   -1    0    0    0  501  0.00000000000E+00  0.00000000000E+00 -0.18939648274E+04  0.18939648274E+04  0.25500000920E-02 0. -1.
    10030    2    1    2    0    0  0.00000000000E+00  0.00000000000E+00 -0.54749903787E+03  0.32404306170E+04  0.31938433567E+04 0.  0.
        5    1    3    3  502    0 -0.62353291064E+01  0.97877543087E+03 -0.15539376992E+04  0.18365142761E+04  0.46999998093E+01 0. -1.
       -5    1    3    3    0  502  0.62353291064E+01 -0.97877543087E+03  0.10064386613E+04  0.14039163409E+04  0.46999998093E+01 0.  1.
</event>
<event>
 5   0  0.8838951E-07  0.3201837E+04  0.7818609E-02  0.8188332E-01
       -2   -1    0    0    0  501  0.00000000000E+00  0.00000000000E+00  0.14918666429E+04  0.14918666429E+04  0.25500000920E-02 0. -1.
        2   -1    0    0  501    0  0.00000000000E+00  0.00000000000E+00 -0.17179417198E+04  0.17179417198E+04  0.25500000920E-02 0.  1.
    10030    2    1    2    0    0  0.00000000000E+00  0.00000000000E+00 -0.22607507687E+03  0.32098083627E+04  0.32018369391E+04 0.  0.
        2    1    3    3  502    0 -0.12931531418E+04 -0.93408126461E+03 -0.24823280617E+03  0.16144263325E+04  0.25500000920E-02 0.  1.
       -2    1    3    3    0  502  0.12931531418E+04  0.93408126461E+03  0.22157729298E+02  0.15953820302E+04  0.25500000920E-02 0. -1.
</event>
<event>
 5   0  0.8838951E-07  0.3207724E+04  0.7818609E-02  0.8186780E-01
        2   -1    0    0  501    0  0.00000000000E+00  0.00000000000E+00  0.24255471610E+04  0.24255471610E+04  0.25500000920E-02 0. -1.
       -2   -1    0    0    0  501  0.00000000000E+00  0.00000000000E+00 -0.10605330777E+04  0.10605330777E+04  0.25500000920E-02 0.  1.
    10030    2    1    2    0    0  0.00000000000E+00  0.00000000000E+00  0.13650140833E+04  0.34860802387E+04  0.32077238010E+04 0.  0.
        2    1    3    3  502    0  0.64431632600E+03 -0.86324786990E+03  0.19739129575E+04  0.22487046887E+04  0.25500000920E-02 0. -1.
       -2    1    3    3    0  502 -0.64431632600E+03  0.86324786990E+03 -0.60889887425E+03  0.12373755501E+04  0.25500000920E-02 0.  1.
</event>
<event>
 5   0  0.8195618E-07  0.3196435E+04  0.7818609E-02  0.8189759E-01
       -2   -1    0    0    0  501  0.00000000000E+00  0.00000000000E+00  0.11138113864E+04  0.11138113864E+04  0.25500000920E-02 0.  1.
        2   -1    0    0  501    0  0.00000000000E+00  0.00000000000E+00 -0.22932955006E+04  0.22932955006E+04  0.25500000920E-02 0. -1.
    10030    2    1    2    0    0  0.00000000000E+00  0.00000000000E+00 -0.11794841142E+04  0.34071068870E+04  0.31964346644E+04 0.  0.
        1    1    3    3  502    0  0.72660215950E+03 -0.29941718783E+03 -0.20731165231E+04  0.22170731763E+04  0.50400001928E-02 0. -1.
       -1    1    3    3    0  502 -0.72660215950E+03  0.29941718783E+03  0.89363240888E+03  0.11900337108E+04  0.50400001928E-02 0.  1.
</event>
<event>
 5   0  0.2997105E-07  0.3196734E+04  0.7818609E-02  0.8189680E-01
        1   -1    0    0  501    0  0.00000000000E+00  0.00000000000E+00  0.83413061053E+03  0.83413061055E+03  0.50400001928E-02 0. -1.
       -1   -1    0    0    0  501  0.00000000000E+00  0.00000000000E+00 -0.30628031275E+04  0.30628031275E+04  0.50400001928E-02 0.  1.
    10030    2    1    2    0    0  0.00000000000E+00  0.00000000000E+00 -0.22286725170E+04  0.38969337381E+04  0.31967344855E+04 0.  0.
        3    1    3    3  502    0  0.11779797710E+04  0.39432328784E+03 -0.23404527525E+04  0.26496879614E+04  0.10100000352E+00 0.  1.
       -3    1    3    3    0  502 -0.11779797710E+04 -0.39432328784E+03  0.11178023549E+03  0.12472457766E+04  0.10100000352E+00 0. -1.
</event>
<event>
 5   0  0.2997105E-07  0.3201297E+04  0.7818609E-02  0.8188475E-01
        1   -1    0    0  501    0  0.00000000000E+00  0.00000000000E+00  0.16080833315E+04  0.16080833316E+04  0.50400001928E-02 0. -1.
       -1   -1    0    0    0  501  0.00000000000E+00  0.00000000000E+00 -0.15932476061E+04  0.15932476062E+04  0.50400001928E-02 0.  1.
    10030    2    1    2    0    0  0.00000000000E+00  0.00000000000E+00  0.14835725403E+02  0.32013309377E+04  0.32012965614E+04 0.  0.
        3    1    3    3  502    0  0.31103974666E+03 -0.51252562233E+03  0.14915654215E+04  0.16075433600E+04  0.10100000352E+00 0. -1.
       -3    1    3    3    0  502 -0.31103974666E+03  0.51252562233E+03 -0.14767296960E+04  0.15937875777E+04  0.10100000352E+00 0.  1.
</event>
<event>
 5   0  0.8488469E-07  0.3205481E+04  0.7818609E-02  0.8187371E-01
       -2   -1    0    0    0  501  0.00000000000E+00  0.00000000000E+00  0.20777408660E+04  0.20777408660E+04  0.25500000920E-02 0.  1.
        2   -1    0    0  501    0  0.00000000000E+00  0.00000000000E+00 -0.12363318563E+04  0.12363318563E+04  0.25500000920E-02 0. -1.
    10030    2    1    2    0    0  0.00000000000E+00  0.00000000000E+00  0.84140900976E+03  0.33140727223E+04  0.32054810695E+04 0.  0.
        3    1    3    3  502    0 -0.10853753215E+04  0.61165932286E+03 -0.62172360099E+03  0.13923745768E+04  0.10100000352E+00 0. -1.
       -3    1    3    3    0  502  0.10853753215E+04 -0.61165932286E+03  0.14631326107E+04  0.19216981456E+04  0.10100000352E+00 0.  1.
</event>
<event>
 5   0  0.3013888E-07  0.3399741E+04  0.7818609E-02  0.8137970E-01
        1   -1    0    0  501    0  0.00000000000E+00  0.00000000000E+00  0.13450695261E+04  0.13450695261E+04  0.50400001928E-02 0. -1.
       -1   -1    0    0    0  501  0.00000000000E+00  0.00000000000E+00 -0.21482603890E+04  0.21482603890E+04  0.50400001928E-02 0.  1.
    10030    2    1    2    0    0  0.00000000000E+00  0.00000000000E+00 -0.80319086292E+03  0.34933299151E+04  0.33997409216E+04 0.  0.
        1    1    3    3  502    0 -0.12082307294E+04 -0.41787986006E+03  0.74956394557E+03  0.14819889276E+04  0.50400001928E-02 0. -1.
       -1    1    3    3    0  502  0.12082307294E+04  0.41787986006E+03 -0.15527548085E+04  0.20113409876E+04  0.50400001928E-02 0.  1.
</event>
<event>
 5   0  0.8838951E-07  0.3202555E+04  0.7818609E-02  0.8188143E-01
        2   -1    0    0  501    0  0.00000000000E+00  0.00000000000E+00  0.18712159786E+04  0.18712159786E+04  0.25500000920E-02 0. -1.
       -2   -1    0    0    0  501  0.00000000000E+00  0.00000000000E+00 -0.13702797117E+04  0.13702797117E+04  0.25500000920E-02 0.  1.
    10030    2    1    2    0    0  0.00000000000E+00  0.00000000000E+00  0.50093626687E+03  0.32414956903E+04  0.32025547875E+04 0.  0.
        2    1    3    3  502    0 -0.75074832674E+03  0.10299081713E+04 -0.73072905572E+03  0.14691149867E+04  0.25500000920E-02 0. -1.
       -2    1    3    3    0  502  0.75074832674E+03 -0.10299081713E+04  0.12316653226E+04  0.17723807035E+04  0.25500000920E-02 0.  1.
</event>
<event>
 5   0  0.2891204E-07  0.3203506E+04  0.7818609E-02  0.8187892E-01
       -1   -1    0    0    0  501  0.00000000000E+00  0.00000000000E+00  0.15214726986E+04  0.15214726986E+04  0.50400001928E-02 0.  1.
        1   -1    0    0  501    0  0.00000000000E+00  0.00000000000E+00 -0.16862697115E+04  0.16862697115E+04  0.50400001928E-02 0. -1.
    10030    2    1    2    0    0  0.00000000000E+00  0.00000000000E+00 -0.16479701287E+03  0.32077424101E+04  0.32035064093E+04 0.  0.
        4    1    3    3  502    0  0.14262023326E+03  0.10936928324E+04  0.10806480896E+04  0.15441199594E+04  0.12699999809E+01 0.  1.
       -4    1    3    3    0  502 -0.14262023326E+03 -0.10936928324E+04 -0.12454451024E+04  0.16636224508E+04  0.12699999809E+01 0. -1.
</event>
<event>
 5   0  0.3013888E-07  0.3225849E+04  0.7818609E-02  0.8182024E-01
        1   -1    0    0  501    0  0.00000000000E+00  0.00000000000E+00  0.19470842003E+04  0.19470842003E+04  0.50400001928E-02 0. -1.
       -1   -1    0    0    0  501  0.00000000000E+00  0.00000000000E+00 -0.13361132650E+04  0.13361132650E+04  0.50400001928E-02 0.  1.
    10030    2    1    2    0    0  0.00000000000E+00  0.00000000000E+00  0.61097093530E+03  0.32831974653E+04  0.32258487429E+04 0.  0.
        1    1    3    3  502    0 -0.36943286625E+03  0.11870591227E+04  0.13513407677E+04  0.18362221744E+04  0.50400001928E-02 0. -1.
       -1    1    3    3    0  502  0.36943286625E+03 -0.11870591227E+04 -0.74036983239E+03  0.14469752908E+04  0.50400001928E-02 0.  1.
</event>
<event>
 5   0  0.2783875E-07  0.3198978E+04  0.7818609E-02  0.8189087E-01
        1   -1    0    0  501    0  0.00000000000E+00  0.00000000000E+00  0.14274716697E+04  0.14274716697E+04  0.50400001928E-02 0.  1.
       -1   -1    0    0    0  501  0.00000000000E+00  0.00000000000E+00 -0.17922355837E+04  0.17922355838E+04  0.50400001928E-02 0. -1.
    10030    2    1    2    0    0  0.00000000000E+00  0.00000000000E+00 -0.36476391402E+03  0.32197072535E+04  0.31989782877E+04 0.  0.
        2    1    3    3  502    0  0.66277122649E+03 -0.12759779189E+04  0.52285826081E+03  0.15299562442E+04  0.25500000920E-02 0.  1.
       -2    1    3    3    0  502 -0.66277122649E+03  0.12759779189E+04 -0.88762217483E+03  0.16897510093E+04  0.25500000920E-02 0. -1.
</event>
<event>
 5   0  0.2997105E-07  0.3070673E+04  0.7818609E-02  0.8223833E-01
       -1   -1    0    0    0  501  0.00000000000E+00  0.00000000000E+00  0.17969884187E+04  0.17969884187E+04  0.50400001928E-02 0.  1.
        1   -1    0    0  501    0  0.00000000000E+00  0.00000000000E+00 -0.13117823705E+04  0.13117823705E+04  0.50400001928E-02 0. -1.
    10030    2    1    2    0    0  0.00000000000E+00  0.00000000000E+00  0.48520604822E+03  0.31087707893E+04  0.30706727131E+04 0.  0.
        3    1    3    3  502    0  0.69320456229E+03  0.13251977864E+04 -0.10894573712E+03  0.14995168962E+04  0.10100000352E+00 0.  1.
       -3    1    3    3    0  502 -0.69320456229E+03 -0.13251977864E+04  0.59415178534E+03  0.16092538931E+04  0.10100000352E+00 0. -1.
</event>
<event>
 5   0  0.8335929E-07  0.3212785E+04  0.7818609E-02  0.8185449E-01
        2   -1    0    0  501    0  0.00000000000E+00  0.00000000000E+00  0.20495716817E+04  0.20495716817E+04  0.25500000920E-02 0.  1.
       -2   -1    0    0    0  501  0.00000000000E+00  0.00000000000E+00 -0.12590417233E+04  0.12590417233E+04  0.25500000920E-02 0. -1.
    10030    2    1    2    0    0  0.00000000000E+00  0.00000000000E+00  0.79052995846E+03  0.33086134050E+04  0.32127846253E+04 0.  0.
        4    1    3    3  502    0  0.91616542340E+03  0.57236266622E+03  0.16196497881E+04  0.19468500594E+04  0.12699999809E+01 0.  1.
       -4    1    3    3    0  502 -0.91616542340E+03 -0.57236266622E+03 -0.82911982964E+03  0.13617633456E+04  0.12699999809E+01 0. -1.
</event>
<event>
 5   0  0.8335929E-07  0.3206335E+04  0.7818609E-02  0.8187146E-01
        2   -1    0    0  501    0  0.00000000000E+00  0.00000000000E+00  0.28527434484E+04  0.28527434484E+04  0.25500000920E-02 0. -1.
       -2   -1    0    0    0  501  0.00000000000E+00  0.00000000000E+00 -0.90093849627E+03  0.90093849627E+03  0.25500000920E-02 0.  1.
    10030    2    1    2    0    0  0.00000000000E+00  0.00000000000E+00  0.19518049521E+04  0.37536819446E+04  0.32063352243E+04 0.  0.
        4    1    3    3  502    0  0.97370825220E+03 -0.81712937995E+02  0.24638349063E+04  0.26505223680E+04  0.12699999809E+01 0. -1.
       -4    1    3    3    0  502 -0.97370825220E+03  0.81712937995E+02 -0.51202995423E+03  0.11031595767E+04  0.12699999809E+01 0.  1.
</event>
<event>
 5   0  0.2783875E-07  0.3186080E+04  0.7818609E-02  0.8192503E-01
        1   -1    0    0  501    0  0.00000000000E+00  0.00000000000E+00  0.21644671464E+04  0.21644671464E+04  0.50400001928E-02 0. -1.
       -1   -1    0    0    0  501  0.00000000000E+00  0.00000000000E+00 -0.11724718229E+04  0.11724718229E+04  0.50400001928E-02 0.  1.
    10030    2    1    2    0    0  0.00000000000E+00  0.00000000000E+00  0.99199532352E+03  0.33369389693E+04  0.31860801878E+04 0.  0.
        2    1    3    3  502    0 -0.21868166684E+03 -0.93677005707E+02  0.21457572850E+04  0.21589051343E+04  0.25500000920E-02 0. -1.
       -2    1    3    3    0  502  0.21868166684E+03  0.93677005707E+02 -0.11537619615E+04  0.11780338351E+04  0.25500000920E-02 0.  1.
</event>
<event>
 5   0  0.8335929E-07  0.3180390E+04  0.7818609E-02  0.8194015E-01
        2   -1    0    0  501    0  0.00000000000E+00  0.00000000000E+00  0.18496726530E+04  0.18496726530E+04  0.25500000920E-02 0. -1.
       -2   -1    0    0    0  501  0.00000000000E+00  0.00000000000E+00 -0.13671176279E+04  0.13671176279E+04  0.25500000920E-02 0.  1.
    10030    2    1    2    0    0  0.00000000000E+00  0.00000000000E+00  0.48255502513E+03  0.32167902809E+04  0.31803899696E+04 0.  0.
        4    1    3    3  502    0  0.21891148768E+03 -0.15157099398E+04  0.67445438625E+03  0.16733765843E+04  0.12699999809E+01 0.  1.
       -4    1    3    3    0  502 -0.21891148768E+03  0.15157099398E+04 -0.19189936112E+03  0.15434136965E+04  0.12699999809E+01 0. -1.
</event>
<event>
 5   0  0.8195618E-07  0.3193682E+04  0.7818609E-02  0.8190488E-01
        2   -1    0    0  501    0  0.00000000000E+00  0.00000000000E+00  0.27936404027E+04  0.27936404027E+04  0.25500000920E-02 0.  1.
       -2   -1    0    0    0  501  0.00000000000E+00  0.00000000000E+00 -0.91275227317E+03  0.91275227317E+03  0.25500000920E-02 0. -1.
    10030    2    1    2    0    0  0.00000000000E+00  0.00000000000E+00  0.18808881296E+04  0.37063926759E+04  0.31936822810E+04 0.  0.
        1    1    3    3  502    0 -0.13082310801E+03  0.89647772197E+03  0.24665040810E+04  0.26276280889E+04  0.50400001928E-02 0.  1.
       -1    1    3    3    0  502  0.13082310801E+03 -0.89647772197E+03 -0.58561595148E+03  0.10787645870E+04  0.50400001928E-02 0. -1.
</event>
<event>
 5   0  0.8335929E-07  0.3212292E+04  0.7818609E-02  0.8185578E-01
       -2   -1    0    0    0  501  0.00000000000E+00  0.00000000000E+00  0.17300666813E+04  0.17300666814E+04  0.25500000920E-02 0. -1.
        2   -1    0    0  501    0  0.00000000000E+00  0.00000000000E+00 -0.14911018593E+04  0.14911018593E+04  0.25500000920E-02 0.  1.
    10030    2    1    2    0    0  0.00000000000E+00  0.00000000000E+00  0.23896482201E+03  0.32211685407E+04  0.32122924184E+04 0.  0.
        4    1    3    3  502    0  0.13204291736E+04 -0.77694649715E+03  0.60302326729E+03  0.16464561141E+04  0.12699999809E+01 0. -1.
       -4    1    3    3    0  502 -0.13204291736E+04  0.77694649715E+03 -0.36405844528E+03  0.15747124266E+04  0.12699999809E+01 0.  1.
</event>
<event>
 5   0  0.2997105E-07  0.3196183E+04  0.7818609E-02  0.8189826E-01
        1   -1    0    0  501    0  0.00000000000E+00  0.00000000000E+00  0.19810812214E+04  0.19810812214E+04  0.50400001928E-02 0. -1.
       -1   -1    0    0    0  501  0.00000000000E+00  0.00000000000E+00 -0.12891424201E+04  0.12891424201E+04  0.50400001928E-02 0.  1.
    10030    2    1    2    0    0  0.00000000000E+00  0.00000000000E+00  0.69193880127E+03  0.32702236415E+04  0.31961826232E+04 0.  0.
        3    1    3    3  502    0 -0.21272588465E+03  0.92006817055E+03  0.16650666232E+04  0.19142164481E+04  0.10100000352E+00 0. -1.
       -3    1    3    3    0  502  0.21272588465E+03 -0.92006817055E+03 -0.97312782193E+03  0.13560071934E+04  0.10100000352E+00 0.  1.
</event>
<event>
 5   0  0.8802800E-07  0.3151332E+04  0.7818609E-02  0.8201790E-01
       -2   -1    0    0    0  501  0.00000000000E+00  0.00000000000E+00  0.15099063363E+04  0.15099063363E+04  0.25500000920E-02 0.  1.
        2   -1    0    0  501    0  0.00000000000E+00  0.00000000000E+00 -0.16442895673E+04  0.16442895674E+04  0.25500000920E-02 0. -1.
    10030    2    1    2    0    0  0.00000000000E+00  0.00000000000E+00 -0.13438323106E+03  0.31541959036E+04  0.31513319320E+04 0.  0.
        5    1    3    3  502    0 -0.29959875452E+03 -0.91159565739E+03 -0.13181014421E+04  0.16303924552E+04  0.46999998093E+01 0. -1.
       -5    1    3    3    0  502  0.29959875452E+03  0.91159565739E+03  0.11837182111E+04  0.15238034484E+04  0.46999998093E+01 0.  1.
</event>
<event>
 5   0  0.2997105E-07  0.3198447E+04  0.7818609E-02  0.8189227E-01
       -1   -1    0    0    0  501  0.00000000000E+00  0.00000000000E+00  0.15194684769E+04  0.15194684769E+04  0.50400001928E-02 0. -1.
        1   -1    0    0  501    0  0.00000000000E+00  0.00000000000E+00 -0.16831647635E+04  0.16831647635E+04  0.50400001928E-02 0.  1.
    10030    2    1    2    0    0  0.00000000000E+00  0.00000000000E+00 -0.16369628661E+03  0.32026332403E+04  0.31984469978E+04 0.  0.
        3    1    3    3  502    0 -0.87993871536E+03 -0.11378265117E+04  0.61804773502E+03  0.15655428216E+04  0.10100000352E+00 0. -1.
       -3    1    3    3    0  502  0.87993871536E+03  0.11378265117E+04 -0.78174402163E+03  0.16370904187E+04  0.10100000352E+00 0.  1.
</event>
<event>
 5   0  0.2997105E-07  0.3309213E+04  0.7818609E-02  0.8160555E-01
       -1   -1    0    0    0  501  0.00000000000E+00  0.00000000000E+00  0.12571194690E+04  0.12571194690E+04  0.50400001928E-02 0. -1.
        1   -1    0    0  501    0  0.00000000000E+00  0.00000000000E+00 -0.21777738340E+04  0.21777738340E+04  0.50400001928E-02 0.  1.
    10030    2    1    2    0    0  0.00000000000E+00  0.00000000000E+00 -0.92065436500E+03  0.34348933031E+04  0.33092125262E+04 0.  0.
        3    1    3    3  502    0 -0.18121313249E+03  0.11058569029E+04  0.80326650010E+03  0.13787656688E+04  0.10100000352E+00 0. -1.
       -3    1    3    3    0  502  0.18121313249E+03 -0.11058569029E+04 -0.17239208651E+04  0.20561276343E+04  0.10100000352E+00 0.  1.
</event>
<event>
 5   0  0.8488469E-07  0.3208725E+04  0.7818609E-02  0.8186517E-01
        2   -1    0    0  501    0  0.00000000000E+00  0.00000000000E+00  0.19721692081E+04  0.19721692081E+04  0.25500000920E-02 0. -1.
       -2   -1    0    0    0  501  0.00000000000E+00  0.00000000000E+00 -0.13051511221E+04  0.13051511221E+04  0.25500000920E-02 0.  1.
    10030    2    1    2    0    0  0.00000000000E+00  0.00000000000E+00  0.66701808596E+03  0.32773203302E+04  0.32087248900E+04 0.  0.
        3    1    3    3  502    0 -0.15698348897E+04 -0.43556667646E+02 -0.16835576551E+01  0.15704399411E+04  0.10100000352E+00 0.  1.
       -3    1    3    3    0  502  0.15698348897E+04  0.43556667646E+02  0.66870164362E+03  0.17068803890E+04  0.10100000352E+00 0. -1.
</event>
<event>
 5   0  0.3013888E-07  0.3177036E+04  0.7818609E-02  0.8194908E-01
       -1   -1    0    0    0  501  0.00000000000E+00  0.00000000000E+00  0.91322457534E+03  0.91322457535E+03  0.50400001928E-02 0. -1.
        1   -1    0    0  501    0  0.00000000000E+00  0.00000000000E+00 -0.27631640489E+04  0.27631640489E+04  0.50400001928E-02 0.  1.
    10030    2    1    2    0    0  0.00000000000E+00  0.00000000000E+00 -0.18499394735E+04  0.36763886242E+04  0.31770359237E+04 0.  0.
        1    1    3    3  502    0  0.70402516268E+03 -0.13748541815E+04 -0.49585588626E+03  0.16222664732E+04  0.50400001928E-02 0.  1.
       -1    1    3    3    0  502 -0.70402516268E+03  0.13748541815E+04 -0.13540835873E+04  0.20541221510E+04  0.50400001928E-02 0. -1.
</event>
<event>
 5   0  0.2891204E-07  0.3199615E+04  0.7818609E-02  0.8188919E-01
        1   -1    0    0  501    0  0.00000000000E+00  0.00000000000E+00  0.20508978998E+04  0.20508978998E+04  0.50400001928E-02 0.  1.
       -1   -1    0    0    0  501  0.00000000000E+00  0.00000000000E+00 -0.12479332847E+04  0.12479332847E+04  0.50400001928E-02 0. -1.
    10030    2    1    2    0    0  0.00000000000E+00  0.00000000000E+00  0.80296461508E+03  0.32988311846E+04  0.31996148223E+04 0.  0.
        4    1    3    3  502    0 -0.77186258266E+03 -0.35263568473E+03  0.17997288742E+04  0.19897611430E+04  0.12699999809E+01 0.  1.
       -4    1    3    3    0  502  0.77186258266E+03  0.35263568473E+03 -0.99676425910E+03  0.13090700416E+04  0.12699999809E+01 0. -1.
</event>
<event>
 5   0  0.3075756E-07  0.3197001E+04  0.7818609E-02  0.8189610E-01
        1   -1    0    0  501    0  0.00000000000E+00  0.00000000000E+00  0.16126713242E+04  0.16126713242E+04  0.50400001928E-02 0. -1.
       -1   -1    0    0    0  501  0.00000000000E+00  0.00000000000E+00 -0.15844537407E+04  0.15844537407E+04  0.50400001928E-02 0.  1.
    10030    2    1    2    0    0  0.00000000000E+00  0.00000000000E+00  0.28217583501E+02  0.31971250648E+04  0.31970005393E+04 0.  0.
        5    1    3    3  502    0 -0.10273018570E+04  0.91879079753E+03  0.82386583219E+03  0.16057093867E+04  0.46999998093E+01 0. -1.
       -5    1    3    3    0  502  0.10273018570E+04 -0.91879079753E+03 -0.79564824869E+03  0.15914156782E+04  0.46999998093E+01 0.  1.
</event>
<event>
 5   0  0.2891204E-07  0.3192971E+04  0.7818609E-02  0.8190676E-01
       -1   -1    0    0    0  501  0.00000000000E+00  0.00000000000E+00  0.15432426511E+04  0.15432426511E+04  0.50400001928E-02 0.  1.
        1   -1    0    0  501    0  0.00000000000E+00  0.00000000000E+00 -0.16515653047E+04  0.16515653047E+04  0.50400001928E-02 0. -1.
    10030    2    1    2    0    0  0.00000000000E+00  0.00000000000E+00 -0.10832265362E+03  0.31948079559E+04  0.31929710424E+04 0.  0.
        4    1    3    3  502    0  0.20604810275E+03  0.15430053674E+04  0.30022179631E+03  0.15853883198E+04  0.12699999809E+01 0.  1.
       -4    1    3    3    0  502 -0.20604810275E+03 -0.15430053674E+04 -0.40854444992E+03  0.16094196361E+04  0.12699999809E+01 0. -1.
</event>
<event>
 5   0  0.3013888E-07  0.3202219E+04  0.7818609E-02  0.8188231E-01
       -1   -1    0    0    0  501  0.00000000000E+00  0.00000000000E+00  0.13336858673E+04  0.13336858673E+04  0.50400001928E-02 0. -1.
        1   -1    0    0  501    0  0.00000000000E+00  0.00000000000E+00 -0.19221551732E+04  0.19221551732E+04  0.50400001928E-02 0.  1.
    10030    2    1    2    0    0  0.00000000000E+00  0.00000000000E+00 -0.58846930588E+03  0.32558410405E+04  0.32022187241E+04 0.  0.
        1    1    3    3  502    0 -0.86534465249E+03  0.13469614808E+04 -0.27328399889E+03  0.16241338437E+04  0.50400001928E-02 0. -1.
       -1    1    3    3    0  502  0.86534465249E+03 -0.13469614808E+04 -0.31518530699E+03  0.16317071968E+04  0.50400001928E-02 0.  1.
</event>
<event>
 5   0  0.8335929E-07  0.3169327E+04  0.7818609E-02  0.8196965E-01
        2   -1    0    0  501    0  0.00000000000E+00  0.00000000000E+00  0.20252486535E+04  0.20252486535E+04  0.25500000920E-02 0.  1.
       -2   -1    0    0    0  501  0.00000000000E+00  0.00000000000E+00 -0.12399257674E+04  0.12399257674E+04  0.25500000920E-02 0. -1.
    10030    2    1    2    0    0  0.00000000000E+00  0.00000000000E+00  0.78532288616E+03  0.32651744209E+04  0.31693267366E+04 0.  0.
        4    1    3    3  502    0 -0.25776269346E+03 -0.14553677881E+04 -0.19612844352E+03  0.14909745082E+04  0.12699999809E+01 0. -1.
       -4    1    3    3    0  502  0.25776269346E+03  0.14553677881E+04  0.98145132968E+03  0.17741999127E+04  0.12699999809E+01 0.  1.
</event>
<event>
 5   0  0.2891204E-07  0.3246961E+04  0.7818609E-02  0.8176524E-01
       -1   -1    0    0    0  501  0.00000000000E+00  0.00000000000E+00  0.97222268470E+03  0.97222268471E+03  0.50400001928E-02 0. -1.
        1   -1    0    0  501    0  0.00000000000E+00  0.00000000000E+00 -0.27109929984E+04  0.27109929984E+04  0.50400001928E-02 0.  1.
    10030    2    1    2    0    0  0.00000000000E+00  0.00000000000E+00 -0.17387703137E+04  0.36832156831E+04  0.32469609737E+04 0.  0.
        4    1    3    3  502    0  0.71707564352E+03 -0.54864327372E+02 -0.25204428016E+04  0.26210381725E+04  0.12699999809E+01 0.  1.
       -4    1    3    3    0  502 -0.71707564352E+03  0.54864327372E+02  0.78167248784E+03  0.10621775106E+04  0.12699999809E+01 0. -1.
</event>
<event>
 5   0  0.3013888E-07  0.3186748E+04  0.7818609E-02  0.8192326E-01
        1   -1    0    0  501    0  0.00000000000E+00  0.00000000000E+00  0.15567374709E+04  0.15567374709E+04  0.50400001928E-02 0. -1.
       -1   -1    0    0    0  501  0.00000000000E+00  0.00000000000E+00 -0.16308722951E+04  0.16308722951E+04  0.50400001928E-02 0.  1.
    10030    2    1    2    0    0  0.00000000000E+00  0.00000000000E+00 -0.74134824140E+02  0.31876097660E+04  0.31867475658E+04 0.  0.
        1    1    3    3  502    0 -0.11009462227E+04 -0.28693042925E+02  0.11147362680E+04  0.15670171739E+04  0.50400001928E-02 0. -1.
       -1    1    3    3    0  502  0.11009462227E+04  0.28693042925E+02 -0.11888710922E+04  0.16205925921E+04  0.50400001928E-02 0.  1.
</event>
<event>
 5   0  0.2997105E-07  0.3190514E+04  0.7818609E-02  0.8191327E-01
        1   -1    0    0  501    0  0.00000000000E+00  0.00000000000E+00  0.23300042237E+04  0.23300042237E+04  0.50400001928E-02 0.  1.
       -1   -1    0    0    0  501  0.00000000000E+00  0.00000000000E+00 -0.10922058138E+04  0.10922058138E+04  0.50400001928E-02 0. -1.
    10030    2    1    2    0    0  0.00000000000E+00  0.00000000000E+00  0.12377984099E+04  0.34222100376E+04  0.31905135382E+04 0.  0.
        3    1    3    3  502    0 -0.62043830632E+03  0.13182446988E+04  0.13157982721E+04  0.19631703648E+04  0.10100000352E+00 0.  1.
       -3    1    3    3    0  502  0.62043830632E+03 -0.13182446988E+04 -0.77999862212E+02  0.14590396728E+04  0.10100000352E+00 0. -1.
</event>
<event>
 5   0  0.2997105E-07  0.3178847E+04  0.7818609E-02  0.8194426E-01
        1   -1    0    0  501    0  0.00000000000E+00  0.00000000000E+00  0.19101006406E+04  0.19101006406E+04  0.50400001928E-02 0.  1.
       -1   -1    0    0    0  501  0.00000000000E+00  0.00000000000E+00 -0.13225835777E+04  0.13225835778E+04  0.50400001928E-02 0. -1.
    10030    2    1    2    0    0  0.00000000000E+00  0.00000000000E+00  0.58751706285E+03  0.32326842184E+04  0.31788474258E+04 0.  0.
        3    1    3    3  502    0  0.11023719257E+04  0.11227896794E+02  0.14581025854E+04  0.18279532511E+04  0.10100000352E+00 0.  1.
       -3    1    3    3    0  502 -0.11023719257E+04 -0.11227896794E+02 -0.87058552257E+03  0.14047309673E+04  0.10100000352E+00 0. -1.
</event>
<event>
 5   0  0.8335929E-07  0.3197547E+04  0.7818609E-02  0.8189465E-01
       -2   -1    0    0    0  501  0.00000000000E+00  0.00000000000E+00  0.16993717693E+04  0.16993717693E+04  0.25500000920E-02 0.  1.
        2   -1    0    0  501    0  0.00000000000E+00  0.00000000000E+00 -0.15041306664E+04  0.15041306664E+04  0.25500000920E-02 0. -1.
    10030    2    1    2    0    0  0.00000000000E+00  0.00000000000E+00  0.19524110294E+03  0.32035024357E+04  0.31975473049E+04 0.  0.
        4    1    3    3  502    0 -0.18617270446E+03  0.15613284586E+04 -0.19217366504E+03  0.15840893794E+04  0.12699999809E+01 0. -1.
       -4    1    3    3    0  502  0.18617270446E+03 -0.15613284586E+04  0.38741476798E+03  0.16194130563E+04  0.12699999809E+01 0.  1.
</event>
<event>
 5   0  0.2783875E-07  0.3206060E+04  0.7818609E-02  0.8187219E-01
        1   -1    0    0  501    0  0.00000000000E+00  0.00000000000E+00  0.22648377167E+04  0.22648377167E+04  0.50400001928E-02 0.  1.
       -1   -1    0    0    0  501  0.00000000000E+00  0.00000000000E+00 -0.11346091244E+04  0.11346091244E+04  0.50400001928E-02 0. -1.
    10030    2    1    2    0    0  0.00000000000E+00  0.00000000000E+00  0.11302285922E+04  0.33994468411E+04  0.32060602232E+04 0.  0.
        2    1    3    3  502    0 -0.15593731986E+04  0.29812740410E+03  0.32997000036E+03  0.16215439935E+04  0.25500000920E-02 0. -1.
       -2    1    3    3    0  502  0.15593731986E+04 -0.29812740410E+03  0.80025859188E+03  0.17779028476E+04  0.25500000920E-02 0.  1.
</event>
<event>
 5   0  0.2891204E-07  0.3198801E+04  0.7818609E-02  0.8189134E-01
        1   -1    0    0  501    0  0.00000000000E+00  0.00000000000E+00  0.20252107974E+04  0.20252107974E+04  0.50400001928E-02 0.  1.
       -1   -1    0    0    0  501  0.00000000000E+00  0.00000000000E+00 -0.12631191207E+04  0.12631191207E+04  0.50400001928E-02 0. -1.
    10030    2    1    2    0    0  0.00000000000E+00  0.00000000000E+00  0.76209167666E+03  0.32883299181E+04  0.31988013265E+04 0.  0.
        4    1    3    3  502    0  0.11123825453E+04  0.10540247697E+04  0.85181248594E+03  0.17532681673E+04  0.12699999809E+01 0.  1.
       -4    1    3    3    0  502 -0.11123825453E+04 -0.10540247697E+04 -0.89720809281E+02  0.15350617508E+04  0.12699999809E+01 0. -1.
</event>
<event>
 5   0  0.8335929E-07  0.3201706E+04  0.7818609E-02  0.8188367E-01
       -2   -1    0    0    0  501  0.00000000000E+00  0.00000000000E+00  0.15324059957E+04  0.15324059957E+04  0.25500000920E-02 0. -1.
        2   -1    0    0  501    0  0.00000000000E+00  0.00000000000E+00 -0.16723569230E+04  0.16723569230E+04  0.25500000920E-02 0.  1.
    10030    2    1    2    0    0  0.00000000000E+00  0.00000000000E+00 -0.13995092730E+03  0.32047629186E+04  0.32017056552E+04 0.  0.
        4    1    3    3  502    0  0.14094546585E+04 -0.29156653203E+03 -0.77146896101E+03  0.16330154463E+04  0.12699999809E+01 0.  1.
       -4    1    3    3    0  502 -0.14094546585E+04  0.29156653203E+03  0.63151803371E+03  0.15717474724E+04  0.12699999809E+01 0. -1.
</event>
<event>
 5   0  0.8802800E-07  0.3258771E+04  0.7818609E-02  0.8173466E-01
       -2   -1    0    0    0  501  0.00000000000E+00  0.00000000000E+00  0.10656668658E+04  0.10656668658E+04  0.25500000920E-02 0. -1.
        2   -1    0    0  501    0  0.00000000000E+00  0.00000000000E+00 -0.24913013772E+04  0.24913013772E+04  0.25500000920E-02 0.  1.
    10030    2    1    2    0    0  0.00000000000E+00  0.00000000000E+00 -0.14256345114E+04  0.35569682430E+04  0.32587711367E+04 0.  0.
        5    1    3    3  502    0  0.65943575963E+03  0.26851270481E+03  0.88687058243E+03  0.11373284986E+04  0.46999998093E+01 0. -1.
       -5    1    3    3    0  502 -0.65943575963E+03 -0.26851270481E+03 -0.23125050938E+04  0.24196397444E+04  0.46999998093E+01 0.  1.
</event>
<event>
 5   0  0.2891204E-07  0.3206104E+04  0.7818609E-02  0.8187207E-01
        1   -1    0    0  501    0  0.00000000000E+00  0.00000000000E+00  0.17077069591E+04  0.17077069591E+04  0.50400001928E-02 0. -1.
       -1   -1    0    0    0  501  0.00000000000E+00  0.00000000000E+00 -0.15048104278E+04  0.15048104278E+04  0.50400001928E-02 0.  1.
    10030    2    1    2    0    0  0.00000000000E+00  0.00000000000E+00  0.20289653127E+03  0.32125173869E+04  0.32061037037E+04 0.  0.
        4    1    3    3  502    0 -0.96863714997E+03  0.23540068872E+03  0.13593887974E+04  0.16857078418E+04  0.12699999809E+01 0. -1.
       -4    1    3    3    0  502  0.96863714997E+03 -0.23540068872E+03 -0.11564922661E+04  0.15268095451E+04  0.12699999809E+01 0.  1.
</event>
<event>
 5   0  0.8335929E-07  0.3239566E+04  0.7818609E-02  0.8178445E-01
       -2   -1    0    0    0  501  0.00000000000E+00  0.00000000000E+00  0.14591620561E+04  0.14591620561E+04  0.25500000920E-02 0. -1.
        2   -1    0    0  501    0  0.00000000000E+00  0.00000000000E+00 -0.17980843991E+04  0.17980843991E+04  0.25500000920E-02 0.  1.
    10030    2    1    2    0    0  0.00000000000E+00  0.00000000000E+00 -0.33892234300E+03  0.32572464552E+04  0.32395657294E+04 0.  0.
        4    1    3    3  502    0  0.39093906098E+03 -0.41614656719E+03 -0.16935452858E+04  0.17872069166E+04  0.12699999809E+01 0.  1.
       -4    1    3    3    0  502 -0.39093906098E+03  0.41614656719E+03  0.13546229428E+04  0.14700395385E+04  0.12699999809E+01 0. -1.
</event>
<event>
 5   0  0.8488469E-07  0.3208468E+04  0.7818609E-02  0.8186584E-01
       -2   -1    0    0    0  501  0.00000000000E+00  0.00000000000E+00  0.11330097387E+04  0.11330097387E+04  0.25500000920E-02 0. -1.
        2   -1    0    0  501    0  0.00000000000E+00  0.00000000000E+00 -0.22714427148E+04  0.22714427148E+04  0.25500000920E-02 0.  1.
    10030    2    1    2    0    0  0.00000000000E+00  0.00000000000E+00 -0.11384329761E+04  0.34044524535E+04  0.32084679938E+04 0.  0.
        3    1    3    3  502    0 -0.39637205110E+03  0.88059877320E+03  0.79004833557E+03  0.12476944277E+04  0.10100000352E+00 0. -1.
       -3    1    3    3    0  502  0.39637205110E+03 -0.88059877320E+03 -0.19284813116E+04  0.21567580258E+04  0.10100000352E+00 0.  1.
</event>
<event>
 5   0  0.3075756E-07  0.3074937E+04  0.7818609E-02  0.8222650E-01
       -1   -1    0    0    0  501  0.00000000000E+00  0.00000000000E+00  0.83515551139E+03  0.83515551140E+03  0.50400001928E-02 0.  1.
        1   -1    0    0  501    0  0.00000000000E+00  0.00000000000E+00 -0.28303815968E+04  0.28303815968E+04  0.50400001928E-02 0. -1.
    10030    2    1    2    0    0  0.00000000000E+00  0.00000000000E+00 -0.19952260854E+04  0.36655371082E+04  0.30749366107E+04 0.  0.
        5    1    3    3  502    0  0.92770894883E+03  0.21896396571E+03  0.44039871252E+03  0.10500296320E+04  0.46999998093E+01 0.  1.
       -5    1    3    3    0  502 -0.92770894883E+03 -0.21896396571E+03 -0.24356247979E+04  0.26155074762E+04  0.46999998093E+01 0. -1.
</event>
<event>
 5   0  0.8838951E-07  0.3234391E+04  0.7818609E-02  0.8179793E-01
       -2   -1    0    0    0  501  0.00000000000E+00  0.00000000000E+00  0.92021766400E+03  0.92021766401E+03  0.25500000920E-02 0.  1.
        2   -1    0    0  501    0  0.00000000000E+00  0.00000000000E+00 -0.28420684298E+04  0.28420684298E+04  0.25500000920E-02 0. -1.
    10030    2    1    2    0    0  0.00000000000E+00  0.00000000000E+00 -0.19218507658E+04  0.37622860938E+04  0.32343911770E+04 0.  0.
        2    1    3    3  502    0 -0.35938356803E+03  0.29877889933E+03  0.83995093249E+03  0.96121951117E+03  0.25500000920E-02 0.  1.
       -2    1    3    3    0  502  0.35938356803E+03 -0.29877889933E+03 -0.27618016983E+04  0.28010665826E+04  0.25500000920E-02 0. -1.
</event>
<event>
 5   0  0.2783875E-07  0.3203071E+04  0.7818609E-02  0.8188007E-01
        3   -1    0    0  501    0  0.00000000000E+00  0.00000000000E+00  0.12689535973E+04  0.12689536013E+04  0.10100000352E+00 0. -1.
       -3   -1    0    0    0  501  0.00000000000E+00  0.00000000000E+00 -0.20212844430E+04  0.20212844456E+04  0.10100000352E+00 0.  1.
    10030    2    1    2    0    0  0.00000000000E+00  0.00000000000E+00 -0.75233084572E+03  0.32902380469E+04  0.32030711362E+04 0.  0.
        2    1    3    3  502    0  0.84727130329E+03 -0.89626582281E+02  0.10168416565E+04  0.13266003694E+04  0.25500000920E-02 0. -1.
       -2    1    3    3    0  502 -0.84727130329E+03  0.89626582281E+02 -0.17691725023E+04  0.19636376775E+04  0.25500000920E-02 0.  1.
</event>
<event>
 5   0  0.8838951E-07  0.3204173E+04  0.7818609E-02  0.8187716E-01
        2   -1    0    0  501    0  0.00000000000E+00  0.00000000000E+00  0.20368221774E+04  0.20368221774E+04  0.25500000920E-02 0.  1.
       -2   -1    0    0    0  501  0.00000000000E+00  0.00000000000E+00 -0.12601399908E+04  0.12601399908E+04  0.25500000920E-02 0. -1.
    10030    2    1    2    0    0  0.00000000000E+00  0.00000000000E+00  0.77668218667E+03  0.32969621682E+04  0.32041729541E+04 0.  0.
        2    1    3    3  502    0  0.13894731851E+04 -0.50083217697E+03  0.10269694332E+04  0.17989260180E+04  0.25500000920E-02 0.  1.
       -2    1    3    3    0  502 -0.13894731851E+04  0.50083217697E+03 -0.25028724655E+03  0.14980361502E+04  0.25500000920E-02 0. -1.
</event>
<event>
 5   0  0.2997105E-07  0.3242682E+04  0.7818609E-02  0.8177635E-01
       -1   -1    0    0    0  501  0.00000000000E+00  0.00000000000E+00  0.21805886395E+04  0.21805886395E+04  0.50400001928E-02 0.  1.
        1   -1    0    0  501    0  0.00000000000E+00  0.00000000000E+00 -0.12055213642E+04  0.12055213642E+04  0.50400001928E-02 0. -1.
    10030    2    1    2    0    0  0.00000000000E+00  0.00000000000E+00  0.97506727535E+03  0.33861100037E+04  0.32426817244E+04 0.  0.
        3    1    3    3  502    0 -0.45600361050E+03 -0.47990912874E+03  0.20330292785E+04  0.21380973135E+04  0.10100000352E+00 0.  1.
       -3    1    3    3    0  502  0.45600361050E+03  0.47990912874E+03 -0.10579620031E+04  0.12480126902E+04  0.10100000352E+00 0. -1.
</event>
<event>
 5   0  0.8488469E-07  0.3196215E+04  0.7818609E-02  0.8189818E-01
        2   -1    0    0  501    0  0.00000000000E+00  0.00000000000E+00  0.19230915966E+04  0.19230915966E+04  0.25500000920E-02 0.  1.
       -2   -1    0    0    0  501  0.00000000000E+00  0.00000000000E+00 -0.13280423222E+04  0.13280423222E+04  0.25500000920E-02 0. -1.
    10030    2    1    2    0    0  0.00000000000E+00  0.00000000000E+00  0.59504927438E+03  0.32511339187E+04  0.31962146547E+04 0.  0.
        3    1    3    3  502    0 -0.64785100381E+02  0.22193904731E+03  0.19059900979E+04  0.19199615396E+04  0.10100000352E+00 0.  1.
       -3    1    3    3    0  502  0.64785100381E+02 -0.22193904731E+03 -0.13109408235E+04  0.13311723791E+04  0.10100000352E+00 0. -1.
</event>
<event>
 5   0  0.2783875E-07  0.3205381E+04  0.7818609E-02  0.8187398E-01
       -1   -1    0    0    0  501  0.00000000000E+00  0.00000000000E+00  0.12526311639E+04  0.12526311640E+04  0.50400001928E-02 0.  1.
        1   -1    0    0  501    0  0.00000000000E+00  0.00000000000E+00 -0.20505768228E+04  0.20505768228E+04  0.50400001928E-02 0. -1.
    10030    2    1    2    0    0  0.00000000000E+00  0.00000000000E+00 -0.79794565888E+03  0.33032079868E+04  0.32053807464E+04 0.  0.
        2    1    3    3  502    0 -0.15630691166E+03  0.94105964515E+03  0.92819544328E+03  0.13310040899E+04  0.25500000920E-02 0.  1.
       -2    1    3    3    0  502  0.15630691166E+03 -0.94105964515E+03 -0.17261411022E+04  0.19722038969E+04  0.25500000920E-02 0. -1.
</event>
<event>
 5   0  0.3013888E-07  0.3198869E+04  0.7818609E-02  0.8189116E-01
        1   -1    0    0  501    0  0.00000000000E+00  0.00000000000E+00  0.21186233400E+04  0.21186233400E+04  0.50400001928E-02 0.  1.
       -1   -1    0    0    0  501  0.00000000000E+00  0.00000000000E+00 -0.12074777695E+04  0.12074777695E+04  0.50400001928E-02 0. -1.
    10030    2    1    2    0    0  0.00000000000E+00  0.00000000000E+00  0.91114557050E+03  0.33261011094E+04  0.31988689156E+04 0.  0.
        1    1    3    3  502    0  0.27964375654E+03  0.17850397248E+02 -0.11817566242E+04  0.12145237692E+04  0.50400001928E-02 0. -1.
       -1    1    3    3    0  502 -0.27964375654E+03 -0.17850397248E+02  0.20929021946E+04  0.21115773402E+04  0.50400001928E-02 0.  1.
</event>
<event>
 5   0  0.8838951E-07  0.3197227E+04  0.7818609E-02  0.8189550E-01
       -2   -1    0    0    0  501  0.00000000000E+00  0.00000000000E+00  0.27260414765E+04  0.27260414765E+04  0.25500000920E-02 0. -1.
        2   -1    0    0  501    0  0.00000000000E+00  0.00000000000E+00 -0.93746364947E+03  0.93746364947E+03  0.25500000920E-02 0.  1.
    10030    2    1    2    0    0  0.00000000000E+00  0.00000000000E+00  0.17885778271E+04  0.36635051260E+04  0.31972267928E+04 0.  0.
        2    1    3    3  502    0 -0.11402078729E+04  0.62125429620E+03  0.19627694570E+04  0.23534006959E+04  0.25500000920E-02 0. -1.
       -2    1    3    3    0  502  0.11402078729E+04 -0.62125429620E+03 -0.17419162995E+03  0.13101044301E+04  0.25500000920E-02 0.  1.
</event>
<event>
 5   0  0.2997105E-07  0.3202620E+04  0.7818609E-02  0.8188125E-01
       -1   -1    0    0    0  501  0.00000000000E+00  0.00000000000E+00  0.23268174612E+04  0.23268174612E+04  0.50400001928E-02 0. -1.
        1   -1    0    0  501    0  0.00000000000E+00  0.00000000000E+00 -0.11020178755E+04  0.11020178756E+04  0.50400001928E-02 0.  1.
    10030    2    1    2    0    0  0.00000000000E+00  0.00000000000E+00  0.12247995857E+04  0.34288353368E+04  0.32026204492E+04 0.  0.
        3    1    3    3  502    0  0.14761979265E+04  0.61870180151E+03  0.56170338815E+03  0.16963086228E+04  0.10100000352E+00 0. -1.
       -3    1    3    3    0  502 -0.14761979265E+04 -0.61870180151E+03  0.66309619753E+03  0.17325267140E+04  0.10100000352E+00 0.  1.
</event>
<event>
 5   0  0.8335929E-07  0.3204532E+04  0.7818609E-02  0.8187621E-01
       -2   -1    0    0    0  501  0.00000000000E+00  0.00000000000E+00  0.14396405839E+04  0.14396405839E+04  0.25500000920E-02 0.  1.
        2   -1    0    0  501    0  0.00000000000E+00  0.00000000000E+00 -0.17832625135E+04  0.17832625135E+04  0.25500000920E-02 0. -1.
    10030    2    1    2    0    0  0.00000000000E+00  0.00000000000E+00 -0.34362192967E+03  0.32229030974E+04  0.32045324690E+04 0.  0.
        4    1    3    3  502    0  0.10740396471E+04  0.72211961175E+02  0.10217864626E+04  0.14841916718E+04  0.12699999809E+01 0.  1.
       -4    1    3    3    0  502 -0.10740396471E+04 -0.72211961175E+02 -0.13654083922E+04  0.17387114255E+04  0.12699999809E+01 0. -1.
</event>
<event>
 5   0  0.8488469E-07  0.3189946E+04  0.7818609E-02  0.8191477E-01
       -2   -1    0    0    0  501  0.00000000000E+00  0.00000000000E+00  0.10187349744E+04  0.10187349744E+04  0.25500000920E-02 0. -1.
        2   -1    0    0  501    0  0.00000000000E+00  0.00000000000E+00 -0.24971546527E+04  0.24971546527E+04  0.25500000920E-02 0.  1.
    10030    2    1    2    0    0  0.00000000000E+00  0.00000000000E+00 -0.14784196783E+04  0.35158896272E+04  0.31899459439E+04 0.  0.
        3    1    3    3  502    0  0.14928167169E+03 -0.75455522708E+03  0.80080606022E+03  0.11103733446E+04  0.10100000352E+00 0. -1.
       -3    1    3    3    0  502 -0.14928167169E+03  0.75455522708E+03 -0.22792257385E+04  0.24055162825E+04  0.10100000352E+00 0.  1.
</event>
<event>
 5   0  0.8802800E-07  0.3203912E+04  0.7818609E-02  0.8187785E-01
        2   -1    0    0  501    0  0.00000000000E+00  0.00000000000E+00  0.10806777781E+04  0.10806777781E+04  0.25500000920E-02 0. -1.
       -2   -1    0    0    0  501  0.00000000000E+00  0.00000000000E+00 -0.23746795035E+04  0.23746795035E+04  0.25500000920E-02 0.  1.
    10030    2    1    2    0    0  0.00000000000E+00  0.00000000000E+00 -0.12940017254E+04  0.34553572816E+04  0.32039122145E+04 0.  0.
        5    1    3    3  502    0 -0.14069800384E+04  0.24276921074E+03 -0.14304497286E+04  0.20210735350E+04  0.46999998093E+01 0. -1.
       -5    1    3    3    0  502  0.14069800384E+04 -0.24276921074E+03  0.13644800315E+03  0.14342837465E+04  0.46999998093E+01 0.  1.
</event>
<event>
 5   0  0.2891204E-07  0.3190754E+04  0.7818609E-02  0.8191263E-01
        1   -1    0    0  501    0  0.00000000000E+00  0.00000000000E+00  0.20941681770E+04  0.20941681770E+04  0.50400001928E-02 0.  1.
       -1   -1    0    0    0  501  0.00000000000E+00  0.00000000000E+00 -0.12153885369E+04  0.12153885369E+04  0.50400001928E-02 0. -1.
    10030    2    1    2    0    0  0.00000000000E+00  0.00000000000E+00  0.87877964011E+03  0.33095567140E+04  0.31907541408E+04 0.  0.
        4    1    3    3  502    0 -0.35760596844E+03  0.14898680451E+04  0.90050692425E+03  0.17772178127E+04  0.12699999809E+01 0. -1.
       -4    1    3    3    0  502  0.35760596844E+03 -0.14898680451E+04 -0.21727284145E+02  0.15323389012E+04  0.12699999809E+01 0.  1.
</event>
<event>
 5   0  0.2997105E-07  0.3139913E+04  0.7818609E-02  0.8204869E-01
        1   -1    0    0  501    0  0.00000000000E+00  0.00000000000E+00  0.13145742876E+04  0.13145742876E+04  0.50400001928E-02 0.  1.
       -1   -1    0    0    0  501  0.00000000000E+00  0.00000000000E+00 -0.18749516744E+04  0.18749516744E+04  0.50400001928E-02 0. -1.
    10030    2    1    2    0    0  0.00000000000E+00  0.00000000000E+00 -0.56037738675E+03  0.31895259620E+04  0.31399129044E+04 0.  0.
        3    1    3    3  502    0  0.94760731568E+03  0.67139624295E+02  0.98947934188E+03  0.13716911941E+04  0.10100000352E+00 0.  1.
       -3    1    3    3    0  502 -0.94760731568E+03 -0.67139624295E+02 -0.15498567286E+04  0.18178347679E+04  0.10100000352E+00 0. -1.
</event>
<event>
 5   0  0.3075756E-07  0.3195405E+04  0.7818609E-02  0.8190032E-01
       -1   -1    0    0    0  501  0.00000000000E+00  0.00000000000E+00  0.23658510472E+04  0.23658510472E+04  0.50400001928E-02 0.  1.
        1   -1    0    0  501    0  0.00000000000E+00  0.00000000000E+00 -0.10789575126E+04  0.10789575126E+04  0.50400001928E-02 0. -1.
    10030    2    1    2    0    0  0.00000000000E+00  0.00000000000E+00  0.12868935346E+04  0.34448085598E+04  0.31954046761E+04 0.  0.
        5    1    3    3  502    0  0.99431621639E+03  0.59667490332E+03  0.18282952157E+04  0.21650337559E+04  0.46999998093E+01 0.  1.
       -5    1    3    3    0  502 -0.99431621639E+03 -0.59667490332E+03 -0.54140168105E+03  0.12797748039E+04  0.46999998093E+01 0. -1.
</event>
<event>
 5   0  0.8335929E-07  0.3197796E+04  0.7818609E-02  0.8189400E-01
        2   -1    0    0  501    0  0.00000000000E+00  0.00000000000E+00  0.19115210537E+04  0.19115210537E+04  0.25500000920E-02 0.  1.
       -2   -1    0    0    0  501  0.00000000000E+00  0.00000000000E+00 -0.13374030669E+04  0.13374030669E+04  0.25500000920E-02 0. -1.
    10030    2    1    2    0    0  0.00000000000E+00  0.00000000000E+00  0.57411798689E+03  0.32489241206E+04  0.31977955655E+04 0.  0.
        4    1    3    3  502    0 -0.73500738785E+03 -0.14196330886E+04  0.31717308042E+03  0.16297835262E+04  0.12699999809E+01 0. -1.
       -4    1    3    3    0  502  0.73500738785E+03  0.14196330886E+04  0.25694490647E+03  0.16191405944E+04  0.12699999809E+01 0.  1.
</event>
<event>
 5   0  0.8195618E-07  0.3219340E+04  0.7818609E-02  0.8183728E-01
       -2   -1    0    0    0  501  0.00000000000E+00  0.00000000000E+00  0.99496370255E+03  0.99496370256E+03  0.25500000920E-02 0.  1.
        2   -1    0    0  501    0  0.00000000000E+00  0.00000000000E+00 -0.26041525686E+04  0.26041525686E+04  0.25500000920E-02 0. -1.
    10030    2    1    2    0    0  0.00000000000E+00  0.00000000000E+00 -0.16091888661E+04  0.35991162712E+04  0.32193398589E+04 0.  0.
        1    1    3    3  502    0 -0.21829719334E+03 -0.14701113074E+04 -0.11348058257E+03  0.14905565281E+04  0.50400001928E-02 0.  1.
       -1    1    3    3    0  502  0.21829719334E+03  0.14701113074E+04 -0.14957082835E+04  0.21085597431E+04  0.50400001928E-02 0. -1.
</event>
<event>
 5   0  0.8802800E-07  0.3196226E+04  0.7818609E-02  0.8189814E-01
        2   -1    0    0  501    0  0.00000000000E+00  0.00000000000E+00  0.10700946960E+04  0.10700946960E+04  0.25500000920E-02 0. -1.
       -2   -1    0    0    0  501  0.00000000000E+00  0.00000000000E+00 -0.23866726122E+04  0.23866726122E+04  0.25500000920E-02 0.  1.
    10030    2    1    2    0    0  0.00000000000E+00  0.00000000000E+00 -0.13165779161E+04  0.34567673082E+04  0.31962263396E+04 0.  0.
        5    1    3    3  502    0  0.75996666501E+03 -0.62109052638E+03  0.70572459099E+03  0.12088722274E+04  0.46999998093E+01 0. -1.
       -5    1    3    3    0  502 -0.75996666501E+03  0.62109052638E+03 -0.20223025071E+04  0.22478950808E+04  0.46999998093E+01 0.  1.
</event>
<event>
 5   0  0.8335929E-07  0.3207332E+04  0.7818609E-02  0.8186883E-01
        2   -1    0    0  501    0  0.00000000000E+00  0.00000000000E+00  0.23534212738E+04  0.23534212738E+04  0.25500000920E-02 0.  1.
       -2   -1    0    0    0  501  0.00000000000E+00  0.00000000000E+00 -0.10927687477E+04  0.10927687477E+04  0.25500000920E-02 0. -1.
    10030    2    1    2    0    0  0.00000000000E+00  0.00000000000E+00  0.12606525261E+04  0.34461900216E+04  0.32073323609E+04 0.  0.
        4    1    3    3  502    0  0.30733141185E+03 -0.20670452329E+03  0.23068352064E+04  0.23363796008E+04  0.12699999809E+01 0.  1.
       -4    1    3    3    0  502 -0.30733141185E+03  0.20670452329E+03 -0.10461826803E+04  0.11098104208E+04  0.12699999809E+01 0. -1.
</event>
<event>
 5   0  0.8838951E-07  0.3173795E+04  0.7818609E-02  0.8195772E-01
       -2   -1    0    0    0  501  0.00000000000E+00  0.00000000000E+00  0.13575791972E+04  0.13575791972E+04  0.25500000920E-02 0. -1.
        2   -1    0    0  501    0  0.00000000000E+00  0.00000000000E+00 -0.18549520328E+04  0.18549520328E+04  0.25500000920E-02 0.  1.
    10030    2    1    2    0    0  0.00000000000E+00  0.00000000000E+00 -0.49737283557E+03  0.32125312300E+04  0.31737953882E+04 0.  0.
        2    1    3    3  502    0 -0.90167335086E+03 -0.68463518370E+03 -0.13742401135E+04  0.17805269040E+04  0.25500000920E-02 0.  1.
       -2    1    3    3    0  502  0.90167335086E+03  0.68463518370E+03  0.87686727794E+03  0.14320043259E+04  0.25500000920E-02 0. -1.
</event>
<event>
 5   0  0.8802800E-07  0.3170432E+04  0.7818609E-02  0.8196670E-01
        2   -1    0    0  501    0  0.00000000000E+00  0.00000000000E+00  0.23760477574E+04  0.23760477574E+04  0.25500000920E-02 0.  1.
       -2   -1    0    0    0  501  0.00000000000E+00  0.00000000000E+00 -0.10576003841E+04  0.10576003841E+04  0.25500000920E-02 0. -1.
    10030    2    1    2    0    0  0.00000000000E+00  0.00000000000E+00  0.13184473733E+04  0.34336481415E+04  0.31704315295E+04 0.  0.
        5    1    3    3  502    0 -0.63509691342E+02  0.15213438783E+04  0.11366956148E+04  0.19001630687E+04  0.46999998093E+01 0.  1.
       -5    1    3    3    0  502  0.63509691342E+02 -0.15213438783E+04  0.18175175857E+03  0.15334850728E+04  0.46999998093E+01 0. -1.
</event>
<event>
 5   0  0.8802800E-07  0.3198028E+04  0.7818609E-02  0.8189338E-01
        2   -1    0    0  501    0  0.00000000000E+00  0.00000000000E+00  0.22194061015E+04  0.22194061015E+04  0.25500000920E-02 0.  1.
       -2   -1    0    0    0  501  0.00000000000E+00  0.00000000000E+00 -0.11520407249E+04  0.11520407249E+04  0.25500000920E-02 0. -1.
    10030    2    1    2    0    0  0.00000000000E+00  0.00000000000E+00  0.10673653766E+04  0.33714468264E+04  0.31980282763E+04 0.  0.
        5    1    3    3  502    0  0.14475052438E+04 -0.67711333023E+03  0.47526833697E+03  0.16672300306E+04  0.46999998093E+01 0. -1.
       -5    1    3    3    0  502 -0.14475052438E+04  0.67711333023E+03  0.59209703961E+03  0.17042167958E+04  0.46999998093E+01 0.  1.
</event>
<event>
 5   0  0.2783875E-07  0.3207460E+04  0.7818609E-02  0.8186850E-01
       -1   -1    0    0    0  501  0.00000000000E+00  0.00000000000E+00  0.16686638470E+04  0.16686638470E+04  0.50400001928E-02 0. -1.
        1   -1    0    0  501    0  0.00000000000E+00  0.00000000000E+00 -0.15413232256E+04  0.15413232256E+04  0.50400001928E-02 0.  1.
    10030    2    1    2    0    0  0.00000000000E+00  0.00000000000E+00  0.12734062143E+03  0.32099870726E+04  0.32074602682E+04 0.  0.
        2    1    3    3  502    0 -0.89016050090E+03  0.78727911250E+00 -0.12713836039E+04  0.15520317669E+04  0.25500000920E-02 0.  1.
       -2    1    3    3    0  502  0.89016050090E+03 -0.78727911250E+00  0.13987242253E+04  0.16579553057E+04  0.25500000920E-02 0. -1.
</event>
<event>
 5   0  0.2783875E-07  0.3193827E+04  0.7818609E-02  0.8190449E-01
        1   -1    0    0  501    0  0.00000000000E+00  0.00000000000E+00  0.17956576034E+04  0.17956576034E+04  0.50400001928E-02 0. -1.
       -1   -1    0    0    0  501  0.00000000000E+00  0.00000000000E+00 -0.14201663922E+04  0.14201663922E+04  0.50400001928E-02 0.  1.
    10030    2    1    2    0    0  0.00000000000E+00  0.00000000000E+00  0.37549121120E+03  0.32158239957E+04  0.31938269085E+04 0.  0.
        2    1    3    3  502    0  0.11436968387E+04  0.26700697214E+03  0.12772318976E+04  0.17351243478E+04  0.25500000920E-02 0. -1.
       -2    1    3    3    0  502 -0.11436968387E+04 -0.26700697214E+03 -0.90174068638E+03  0.14806996479E+04  0.25500000920E-02 0.  1.
</event>
<event>
 5   0  0.2783875E-07  0.3204932E+04  0.7818609E-02  0.8187516E-01
       -1   -1    0    0    0  501  0.00000000000E+00  0.00000000000E+00  0.13848166995E+04  0.13848166995E+04  0.50400001928E-02 0.  1.
        1   -1    0    0  501    0  0.00000000000E+00  0.00000000000E+00 -0.18543224547E+04  0.18543224547E+04  0.50400001928E-02 0. -1.
    10030    2    1    2    0    0  0.00000000000E+00  0.00000000000E+00 -0.46950575520E+03  0.32391391542E+04  0.32049316383E+04 0.  0.
        2    1    3    3  502    0 -0.11537819160E+04  0.63731026290E+03 -0.11558083430E+04  0.17530744441E+04  0.25500000920E-02 0. -1.
       -2    1    3    3    0  502  0.11537819160E+04 -0.63731026290E+03  0.68630258777E+03  0.14860647101E+04  0.25500000920E-02 0.  1.
</event>
<event>
 5   0  0.3075756E-07  0.3198685E+04  0.7818609E-02  0.8189165E-01
        1   -1    0    0  501    0  0.00000000000E+00  0.00000000000E+00  0.15701030237E+04  0.15701030237E+04  0.50400001928E-02 0.  1.
       -1   -1    0    0    0  501  0.00000000000E+00  0.00000000000E+00 -0.16291263722E+04  0.16291263722E+04  0.50400001928E-02 0. -1.
    10030    2    1    2    0    0  0.00000000000E+00  0.00000000000E+00 -0.59023348439E+02  0.31992293959E+04  0.31986848816E+04 0.  0.
        5    1    3    3  502    0 -0.68935027111E+03  0.86826180365E+03 -0.11824402226E+04  0.16208853525E+04  0.46999998093E+01 0. -1.
       -5    1    3    3    0  502  0.68935027111E+03 -0.86826180365E+03  0.11234168742E+04  0.15783440434E+04  0.46999998093E+01 0.  1.
</event>
<event>
 5   0  0.8488469E-07  0.3196088E+04  0.7818609E-02  0.8189851E-01
       -2   -1    0    0    0  501  0.00000000000E+00  0.00000000000E+00  0.13093997541E+04  0.13093997541E+04  0.25500000920E-02 0. -1.
        2   -1    0    0  501    0  0.00000000000E+00  0.00000000000E+00 -0.19503174347E+04  0.19503174347E+04  0.25500000920E-02 0.  1.
    10030    2    1    2    0    0  0.00000000000E+00  0.00000000000E+00 -0.64091768067E+03  0.32597171888E+04  0.31960883401E+04 0.  0.
        3    1    3    3  502    0  0.91240063095E+03  0.93447085411E+03 -0.12596800702E+04  0.18145259927E+04  0.10100000352E+00 0.  1.
       -3    1    3    3    0  502 -0.91240063095E+03 -0.93447085411E+03  0.61876238954E+03  0.14451911962E+04  0.10100000352E+00 0. -1.
</event>
<event>
 5   0  0.3013888E-07  0.3175568E+04  0.7818609E-02  0.8195300E-01
        1   -1    0    0  501    0  0.00000000000E+00  0.00000000000E+00  0.23965282463E+04  0.23965282463E+04  0.50400001928E-02 0.  1.
       -1   -1    0    0    0  501  0.00000000000E+00  0.00000000000E+00 -0.10519626591E+04  0.10519626591E+04  0.50400001928E-02 0. -1.
    10030    2    1    2    0    0  0.00000000000E+00  0.00000000000E+00  0.13445655872E+04  0.34484909054E+04  0.31755681234E+04 0.  0.
        1    1    3    3  502    0 -0.12574472471E+04 -0.29591009393E+03  0.16748406986E+04  0.21151424843E+04  0.50400001928E-02 0.  1.
       -1    1    3    3    0  502  0.12574472471E+04  0.29591009393E+03 -0.33027511146E+03  0.13333484212E+04  0.50400001928E-02 0. -1.
</event>
<event>
 5   0  0.2783875E-07  0.3173634E+04  0.7818609E-02  0.8195815E-01
        1   -1    0    0  501    0  0.00000000000E+00  0.00000000000E+00  0.13252868881E+04  0.13252868881E+04  0.50400001928E-02 0.  1.
       -1   -1    0    0    0  501  0.00000000000E+00  0.00000000000E+00 -0.18999567559E+04  0.18999567559E+04  0.50400001928E-02 0. -1.
    10030    2    1    2    0    0  0.00000000000E+00  0.00000000000E+00 -0.57466986782E+03  0.32252436440E+04  0.31736337386E+04 0.  0.
        2    1    3    3  502    0  0.67339261782E+03  0.20090211227E+03  0.11585344267E+04  0.13549986326E+04  0.25500000920E-02 0.  1.
       -2    1    3    3    0  502 -0.67339261782E+03 -0.20090211227E+03 -0.17332042945E+04  0.18702450115E+04  0.25500000920E-02 0. -1.
</event>
<event>
 5   0  0.3075756E-07  0.3216843E+04  0.7818609E-02  0.8184383E-01
       -1   -1    0    0    0  501  0.00000000000E+00  0.00000000000E+00  0.22914677179E+04  0.22914677179E+04  0.50400001928E-02 0.  1.
        1   -1    0    0  501    0  0.00000000000E+00  0.00000000000E+00 -0.11289791127E+04  0.11289791127E+04  0.50400001928E-02 0. -1.
    10030    2    1    2    0    0  0.00000000000E+00  0.00000000000E+00  0.11624886052E+04  0.34204468306E+04  0.32168426701E+04 0.  0.
        5    1    3    3  502    0  0.45162207844E+03  0.14615233552E+04  0.52814254978E+02  0.15306287777E+04  0.46999998093E+01 0. -1.
       -5    1    3    3    0  502 -0.45162207844E+03 -0.14615233552E+04  0.11096743502E+04  0.18898180529E+04  0.46999998093E+01 0.  1.
</event>
<event>
 5   0  0.8838951E-07  0.3203919E+04  0.7818609E-02  0.8187783E-01
        2   -1    0    0  501    0  0.00000000000E+00  0.00000000000E+00  0.12241576675E+04  0.12241576675E+04  0.25500000920E-02 0.  1.
       -2   -1    0    0    0  501  0.00000000000E+00  0.00000000000E+00 -0.20963585902E+04  0.20963585902E+04  0.25500000920E-02 0. -1.
    10030    2    1    2    0    0  0.00000000000E+00  0.00000000000E+00 -0.87220092273E+03  0.33205162577E+04  0.32039185021E+04 0.  0.
        2    1    3    3  502    0  0.33316852022E+03 -0.80218253998E+03 -0.18311072595E+04  0.20266849499E+04  0.25500000920E-02 0. -1.
       -2    1    3    3    0  502 -0.33316852022E+03  0.80218253998E+03  0.95890633678E+03  0.12938313078E+04  0.25500000920E-02 0.  1.
</event>
<event>
 5   0  0.8335929E-07  0.3198128E+04  0.7818609E-02  0.8189312E-01
       -2   -1    0    0    0  501  0.00000000000E+00  0.00000000000E+00  0.14528540869E+04  0.14528540869E+04  0.25500000920E-02 0. -1.
        2   -1    0    0  501    0  0.00000000000E+00  0.00000000000E+00 -0.17599880079E+04  0.17599880079E+04  0.25500000920E-02 0.  1.
    10030    2    1    2    0    0  0.00000000000E+00  0.00000000000E+00 -0.30713392098E+03  0.32128420948E+04  0.31981280588E+04 0.  0.
        4    1    3    3  502    0 -0.45309938880E+03 -0.13430005098E+04 -0.89728017379E+03  0.16775168400E+04  0.12699999809E+01 0.  1.
       -4    1    3    3    0  502  0.45309938880E+03  0.13430005098E+04  0.59014625281E+03  0.15353252548E+04  0.12699999809E+01 0. -1.
</event>
<event>
 5   0  0.2997105E-07  0.3203690E+04  0.7818609E-02  0.8187843E-01
       -1   -1    0    0    0  501  0.00000000000E+00  0.00000000000E+00  0.12006145141E+04  0.12006145141E+04  0.50400001928E-02 0. -1.
        1   -1    0    0  501    0  0.00000000000E+00  0.00000000000E+00 -0.21371611942E+04  0.21371611942E+04  0.50400001928E-02 0.  1.
    10030    2    1    2    0    0  0.00000000000E+00  0.00000000000E+00 -0.93654668010E+03  0.33377757082E+04  0.32036895908E+04 0.  0.
        3    1    3    3  502    0  0.12321333340E+03  0.37141350050E+03 -0.20865968070E+04  0.21229733298E+04  0.10100000352E+00 0.  1.
       -3    1    3    3    0  502 -0.12321333340E+03 -0.37141350050E+03  0.11500501269E+04  0.12148023784E+04  0.10100000352E+00 0. -1.
</event>
<event>
 5   0  0.8838951E-07  0.3195519E+04  0.7818609E-02  0.8190002E-01
       -2   -1    0    0    0  501  0.00000000000E+00  0.00000000000E+00  0.15157743254E+04  0.15157743254E+04  0.25500000920E-02 0. -1.
        2   -1    0    0  501    0  0.00000000000E+00  0.00000000000E+00 -0.16841790673E+04  0.16841790673E+04  0.25500000920E-02 0.  1.
    10030    2    1    2    0    0  0.00000000000E+00  0.00000000000E+00 -0.16840474196E+03  0.31999533927E+04  0.31955189811E+04 0.  0.
        2    1    3    3  502    0  0.14598694828E+04  0.64541654382E+03 -0.15539228751E+03  0.16037232258E+04  0.25500000920E-02 0. -1.
       -2    1    3    3    0  502 -0.14598694828E+04 -0.64541654382E+03 -0.13012454453E+02  0.15962301669E+04  0.25500000920E-02 0.  1.
</event>
<event>
 5   0  0.3075756E-07  0.3206808E+04  0.7818609E-02  0.8187022E-01
        1   -1    0    0  501    0  0.00000000000E+00  0.00000000000E+00  0.17855341444E+04  0.17855341444E+04  0.50400001928E-02 0. -1.
       -1   -1    0    0    0  501  0.00000000000E+00  0.00000000000E+00 -0.14398515611E+04  0.14398515611E+04  0.50400001928E-02 0.  1.
    10030    2    1    2    0    0  0.00000000000E+00  0.00000000000E+00  0.34568258329E+03  0.32253857055E+04  0.32068078366E+04 0.  0.
        5    1    3    3  502    0  0.49220822538E+02 -0.96942402572E+03  0.14564306943E+04  0.17502622913E+04  0.46999998093E+01 0. -1.
       -5    1    3    3    0  502 -0.49220822538E+02  0.96942402572E+03 -0.11107481110E+04  0.14751234142E+04  0.46999998093E+01 0.  1.
</event>
<event>
 5   0  0.2891204E-07  0.3195437E+04  0.7818609E-02  0.8190023E-01
       -1   -1    0    0    0  501  0.00000000000E+00  0.00000000000E+00  0.15219501566E+04  0.15219501566E+04  0.50400001928E-02 0. -1.
        1   -1    0    0  501    0  0.00000000000E+00  0.00000000000E+00 -0.16772586894E+04  0.16772586894E+04  0.50400001928E-02 0.  1.
    10030    2    1    2    0    0  0.00000000000E+00  0.00000000000E+00 -0.15530853285E+03  0.31992088460E+04  0.31954368246E+04 0.  0.
        4    1    3    3  502    0 -0.75858420412E+03 -0.61881144097E+03 -0.13418105658E+04  0.16609740521E+04  0.12699999809E+01 0.  1.
       -4    1    3    3    0  502  0.75858420412E+03  0.61881144097E+03  0.11865020330E+04  0.15382347940E+04  0.12699999809E+01 0. -1.
</event>
<event>
 5   0  0.2783875E-07  0.3239227E+04  0.7818609E-02  0.8178533E-01
        1   -1    0    0  501    0  0.00000000000E+00  0.00000000000E+00  0.26002327269E+04  0.26002327269E+04  0.50400001928E-02 0. -1.
       -1   -1    0    0    0  501  0.00000000000E+00  0.00000000000E+00 -0.10088129690E+04  0.10088129690E+04  0.50400001928E-02 0.  1.
    10030    2    1    2    0    0  0.00000000000E+00  0.00000000000E+00  0.15914197579E+04  0.36090456959E+04  0.32392273753E+04 0.  0.
        2    1    3    3  502    0  0.51237904468E+03  0.27003570358E+03  0.24809049941E+04  0.25476147975E+04  0.25500000920E-02 0. -1.
       -2    1    3    3    0  502 -0.51237904468E+03 -0.27003570358E+03 -0.88948523621E+03  0.10614308984E+04  0.25500000920E-02 0.  1.
</event>
<event>
 5   0  0.3075756E-07  0.3281043E+04  0.7818609E-02  0.8167736E-01
        1   -1    0    0  501    0  0.00000000000E+00  0.00000000000E+00  0.14776024601E+04  0.14776024601E+04  0.50400001928E-02 0. -1.
       -1   -1    0    0    0  501  0.00000000000E+00  0.00000000000E+00 -0.18214041378E+04  0.18214041378E+04  0.50400001928E-02 0.  1.
    10030    2    1    2    0    0  0.00000000000E+00  0.00000000000E+00 -0.34380167767E+03  0.32990065979E+04  0.32810432700E+04 0.  0.
        5    1    3    3  502    0 -0.13640141456E+04 -0.20060417654E+03  0.72207463180E+03  0.15563388092E+04  0.46999998093E+01 0. -1.
       -5    1    3    3    0  502  0.13640141456E+04  0.20060417654E+03 -0.10658763095E+04  0.17426677888E+04  0.46999998093E+01 0.  1.
</event>
<event>
 5   0  0.3013888E-07  0.3195531E+04  0.7818609E-02  0.8189998E-01
        1   -1    0    0  501    0  0.00000000000E+00  0.00000000000E+00  0.82877538421E+03  0.82877538423E+03  0.50400001928E-02 0.  1.
       -1   -1    0    0    0  501  0.00000000000E+00  0.00000000000E+00 -0.30802740341E+04  0.30802740341E+04  0.50400001928E-02 0. -1.
    10030    2    1    2    0    0  0.00000000000E+00  0.00000000000E+00 -0.22514986499E+04  0.39090494183E+04  0.31955314401E+04 0.  0.
        1    1    3    3  502    0  0.14923390768E+04 -0.46864659268E+03 -0.72719498006E+03  0.17249690107E+04  0.50400001928E-02 0.  1.
       -1    1    3    3    0  502 -0.14923390768E+04  0.46864659268E+03 -0.15243036698E+04  0.21840804076E+04  0.50400001928E-02 0. -1.
</event>
<event>
 5   0  0.8488469E-07  0.3234214E+04  0.7818609E-02  0.8179839E-01
       -2   -1    0    0    0  501  0.00000000000E+00  0.00000000000E+00  0.16772488404E+04  0.16772488404E+04  0.25500000920E-02 0. -1.
        2   -1    0    0  501    0  0.00000000000E+00  0.00000000000E+00 -0.15591214054E+04  0.15591214054E+04  0.25500000920E-02 0.  1.
    10030    2    1    2    0    0  0.00000000000E+00  0.00000000000E+00  0.11812743505E+03  0.32363702458E+04  0.32342137030E+04 0.  0.
        3    1    3    3  502    0  0.14034273500E+04 -0.11825810957E+03  0.85422634907E+03  0.16472085396E+04  0.10100000352E+00 0. -1.
       -3    1    3    3    0  502 -0.14034273500E+04  0.11825810957E+03 -0.73609891402E+03  0.15891617062E+04  0.10100000352E+00 0.  1.
</event>
<event>
 5   0  0.8488469E-07  0.3212706E+04  0.7818609E-02  0.8185470E-01
       -2   -1    0    0    0  501  0.00000000000E+00  0.00000000000E+00  0.12325635867E+04  0.12325635867E+04  0.25500000920E-02 0. -1.
        2   -1    0    0  501    0  0.00000000000E+00  0.00000000000E+00 -0.20934986119E+04  0.20934986119E+04  0.25500000920E-02 0.  1.
    10030    2    1    2    0    0  0.00000000000E+00  0.00000000000E+00 -0.86093502524E+03  0.33260621986E+04  0.32127061227E+04 0.  0.
        3    1    3    3  502    0  0.10724344662E+04  0.10781147878E+04  0.10540852580E+03  0.15243221927E+04  0.10100000352E+00 0. -1.
       -3    1    3    3    0  502 -0.10724344662E+04 -0.10781147878E+04 -0.96634355103E+03  0.18017400058E+04  0.10100000352E+00 0.  1.
</event>
<event>
 5   0  0.3075756E-07  0.3194357E+04  0.7818609E-02  0.8190309E-01
        1   -1    0    0  501    0  0.00000000000E+00  0.00000000000E+00  0.21653283023E+04  0.21653283023E+04  0.50400001928E-02 0.  1.
       -1   -1    0    0    0  501  0.00000000000E+00  0.00000000000E+00 -0.11781029949E+04  0.11781029949E+04  0.50400001928E-02 0. -1.
    10030    2    1    2    0    0  0.00000000000E+00  0.00000000000E+00  0.98722530740E+03  0.33434312973E+04  0.31943573739E+04 0.  0.
        5    1    3    3  502    0  0.14093170025E+04 -0.30225752658E+03  0.12137807410E+04  0.18843619088E+04  0.46999998093E+01 0.  1.
       -5    1    3    3    0  502 -0.14093170025E+04  0.30225752658E+03 -0.22655543359E+03  0.14590693885E+04  0.46999998093E+01 0. -1.
</event>
<event>
 5   0  0.2997105E-07  0.3112676E+04  0.7818609E-02  0.8212268E-01
       -1   -1    0    0    0  501  0.00000000000E+00  0.00000000000E+00  0.15010782904E+04  0.15010782904E+04  0.50400001928E-02 0. -1.
        1   -1    0    0  501    0  0.00000000000E+00  0.00000000000E+00 -0.16136323337E+04  0.16136323337E+04  0.50400001928E-02 0.  1.
    10030    2    1    2    0    0  0.00000000000E+00  0.00000000000E+00 -0.11255404325E+03  0.31147106241E+04  0.31126763178E+04 0.  0.
        3    1    3    3  502    0 -0.36746713411E+03  0.13226872271E+03 -0.15638011551E+04  0.16118316204E+04  0.10100000352E+00 0.  1.
       -3    1    3    3    0  502  0.36746713411E+03 -0.13226872271E+03  0.14512471119E+04  0.15028790036E+04  0.10100000352E+00 0. -1.
</event>
<event>
 5   0  0.2997105E-07  0.3188092E+04  0.7818609E-02  0.8191969E-01
       -1   -1    0    0    0  501  0.00000000000E+00  0.00000000000E+00  0.10574588655E+04  0.10574588656E+04  0.50400001928E-02 0.  1.
        1   -1    0    0  501    0  0.00000000000E+00  0.00000000000E+00 -0.24029146726E+04  0.24029146726E+04  0.50400001928E-02 0. -1.
    10030    2    1    2    0    0  0.00000000000E+00  0.00000000000E+00 -0.13454558071E+04  0.34603735382E+04  0.31880924853E+04 0.  0.
        3    1    3    3  502    0  0.11136834614E+04  0.11402678886E+04 -0.64890569420E+03  0.17209242633E+04  0.10100000352E+00 0. -1.
       -3    1    3    3    0  502 -0.11136834614E+04 -0.11402678886E+04 -0.69655011288E+03  0.17394492749E+04  0.10100000352E+00 0.  1.
</event>
<event>
 5   0  0.8838951E-07  0.3202037E+04  0.7818609E-02  0.8188279E-01
        2   -1    0    0  501    0  0.00000000000E+00  0.00000000000E+00  0.13277010906E+04  0.13277010906E+04  0.25500000920E-02 0. -1.
       -2   -1    0    0    0  501  0.00000000000E+00  0.00000000000E+00 -0.19306009279E+04  0.19306009279E+04  0.25500000920E-02 0.  1.
    10030    2    1    2    0    0  0.00000000000E+00  0.00000000000E+00 -0.60289983732E+03  0.32583020185E+04  0.32020374498E+04 0.  0.
        2    1    3    3  502    0  0.30038878510E+03 -0.14392218533E+04  0.34345923804E+03  0.15098202586E+04  0.25500000920E-02 0. -1.
       -2    1    3    3    0  502 -0.30038878510E+03  0.14392218533E+04 -0.94635907536E+03  0.17484817599E+04  0.25500000920E-02 0.  1.
</event>
<event>
 5   0  0.8838951E-07  0.3260632E+04  0.7818609E-02  0.8172986E-01
        2   -1    0    0  501    0  0.00000000000E+00  0.00000000000E+00  0.12260759395E+04  0.12260759395E+04  0.25500000920E-02 0. -1.
       -2   -1    0    0    0  501  0.00000000000E+00  0.00000000000E+00 -0.21678342971E+04  0.21678342971E+04  0.25500000920E-02 0.  1.
    10030    2    1    2    0    0  0.00000000000E+00  0.00000000000E+00 -0.94175835759E+03  0.33939102365E+04  0.32606315170E+04 0.  0.
        2    1    3    3  502    0 -0.16197449517E+04  0.21505991489E+02 -0.27925280713E+03  0.16437817211E+04  0.25500000920E-02 0. -1.
       -2    1    3    3    0  502  0.16197449517E+04 -0.21505991489E+02 -0.66250555046E+03  0.17501285155E+04  0.25500000920E-02 0.  1.
</event>
<event>
 5   0  0.2891204E-07  0.3204061E+04  0.7818609E-02  0.8187746E-01
       -1   -1    0    0    0  501  0.00000000000E+00  0.00000000000E+00  0.15767866524E+04  0.15767866524E+04  0.50400001928E-02 0.  1.
        1   -1    0    0  501    0  0.00000000000E+00  0.00000000000E+00 -0.16276784916E+04  0.16276784916E+04  0.50400001928E-02 0. -1.
    10030    2    1    2    0    0  0.00000000000E+00  0.00000000000E+00 -0.50891839216E+02  0.32044651441E+04  0.32040609982E+04 0.  0.
        4    1    3    3  502    0 -0.14452552656E+03  0.15563387592E+04 -0.37680511453E+03  0.16078126969E+04  0.12699999809E+01 0. -1.
       -4    1    3    3    0  502  0.14452552656E+03 -0.15563387592E+04  0.32591327532E+03  0.15966524472E+04  0.12699999809E+01 0.  1.
</event>
<event>
 5   0  0.8195618E-07  0.3197237E+04  0.7818609E-02  0.8189547E-01
       -2   -1    0    0    0  501  0.00000000000E+00  0.00000000000E+00  0.14012811919E+04  0.14012811919E+04  0.25500000920E-02 0.  1.
        2   -1    0    0  501    0  0.00000000000E+00  0.00000000000E+00 -0.18237459441E+04  0.18237459441E+04  0.25500000920E-02 0. -1.
    10030    2    1    2    0    0  0.00000000000E+00  0.00000000000E+00 -0.42246475224E+03  0.32250271360E+04  0.31972368634E+04 0.  0.
        1    1    3    3  502    0  0.12127008887E+04  0.22842863796E+03 -0.12363124791E+04  0.17467946743E+04  0.50400001928E-02 0. -1.
       -1    1    3    3    0  502 -0.12127008887E+04 -0.22842863796E+03  0.81384772687E+03  0.14782324617E+04  0.50400001928E-02 0.  1.
</event>
<event>
 5   0  0.8802800E-07  0.3194339E+04  0.7818609E-02  0.8190314E-01
        2   -1    0    0  501    0  0.00000000000E+00  0.00000000000E+00  0.25426912265E+04  0.25426912265E+04  0.25500000920E-02 0.  1.
       -2   -1    0    0    0  501  0.00000000000E+00  0.00000000000E+00 -0.10032485136E+04  0.10032485136E+04  0.25500000920E-02 0. -1.
    10030    2    1    2    0    0  0.00000000000E+00  0.00000000000E+00  0.15394427129E+04  0.35459397401E+04  0.31943394895E+04 0.  0.
        5    1    3    3  502    0  0.39355046857E+03  0.53891502256E+03 -0.84107279838E+03  0.10736558643E+04  0.46999998093E+01 0. -1.
       -5    1    3    3    0  502 -0.39355046857E+03 -0.53891502256E+03  0.23805155113E+04  0.24722838758E+04  0.46999998093E+01 0.  1.
</event>
<event>
 5   0  0.8802800E-07  0.3197603E+04  0.7818609E-02  0.8189450E-01
       -2   -1    0    0    0  501  0.00000000000E+00  0.00000000000E+00  0.15078495651E+04  0.15078495651E+04  0.25500000920E-02 0. -1.
        2   -1    0    0  501    0  0.00000000000E+00  0.00000000000E+00 -0.16952397560E+04  0.16952397560E+04  0.25500000920E-02 0.  1.
    10030    2    1    2    0    0  0.00000000000E+00  0.00000000000E+00 -0.18739019095E+03  0.32030893211E+04  0.31976031829E+04 0.  0.
        5    1    3    3  502    0 -0.97517556073E+03  0.78122212196E+03 -0.10928376226E+04  0.16599974510E+04  0.46999998093E+01 0.  1.
       -5    1    3    3    0  502  0.97517556073E+03 -0.78122212196E+03  0.90544743164E+03  0.15430918701E+04  0.46999998093E+01 0. -1.
</event>
<event>
 5   0  0.8838951E-07  0.3211176E+04  0.7818609E-02  0.8185872E-01
        2   -1    0    0  501    0  0.00000000000E+00  0.00000000000E+00  0.21712547648E+04  0.21712547648E+04  0.25500000920E-02 0. -1.
       -2   -1    0    0    0  501  0.00000000000E+00  0.00000000000E+00 -0.11872918512E+04  0.11872918512E+04  0.25500000920E-02 0.  1.
    10030    2    1    2    0    0  0.00000000000E+00  0.00000000000E+00  0.98396291358E+03  0.33585466160E+04  0.32111761641E+04 0.  0.
        2    1    3    3  502    0 -0.23758507493E+03 -0.68206149422E+03  0.19917564519E+04  0.21186666357E+04  0.25500000920E-02 0. -1.
       -2    1    3    3    0  502  0.23758507493E+03  0.68206149422E+03 -0.10077935383E+04  0.12398799803E+04  0.25500000920E-02 0.  1.
</event>
<event>
 5   0  0.3075756E-07  0.3199495E+04  0.7818609E-02  0.8188951E-01
        1   -1    0    0  501    0  0.00000000000E+00  0.00000000000E+00  0.19320879800E+04  0.19320879800E+04  0.50400001928E-02 0. -1.
       -1   -1    0    0    0  501  0.00000000000E+00  0.00000000000E+00 -0.13245734130E+04  0.13245734130E+04  0.50400001928E-02 0.  1.
    10030    2    1    2    0    0  0.00000000000E+00  0.00000000000E+00  0.60751456699E+03  0.32566613930E+04  0.31994951914E+04 0.  0.
        5    1    3    3  502    0 -0.85879918811E+03  0.13466379924E+04  0.39593106072E+03  0.16455252727E+04  0.46999998093E+01 0. -1.
       -5    1    3    3    0  502  0.85879918811E+03 -0.13466379924E+04  0.21158350627E+03  0.16111361204E+04  0.46999998093E+01 0.  1.
</event>
<event>
 5   0  0.8488469E-07  0.3199314E+04  0.7818609E-02  0.8188998E-01
        2   -1    0    0  501    0  0.00000000000E+00  0.00000000000E+00  0.18941138164E+04  0.18941138164E+04  0.25500000920E-02 0. -1.
       -2   -1    0    0    0  501  0.00000000000E+00  0.00000000000E+00 -0.13509761779E+04  0.13509761779E+04  0.25500000920E-02 0.  1.
    10030    2    1    2    0    0  0.00000000000E+00  0.00000000000E+00  0.54313763852E+03  0.32450899943E+04  0.31993140791E+04 0.  0.
        3    1    3    3  502    0 -0.14838229760E+03  0.10626438832E+04  0.14749987413E+04  0.18239656317E+04  0.10100000352E+00 0. -1.
       -3    1    3    3    0  502  0.14838229760E+03 -0.10626438832E+04 -0.93186110275E+03  0.14211243625E+04  0.10100000352E+00 0.  1.
</event>
<event>
 5   0  0.2997105E-07  0.3201428E+04  0.7818609E-02  0.8188440E-01
       -1   -1    0    0    0  501  0.00000000000E+00  0.00000000000E+00  0.15288642949E+04  0.15288642949E+04  0.50400001928E-02 0. -1.
        1   -1    0    0  501    0  0.00000000000E+00  0.00000000000E+00 -0.16759401358E+04  0.16759401358E+04  0.50400001928E-02 0.  1.
    10030    2    1    2    0    0  0.00000000000E+00  0.00000000000E+00 -0.14707584093E+03  0.32048044307E+04  0.32014278277E+04 0.  0.
        3    1    3    3  502    0 -0.52318079348E+03 -0.14180406907E+04  0.45401647269E+03  0.15781915318E+04  0.10100000352E+00 0. -1.
       -3    1    3    3    0  502  0.52318079348E+03  0.14180406907E+04 -0.60109231363E+03  0.16266128989E+04  0.10100000352E+00 0.  1.
</event>
<event>
 5   0  0.8335929E-07  0.3189985E+04  0.7818609E-02  0.8191467E-01
       -2   -1    0    0    0  501  0.00000000000E+00  0.00000000000E+00  0.14354562180E+04  0.14354562180E+04  0.25500000920E-02 0. -1.
        2   -1    0    0  501    0  0.00000000000E+00  0.00000000000E+00 -0.17722599858E+04  0.17722599858E+04  0.25500000920E-02 0.  1.
    10030    2    1    2    0    0  0.00000000000E+00  0.00000000000E+00 -0.33680376782E+03  0.32077162038E+04  0.31899853395E+04 0.  0.
        4    1    3    3  502    0  0.75601084515E+03  0.44688988125E+03 -0.15072441381E+04  0.17444338533E+04  0.12699999809E+01 0.  1.
       -4    1    3    3    0  502 -0.75601084515E+03 -0.44688988125E+03  0.11704403703E+04  0.14632823505E+04  0.12699999809E+01 0. -1.
</event>
<event>
 5   0  0.2783875E-07  0.3204608E+04  0.7818609E-02  0.8187601E-01
        1   -1    0    0  501    0  0.00000000000E+00  0.00000000000E+00  0.15196154631E+04  0.15196154631E+04  0.50400001928E-02 0. -1.
       -1   -1    0    0    0  501  0.00000000000E+00  0.00000000000E+00 -0.16894921758E+04  0.16894921758E+04  0.50400001928E-02 0.  1.
    10030    2    1    2    0    0  0.00000000000E+00  0.00000000000E+00 -0.16987671271E+03  0.32091076390E+04  0.32046082040E+04 0.  0.
        2    1    3    3  502    0  0.76396148830E+02  0.15935916735E+04 -0.23349637503E+03  0.16124178586E+04  0.25500000920E-02 0.  1.
       -2    1    3    3    0  502 -0.76396148830E+02 -0.15935916735E+04  0.63619662323E+02  0.15966897804E+04  0.25500000920E-02 0. -1.
</event>
<event>
 5   0  0.3013888E-07  0.3197048E+04  0.7818609E-02  0.8189597E-01
        1   -1    0    0  501    0  0.00000000000E+00  0.00000000000E+00  0.13894499069E+04  0.13894499069E+04  0.50400001928E-02 0. -1.
       -1   -1    0    0    0  501  0.00000000000E+00  0.00000000000E+00 -0.18390585708E+04  0.18390585708E+04  0.50400001928E-02 0.  1.
    10030    2    1    2    0    0  0.00000000000E+00  0.00000000000E+00 -0.44960866396E+03  0.32285084777E+04  0.31970484889E+04 0.  0.
        1    1    3    3  502    0 -0.59818479772E+03  0.10024828211E+04 -0.13275587039E+04  0.17678260579E+04  0.50400001928E-02 0.  1.
       -1    1    3    3    0  502  0.59818479772E+03 -0.10024828211E+04  0.87795003992E+03  0.14606824198E+04  0.50400001928E-02 0. -1.
</event>
<event>
 5   0  0.8802800E-07  0.3199662E+04  0.7818609E-02  0.8188906E-01
        2   -1    0    0  501    0  0.00000000000E+00  0.00000000000E+00  0.12743629937E+04  0.12743629938E+04  0.25500000920E-02 0.  1.
       -2   -1    0    0    0  501  0.00000000000E+00  0.00000000000E+00 -0.20084229700E+04  0.20084229700E+04  0.25500000920E-02 0. -1.
    10030    2    1    2    0    0  0.00000000000E+00  0.00000000000E+00 -0.73405997624E+03  0.32827859637E+04  0.31996624252E+04 0.  0.
        5    1    3    3  502    0 -0.28780369690E+03  0.12589163743E+04  0.60182026509E+03  0.14247494962E+04  0.46999998093E+01 0. -1.
       -5    1    3    3    0  502  0.28780369690E+03 -0.12589163743E+04 -0.13358802413E+04  0.18580364675E+04  0.46999998093E+01 0.  1.
</event>
<event>
 5   0  0.3075756E-07  0.3205106E+04  0.7818609E-02  0.8187470E-01
        1   -1    0    0  501    0  0.00000000000E+00  0.00000000000E+00  0.17294004946E+04  0.17294004946E+04  0.50400001928E-02 0. -1.
       -1   -1    0    0    0  501  0.00000000000E+00  0.00000000000E+00 -0.14850098801E+04  0.14850098801E+04  0.50400001928E-02 0.  1.
    10030    2    1    2    0    0  0.00000000000E+00  0.00000000000E+00  0.24439061450E+03  0.32144103746E+04  0.32051064388E+04 0.  0.
        5    1    3    3  502    0  0.57229626280E+03 -0.14953084696E+04  0.53554690180E+02  0.16019864627E+04  0.46999998093E+01 0. -1.
       -5    1    3    3    0  502 -0.57229626280E+03  0.14953084696E+04  0.19083592432E+03  0.16124239119E+04  0.46999998093E+01 0.  1.
</event>
<event>
 5   0  0.8488469E-07  0.3201460E+04  0.7818609E-02  0.8188432E-01
        2   -1    0    0  501    0  0.00000000000E+00  0.00000000000E+00  0.15503987636E+04  0.15503987636E+04  0.25500000920E-02 0. -1.
       -2   -1    0    0    0  501  0.00000000000E+00  0.00000000000E+00 -0.16526952863E+04  0.16526952863E+04  0.25500000920E-02 0.  1.
    10030    2    1    2    0    0  0.00000000000E+00  0.00000000000E+00 -0.10229652268E+03  0.32030940499E+04  0.32014601222E+04 0.  0.
        3    1    3    3  502    0 -0.39483678211E+03 -0.14382496608E+04 -0.63271813750E+03  0.16201204965E+04  0.10100000352E+00 0.  1.
       -3    1    3    3    0  502  0.39483678211E+03  0.14382496608E+04  0.53042161483E+03  0.15829735535E+04  0.10100000352E+00 0. -1.
</event>
<event>
 5   0  0.8195618E-07  0.3202374E+04  0.7818609E-02  0.8188191E-01
        2   -1    0    0  501    0  0.00000000000E+00  0.00000000000E+00  0.98166623288E+03  0.98166623289E+03  0.25500000920E-02 0.  1.
       -2   -1    0    0    0  501  0.00000000000E+00  0.00000000000E+00 -0.26116816305E+04  0.26116816305E+04  0.25500000920E-02 0. -1.
    10030    2    1    2    0    0  0.00000000000E+00  0.00000000000E+00 -0.16300153976E+04  0.35933478634E+04  0.32023739118E+04 0.  0.
        1    1    3    3  502    0  0.14470596384E+02 -0.76102901164E+03  0.76567456519E+03  0.10796444297E+04  0.50400001928E-02 0.  1.
       -1    1    3    3    0  502 -0.14470596384E+02  0.76102901164E+03 -0.23956899628E+04  0.25137034337E+04  0.50400001928E-02 0. -1.
</event>
<event>
 5   0  0.2783875E-07  0.3218778E+04  0.7818609E-02  0.8183875E-01
        1   -1    0    0  501    0  0.00000000000E+00  0.00000000000E+00  0.20314940922E+04  0.20314940922E+04  0.50400001928E-02 0.  1.
       -1   -1    0    0    0  501  0.00000000000E+00  0.00000000000E+00 -0.12749893425E+04  0.12749893426E+04  0.50400001928E-02 0. -1.
    10030    2    1    2    0    0  0.00000000000E+00  0.00000000000E+00  0.75650474961E+03  0.33064834347E+04  0.32187782260E+04 0.  0.
        2    1    3    3  502    0 -0.15521325230E+04 -0.40969834139E+03  0.49611858181E+03  0.16802088403E+04  0.25500000920E-02 0.  1.
       -2    1    3    3    0  502  0.15521325230E+04  0.40969834139E+03  0.26038616780E+03  0.16262745944E+04  0.25500000920E-02 0. -1.
</event>
<event>
 5   0  0.2783875E-07  0.3181686E+04  0.7818609E-02  0.8193671E-01
       -1   -1    0    0    0  501  0.00000000000E+00  0.00000000000E+00  0.10819654895E+04  0.10819654895E+04  0.50400001928E-02 0.  1.
        1   -1    0    0  501    0  0.00000000000E+00  0.00000000000E+00 -0.23390595113E+04  0.23390595113E+04  0.50400001928E-02 0. -1.
    10030    2    1    2    0    0  0.00000000000E+00  0.00000000000E+00 -0.12570940218E+04  0.34210250007E+04  0.31816861373E+04 0.  0.
        2    1    3    3  502    0  0.10559150128E+04 -0.11823686250E+04 -0.48497506584E+03  0.16577553782E+04  0.25500000920E-02 0. -1.
       -2    1    3    3    0  502 -0.10559150128E+04  0.11823686250E+04 -0.77211895595E+03  0.17632696225E+04  0.25500000920E-02 0.  1.
</event>
<event>
 5   0  0.8488469E-07  0.3197184E+04  0.7818609E-02  0.8189561E-01
       -2   -1    0    0    0  501  0.00000000000E+00  0.00000000000E+00  0.10311584769E+04  0.10311584769E+04  0.25500000920E-02 0.  1.
        2   -1    0    0  501    0  0.00000000000E+00  0.00000000000E+00 -0.24782772324E+04  0.24782772324E+04  0.25500000920E-02 0. -1.
    10030    2    1    2    0    0  0.00000000000E+00  0.00000000000E+00 -0.14471187555E+04  0.35094357092E+04  0.31971841212E+04 0.  0.
        3    1    3    3  502    0 -0.96221269613E+03 -0.72264708772E+03  0.43155955778E+03  0.12784035936E+04  0.10100000352E+00 0.  1.
       -3    1    3    3    0  502  0.96221269613E+03  0.72264708772E+03 -0.18786783133E+04  0.22310321156E+04  0.10100000352E+00 0. -1.
</event>
<event>
 5   0  0.8488469E-07  0.3200037E+04  0.7818609E-02  0.8188807E-01
        2   -1    0    0  501    0  0.00000000000E+00  0.00000000000E+00  0.20208218519E+04  0.20208218519E+04  0.25500000920E-02 0. -1.
       -2   -1    0    0    0  501  0.00000000000E+00  0.00000000000E+00 -0.12668403869E+04  0.12668403869E+04  0.25500000920E-02 0.  1.
    10030    2    1    2    0    0  0.00000000000E+00  0.00000000000E+00  0.75398146507E+03  0.32876622388E+04  0.32000367102E+04 0.  0.
        3    1    3    3  502    0  0.18489723587E+03  0.87625177913E+03 -0.98523289028E+03  0.13314233085E+04  0.10100000352E+00 0.  1.
       -3    1    3    3    0  502 -0.18489723587E+03 -0.87625177913E+03  0.17392143554E+04  0.19562389303E+04  0.10100000352E+00 0. -1.
</event>
<event>
 5   0  0.2891204E-07  0.3213413E+04  0.7818609E-02  0.8185284E-01
       -1   -1    0    0    0  501  0.00000000000E+00  0.00000000000E+00  0.25924974417E+04  0.25924974417E+04  0.50400001928E-02 0.  1.
        1   -1    0    0  501    0  0.00000000000E+00  0.00000000000E+00 -0.99576014529E+03  0.99576014531E+03  0.50400001928E-02 0. -1.
    10030    2    1    2    0    0  0.00000000000E+00  0.00000000000E+00  0.15967372964E+04  0.35882575870E+04  0.32134129079E+04 0.  0.
        4    1    3    3  502    0 -0.15355218152E+04 -0.43896110003E+03  0.99494321822E+03  0.18816024321E+04  0.12699999809E+01 0.  1.
       -4    1    3    3    0  502  0.15355218152E+04  0.43896110003E+03  0.60179407814E+03  0.17066551548E+04  0.12699999809E+01 0. -1.
</event>
<event>
 5   0  0.2891204E-07  0.3212588E+04  0.7818609E-02  0.8185501E-01
       -1   -1    0    0    0  501  0.00000000000E+00  0.00000000000E+00  0.10363941116E+04  0.10363941116E+04  0.50400001928E-02 0.  1.
        1   -1    0    0  501    0  0.00000000000E+00  0.00000000000E+00 -0.24895748939E+04  0.24895748939E+04  0.50400001928E-02 0. -1.
    10030    2    1    2    0    0  0.00000000000E+00  0.00000000000E+00 -0.14531807823E+04  0.35259690055E+04  0.32125882154E+04 0.  0.
        4    1    3    3  502    0 -0.15016236082E+04 -0.56483895707E+02 -0.10367497953E+03  0.15062582797E+04  0.12699999809E+01 0.  1.
       -4    1    3    3    0  502  0.15016236082E+04  0.56483895707E+02 -0.13495058028E+04  0.20197107258E+04  0.12699999809E+01 0. -1.
</event>
<event>
 5   0  0.3013888E-07  0.3205687E+04  0.7818609E-02  0.8187317E-01
        1   -1    0    0  501    0  0.00000000000E+00  0.00000000000E+00  0.11525446892E+04  0.11525446892E+04  0.50400001928E-02 0. -1.
       -1   -1    0    0    0  501  0.00000000000E+00  0.00000000000E+00 -0.22290740890E+04  0.22290740890E+04  0.50400001928E-02 0.  1.
    10030    2    1    2    0    0  0.00000000000E+00  0.00000000000E+00 -0.10765293998E+04  0.33816187782E+04  0.32056871358E+04 0.  0.
        1    1    3    3  502    0  0.57382667708E+03 -0.72202318773E+03 -0.19211301252E+04  0.21310409421E+04  0.50400001928E-02 0.  1.
       -1    1    3    3    0  502 -0.57382667708E+03  0.72202318773E+03  0.84460072539E+03  0.12505778362E+04  0.50400001928E-02 0. -1.
</event>
<event>
 5   0  0.3013888E-07  0.3242483E+04  0.7818609E-02  0.8177687E-01
        1   -1    0    0  501    0  0.00000000000E+00  0.00000000000E+00  0.20623212106E+04  0.20623212106E+04  0.50400001928E-02 0.  1.
       -1   -1    0    0    0  501  0.00000000000E+00  0.00000000000E+00 -0.12744979078E+04  0.12744979078E+04  0.50400001928E-02 0. -1.
    10030    2    1    2    0    0  0.00000000000E+00  0.00000000000E+00  0.78782330283E+03  0.33368191184E+04  0.32424830412E+04 0.  0.
        1    1    3    3  502    0 -0.91288461587E+03  0.13499987857E+03 -0.97785173901E+03  0.13445360957E+04  0.50400001928E-02 0. -1.
       -1    1    3    3    0  502  0.91288461587E+03 -0.13499987857E+03  0.17656750418E+04  0.19922830227E+04  0.50400001928E-02 0.  1.
</event>
<event>
 5   0  0.2783875E-07  0.3210879E+04  0.7818609E-02  0.8185950E-01
       -1   -1    0    0    0  501  0.00000000000E+00  0.00000000000E+00  0.10678002768E+04  0.10678002768E+04  0.50400001928E-02 0. -1.
        1   -1    0    0  501    0  0.00000000000E+00  0.00000000000E+00 -0.24137815174E+04  0.24137815174E+04  0.50400001928E-02 0.  1.
    10030    2    1    2    0    0  0.00000000000E+00  0.00000000000E+00 -0.13459812406E+04  0.34815817942E+04  0.32108793639E+04 0.  0.
        2    1    3    3  502    0 -0.10281285207E+03  0.11337065980E+04 -0.19004996673E+04  0.22153465007E+04  0.25500000920E-02 0. -1.
       -2    1    3    3    0  502  0.10281285207E+03 -0.11337065980E+04  0.55451842665E+03  0.12662352935E+04  0.25500000920E-02 0.  1.
</event>
<event>
 5   0  0.3075756E-07  0.3221472E+04  0.7818609E-02  0.8183169E-01
        1   -1    0    0  501    0  0.00000000000E+00  0.00000000000E+00  0.15314979545E+04  0.15314979545E+04  0.50400001928E-02 0. -1.
       -1   -1    0    0    0  501  0.00000000000E+00  0.00000000000E+00 -0.16940741353E+04  0.16940741353E+04  0.50400001928E-02 0.  1.
    10030    2    1    2    0    0  0.00000000000E+00  0.00000000000E+00 -0.16257618076E+03  0.32255720899E+04  0.32214723796E+04 0.  0.
        5    1    3    3  502    0 -0.28521021710E+03 -0.63608671325E+03  0.13726265757E+04  0.15395054339E+04  0.46999998093E+01 0. -1.
       -5    1    3    3    0  502  0.28521021710E+03  0.63608671325E+03 -0.15352027565E+04  0.16860666559E+04  0.46999998093E+01 0.  1.
</event>
<event>
 5   0  0.2783875E-07  0.3196931E+04  0.7818609E-02  0.8189628E-01
        1   -1    0    0  501    0  0.00000000000E+00  0.00000000000E+00  0.13007878380E+04  0.13007878380E+04  0.50400001928E-02 0. -1.
       -1   -1    0    0    0  501  0.00000000000E+00  0.00000000000E+00 -0.19642651751E+04  0.19642651751E+04  0.50400001928E-02 0.  1.
    10030    2    1    2    0    0  0.00000000000E+00  0.00000000000E+00 -0.66347733716E+03  0.32650530131E+04  0.31969311850E+04 0.  0.
        2    1    3    3  502    0  0.61745535827E+03  0.32041324031E+03  0.11380859003E+04  0.13338497968E+04  0.25500000920E-02 0. -1.
       -2    1    3    3    0  502 -0.61745535827E+03 -0.32041324031E+03 -0.18015632375E+04  0.19312032163E+04  0.25500000920E-02 0.  1.
</event>
<event>
 5   0  0.8195618E-07  0.3199446E+04  0.7818609E-02  0.8188963E-01
        2   -1    0    0  501    0  0.00000000000E+00  0.00000000000E+00  0.20190033209E+04  0.20190033209E+04  0.25500000920E-02 0.  1.
       -2   -1    0    0    0  501  0.00000000000E+00  0.00000000000E+00 -0.12675135142E+04  0.12675135142E+04  0.25500000920E-02 0. -1.
    10030    2    1    2    0    0  0.00000000000E+00  0.00000000000E+00  0.75148980672E+03  0.32865168350E+04  0.31994461985E+04 0.  0.
        1    1    3    3  502    0  0.10725936282E+02  0.10989222914E+04 -0.81837513158E+03  0.13702127953E+04  0.50400001928E-02 0. -1.
       -1    1    3    3    0  502 -0.10725936282E+02 -0.10989222914E+04  0.15698649383E+04  0.19163040398E+04  0.50400001928E-02 0.  1.
</event>
<event>
 5   0  0.8195618E-07  0.3166416E+04  0.7818609E-02  0.8197743E-01
        2   -1    0    0  501    0  0.00000000000E+00  0.00000000000E+00  0.14269937685E+04  0.14269937685E+04  0.25500000920E-02 0. -1.
       -2   -1    0    0    0  501  0.00000000000E+00  0.00000000000E+00 -0.17565231736E+04  0.17565231736E+04  0.25500000920E-02 0.  1.
    10030    2    1    2    0    0  0.00000000000E+00  0.00000000000E+00 -0.32952940510E+03  0.31835169420E+04  0.31664160326E+04 0.  0.
        1    1    3    3  502    0 -0.12345365650E+04 -0.80293099076E+03 -0.74908238642E+03  0.16522418491E+04  0.50400001928E-02 0.  1.
       -1    1    3    3    0  502  0.12345365650E+04  0.80293099076E+03  0.41955298132E+03  0.15312750930E+04  0.50400001928E-02 0. -1.
</event>
<event>
 5   0  0.8838951E-07  0.3211349E+04  0.7818609E-02  0.8185826E-01
       -2   -1    0    0    0  501  0.00000000000E+00  0.00000000000E+00  0.98385179198E+03  0.98385179199E+03  0.25500000920E-02 0. -1.
        2   -1    0    0  501    0  0.00000000000E+00  0.00000000000E+00 -0.26205071122E+04  0.26205071122E+04  0.25500000920E-02 0.  1.
    10030    2    1    2    0    0  0.00000000000E+00  0.00000000000E+00 -0.16366553202E+04  0.36043589041E+04  0.32113490114E+04 0.  0.
        2    1    3    3  502    0 -0.52740835932E+03 -0.13795165001E+03 -0.25134584054E+04  0.25718987909E+04  0.25500000920E-02 0.  1.
       -2    1    3    3    0  502  0.52740835932E+03  0.13795165001E+03  0.87680308518E+03  0.10324601132E+04  0.25500000920E-02 0. -1.
</event>
<event>
 5   0  0.2891204E-07  0.3193991E+04  0.7818609E-02  0.8190406E-01
       -1   -1    0    0    0  501  0.00000000000E+00  0.00000000000E+00  0.12309688646E+04  0.12309688646E+04  0.50400001928E-02 0.  1.
        1   -1    0    0  501    0  0.00000000000E+00  0.00000000000E+00 -0.20718594337E+04  0.20718594338E+04  0.50400001928E-02 0. -1.
    10030    2    1    2    0    0  0.00000000000E+00  0.00000000000E+00 -0.84089056914E+03  0.33028282984E+04  0.31939908922E+04 0.  0.
        4    1    3    3  502    0 -0.36993309372E+03  0.84794464058E+03 -0.17665450262E+04  0.19941272652E+04  0.12699999809E+01 0. -1.
       -4    1    3    3    0  502  0.36993309372E+03 -0.84794464058E+03  0.92565445710E+03  0.13087010331E+04  0.12699999809E+01 0.  1.
</event>
<event>
 5   0  0.2891204E-07  0.3199795E+04  0.7818609E-02  0.8188871E-01
       -1   -1    0    0    0  501  0.00000000000E+00  0.00000000000E+00  0.22207010643E+04  0.22207010643E+04  0.50400001928E-02 0.  1.
        1   -1    0    0  501    0  0.00000000000E+00  0.00000000000E+00 -0.11526416940E+04  0.11526416941E+04  0.50400001928E-02 0. -1.
    10030    2    1    2    0    0  0.00000000000E+00  0.00000000000E+00  0.10680593702E+04  0.33733427583E+04  0.31997953914E+04 0.  0.
        4    1    3    3  502    0 -0.49879646420E+03 -0.52856982849E+03 -0.96857691272E+03  0.12109198260E+04  0.12699999809E+01 0. -1.
       -4    1    3    3    0  502  0.49879646420E+03  0.52856982849E+03  0.20366362830E+04  0.21624229323E+04  0.12699999809E+01 0.  1.
</event>
<event>
 5   0  0.3013888E-07  0.3223385E+04  0.7818609E-02  0.8182669E-01
        1   -1    0    0  501    0  0.00000000000E+00  0.00000000000E+00  0.23089415821E+04  0.23089415821E+04  0.50400001928E-02 0.  1.
       -1   -1    0    0    0  501  0.00000000000E+00  0.00000000000E+00 -0.11249968151E+04  0.11249968151E+04  0.50400001928E-02 0. -1.
    10030    2    1    2    0    0  0.00000000000E+00  0.00000000000E+00  0.11839447670E+04  0.34339383973E+04  0.32233845109E+04 0.  0.
        1    1    3    3  502    0  0.20231505626E+03  0.15081006097E+03  0.22877665571E+04  0.23016409095E+04  0.50400001928E-02 0.  1.
       -1    1    3    3    0  502 -0.20231505626E+03 -0.15081006097E+03 -0.11038217901E+04  0.11322974878E+04  0.50400001928E-02 0. -1.
</event>
<event>
 5   0  0.2783875E-07  0.3177784E+04  0.7818609E-02  0.8194709E-01
       -1   -1    0    0    0  501  0.00000000000E+00  0.00000000000E+00  0.22504492231E+04  0.22504492231E+04  0.50400001928E-02 0.  1.
        1   -1    0    0  501    0  0.00000000000E+00  0.00000000000E+00 -0.11218105070E+04  0.11218105070E+04  0.50400001928E-02 0. -1.
    10030    2    1    2    0    0  0.00000000000E+00  0.00000000000E+00  0.11286387161E+04  0.33722597301E+04  0.31777838717E+04 0.  0.
        2    1    3    3  502    0 -0.12029499485E+04 -0.16564630744E+03  0.16517503663E+04  0.20500747670E+04  0.25500000920E-02 0. -1.
       -2    1    3    3    0  502  0.12029499485E+04  0.16564630744E+03 -0.52311165019E+03  0.13221849630E+04  0.25500000920E-02 0.  1.
</event>
<event>
 5   0  0.2783875E-07  0.3010027E+04  0.7818609E-02  0.8240873E-01
       -1   -1    0    0    0  501  0.00000000000E+00  0.00000000000E+00  0.13453339200E+04  0.13453339200E+04  0.50400001928E-02 0.  1.
        1   -1    0    0  501    0  0.00000000000E+00  0.00000000000E+00 -0.16836459589E+04  0.16836459589E+04  0.50400001928E-02 0. -1.
    10030    2    1    2    0    0  0.00000000000E+00  0.00000000000E+00 -0.33831203891E+03  0.30289798789E+04  0.30100272542E+04 0.  0.
        2    1    3    3  502    0 -0.90210899094E+03 -0.11939736855E+04 -0.78588243321E+01  0.14964743747E+04  0.25500000920E-02 0.  1.
       -2    1    3    3    0  502  0.90210899094E+03  0.11939736855E+04 -0.33045321457E+03  0.15325055041E+04  0.25500000920E-02 0. -1.
</event>
<event>
 5   0  0.8488469E-07  0.3200773E+04  0.7818609E-02  0.8188613E-01
       -2   -1    0    0    0  501  0.00000000000E+00  0.00000000000E+00  0.18711778317E+04  0.18711778317E+04  0.25500000920E-02 0.  1.
        2   -1    0    0  501    0  0.00000000000E+00  0.00000000000E+00 -0.13687831949E+04  0.13687831949E+04  0.25500000920E-02 0. -1.
    10030    2    1    2    0    0  0.00000000000E+00  0.00000000000E+00  0.50239463679E+03  0.32399610267E+04  0.32007728884E+04 0.  0.
        3    1    3    3  502    0  0.12318560800E+04  0.66768240343E+03 -0.53155387932E+03  0.14986055954E+04  0.10100000352E+00 0. -1.
       -3    1    3    3    0  502 -0.12318560800E+04 -0.66768240343E+03  0.10339485161E+04  0.17413554313E+04  0.10100000352E+00 0.  1.
</event>
<event>
 5   0  0.8195618E-07  0.3191663E+04  0.7818609E-02  0.8191022E-01
       -2   -1    0    0    0  501  0.00000000000E+00  0.00000000000E+00  0.15253885582E+04  0.15253885582E+04  0.25500000920E-02 0. -1.
        2   -1    0    0  501    0  0.00000000000E+00  0.00000000000E+00 -0.16695272253E+04  0.16695272253E+04  0.25500000920E-02 0.  1.
    10030    2    1    2    0    0  0.00000000000E+00  0.00000000000E+00 -0.14413866712E+03  0.31949157835E+04  0.31916627185E+04 0.  0.
        1    1    3    3  502    0 -0.13715666500E+04 -0.66162165090E+02 -0.88598183137E+03  0.16341775647E+04  0.50400001928E-02 0.  1.
       -1    1    3    3    0  502  0.13715666500E+04  0.66162165090E+02  0.74184316425E+03  0.15607382188E+04  0.50400001928E-02 0. -1.
</event>
<event>
 5   0  0.8488469E-07  0.3099613E+04  0.7818609E-02  0.8215844E-01
       -2   -1    0    0    0  501  0.00000000000E+00  0.00000000000E+00  0.16848633298E+04  0.16848633298E+04  0.25500000920E-02 0.  1.
        2   -1    0    0  501    0  0.00000000000E+00  0.00000000000E+00 -0.14255757162E+04  0.14255757162E+04  0.25500000920E-02 0. -1.
    10030    2    1    2    0    0  0.00000000000E+00  0.00000000000E+00  0.25928761358E+03  0.31104390460E+04  0.30996130392E+04 0.  0.
        3    1    3    3  502    0 -0.86330467427E+03  0.12868548951E+04  0.10486431721E+03  0.15531538935E+04  0.10100000352E+00 0.  1.
       -3    1    3    3    0  502  0.86330467427E+03 -0.12868548951E+04  0.15442329637E+03  0.15572851525E+04  0.10100000352E+00 0. -1.
</event>
<event>
 5   0  0.3013888E-07  0.3195899E+04  0.7818609E-02  0.8189901E-01
        1   -1    0    0  501    0  0.00000000000E+00  0.00000000000E+00  0.17478451421E+04  0.17478451421E+04  0.50400001928E-02 0.  1.
       -1   -1    0    0    0  501  0.00000000000E+00  0.00000000000E+00 -0.14609093242E+04  0.14609093242E+04  0.50400001928E-02 0. -1.
    10030    2    1    2    0    0  0.00000000000E+00  0.00000000000E+00  0.28693581789E+03  0.32087544663E+04  0.31958994135E+04 0.  0.
        1    1    3    3  502    0 -0.58157049422E+03  0.35206734519E+03  0.15954063033E+04  0.17342136339E+04  0.50400001928E-02 0.  1.
       -1    1    3    3    0  502  0.58157049422E+03 -0.35206734519E+03 -0.13084704854E+04  0.14745408324E+04  0.50400001928E-02 0. -1.
</event>
<event>
 5   0  0.8838951E-07  0.3189120E+04  0.7818609E-02  0.8191697E-01
        2   -1    0    0  501    0  0.00000000000E+00  0.00000000000E+00  0.13077669172E+04  0.13077669172E+04  0.25500000920E-02 0.  1.
       -2   -1    0    0    0  501  0.00000000000E+00  0.00000000000E+00 -0.19442463792E+04  0.19442463792E+04  0.25500000920E-02 0. -1.
    10030    2    1    2    0    0  0.00000000000E+00  0.00000000000E+00 -0.63647946203E+03  0.32520132964E+04  0.31891196865E+04 0.  0.
        2    1    3    3  502    0 -0.51613199153E+03  0.61218118441E+03  0.10878901598E+04  0.13508008865E+04  0.25500000920E-02 0.  1.
       -2    1    3    3    0  502  0.51613199153E+03 -0.61218118441E+03 -0.17243696218E+04  0.19012124100E+04  0.25500000920E-02 0. -1.
</event>
<event>
 5   0  0.8838951E-07  0.3207967E+04  0.7818609E-02  0.8186716E-01
        2   -1    0    0  501    0  0.00000000000E+00  0.00000000000E+00  0.14681656131E+04  0.14681656131E+04  0.25500000920E-02 0.  1.
       -2   -1    0    0    0  501  0.00000000000E+00  0.00000000000E+00 -0.17523659774E+04  0.17523659774E+04  0.25500000920E-02 0. -1.
    10030    2    1    2    0    0  0.00000000000E+00  0.00000000000E+00 -0.28420036430E+03  0.32205315905E+04  0.32079672502E+04 0.  0.
        2    1    3    3  502    0 -0.95326459254E+03 -0.12180907846E+04 -0.56838653987E+03  0.16478840377E+04  0.25500000920E-02 0. -1.
       -2    1    3    3    0  502  0.95326459254E+03  0.12180907846E+04  0.28418617558E+03  0.15726475528E+04  0.25500000920E-02 0.  1.
</event>
<event>
 5   0  0.2891204E-07  0.3194856E+04  0.7818609E-02  0.8190177E-01
        1   -1    0    0  501    0  0.00000000000E+00  0.00000000000E+00  0.23977571467E+04  0.23977571467E+04  0.50400001928E-02 0. -1.
       -1   -1    0    0    0  501  0.00000000000E+00  0.00000000000E+00 -0.10642343445E+04  0.10642343445E+04  0.50400001928E-02 0.  1.
    10030    2    1    2    0    0  0.00000000000E+00  0.00000000000E+00  0.13335228022E+04  0.34619914912E+04  0.31948555556E+04 0.  0.
        4    1    3    3  502    0  0.13403933966E+04 -0.85393933019E+03  0.49234641737E+03  0.16638129237E+04  0.12699999809E+01 0. -1.
       -4    1    3    3    0  502 -0.13403933966E+04  0.85393933019E+03  0.84117638480E+03  0.17981785675E+04  0.12699999809E+01 0.  1.
</event>
<event>
 5   0  0.2783875E-07  0.3380294E+04  0.7818609E-02  0.8142760E-01
       -1   -1    0    0    0  501  0.00000000000E+00  0.00000000000E+00  0.13888152798E+04  0.13888152799E+04  0.50400001928E-02 0. -1.
        1   -1    0    0  501    0  0.00000000000E+00  0.00000000000E+00 -0.20568589748E+04  0.20568589748E+04  0.50400001928E-02 0.  1.
    10030    2    1    2    0    0  0.00000000000E+00  0.00000000000E+00 -0.66804369498E+03  0.34456742547E+04  0.33802941723E+04 0.  0.
        2    1    3    3  502    0 -0.13412377617E+04 -0.78813983833E+03  0.33944904003E+03  0.15922653011E+04  0.25500000920E-02 0. -1.
       -2    1    3    3    0  502  0.13412377617E+04  0.78813983833E+03 -0.10074927350E+04  0.18534089536E+04  0.25500000920E-02 0.  1.
</event>
<event>
 5   0  0.3075756E-07  0.3216833E+04  0.7818609E-02  0.8184386E-01
       -1   -1    0    0    0  501  0.00000000000E+00  0.00000000000E+00  0.11645476361E+04  0.11645476361E+04  0.50400001928E-02 0.  1.
        1   -1    0    0  501    0  0.00000000000E+00  0.00000000000E+00 -0.22214665342E+04  0.22214665342E+04  0.50400001928E-02 0. -1.
    10030    2    1    2    0    0  0.00000000000E+00  0.00000000000E+00 -0.10569188981E+04  0.33860141703E+04  0.32168329773E+04 0.  0.
        5    1    3    3  502    0  0.27351837560E+03  0.11768069599E+03 -0.21921951333E+04  0.22123296862E+04  0.46999998093E+01 0. -1.
       -5    1    3    3    0  502 -0.27351837560E+03 -0.11768069599E+03  0.11352762352E+04  0.11736844841E+04  0.46999998093E+01 0.  1.
</event>
<event>
 5   0  0.8335929E-07  0.3196995E+04  0.7818609E-02  0.8189611E-01
       -2   -1    0    0    0  501  0.00000000000E+00  0.00000000000E+00  0.10503972192E+04  0.10503972192E+04  0.25500000920E-02 0. -1.
        2   -1    0    0  501    0  0.00000000000E+00  0.00000000000E+00 -0.24325987821E+04  0.24325987821E+04  0.25500000920E-02 0.  1.
    10030    2    1    2    0    0  0.00000000000E+00  0.00000000000E+00 -0.13822015628E+04  0.34829960013E+04  0.31969954621E+04 0.  0.
        4    1    3    3  502    0 -0.34735955969E+03 -0.84970966727E+03 -0.21168062716E+04  0.23072788272E+04  0.12699999809E+01 0.  1.
       -4    1    3    3    0  502  0.34735955969E+03  0.84970966727E+03  0.73460470874E+03  0.11757171741E+04  0.12699999809E+01 0. -1.
</event>
<event>
 5   0  0.3075756E-07  0.3195888E+04  0.7818609E-02  0.8189904E-01
       -1   -1    0    0    0  501  0.00000000000E+00  0.00000000000E+00  0.15062536482E+04  0.15062536483E+04  0.50400001928E-02 0. -1.
        1   -1    0    0  501    0  0.00000000000E+00  0.00000000000E+00 -0.16952157154E+04  0.16952157154E+04  0.50400001928E-02 0.  1.
    10030    2    1    2    0    0  0.00000000000E+00  0.00000000000E+00 -0.18896206718E+03  0.32014693637E+04  0.31958878929E+04 0.  0.
        5    1    3    3  502    0 -0.85265794505E+02 -0.12758490642E+04  0.86549404907E+03  0.15440735505E+04  0.46999998093E+01 0. -1.
       -5    1    3    3    0  502  0.85265794505E+02  0.12758490642E+04 -0.10544561163E+04  0.16573958132E+04  0.46999998093E+01 0.  1.
</event>
<event>
 5   0  0.8195618E-07  0.3200761E+04  0.7818609E-02  0.8188616E-01
        2   -1    0    0  501    0  0.00000000000E+00  0.00000000000E+00  0.22874641593E+04  0.22874641593E+04  0.25500000920E-02 0. -1.
       -2   -1    0    0    0  501  0.00000000000E+00  0.00000000000E+00 -0.11196757678E+04  0.11196757678E+04  0.25500000920E-02 0.  1.
    10030    2    1    2    0    0  0.00000000000E+00  0.00000000000E+00  0.11677883915E+04  0.34071399271E+04  0.32007612774E+04 0.  0.
        1    1    3    3  502    0  0.56611994368E+03  0.12580862341E+04 -0.27954472546E+03  0.14076285081E+04  0.50400001928E-02 0. -1.
       -1    1    3    3    0  502 -0.56611994368E+03 -0.12580862341E+04  0.14473331170E+04  0.19995114190E+04  0.50400001928E-02 0.  1.
</event>
<event>
 5   0  0.3075756E-07  0.3092917E+04  0.7818609E-02  0.8217685E-01
       -1   -1    0    0    0  501  0.00000000000E+00  0.00000000000E+00  0.83370119758E+03  0.83370119760E+03  0.50400001928E-02 0. -1.
        1   -1    0    0  501    0  0.00000000000E+00  0.00000000000E+00 -0.28685737172E+04  0.28685737172E+04  0.50400001928E-02 0.  1.
    10030    2    1    2    0    0  0.00000000000E+00  0.00000000000E+00 -0.20348725196E+04  0.37022749148E+04  0.30929166451E+04 0.  0.
        5    1    3    3  502    0  0.58449465156E+02  0.13001242822E+04 -0.20173375859E+04  0.24007108353E+04  0.46999998093E+01 0.  1.
       -5    1    3    3    0  502 -0.58449465156E+02 -0.13001242822E+04 -0.17534933661E+02  0.13015640795E+04  0.46999998093E+01 0. -1.
</event>
<event>
 5   0  0.2997105E-07  0.3194033E+04  0.7818609E-02  0.8190395E-01
       -1   -1    0    0    0  501  0.00000000000E+00  0.00000000000E+00  0.24740772538E+04  0.24740772538E+04  0.50400001928E-02 0. -1.
        1   -1    0    0  501    0  0.00000000000E+00  0.00000000000E+00 -0.10308741029E+04  0.10308741029E+04  0.50400001928E-02 0.  1.
    10030    2    1    2    0    0  0.00000000000E+00  0.00000000000E+00  0.14432031510E+04  0.35049513567E+04  0.31940332932E+04 0.  0.
        3    1    3    3  502    0  0.67207090606E+03 -0.11363770946E+04 -0.26443945084E+03  0.13464621931E+04  0.10100000352E+00 0.  1.
       -3    1    3    3    0  502 -0.67207090606E+03  0.11363770946E+04  0.17076426018E+04  0.21584891637E+04  0.10100000352E+00 0. -1.
</event>
<event>
 5   0  0.2997105E-07  0.3199617E+04  0.7818609E-02  0.8188918E-01
       -1   -1    0    0    0  501  0.00000000000E+00  0.00000000000E+00  0.11876405923E+04  0.11876405923E+04  0.50400001928E-02 0.  1.
        1   -1    0    0  501    0  0.00000000000E+00  0.00000000000E+00 -0.21550182998E+04  0.21550182998E+04  0.50400001928E-02 0. -1.
    10030    2    1    2    0    0  0.00000000000E+00  0.00000000000E+00 -0.96737770757E+03  0.33426588921E+04  0.31996169833E+04 0.  0.
        3    1    3    3  502    0 -0.15642867284E+04 -0.26815521403E+03 -0.69389815696E+03  0.17321647871E+04  0.10100000352E+00 0.  1.
       -3    1    3    3    0  502  0.15642867284E+04  0.26815521403E+03 -0.27347955061E+03  0.16104941050E+04  0.10100000352E+00 0. -1.
</event>
<event>
 5   0  0.3075756E-07  0.3198190E+04  0.7818609E-02  0.8189295E-01
       -1   -1    0    0    0  501  0.00000000000E+00  0.00000000000E+00  0.13424846626E+04  0.13424846626E+04  0.50400001928E-02 0.  1.
        1   -1    0    0  501    0  0.00000000000E+00  0.00000000000E+00 -0.19047557894E+04  0.19047557894E+04  0.50400001928E-02 0. -1.
    10030    2    1    2    0    0  0.00000000000E+00  0.00000000000E+00 -0.56227112681E+03  0.32472404521E+04  0.31981903842E+04 0.  0.
        5    1    3    3  502    0  0.93385221730E+03 -0.10744857910E+04  0.45837799833E+03  0.14955708469E+04  0.46999998093E+01 0.  1.
       -5    1    3    3    0  502 -0.93385221730E+03  0.10744857910E+04 -0.10206491251E+04  0.17516696051E+04  0.46999998093E+01 0. -1.
</event>
<event>
 5   0  0.8335929E-07  0.3216049E+04  0.7818609E-02  0.8184591E-01
       -2   -1    0    0    0  501  0.00000000000E+00  0.00000000000E+00  0.12493036158E+04  0.12493036158E+04  0.25500000920E-02 0.  1.
        2   -1    0    0  501    0  0.00000000000E+00  0.00000000000E+00 -0.20697476396E+04  0.20697476396E+04  0.25500000920E-02 0. -1.
    10030    2    1    2    0    0  0.00000000000E+00  0.00000000000E+00 -0.82044402381E+03  0.33190512555E+04  0.32160492596E+04 0.  0.
        4    1    3    3  502    0 -0.28244052080E+03  0.61277060135E+03  0.10961426329E+04  0.12871638366E+04  0.12699999809E+01 0.  1.
       -4    1    3    3    0  502  0.28244052080E+03 -0.61277060135E+03 -0.19165866567E+04  0.20318874189E+04  0.12699999809E+01 0. -1.
</event>
<event>
 5   0  0.8488469E-07  0.3193663E+04  0.7818609E-02  0.8190493E-01
        2   -1    0    0  501    0  0.00000000000E+00  0.00000000000E+00  0.11920493536E+04  0.11920493536E+04  0.25500000920E-02 0.  1.
       -2   -1    0    0    0  501  0.00000000000E+00  0.00000000000E+00 -0.21390652066E+04  0.21390652066E+04  0.25500000920E-02 0. -1.
    10030    2    1    2    0    0  0.00000000000E+00  0.00000000000E+00 -0.94701585296E+03  0.33311145602E+04  0.31936632864E+04 0.  0.
        3    1    3    3  502    0  0.10399127995E+04 -0.79377031103E+03 -0.14285472351E+04  0.19370692168E+04  0.10100000352E+00 0. -1.
       -3    1    3    3    0  502 -0.10399127995E+04  0.79377031103E+03  0.48153138219E+03  0.13940453434E+04  0.10100000352E+00 0.  1.
</event>
<event>
 5   0  0.8838951E-07  0.3191584E+04  0.7818609E-02  0.8191043E-01
        2   -1    0    0  501    0  0.00000000000E+00  0.00000000000E+00  0.15128905183E+04  0.15128905183E+04  0.25500000920E-02 0. -1.
       -2   -1    0    0    0  501  0.00000000000E+00  0.00000000000E+00 -0.16832361944E+04  0.16832361944E+04  0.25500000920E-02 0.  1.
    10030    2    1    2    0    0  0.00000000000E+00  0.00000000000E+00 -0.17034567604E+03  0.31961267127E+04  0.31915839821E+04 0.  0.
        2    1    3    3  502    0 -0.13746397586E+04 -0.80894146477E+03 -0.34789008929E+02  0.15953780225E+04  0.25500000920E-02 0. -1.
       -2    1    3    3    0  502  0.13746397586E+04  0.80894146477E+03 -0.13555666711E+03  0.16007486903E+04  0.25500000920E-02 0.  1.
</event>
<event>
 5   0  0.8195618E-07  0.3193211E+04  0.7818609E-02  0.8190612E-01
       -2   -1    0    0    0  501  0.00000000000E+00  0.00000000000E+00  0.24033513871E+04  0.24033513871E+04  0.25500000920E-02 0. -1.
        2   -1    0    0  501    0  0.00000000000E+00  0.00000000000E+00 -0.10606644503E+04  0.10606644503E+04  0.25500000920E-02 0.  1.
    10030    2    1    2    0    0  0.00000000000E+00  0.00000000000E+00  0.13426869368E+04  0.34640158374E+04  0.31932111599E+04 0.  0.
        1    1    3    3  502    0 -0.11163509223E+04 -0.26739020991E+03  0.18751425411E+04  0.21986123932E+04  0.50400001928E-02 0. -1.
       -1    1    3    3    0  502  0.11163509223E+04  0.26739020991E+03 -0.53245560433E+03  0.12654034442E+04  0.50400001928E-02 0.  1.
</event>
<event>
 5   0  0.8802800E-07  0.3201195E+04  0.7818609E-02  0.8188502E-01
        2   -1    0    0  501    0  0.00000000000E+00  0.00000000000E+00  0.21502486613E+04  0.21502486613E+04  0.25500000920E-02 0.  1.
       -2   -1    0    0    0  501  0.00000000000E+00  0.00000000000E+00 -0.11914493697E+04  0.11914493697E+04  0.25500000920E-02 0. -1.
    10030    2    1    2    0    0  0.00000000000E+00  0.00000000000E+00  0.95879929156E+03  0.33416980310E+04  0.32011950345E+04 0.  0.
        5    1    3    3  502    0  0.15828027538E+04 -0.17412887984E+03  0.64870604774E+03  0.17194263725E+04  0.46999998093E+01 0. -1.
       -5    1    3    3    0  502 -0.15828027538E+04  0.17412887984E+03  0.31009324382E+03  0.16222716585E+04  0.46999998093E+01 0.  1.
</event>
<event>
 5   0  0.8488469E-07  0.3211849E+04  0.7818609E-02  0.8185695E-01
        2   -1    0    0  501    0  0.00000000000E+00  0.00000000000E+00  0.14149668009E+04  0.14149668009E+04  0.25500000920E-02 0.  1.
       -2   -1    0    0    0  501  0.00000000000E+00  0.00000000000E+00 -0.18226526631E+04  0.18226526631E+04  0.25500000920E-02 0. -1.
    10030    2    1    2    0    0  0.00000000000E+00  0.00000000000E+00 -0.40768586215E+03  0.32376194640E+04  0.32118486937E+04 0.  0.
        3    1    3    3  502    0 -0.13934488554E+04  0.49113219358E+03 -0.83824344486E+03  0.16986943890E+04  0.10100000352E+00 0. -1.
       -3    1    3    3    0  502  0.13934488554E+04 -0.49113219358E+03  0.43055758271E+03  0.15389250750E+04  0.10100000352E+00 0.  1.
</event>
<event>
 5   0  0.3013888E-07  0.3188052E+04  0.7818609E-02  0.8191980E-01
       -1   -1    0    0    0  501  0.00000000000E+00  0.00000000000E+00  0.10461449709E+04  0.10461449710E+04  0.50400001928E-02 0. -1.
        1   -1    0    0  501    0  0.00000000000E+00  0.00000000000E+00 -0.24288396789E+04  0.24288396789E+04  0.50400001928E-02 0.  1.
    10030    2    1    2    0    0  0.00000000000E+00  0.00000000000E+00 -0.13826947080E+04  0.34749846499E+04  0.31880517031E+04 0.  0.
        1    1    3    3  502    0  0.13491488500E+04  0.24050433920E+03 -0.15787952204E+04  0.20906074009E+04  0.50400001928E-02 0.  1.
       -1    1    3    3    0  502 -0.13491488500E+04 -0.24050433920E+03  0.19610051243E+03  0.13843772490E+04  0.50400001928E-02 0. -1.
</event>
<event>
 5   0  0.2997105E-07  0.3193600E+04  0.7818609E-02  0.8190509E-01
       -1   -1    0    0    0  501  0.00000000000E+00  0.00000000000E+00  0.15344200554E+04  0.15344200554E+04  0.50400001928E-02 0.  1.
        1   -1    0    0  501    0  0.00000000000E+00  0.00000000000E+00 -0.16617163839E+04  0.16617163839E+04  0.50400001928E-02 0. -1.
    10030    2    1    2    0    0  0.00000000000E+00  0.00000000000E+00 -0.12729632848E+03  0.31961364393E+04  0.31936004421E+04 0.  0.
        3    1    3    3  502    0 -0.35015085678E+03 -0.11805679186E+04 -0.10810303997E+04  0.16385887124E+04  0.10100000352E+00 0. -1.
       -3    1    3    3    0  502  0.35015085678E+03  0.11805679186E+04  0.95373407120E+03  0.15575477270E+04  0.10100000352E+00 0.  1.
</event>
<event>
 5   0  0.3075756E-07  0.3201571E+04  0.7818609E-02  0.8188402E-01
        1   -1    0    0  501    0  0.00000000000E+00  0.00000000000E+00  0.12088463629E+04  0.12088463629E+04  0.50400001928E-02 0. -1.
       -1   -1    0    0    0  501  0.00000000000E+00  0.00000000000E+00 -0.21198019616E+04  0.21198019616E+04  0.50400001928E-02 0.  1.
    10030    2    1    2    0    0  0.00000000000E+00  0.00000000000E+00 -0.91095559876E+03  0.33286483245E+04  0.32015714212E+04 0.  0.
        5    1    3    3  502    0  0.70291049718E+03  0.12358734389E+04 -0.12202181029E+04  0.18736116547E+04  0.46999998093E+01 0.  1.
       -5    1    3    3    0  502 -0.70291049718E+03 -0.12358734389E+04  0.30926250415E+03  0.14550366698E+04  0.46999998093E+01 0. -1.
</event>
<event>
 5   0  0.2997105E-07  0.3194348E+04  0.7818609E-02  0.8190311E-01
        1   -1    0    0  501    0  0.00000000000E+00  0.00000000000E+00  0.18961640451E+04  0.18961640451E+04  0.50400001928E-02 0.  1.
       -1   -1    0    0    0  501  0.00000000000E+00  0.00000000000E+00 -0.13453295828E+04  0.13453295828E+04  0.50400001928E-02 0. -1.
    10030    2    1    2    0    0  0.00000000000E+00  0.00000000000E+00  0.55083446224E+03  0.32414936279E+04  0.31943484993E+04 0.  0.
        3    1    3    3  502    0 -0.65053675981E+03 -0.57192262434E+03  0.16371133001E+04  0.18521429566E+04  0.10100000352E+00 0.  1.
       -3    1    3    3    0  502  0.65053675981E+03  0.57192262434E+03 -0.10862788379E+04  0.13893506713E+04  0.10100000352E+00 0. -1.
</event>
<event>
 5   0  0.8838951E-07  0.3198858E+04  0.7818609E-02  0.8189119E-01
       -2   -1    0    0    0  501  0.00000000000E+00  0.00000000000E+00  0.13956422505E+04  0.13956422505E+04  0.25500000920E-02 0. -1.
        2   -1    0    0  501    0  0.00000000000E+00  0.00000000000E+00 -0.18329721148E+04  0.18329721148E+04  0.25500000920E-02 0.  1.
    10030    2    1    2    0    0  0.00000000000E+00  0.00000000000E+00 -0.43732986430E+03  0.32286143654E+04  0.31988581260E+04 0.  0.
        2    1    3    3  502    0 -0.11682792221E+04 -0.10491726741E+04  0.88358221941E+02  0.15727195605E+04  0.25500000920E-02 0.  1.
       -2    1    3    3    0  502  0.11682792221E+04  0.10491726741E+04 -0.52568808624E+03  0.16558948049E+04  0.25500000920E-02 0. -1.
</event>
<event>
 5   0  0.8488469E-07  0.3192230E+04  0.7818609E-02  0.8190872E-01
        2   -1    0    0  501    0  0.00000000000E+00  0.00000000000E+00  0.14878793660E+04  0.14878793660E+04  0.25500000920E-02 0.  1.
       -2   -1    0    0    0  501  0.00000000000E+00  0.00000000000E+00 -0.17122238249E+04  0.17122238249E+04  0.25500000920E-02 0. -1.
    10030    2    1    2    0    0  0.00000000000E+00  0.00000000000E+00 -0.22434445892E+03  0.32001031909E+04  0.31922296277E+04 0.  0.
        3    1    3    3  502    0 -0.93464831037E+03  0.10903731012E+03 -0.14045867118E+04  0.16906568073E+04  0.10100000352E+00 0. -1.
       -3    1    3    3    0  502  0.93464831037E+03 -0.10903731012E+03  0.11802422529E+04  0.15094463835E+04  0.10100000352E+00 0.  1.
</event>
<event>
 5   0  0.2997105E-07  0.3237523E+04  0.7818609E-02  0.8178977E-01
       -1   -1    0    0    0  501  0.00000000000E+00  0.00000000000E+00  0.15271560477E+04  0.15271560477E+04  0.50400001928E-02 0. -1.
        1   -1    0    0  501    0  0.00000000000E+00  0.00000000000E+00 -0.17158617240E+04  0.17158617240E+04  0.50400001928E-02 0.  1.
    10030    2    1    2    0    0  0.00000000000E+00  0.00000000000E+00 -0.18870567628E+03  0.32430177718E+04  0.32375228857E+04 0.  0.
        3    1    3    3  502    0 -0.57502805978E+03  0.13116609344E+04  0.66143216626E+03  0.15775310447E+04  0.10100000352E+00 0. -1.
       -3    1    3    3    0  502  0.57502805978E+03 -0.13116609344E+04 -0.85013784254E+03  0.16654867270E+04  0.10100000352E+00 0.  1.
</event>
<event>
 5   0  0.2783875E-07  0.3191685E+04  0.7818609E-02  0.8191017E-01
        1   -1    0    0  501    0  0.00000000000E+00  0.00000000000E+00  0.12852395741E+04  0.12852395741E+04  0.50400001928E-02 0.  1.
       -1   -1    0    0    0  501  0.00000000000E+00  0.00000000000E+00 -0.19815087789E+04  0.19815087789E+04  0.50400001928E-02 0. -1.
    10030    2    1    2    0    0  0.00000000000E+00  0.00000000000E+00 -0.69626920481E+03  0.32667483530E+04  0.31916851343E+04 0.  0.
        2    1    3    3  502    0 -0.65959112835E+03  0.13306414870E+03  0.11329452696E+04  0.13176993239E+04  0.25500000920E-02 0.  1.
       -2    1    3    3    0  502  0.65959112835E+03 -0.13306414870E+03 -0.18292144744E+04  0.19490490291E+04  0.25500000920E-02 0. -1.
</event>
<event>
 5   0  0.8838951E-07  0.3208200E+04  0.7818609E-02  0.8186655E-01
        2   -1    0    0  501    0  0.00000000000E+00  0.00000000000E+00  0.20097831765E+04  0.20097831765E+04  0.25500000920E-02 0.  1.
       -2   -1    0    0    0  501  0.00000000000E+00  0.00000000000E+00 -0.12803058860E+04  0.12803058860E+04  0.25500000920E-02 0. -1.
    10030    2    1    2    0    0  0.00000000000E+00  0.00000000000E+00  0.72947729045E+03  0.32900890625E+04  0.32082002621E+04 0.  0.
        2    1    3    3  502    0 -0.93654082584E+03 -0.77986811433E+03 -0.70487650531E+03  0.14078898685E+04  0.25500000920E-02 0. -1.
       -2    1    3    3    0  502  0.93654082584E+03  0.77986811433E+03  0.14343537958E+04  0.18821991939E+04  0.25500000920E-02 0.  1.
</event>
<event>
 5   0  0.2891204E-07  0.3193971E+04  0.7818609E-02  0.8190411E-01
        1   -1    0    0  501    0  0.00000000000E+00  0.00000000000E+00  0.20654458595E+04  0.20654458595E+04  0.50400001928E-02 0.  1.
       -1   -1    0    0    0  501  0.00000000000E+00  0.00000000000E+00 -0.12347758825E+04  0.12347758825E+04  0.50400001928E-02 0. -1.
    10030    2    1    2    0    0  0.00000000000E+00  0.00000000000E+00  0.83066997703E+03  0.33002217421E+04  0.31939710293E+04 0.  0.
        4    1    3    3  502    0  0.48558547273E+03 -0.11094748297E+04 -0.66027135348E+03  0.13793793974E+04  0.12699999809E+01 0. -1.
       -4    1    3    3    0  502 -0.48558547273E+03  0.11094748297E+04  0.14909413305E+04  0.19208423446E+04  0.12699999809E+01 0.  1.
</event>
<event>
 5   0  0.8195618E-07  0.3203276E+04  0.7818609E-02  0.8187953E-01
        2   -1    0    0  501    0  0.00000000000E+00  0.00000000000E+00  0.14905447193E+04  0.14905447193E+04  0.25500000920E-02 0.  1.
       -2   -1    0    0    0  501  0.00000000000E+00  0.00000000000E+00 -0.17210108833E+04  0.17210108833E+04  0.25500000920E-02 0. -1.
    10030    2    1    2    0    0  0.00000000000E+00  0.00000000000E+00 -0.23046616401E+03  0.32115556025E+04  0.32032756259E+04 0.  0.
        1    1    3    3  502    0  0.68720811979E+03 -0.33597228431E+03 -0.15260346650E+04  0.17070190903E+04  0.50400001928E-02 0. -1.
       -1    1    3    3    0  502 -0.68720811979E+03  0.33597228431E+03  0.12955685010E+04  0.15045365122E+04  0.50400001928E-02 0.  1.
</event>
<event>
 5   0  0.2891204E-07  0.3206954E+04  0.7818609E-02  0.8186983E-01
        1   -1    0    0  501    0  0.00000000000E+00  0.00000000000E+00  0.10232677671E+04  0.10232677671E+04  0.50400001928E-02 0. -1.
       -1   -1    0    0    0  501  0.00000000000E+00  0.00000000000E+00 -0.25126738731E+04  0.25126738731E+04  0.50400001928E-02 0.  1.
    10030    2    1    2    0    0  0.00000000000E+00  0.00000000000E+00 -0.14894061060E+04  0.35359416402E+04  0.32069538092E+04 0.  0.
        4    1    3    3  502    0 -0.48947967095E+03 -0.58347344013E+03 -0.23005234530E+04  0.24233120671E+04  0.12699999809E+01 0.  1.
       -4    1    3    3    0  502  0.48947967095E+03  0.58347344013E+03  0.81111734701E+03  0.11126295732E+04  0.12699999809E+01 0. -1.
</event>
<event>
 5   0  0.3013888E-07  0.3194214E+04  0.7818609E-02  0.8190347E-01
       -1   -1    0    0    0  501  0.00000000000E+00  0.00000000000E+00  0.14546050527E+04  0.14546050527E+04  0.50400001928E-02 0.  1.
        1   -1    0    0  501    0  0.00000000000E+00  0.00000000000E+00 -0.17535690359E+04  0.17535690359E+04  0.50400001928E-02 0. -1.
    10030    2    1    2    0    0  0.00000000000E+00  0.00000000000E+00 -0.29896398327E+03  0.32081740886E+04  0.31942137561E+04 0.  0.
        1    1    3    3  502    0 -0.48276787890E+03 -0.13203223010E+04  0.61174510273E+03  0.15331496581E+04  0.50400001928E-02 0.  1.
       -1    1    3    3    0  502  0.48276787890E+03  0.13203223010E+04 -0.91070908600E+03  0.16750244305E+04  0.50400001928E-02 0. -1.
</event>
<event>
 5   0  0.2783875E-07  0.3200534E+04  0.7818609E-02  0.8188676E-01
       -1   -1    0    0    0  501  0.00000000000E+00  0.00000000000E+00  0.10841351620E+04  0.10841351620E+04  0.50400001928E-02 0. -1.
        1   -1    0    0  501    0  0.00000000000E+00  0.00000000000E+00 -0.23621179434E+04  0.23621179434E+04  0.50400001928E-02 0.  1.
    10030    2    1    2    0    0  0.00000000000E+00  0.00000000000E+00 -0.12779827814E+04  0.34462531054E+04  0.32005344049E+04 0.  0.
        2    1    3    3  502    0 -0.11790103642E+04 -0.10151126979E+04 -0.10423664557E+04  0.18727111513E+04  0.25500000920E-02 0.  1.
       -2    1    3    3    0  502  0.11790103642E+04  0.10151126979E+04 -0.23561632571E+03  0.15735419541E+04  0.25500000920E-02 0. -1.
</event>
<event>
 5   0  0.8195618E-07  0.3195417E+04  0.7818609E-02  0.8190029E-01
       -2   -1    0    0    0  501  0.00000000000E+00  0.00000000000E+00  0.12903823785E+04  0.12903823785E+04  0.25500000920E-02 0.  1.
        2   -1    0    0  501    0  0.00000000000E+00  0.00000000000E+00 -0.19782297174E+04  0.19782297174E+04  0.25500000920E-02 0. -1.
    10030    2    1    2    0    0  0.00000000000E+00  0.00000000000E+00 -0.68784733890E+03  0.32686120960E+04  0.31954171985E+04 0.  0.
        1    1    3    3  502    0  0.82761641007E+03 -0.13168039662E+04 -0.71802098737E+03  0.17130311573E+04  0.50400001928E-02 0. -1.
       -1    1    3    3    0  502 -0.82761641007E+03  0.13168039662E+04  0.30173648471E+02  0.15555809386E+04  0.50400001928E-02 0.  1.
</event>
<event>
 5   0  0.8802800E-07  0.3188595E+04  0.7818609E-02  0.8191836E-01
       -2   -1    0    0    0  501  0.00000000000E+00  0.00000000000E+00  0.92994992125E+03  0.92994992125E+03  0.25500000920E-02 0.  1.
        2   -1    0    0  501    0  0.00000000000E+00  0.00000000000E+00 -0.27332491556E+04  0.27332491556E+04  0.25500000920E-02 0. -1.
    10030    2    1    2    0    0  0.00000000000E+00  0.00000000000E+00 -0.18032992343E+04  0.36631990768E+04  0.31885951998E+04 0.  0.
        5    1    3    3  502    0  0.50467199737E+03 -0.11247163612E+04 -0.20631089530E+04  0.24033562699E+04  0.46999998093E+01 0. -1.
       -5    1    3    3    0  502 -0.50467199737E+03  0.11247163612E+04  0.25980971871E+03  0.12598428069E+04  0.46999998093E+01 0.  1.
</event>
<event>
 5   0  0.3075756E-07  0.3213769E+04  0.7818609E-02  0.8185190E-01
       -1   -1    0    0    0  501  0.00000000000E+00  0.00000000000E+00  0.17402892744E+04  0.17402892744E+04  0.50400001928E-02 0.  1.
        1   -1    0    0  501    0  0.00000000000E+00  0.00000000000E+00 -0.14837063983E+04  0.14837063983E+04  0.50400001928E-02 0. -1.
    10030    2    1    2    0    0  0.00000000000E+00  0.00000000000E+00  0.25658287612E+03  0.32239956726E+04  0.32137693329E+04 0.  0.
        5    1    3    3  502    0 -0.15039246094E+04  0.45989048227E+03 -0.20255756476E+03  0.15856670973E+04  0.46999998093E+01 0. -1.
       -5    1    3    3    0  502  0.15039246094E+04 -0.45989048227E+03  0.45914044088E+03  0.16383285754E+04  0.46999998093E+01 0.  1.
</event>
<event>
 5   0  0.8335929E-07  0.3234044E+04  0.7818609E-02  0.8179884E-01
       -2   -1    0    0    0  501  0.00000000000E+00  0.00000000000E+00  0.14488548066E+04  0.14488548066E+04  0.25500000920E-02 0. -1.
        2   -1    0    0  501    0  0.00000000000E+00  0.00000000000E+00 -0.18047078203E+04  0.18047078203E+04  0.25500000920E-02 0.  1.
    10030    2    1    2    0    0  0.00000000000E+00  0.00000000000E+00 -0.35585301369E+03  0.32535626269E+04  0.32340436608E+04 0.  0.
        4    1    3    3  502    0 -0.14847588405E+03 -0.16039678072E+04 -0.35650993437E+02  0.16112201652E+04  0.12699999809E+01 0.  1.
       -4    1    3    3    0  502  0.14847588405E+03  0.16039678072E+04 -0.32020202025E+03  0.16423424616E+04  0.12699999809E+01 0. -1.
</event>
<event>
 5   0  0.3013888E-07  0.3353010E+04  0.7818609E-02  0.8149537E-01
        1   -1    0    0  501    0  0.00000000000E+00  0.00000000000E+00  0.18075681203E+04  0.18075681203E+04  0.50400001928E-02 0.  1.
       -1   -1    0    0    0  501  0.00000000000E+00  0.00000000000E+00 -0.15549448057E+04  0.15549448057E+04  0.50400001928E-02 0. -1.
    10030    2    1    2    0    0  0.00000000000E+00  0.00000000000E+00  0.25262331458E+03  0.33625129260E+04  0.33530097880E+04 0.  0.
        1    1    3    3  502    0  0.16086432856E+04  0.42857500314E+03 -0.72388511790E+02  0.16663282541E+04  0.50400001928E-02 0. -1.
       -1    1    3    3    0  502 -0.16086432856E+04 -0.42857500314E+03  0.32501182637E+03  0.16961846719E+04  0.50400001928E-02 0.  1.
</event>
<event>
 5   0  0.3075756E-07  0.3206793E+04  0.7818609E-02  0.8187025E-01
        1   -1    0    0  501    0  0.00000000000E+00  0.00000000000E+00  0.29058915719E+04  0.29058915719E+04  0.50400001928E-02 0. -1.
       -1   -1    0    0    0  501  0.00000000000E+00  0.00000000000E+00 -0.88471330242E+03  0.88471330244E+03  0.50400001928E-02 0.  1.
    10030    2    1    2    0    0  0.00000000000E+00  0.00000000000E+00  0.20211782695E+04  0.37906048744E+04  0.32067933698E+04 0.  0.
        5    1    3    3  502    0 -0.72101782546E+02 -0.14191624807E+04  0.13264953720E+03  0.14271786165E+04  0.46999998093E+01 0.  1.
       -5    1    3    3    0  502  0.72101782546E+02  0.14191624807E+04  0.18885287323E+04  0.23634262579E+04  0.46999998093E+01 0. -1.
</event>
<event>
 5   0  0.2783875E-07  0.3214548E+04  0.7818609E-02  0.8184986E-01
       -1   -1    0    0    0  501  0.00000000000E+00  0.00000000000E+00  0.18440971218E+04  0.18440971219E+04  0.50400001928E-02 0. -1.
        1   -1    0    0  501    0  0.00000000000E+00  0.00000000000E+00 -0.14008638356E+04  0.14008638356E+04  0.50400001928E-02 0.  1.
    10030    2    1    2    0    0  0.00000000000E+00  0.00000000000E+00  0.44323328627E+03  0.32449609574E+04  0.32145475373E+04 0.  0.
        2    1    3    3  502    0  0.10992310030E+03  0.13168150416E+04 -0.70205083347E+03  0.14963155798E+04  0.25500000920E-02 0.  1.
       -2    1    3    3    0  502 -0.10992310030E+03 -0.13168150416E+04  0.11452841197E+04  0.17486453776E+04  0.25500000920E-02 0. -1.
</event>
<event>
 5   0  0.2783875E-07  0.3189099E+04  0.7818609E-02  0.8191702E-01
       -1   -1    0    0    0  501  0.00000000000E+00  0.00000000000E+00  0.12864895017E+04  0.12864895017E+04  0.50400001928E-02 0.  1.
        1   -1    0    0  501    0  0.00000000000E+00  0.00000000000E+00 -0.19763766951E+04  0.19763766951E+04  0.50400001928E-02 0. -1.
    10030    2    1    2    0    0  0.00000000000E+00  0.00000000000E+00 -0.68988719337E+03  0.32628661968E+04  0.31890988506E+04 0.  0.
        2    1    3    3  502    0 -0.26325440073E+03 -0.35767778466E+03  0.12219346898E+04  0.13001387093E+04  0.25500000920E-02 0.  1.
       -2    1    3    3    0  502  0.26325440073E+03  0.35767778466E+03 -0.19118218832E+04  0.19627274875E+04  0.25500000920E-02 0. -1.
</event>
<event>
 5   0  0.3075756E-07  0.3205059E+04  0.7818609E-02  0.8187482E-01
        1   -1    0    0  501    0  0.00000000000E+00  0.00000000000E+00  0.22646732140E+04  0.22646732140E+04  0.50400001928E-02 0. -1.
       -1   -1    0    0    0  501  0.00000000000E+00  0.00000000000E+00 -0.11339832930E+04  0.11339832930E+04  0.50400001928E-02 0.  1.
    10030    2    1    2    0    0  0.00000000000E+00  0.00000000000E+00  0.11306899211E+04  0.33986565070E+04  0.32050594932E+04 0.  0.
        5    1    3    3  502    0  0.15323492304E+03 -0.58644091787E+03 -0.10077327591E+04  0.11759852446E+04  0.46999998093E+01 0.  1.
       -5    1    3    3    0  502 -0.15323492304E+03  0.58644091787E+03  0.21384226802E+04  0.22226712624E+04  0.46999998093E+01 0. -1.
</event>
<event>
 5   0  0.3075756E-07  0.3205574E+04  0.7818609E-02  0.8187347E-01
        1   -1    0    0  501    0  0.00000000000E+00  0.00000000000E+00  0.23520702186E+04  0.23520702186E+04  0.50400001928E-02 0.  1.
       -1   -1    0    0    0  501  0.00000000000E+00  0.00000000000E+00 -0.10921980518E+04  0.10921980518E+04  0.50400001928E-02 0. -1.
    10030    2    1    2    0    0  0.00000000000E+00  0.00000000000E+00  0.12598721668E+04  0.34442682704E+04  0.32055742140E+04 0.  0.
        5    1    3    3  502    0 -0.56486919091E+03 -0.10495881368E+03  0.22376169304E+04  0.23102045737E+04  0.46999998093E+01 0.  1.
       -5    1    3    3    0  502  0.56486919091E+03  0.10495881368E+03 -0.97774476355E+03  0.11340636967E+04  0.46999998093E+01 0. -1.
</event>
<event>
 5   0  0.2783875E-07  0.3096960E+04  0.7818609E-02  0.8216573E-01
       -1   -1    0    0    0  501  0.00000000000E+00  0.00000000000E+00  0.17124852940E+04  0.17124852940E+04  0.50400001928E-02 0.  1.
        1   -1    0    0  501    0  0.00000000000E+00  0.00000000000E+00 -0.14001812172E+04  0.14001812173E+04  0.50400001928E-02 0. -1.
    10030    2    1    2    0    0  0.00000000000E+00  0.00000000000E+00  0.31230407675E+03  0.31126665113E+04  0.30969596339E+04 0.  0.
        2    1    3    3  502    0 -0.85964866712E+03  0.75830796185E+03 -0.89016716937E+03  0.14513526054E+04  0.25500000920E-02 0. -1.
       -2    1    3    3    0  502  0.85964866712E+03 -0.75830796185E+03  0.12024712461E+04  0.16613139058E+04  0.25500000920E-02 0.  1.
</event>
<event>
 5   0  0.2783875E-07  0.3206638E+04  0.7818609E-02  0.8187066E-01
        1   -1    0    0  501    0  0.00000000000E+00  0.00000000000E+00  0.17502665454E+04  0.17502665454E+04  0.50400001928E-02 0.  1.
       -1   -1    0    0    0  501  0.00000000000E+00  0.00000000000E+00 -0.14687091769E+04  0.14687091769E+04  0.50400001928E-02 0. -1.
    10030    2    1    2    0    0  0.00000000000E+00  0.00000000000E+00  0.28155736850E+03  0.32189757224E+04  0.32066384501E+04 0.  0.
        2    1    3    3  502    0 -0.91167722009E+03 -0.12535909869E+04 -0.27066017930E+03  0.15735001267E+04  0.25500000920E-02 0. -1.
       -2    1    3    3    0  502  0.91167722009E+03  0.12535909869E+04  0.55221754780E+03  0.16454755957E+04  0.25500000920E-02 0.  1.
</event>
<event>
 5   0  0.2783875E-07  0.3193991E+04  0.7818609E-02  0.8190406E-01
        1   -1    0    0  501    0  0.00000000000E+00  0.00000000000E+00  0.18561122712E+04  0.18561122712E+04  0.50400001928E-02 0. -1.
       -1   -1    0    0    0  501  0.00000000000E+00  0.00000000000E+00 -0.13740517609E+04  0.13740517609E+04  0.50400001928E-02 0.  1.
    10030    2    1    2    0    0  0.00000000000E+00  0.00000000000E+00  0.48206051030E+03  0.32301640320E+04  0.31939908169E+04 0.  0.
        2    1    3    3  502    0 -0.65771627100E+03  0.11416684743E+04  0.11536900647E+04  0.17512847751E+04  0.25500000920E-02 0. -1.
       -2    1    3    3    0  502  0.65771627100E+03 -0.11416684743E+04 -0.67162955436E+03  0.14788792569E+04  0.25500000920E-02 0.  1.
</event>
<event>
 5   0  0.8195618E-07  0.3234489E+04  0.7818609E-02  0.8179768E-01
       -2   -1    0    0    0  501  0.00000000000E+00  0.00000000000E+00  0.16411516102E+04  0.16411516102E+04  0.25500000920E-02 0.  1.
        2   -1    0    0  501    0  0.00000000000E+00  0.00000000000E+00 -0.15936852745E+04  0.15936852745E+04  0.25500000920E-02 0. -1.
    10030    2    1    2    0    0  0.00000000000E+00  0.00000000000E+00  0.47466335673E+02  0.32348368846E+04  0.32344886176E+04 0.  0.
        1    1    3    3  502    0  0.39963801410E+03  0.90362632077E+03  0.13041944537E+04  0.16362072738E+04  0.50400001928E-02 0.  1.
       -1    1    3    3    0  502 -0.39963801410E+03 -0.90362632077E+03 -0.12567281180E+04  0.15986296108E+04  0.50400001928E-02 0. -1.
</event>
<event>
 5   0  0.3075756E-07  0.3198309E+04  0.7818609E-02  0.8189264E-01
       -1   -1    0    0    0  501  0.00000000000E+00  0.00000000000E+00  0.20433770386E+04  0.20433770386E+04  0.50400001928E-02 0. -1.
        1   -1    0    0  501    0  0.00000000000E+00  0.00000000000E+00 -0.12515042734E+04  0.12515042734E+04  0.50400001928E-02 0.  1.
    10030    2    1    2    0    0  0.00000000000E+00  0.00000000000E+00  0.79187276514E+03  0.32948813120E+04  0.31983089882E+04 0.  0.
        5    1    3    3  502    0  0.66890225989E+03 -0.57059444854E+03 -0.98016047813E+03  0.13167174757E+04  0.46999998093E+01 0.  1.
       -5    1    3    3    0  502 -0.66890225989E+03  0.57059444854E+03  0.17720332433E+04  0.19781638363E+04  0.46999998093E+01 0. -1.
</event>
<event>
 5   0  0.2783875E-07  0.3136598E+04  0.7818609E-02  0.8205765E-01
       -1   -1    0    0    0  501  0.00000000000E+00  0.00000000000E+00  0.13484684114E+04  0.13484684114E+04  0.50400001928E-02 0. -1.
        1   -1    0    0  501    0  0.00000000000E+00  0.00000000000E+00 -0.18239673899E+04  0.18239673899E+04  0.50400001928E-02 0.  1.
    10030    2    1    2    0    0  0.00000000000E+00  0.00000000000E+00 -0.47549897856E+03  0.31724358013E+04  0.31365984179E+04 0.  0.
        2    1    3    3  502    0 -0.78237182793E+03  0.12289275470E+04  0.34956906860E+03  0.14981879477E+04  0.25500000920E-02 0. -1.
       -2    1    3    3    0  502  0.78237182793E+03 -0.12289275470E+04 -0.82506804716E+03  0.16742478536E+04  0.25500000920E-02 0.  1.
</event>
<event>
 5   0  0.3013888E-07  0.3201699E+04  0.7818609E-02  0.8188369E-01
       -1   -1    0    0    0  501  0.00000000000E+00  0.00000000000E+00  0.16473780005E+04  0.16473780005E+04  0.50400001928E-02 0.  1.
        1   -1    0    0  501    0  0.00000000000E+00  0.00000000000E+00 -0.15556347211E+04  0.15556347211E+04  0.50400001928E-02 0. -1.
    10030    2    1    2    0    0  0.00000000000E+00  0.00000000000E+00  0.91743279330E+02  0.32030127216E+04  0.32016985595E+04 0.  0.
        1    1    3    3  502    0 -0.46852869605E+03  0.14064123288E+04 -0.55869721629E+03  0.15841898110E+04  0.50400001928E-02 0. -1.
       -1    1    3    3    0  502  0.46852869605E+03 -0.14064123288E+04  0.65044049562E+03  0.16188229107E+04  0.50400001928E-02 0.  1.
</event>
<event>
 5   0  0.8802800E-07  0.3201508E+04  0.7818609E-02  0.8188419E-01
       -2   -1    0    0    0  501  0.00000000000E+00  0.00000000000E+00  0.15480167846E+04  0.15480167846E+04  0.25500000920E-02 0.  1.
        2   -1    0    0  501    0  0.00000000000E+00  0.00000000000E+00 -0.16552876680E+04  0.16552876680E+04  0.25500000920E-02 0. -1.
    10030    2    1    2    0    0  0.00000000000E+00  0.00000000000E+00 -0.10727088344E+03  0.32033044526E+04  0.32015078282E+04 0.  0.
        5    1    3    3  502    0  0.14410881451E+04  0.67645030314E+03 -0.22127333588E+03  0.16072660121E+04  0.46999998093E+01 0. -1.
       -5    1    3    3    0  502 -0.14410881451E+04 -0.67645030314E+03  0.11400245244E+03  0.15960384405E+04  0.46999998093E+01 0.  1.
</event>
<event>
 5   0  0.8802800E-07  0.3202257E+04  0.7818609E-02  0.8188221E-01
       -2   -1    0    0    0  501  0.00000000000E+00  0.00000000000E+00  0.18956100854E+04  0.18956100854E+04  0.25500000920E-02 0. -1.
        2   -1    0    0  501    0  0.00000000000E+00  0.00000000000E+00 -0.13523943833E+04  0.13523943833E+04  0.25500000920E-02 0.  1.
    10030    2    1    2    0    0  0.00000000000E+00  0.00000000000E+00  0.54321570211E+03  0.32480044688E+04  0.32022569744E+04 0.  0.
        5    1    3    3  502    0  0.87325626311E+03 -0.73624213641E+03  0.14096717263E+04  0.18143388466E+04  0.46999998093E+01 0. -1.
       -5    1    3    3    0  502 -0.87325626311E+03  0.73624213641E+03 -0.86645602414E+03  0.14336656222E+04  0.46999998093E+01 0.  1.
</event>
<event>
 5   0  0.8335929E-07  0.3212490E+04  0.7818609E-02  0.8185526E-01
       -2   -1    0    0    0  501  0.00000000000E+00  0.00000000000E+00  0.11146745907E+04  0.11146745907E+04  0.25500000920E-02 0.  1.
        2   -1    0    0  501    0  0.00000000000E+00  0.00000000000E+00 -0.23145974014E+04  0.23145974014E+04  0.25500000920E-02 0. -1.
    10030    2    1    2    0    0  0.00000000000E+00  0.00000000000E+00 -0.11999228107E+04  0.34292719922E+04  0.32124899447E+04 0.  0.
        4    1    3    3  502    0  0.11307509267E+04  0.98994010762E+03 -0.12051791005E+04  0.19264052927E+04  0.12699999809E+01 0. -1.
       -4    1    3    3    0  502 -0.11307509267E+04 -0.98994010762E+03  0.52562897456E+01  0.15028666994E+04  0.12699999809E+01 0.  1.
</event>
<event>
 5   0  0.3075756E-07  0.3196567E+04  0.7818609E-02  0.8189724E-01
       -1   -1    0    0    0  501  0.00000000000E+00  0.00000000000E+00  0.11651283798E+04  0.11651283798E+04  0.50400001928E-02 0. -1.
        1   -1    0    0  501    0  0.00000000000E+00  0.00000000000E+00 -0.21924706001E+04  0.21924706001E+04  0.50400001928E-02 0.  1.
    10030    2    1    2    0    0  0.00000000000E+00  0.00000000000E+00 -0.10273422203E+04  0.33575989798E+04  0.31965667320E+04 0.  0.
        5    1    3    3  502    0 -0.25878875928E+03 -0.14444985722E+04 -0.11787676334E+04  0.18823025714E+04  0.46999998093E+01 0.  1.
       -5    1    3    3    0  502  0.25878875928E+03  0.14444985722E+04  0.15142541313E+03  0.14752964084E+04  0.46999998093E+01 0. -1.
</event>
<event>
 5   0  0.8838951E-07  0.3195348E+04  0.7818609E-02  0.8190047E-01
       -2   -1    0    0    0  501  0.00000000000E+00  0.00000000000E+00  0.12011921349E+04  0.12011921349E+04  0.25500000920E-02 0.  1.
        2   -1    0    0  501    0  0.00000000000E+00  0.00000000000E+00 -0.21250237451E+04  0.21250237451E+04  0.25500000920E-02 0. -1.
    10030    2    1    2    0    0  0.00000000000E+00  0.00000000000E+00 -0.92383161022E+03  0.33262158800E+04  0.31953477488E+04 0.  0.
        2    1    3    3  502    0 -0.13129876799E+04 -0.78062806846E+03  0.25497222415E+02  0.15277326131E+04  0.25500000920E-02 0.  1.
       -2    1    3    3    0  502  0.13129876799E+04  0.78062806846E+03 -0.94932883263E+03  0.17984832669E+04  0.25500000920E-02 0. -1.
</event>
<event>
 5   0  0.2783875E-07  0.3189854E+04  0.7818609E-02  0.8191502E-01
       -1   -1    0    0    0  501  0.00000000000E+00  0.00000000000E+00  0.17704704172E+04  0.17704704172E+04  0.50400001928E-02 0. -1.
        1   -1    0    0  501    0  0.00000000000E+00  0.00000000000E+00 -0.14367885273E+04  0.14367885273E+04  0.50400001928E-02 0.  1.
    10030    2    1    2    0    0  0.00000000000E+00  0.00000000000E+00  0.33368188991E+03  0.32072589444E+04  0.31898536539E+04 0.  0.
        2    1    3    3  502    0 -0.89564057248E+03  0.13196731967E+04  0.17595695121E+03  0.16045778977E+04  0.25500000920E-02 0.  1.
       -2    1    3    3    0  502  0.89564057248E+03 -0.13196731967E+04  0.15772493870E+03  0.16026810467E+04  0.25500000920E-02 0. -1.
</event>
<event>
 5   0  0.8838951E-07  0.3206570E+04  0.7818609E-02  0.8187084E-01
       -2   -1    0    0    0  501  0.00000000000E+00  0.00000000000E+00  0.18656677213E+04  0.18656677213E+04  0.25500000920E-02 0. -1.
        2   -1    0    0  501    0  0.00000000000E+00  0.00000000000E+00 -0.13778034344E+04  0.13778034344E+04  0.25500000920E-02 0.  1.
    10030    2    1    2    0    0  0.00000000000E+00  0.00000000000E+00  0.48786428694E+03  0.32434711557E+04  0.32065703759E+04 0.  0.
        2    1    3    3  502    0  0.45953532389E+03 -0.15211689568E+04  0.45944667103E+03  0.16541520343E+04  0.25500000920E-02 0.  1.
       -2    1    3    3    0  502 -0.45953532389E+03  0.15211689568E+04  0.28417615913E+02  0.15893191215E+04  0.25500000920E-02 0. -1.
</event>
<event>
 5   0  0.3075756E-07  0.3190860E+04  0.7818609E-02  0.8191235E-01
       -1   -1    0    0    0  501  0.00000000000E+00  0.00000000000E+00  0.12507956869E+04  0.12507956869E+04  0.50400001928E-02 0. -1.
        1   -1    0    0  501    0  0.00000000000E+00  0.00000000000E+00 -0.20350222846E+04  0.20350222846E+04  0.50400001928E-02 0.  1.
    10030    2    1    2    0    0  0.00000000000E+00  0.00000000000E+00 -0.78422659771E+03  0.32858179715E+04  0.31908601325E+04 0.  0.
        5    1    3    3  502    0  0.23408198563E+03 -0.14161017210E+04 -0.11094325463E+04  0.18141116628E+04  0.46999998093E+01 0.  1.
       -5    1    3    3    0  502 -0.23408198563E+03  0.14161017210E+04  0.32520594863E+03  0.14717063087E+04  0.46999998093E+01 0. -1.
</event>
<event>
 5   0  0.8335929E-07  0.3181667E+04  0.7818609E-02  0.8193676E-01
        2   -1    0    0  501    0  0.00000000000E+00  0.00000000000E+00  0.15555011767E+04  0.15555011767E+04  0.25500000920E-02 0.  1.
       -2   -1    0    0    0  501  0.00000000000E+00  0.00000000000E+00 -0.16269679938E+04  0.16269679938E+04  0.25500000920E-02 0. -1.
    10030    2    1    2    0    0  0.00000000000E+00  0.00000000000E+00 -0.71466817059E+02  0.31824691705E+04  0.31816666254E+04 0.  0.
        4    1    3    3  502    0  0.92578830585E+03 -0.40986859475E+03  0.11916346873E+04  0.15636723100E+04  0.12699999809E+01 0.  1.
       -4    1    3    3    0  502 -0.92578830585E+03  0.40986859475E+03 -0.12631015044E+04  0.16187968605E+04  0.12699999809E+01 0. -1.
</event>
<event>
 5   0  0.3013888E-07  0.3204215E+04  0.7818609E-02  0.8187705E-01
        1   -1    0    0  501    0  0.00000000000E+00  0.00000000000E+00  0.15551233294E+04  0.15551233294E+04  0.50400001928E-02 0. -1.
       -1   -1    0    0    0  501  0.00000000000E+00  0.00000000000E+00 -0.16505112187E+04  0.16505112187E+04  0.50400001928E-02 0.  1.
    10030    2    1    2    0    0  0.00000000000E+00  0.00000000000E+00 -0.95387889275E+02  0.32056345481E+04  0.32042150376E+04 0.  0.
        1    1    3    3  502    0  0.92225540717E+02 -0.94630514673E+03  0.12423537630E+04  0.15644302009E+04  0.50400001928E-02 0. -1.
       -1    1    3    3    0  502 -0.92225540717E+02  0.94630514673E+03 -0.13377416523E+04  0.16412043472E+04  0.50400001928E-02 0.  1.
</event>
<event>
 5   0  0.3075756E-07  0.3216392E+04  0.7818609E-02  0.8184501E-01
       -1   -1    0    0    0  501  0.00000000000E+00  0.00000000000E+00  0.10830792824E+04  0.10830792824E+04  0.50400001928E-02 0.  1.
        1   -1    0    0  501    0  0.00000000000E+00  0.00000000000E+00 -0.23879092435E+04  0.23879092435E+04  0.50400001928E-02 0. -1.
    10030    2    1    2    0    0  0.00000000000E+00  0.00000000000E+00 -0.13048299610E+04  0.34709885259E+04  0.32163924076E+04 0.  0.
        5    1    3    3  502    0  0.52355526238E+03  0.27002080431E+03  0.96244769071E+03  0.11284276649E+04  0.46999998093E+01 0.  1.
       -5    1    3    3    0  502 -0.52355526238E+03 -0.27002080431E+03 -0.22672776517E+04  0.23425608610E+04  0.46999998093E+01 0. -1.
</event>
<event>
 5   0  0.2891204E-07  0.3206717E+04  0.7818609E-02  0.8187046E-01
        1   -1    0    0  501    0  0.00000000000E+00  0.00000000000E+00  0.19980285003E+04  0.19980285003E+04  0.50400001928E-02 0.  1.
       -1   -1    0    0    0  501  0.00000000000E+00  0.00000000000E+00 -0.12866473032E+04  0.12866473032E+04  0.50400001928E-02 0. -1.
    10030    2    1    2    0    0  0.00000000000E+00  0.00000000000E+00  0.71138119707E+03  0.32846758035E+04  0.32067166895E+04 0.  0.
        4    1    3    3  502    0  0.22772073674E+03 -0.90158865030E+03  0.16935984761E+04  0.19320963329E+04  0.12699999809E+01 0.  1.
       -4    1    3    3    0  502 -0.22772073674E+03  0.90158865030E+03 -0.98221727905E+03  0.13525794707E+04  0.12699999809E+01 0. -1.
</event>
<event>
 5   0  0.8838951E-07  0.3175644E+04  0.7818609E-02  0.8195279E-01
       -2   -1    0    0    0  501  0.00000000000E+00  0.00000000000E+00  0.12947180894E+04  0.12947180894E+04  0.25500000920E-02 0. -1.
        2   -1    0    0  501    0  0.00000000000E+00  0.00000000000E+00 -0.19472799781E+04  0.19472799781E+04  0.25500000920E-02 0.  1.
    10030    2    1    2    0    0  0.00000000000E+00  0.00000000000E+00 -0.65256188872E+03  0.32419980675E+04  0.31756439427E+04 0.  0.
        2    1    3    3  502    0 -0.12826532511E+04 -0.34201829095E+03 -0.12156921981E+04  0.18000231650E+04  0.25500000920E-02 0.  1.
       -2    1    3    3    0  502  0.12826532511E+04  0.34201829095E+03  0.56313030942E+03  0.14419749025E+04  0.25500000920E-02 0. -1.
</event>
<event>
 5   0  0.8195618E-07  0.3204378E+04  0.7818609E-02  0.8187662E-01
       -2   -1    0    0    0  501  0.00000000000E+00  0.00000000000E+00  0.11325091307E+04  0.11325091307E+04  0.25500000920E-02 0.  1.
        2   -1    0    0  501    0  0.00000000000E+00  0.00000000000E+00 -0.22666571979E+04  0.22666571979E+04  0.25500000920E-02 0. -1.
    10030    2    1    2    0    0  0.00000000000E+00  0.00000000000E+00 -0.11341480672E+04  0.33991663286E+04  0.32043782379E+04 0.  0.
        1    1    3    3  502    0  0.99584797609E+03  0.44996835447E+03  0.67582621098E+03  0.12848835663E+04  0.50400001928E-02 0.  1.
       -1    1    3    3    0  502 -0.99584797609E+03 -0.44996835447E+03 -0.18099742781E+04  0.21142827623E+04  0.50400001928E-02 0. -1.
</event>
<event>
 5   0  0.3075756E-07  0.3205503E+04  0.7818609E-02  0.8187365E-01
        1   -1    0    0  501    0  0.00000000000E+00  0.00000000000E+00  0.14597209782E+04  0.14597209782E+04  0.50400001928E-02 0. -1.
       -1   -1    0    0    0  501  0.00000000000E+00  0.00000000000E+00 -0.17597966020E+04  0.17597966020E+04  0.50400001928E-02 0.  1.
    10030    2    1    2    0    0  0.00000000000E+00  0.00000000000E+00 -0.30007562386E+03  0.32195175802E+04  0.32055027794E+04 0.  0.
        5    1    3    3  502    0  0.51367740919E+03  0.13095237026E+04 -0.92155846860E+03  0.16816684898E+04  0.46999998093E+01 0.  1.
       -5    1    3    3    0  502 -0.51367740919E+03 -0.13095237026E+04  0.62148284475E+03  0.15378490904E+04  0.46999998093E+01 0. -1.
</event>
<event>
 5   0  0.8802800E-07  0.3195558E+04  0.7818609E-02  0.8189991E-01
       -2   -1    0    0    0  501  0.00000000000E+00  0.00000000000E+00  0.14185508461E+04  0.14185508461E+04  0.25500000920E-02 0. -1.
        2   -1    0    0  501    0  0.00000000000E+00  0.00000000000E+00 -0.17996520401E+04  0.17996520401E+04  0.25500000920E-02 0.  1.
    10030    2    1    2    0    0  0.00000000000E+00  0.00000000000E+00 -0.38110119398E+03  0.32182028862E+04  0.31955581197E+04 0.  0.
        5    1    3    3  502    0 -0.10015544157E+04 -0.77681399588E+02  0.10607233368E+04  0.14609249586E+04  0.46999998093E+01 0. -1.
       -5    1    3    3    0  502  0.10015544157E+04  0.77681399588E+02 -0.14418245307E+04  0.17572779276E+04  0.46999998093E+01 0.  1.
</event>
<event>
 5   0  0.8802800E-07  0.3219161E+04  0.7818609E-02  0.8183775E-01
       -2   -1    0    0    0  501  0.00000000000E+00  0.00000000000E+00  0.11260147909E+04  0.11260147909E+04  0.25500000920E-02 0.  1.
        2   -1    0    0  501    0  0.00000000000E+00  0.00000000000E+00 -0.23008129777E+04  0.23008129777E+04  0.25500000920E-02 0. -1.
    10030    2    1    2    0    0  0.00000000000E+00  0.00000000000E+00 -0.11747981868E+04  0.34268277687E+04  0.32191610361E+04 0.  0.
        5    1    3    3  502    0  0.94654902428E+03  0.74596938590E+03  0.54833933194E+03  0.13240556986E+04  0.46999998093E+01 0.  1.
       -5    1    3    3    0  502 -0.94654902428E+03 -0.74596938590E+03 -0.17231375187E+04  0.21027720701E+04  0.46999998093E+01 0. -1.
</event>
<event>
 5   0  0.8802800E-07  0.3206625E+04  0.7818609E-02  0.8187070E-01
        2   -1    0    0  501    0  0.00000000000E+00  0.00000000000E+00  0.30965347732E+04  0.30965347732E+04  0.25500000920E-02 0. -1.
       -2   -1    0    0    0  501  0.00000000000E+00  0.00000000000E+00 -0.83015706032E+03  0.83015706032E+03  0.25500000920E-02 0.  1.
    10030    2    1    2    0    0  0.00000000000E+00  0.00000000000E+00  0.22663777129E+04  0.39266918335E+04  0.32066245209E+04 0.  0.
        5    1    3    3  502    0 -0.14039988795E+03 -0.11723668258E+04 -0.19500701726E+03  0.11967480644E+04  0.46999998093E+01 0.  1.
       -5    1    3    3    0  502  0.14039988795E+03  0.11723668258E+04  0.24613847301E+04  0.27299437691E+04  0.46999998093E+01 0. -1.
</event>
<event>
 5   0  0.3013888E-07  0.3214450E+04  0.7818609E-02  0.8185011E-01
       -1   -1    0    0    0  501  0.00000000000E+00  0.00000000000E+00  0.13494699192E+04  0.13494699192E+04  0.50400001928E-02 0. -1.
        1   -1    0    0  501    0  0.00000000000E+00  0.00000000000E+00 -0.19142126987E+04  0.19142126987E+04  0.50400001928E-02 0.  1.
    10030    2    1    2    0    0  0.00000000000E+00  0.00000000000E+00 -0.56474277950E+03  0.32636826179E+04  0.32144501588E+04 0.  0.
        1    1    3    3  502    0 -0.24652433571E+03 -0.15882040785E+04 -0.27988173674E+03  0.16314105031E+04  0.50400001928E-02 0.  1.
       -1    1    3    3    0  502  0.24652433571E+03  0.15882040785E+04 -0.28486104276E+03  0.16322721148E+04  0.50400001928E-02 0. -1.
</event>
<event>
 5   0  0.8335929E-07  0.3205114E+04  0.7818609E-02  0.8187468E-01
        2   -1    0    0  501    0  0.00000000000E+00  0.00000000000E+00  0.16853889444E+04  0.16853889444E+04  0.25500000920E-02 0. -1.
       -2   -1    0    0    0  501  0.00000000000E+00  0.00000000000E+00 -0.15237963434E+04  0.15237963434E+04  0.25500000920E-02 0.  1.
    10030    2    1    2    0    0  0.00000000000E+00  0.00000000000E+00  0.16159260106E+03  0.32091852878E+04  0.32051143572E+04 0.  0.
        4    1    3    3  502    0 -0.12811738561E+04 -0.10462452417E+03  0.10390045789E+04  0.16528414529E+04  0.12699999809E+01 0.  1.
       -4    1    3    3    0  502  0.12811738561E+04  0.10462452417E+03 -0.87741197781E+03  0.15563438349E+04  0.12699999809E+01 0. -1.
</event>
<event>
 5   0  0.3013888E-07  0.3197867E+04  0.7818609E-02  0.8189381E-01
       -1   -1    0    0    0  501  0.00000000000E+00  0.00000000000E+00  0.12548038970E+04  0.12548038970E+04  0.50400001928E-02 0. -1.
        1   -1    0    0  501    0  0.00000000000E+00  0.00000000000E+00 -0.20374399823E+04  0.20374399823E+04  0.50400001928E-02 0.  1.
    10030    2    1    2    0    0  0.00000000000E+00  0.00000000000E+00 -0.78263608532E+03  0.32922438792E+04  0.31978665573E+04 0.  0.
        1    1    3    3  502    0 -0.12818021869E+04  0.95479414413E+03 -0.43665080874E+03  0.16568984981E+04  0.50400001928E-02 0.  1.
       -1    1    3    3    0  502  0.12818021869E+04 -0.95479414413E+03 -0.34598527658E+03  0.16353453812E+04  0.50400001928E-02 0. -1.
</event>
<event>
 5   0  0.3013888E-07  0.3197742E+04  0.7818609E-02  0.8189414E-01
       -1   -1    0    0    0  501  0.00000000000E+00  0.00000000000E+00  0.23752452214E+04  0.23752452214E+04  0.50400001928E-02 0. -1.
        1   -1    0    0  501    0  0.00000000000E+00  0.00000000000E+00 -0.10762627587E+04  0.10762627587E+04  0.50400001928E-02 0.  1.
    10030    2    1    2    0    0  0.00000000000E+00  0.00000000000E+00  0.12989824627E+04  0.34515079801E+04  0.31977416872E+04 0.  0.
        1    1    3    3  502    0 -0.27850724376E+03  0.11024975803E+04  0.18626630750E+04  0.21823338265E+04  0.50400001928E-02 0. -1.
       -1    1    3    3    0  502  0.27850724376E+03 -0.11024975803E+04 -0.56368061236E+03  0.12691741536E+04  0.50400001928E-02 0.  1.
</event>
<event>
 5   0  0.2783875E-07  0.3202188E+04  0.7818609E-02  0.8188239E-01
        1   -1    0    0  501    0  0.00000000000E+00  0.00000000000E+00  0.12377774531E+04  0.12377774531E+04  0.50400001928E-02 0.  1.
       -1   -1    0    0    0  501  0.00000000000E+00  0.00000000000E+00 -0.20710528526E+04  0.20710528526E+04  0.50400001928E-02 0. -1.
    10030    2    1    2    0    0  0.00000000000E+00  0.00000000000E+00 -0.83327539953E+03  0.33088303057E+04  0.32021883299E+04 0.  0.
        2    1    3    3  502    0  0.59231901817E+03 -0.14873864787E+04 -0.39752386873E+03  0.16496016436E+04  0.25500000920E-02 0. -1.
       -2    1    3    3    0  502 -0.59231901817E+03  0.14873864787E+04 -0.43575153080E+03  0.16592286621E+04  0.25500000920E-02 0.  1.
</event>
<event>
 5   0  0.8335929E-07  0.3164787E+04  0.7818609E-02  0.8198179E-01
       -2   -1    0    0    0  501  0.00000000000E+00  0.00000000000E+00  0.12632616400E+04  0.12632616400E+04  0.25500000920E-02 0. -1.
        2   -1    0    0  501    0  0.00000000000E+00  0.00000000000E+00 -0.19821467529E+04  0.19821467529E+04  0.25500000920E-02 0.  1.
    10030    2    1    2    0    0  0.00000000000E+00  0.00000000000E+00 -0.71888511292E+03  0.32454083930E+04  0.31647874860E+04 0.  0.
        4    1    3    3  502    0  0.82831356615E+03  0.12315057857E+04 -0.92229485400E+03  0.17473806897E+04  0.12699999809E+01 0.  1.
       -4    1    3    3    0  502 -0.82831356615E+03 -0.12315057857E+04  0.20340974108E+03  0.14980277033E+04  0.12699999809E+01 0. -1.
</event>
<event>
 5   0  0.2891204E-07  0.3204474E+04  0.7818609E-02  0.8187637E-01
       -1   -1    0    0    0  501  0.00000000000E+00  0.00000000000E+00  0.28190451919E+04  0.28190451919E+04  0.50400001928E-02 0.  1.
        1   -1    0    0  501    0  0.00000000000E+00  0.00000000000E+00 -0.91064974725E+03  0.91064974727E+03  0.50400001928E-02 0. -1.
    10030    2    1    2    0    0  0.00000000000E+00  0.00000000000E+00  0.19083954447E+04  0.37296949392E+04  0.32044736176E+04 0.  0.
        4    1    3    3  502    0  0.58392199546E+03  0.61248119737E+03  0.25377310876E+04  0.26751035120E+04  0.12699999809E+01 0.  1.
       -4    1    3    3    0  502 -0.58392199546E+03 -0.61248119737E+03 -0.62933564295E+03  0.10545914272E+04  0.12699999809E+01 0. -1.
</event>
<event>
 5   0  0.2997105E-07  0.3197001E+04  0.7818609E-02  0.8189610E-01
       -1   -1    0    0    0  501  0.00000000000E+00  0.00000000000E+00  0.12132532601E+04  0.12132532602E+04  0.50400001928E-02 0.  1.
        1   -1    0    0  501    0  0.00000000000E+00  0.00000000000E+00 -0.21060757051E+04  0.21060757051E+04  0.50400001928E-02 0. -1.
    10030    2    1    2    0    0  0.00000000000E+00  0.00000000000E+00 -0.89282244497E+03  0.33193289653E+04  0.31970006039E+04 0.  0.
        3    1    3    3  502    0  0.11272617031E+04  0.11266219237E+04 -0.31837477402E+03  0.16252256499E+04  0.10100000352E+00 0. -1.
       -3    1    3    3    0  502 -0.11272617031E+04 -0.11266219237E+04 -0.57444767095E+03  0.16941033154E+04  0.10100000352E+00 0.  1.
</event>
<event>
 5   0  0.8195618E-07  0.3191023E+04  0.7818609E-02  0.8191192E-01
        2   -1    0    0  501    0  0.00000000000E+00  0.00000000000E+00  0.11254593906E+04  0.11254593906E+04  0.25500000920E-02 0. -1.
       -2   -1    0    0    0  501  0.00000000000E+00  0.00000000000E+00 -0.22618832450E+04  0.22618832450E+04  0.25500000920E-02 0.  1.
    10030    2    1    2    0    0  0.00000000000E+00  0.00000000000E+00 -0.11364238543E+04  0.33873426356E+04  0.31910234963E+04 0.  0.
        1    1    3    3  502    0 -0.19163700863E+03 -0.12241986642E+04 -0.16351715617E+04  0.20516269517E+04  0.50400001928E-02 0.  1.
       -1    1    3    3    0  502  0.19163700863E+03  0.12241986642E+04  0.49874770741E+03  0.13357156839E+04  0.50400001928E-02 0. -1.
</event>
<event>
 5   0  0.8802800E-07  0.3201184E+04  0.7818609E-02  0.8188505E-01
       -2   -1    0    0    0  501  0.00000000000E+00  0.00000000000E+00  0.17712769363E+04  0.17712769363E+04  0.25500000920E-02 0.  1.
        2   -1    0    0  501    0  0.00000000000E+00  0.00000000000E+00 -0.14463547553E+04  0.14463547553E+04  0.25500000920E-02 0. -1.
    10030    2    1    2    0    0  0.00000000000E+00  0.00000000000E+00  0.32492218098E+03  0.32176316916E+04  0.32011840433E+04 0.  0.
        5    1    3    3  502    0  0.72073048658E+03 -0.77819231610E+03  0.13673012671E+04  0.17304827535E+04  0.46999998093E+01 0. -1.
       -5    1    3    3    0  502 -0.72073048658E+03  0.77819231610E+03 -0.10423790861E+04  0.14871489382E+04  0.46999998093E+01 0.  1.
</event>
<event>
 5   0  0.2891204E-07  0.3204668E+04  0.7818609E-02  0.8187585E-01
        1   -1    0    0  501    0  0.00000000000E+00  0.00000000000E+00  0.16468158372E+04  0.16468158372E+04  0.50400001928E-02 0. -1.
       -1   -1    0    0    0  501  0.00000000000E+00  0.00000000000E+00 -0.15590539892E+04  0.15590539892E+04  0.50400001928E-02 0.  1.
    10030    2    1    2    0    0  0.00000000000E+00  0.00000000000E+00  0.87761848059E+02  0.32058698264E+04  0.32046683451E+04 0.  0.
        4    1    3    3  502    0 -0.57536477281E+03  0.78060263148E+03 -0.12321709436E+04  0.15680025310E+04  0.12699999809E+01 0.  1.
       -4    1    3    3    0  502  0.57536477281E+03 -0.78060263148E+03  0.13199327917E+04  0.16378672954E+04  0.12699999809E+01 0. -1.
</event>
<event>
 5   0  0.8335929E-07  0.3185237E+04  0.7818609E-02  0.8192727E-01
       -2   -1    0    0    0  501  0.00000000000E+00  0.00000000000E+00  0.99697476022E+03  0.99697476022E+03  0.25500000920E-02 0.  1.
        2   -1    0    0  501    0  0.00000000000E+00  0.00000000000E+00 -0.25441301641E+04  0.25441301641E+04  0.25500000920E-02 0. -1.
    10030    2    1    2    0    0  0.00000000000E+00  0.00000000000E+00 -0.15471554039E+04  0.35411049243E+04  0.31852369208E+04 0.  0.
        4    1    3    3  502    0 -0.14438285514E+04 -0.32961194985E+03 -0.12234354268E+03  0.14860196764E+04  0.12699999809E+01 0.  1.
       -4    1    3    3    0  502  0.14438285514E+04  0.32961194985E+03 -0.14248118612E+04  0.20550852479E+04  0.12699999809E+01 0. -1.
</event>
<event>
 5   0  0.8838951E-07  0.3205110E+04  0.7818609E-02  0.8187469E-01
        2   -1    0    0  501    0  0.00000000000E+00  0.00000000000E+00  0.21832257088E+04  0.21832257088E+04  0.25500000920E-02 0.  1.
       -2   -1    0    0    0  501  0.00000000000E+00  0.00000000000E+00 -0.11763251431E+04  0.11763251431E+04  0.25500000920E-02 0. -1.
    10030    2    1    2    0    0  0.00000000000E+00  0.00000000000E+00  0.10069005658E+04  0.33595508519E+04  0.32051104781E+04 0.  0.
        2    1    3    3  502    0  0.10197237783E+04 -0.51739198534E+03 -0.67343969840E+03  0.13270463737E+04  0.25500000920E-02 0. -1.
       -2    1    3    3    0  502 -0.10197237783E+04  0.51739198534E+03  0.16803402642E+04  0.20325044782E+04  0.25500000920E-02 0.  1.
</event>
<event>
 5   0  0.3013888E-07  0.3218004E+04  0.7818609E-02  0.8184079E-01
       -1   -1    0    0    0  501  0.00000000000E+00  0.00000000000E+00  0.12470018208E+04  0.12470018208E+04  0.50400001928E-02 0. -1.
        1   -1    0    0  501    0  0.00000000000E+00  0.00000000000E+00 -0.20760893312E+04  0.20760893312E+04  0.50400001928E-02 0.  1.
    10030    2    1    2    0    0  0.00000000000E+00  0.00000000000E+00 -0.82908751040E+03  0.33230911521E+04  0.32180038386E+04 0.  0.
        1    1    3    3  502    0 -0.10995844760E+04  0.65851544436E+02  0.79655742028E+03  0.13593844819E+04  0.50400001928E-02 0. -1.
       -1    1    3    3    0  502  0.10995844760E+04 -0.65851544436E+02 -0.16256449307E+04  0.19637066702E+04  0.50400001928E-02 0.  1.
</event>
<event>
 5   0  0.8838951E-07  0.3204046E+04  0.7818609E-02  0.8187749E-01
        2   -1    0    0  501    0  0.00000000000E+00  0.00000000000E+00  0.23288500391E+04  0.23288500391E+04  0.25500000920E-02 0. -1.
       -2   -1    0    0    0  501  0.00000000000E+00  0.00000000000E+00 -0.11020367080E+04  0.11020367080E+04  0.25500000920E-02 0.  1.
    10030    2    1    2    0    0  0.00000000000E+00  0.00000000000E+00  0.12268133311E+04  0.34308867472E+04  0.32040463359E+04 0.  0.
        2    1    3    3  502    0  0.55119723193E+03 -0.57214235614E+03 -0.87623975510E+03  0.11827769750E+04  0.25500000920E-02 0.  1.
       -2    1    3    3    0  502 -0.55119723193E+03  0.57214235614E+03  0.21030530862E+04  0.22481097722E+04  0.25500000920E-02 0. -1.
</event>
<event>
 5   0  0.2783875E-07  0.3197548E+04  0.7818609E-02  0.8189465E-01
        1   -1    0    0  501    0  0.00000000000E+00  0.00000000000E+00  0.14359203183E+04  0.14359203183E+04  0.50400001928E-02 0.  1.
       -1   -1    0    0    0  501  0.00000000000E+00  0.00000000000E+00 -0.17800977219E+04  0.17800977220E+04  0.50400001928E-02 0. -1.
    10030    2    1    2    0    0  0.00000000000E+00  0.00000000000E+00 -0.34417740369E+03  0.32160180402E+04  0.31975481153E+04 0.  0.
        2    1    3    3  502    0  0.90394975438E+03  0.46570923930E+03 -0.14129363132E+04  0.17408042047E+04  0.25500000920E-02 0. -1.
       -2    1    3    3    0  502 -0.90394975438E+03 -0.46570923930E+03  0.10687589095E+04  0.14752138355E+04  0.25500000920E-02 0.  1.
</event>
<event>
 5   0  0.2891204E-07  0.3197201E+04  0.7818609E-02  0.8189557E-01
        1   -1    0    0  501    0  0.00000000000E+00  0.00000000000E+00  0.21361413608E+04  0.21361413609E+04  0.50400001928E-02 0.  1.
       -1   -1    0    0    0  501  0.00000000000E+00  0.00000000000E+00 -0.11963270174E+04  0.11963270174E+04  0.50400001928E-02 0. -1.
    10030    2    1    2    0    0  0.00000000000E+00  0.00000000000E+00  0.93981434343E+03  0.33324683783E+04  0.31972010403E+04 0.  0.
        4    1    3    3  502    0  0.11884932894E+04  0.26467945131E+03  0.15495644942E+04  0.19707164295E+04  0.12699999809E+01 0.  1.
       -4    1    3    3    0  502 -0.11884932894E+04 -0.26467945131E+03 -0.60975015073E+03  0.13617519488E+04  0.12699999809E+01 0. -1.
</event>
<event>
 5   0  0.8195618E-07  0.3206002E+04  0.7818609E-02  0.8187234E-01
        2   -1    0    0  501    0  0.00000000000E+00  0.00000000000E+00  0.24082544866E+04  0.24082544866E+04  0.25500000920E-02 0.  1.
       -2   -1    0    0    0  501  0.00000000000E+00  0.00000000000E+00 -0.10670016797E+04  0.10670016797E+04  0.25500000920E-02 0. -1.
    10030    2    1    2    0    0  0.00000000000E+00  0.00000000000E+00  0.13412528069E+04  0.34752561664E+04  0.32060016110E+04 0.  0.
        1    1    3    3  502    0 -0.10137460619E+04  0.97666216934E+03  0.15018817741E+04  0.20584457570E+04  0.50400001928E-02 0. -1.
       -1    1    3    3    0  502  0.10137460619E+04 -0.97666216934E+03 -0.16062896718E+03  0.14168104094E+04  0.50400001928E-02 0.  1.
</event>
<event>
 5   0  0.8838951E-07  0.3194182E+04  0.7818609E-02  0.8190355E-01
       -2   -1    0    0    0  501  0.00000000000E+00  0.00000000000E+00  0.13586292861E+04  0.13586292861E+04  0.25500000920E-02 0.  1.
        2   -1    0    0  501    0  0.00000000000E+00  0.00000000000E+00 -0.18774066491E+04  0.18774066491E+04  0.25500000920E-02 0. -1.
    10030    2    1    2    0    0  0.00000000000E+00  0.00000000000E+00 -0.51877736303E+03  0.32360359352E+04  0.31941819957E+04 0.  0.
        2    1    3    3  502    0  0.72840062276E+03 -0.13093692343E+04 -0.81952059033E+03  0.17078141752E+04  0.25500000920E-02 0. -1.
       -2    1    3    3    0  502 -0.72840062276E+03  0.13093692343E+04  0.30074322730E+03  0.15282217600E+04  0.25500000920E-02 0.  1.
</event>
<event>
 5   0  0.3013888E-07  0.3210256E+04  0.7818609E-02  0.8186114E-01
       -1   -1    0    0    0  501  0.00000000000E+00  0.00000000000E+00  0.17898905068E+04  0.17898905068E+04  0.50400001928E-02 0. -1.
        1   -1    0    0  501    0  0.00000000000E+00  0.00000000000E+00 -0.14394376399E+04  0.14394376399E+04  0.50400001928E-02 0.  1.
    10030    2    1    2    0    0  0.00000000000E+00  0.00000000000E+00  0.35045286686E+03  0.32293281467E+04  0.32102559193E+04 0.  0.
        1    1    3    3  502    0 -0.11796538001E+04  0.22478380401E+03  0.12466008191E+04  0.17309316708E+04  0.50400001928E-02 0. -1.
       -1    1    3    3    0  502  0.11796538001E+04 -0.22478380401E+03 -0.89614795226E+03  0.14983964759E+04  0.50400001928E-02 0.  1.
</event>
<event>
 5   0  0.2783875E-07  0.3174561E+04  0.7818609E-02  0.8195568E-01
        1   -1    0    0  501    0  0.00000000000E+00  0.00000000000E+00  0.24000586695E+04  0.24000586695E+04  0.50400001928E-02 0. -1.
       -1   -1    0    0    0  501  0.00000000000E+00  0.00000000000E+00 -0.10497488811E+04  0.10497488811E+04  0.50400001928E-02 0.  1.
    10030    2    1    2    0    0  0.00000000000E+00  0.00000000000E+00  0.13503097884E+04  0.34498075506E+04  0.31745606958E+04 0.  0.
        2    1    3    3  502    0 -0.56211023169E+03  0.79528874101E+03  0.20372275271E+04  0.22580407639E+04  0.25500000920E-02 0. -1.
       -2    1    3    3    0  502  0.56211023169E+03 -0.79528874101E+03 -0.68691773867E+03  0.11917667867E+04  0.25500000920E-02 0.  1.
</event>
<event>
 5   0  0.8195618E-07  0.3192060E+04  0.7818609E-02  0.8190917E-01
        2   -1    0    0  501    0  0.00000000000E+00  0.00000000000E+00  0.15168998833E+04  0.15168998833E+04  0.25500000920E-02 0. -1.
       -2   -1    0    0    0  501  0.00000000000E+00  0.00000000000E+00 -0.16792877779E+04  0.16792877779E+04  0.25500000920E-02 0.  1.
    10030    2    1    2    0    0  0.00000000000E+00  0.00000000000E+00 -0.16238789459E+03  0.31961876612E+04  0.31920597954E+04 0.  0.
        1    1    3    3  502    0  0.11097503125E+04  0.85921303630E+03 -0.84212315434E+03  0.16367541675E+04  0.50400001928E-02 0.  1.
       -1    1    3    3    0  502 -0.11097503125E+04 -0.85921303630E+03  0.67973525975E+03  0.15594334937E+04  0.50400001928E-02 0. -1.
</event>
<event>
 5   0  0.2783875E-07  0.3206499E+04  0.7818609E-02  0.8187103E-01
        1   -1    0    0  501    0  0.00000000000E+00  0.00000000000E+00  0.21662308725E+04  0.21662308725E+04  0.50400001928E-02 0. -1.
       -1   -1    0    0    0  501  0.00000000000E+00  0.00000000000E+00 -0.11865816145E+04  0.11865816145E+04  0.50400001928E-02 0.  1.
    10030    2    1    2    0    0  0.00000000000E+00  0.00000000000E+00  0.97964925794E+03  0.33528124870E+04  0.32064994783E+04 0.  0.
        2    1    3    3  502    0 -0.23890841414E+03 -0.10637524430E+04 -0.73929713387E+03  0.13172724633E+04  0.25500000920E-02 0.  1.
       -2    1    3    3    0  502  0.23890841414E+03  0.10637524430E+04  0.17189463918E+04  0.20355400237E+04  0.25500000920E-02 0. -1.
</event>
<event>
 5   0  0.2997105E-07  0.3196736E+04  0.7818609E-02  0.8189680E-01
        1   -1    0    0  501    0  0.00000000000E+00  0.00000000000E+00  0.10944541600E+04  0.10944541600E+04  0.50400001928E-02 0. -1.
       -1   -1    0    0    0  501  0.00000000000E+00  0.00000000000E+00 -0.23342959079E+04  0.23342959079E+04  0.50400001928E-02 0.  1.
    10030    2    1    2    0    0  0.00000000000E+00  0.00000000000E+00 -0.12398417478E+04  0.34287500679E+04  0.31967357521E+04 0.  0.
        3    1    3    3  502    0  0.14244390460E+04 -0.71569141595E+03 -0.49511836375E+03  0.16692462380E+04  0.10100000352E+00 0. -1.
       -3    1    3    3    0  502 -0.14244390460E+04  0.71569141595E+03 -0.74472338409E+03  0.17595038299E+04  0.10100000352E+00 0.  1.
</event>
<event>
 5   0  0.8335929E-07  0.3121872E+04  0.7818609E-02  0.8209761E-01
       -2   -1    0    0    0  501  0.00000000000E+00  0.00000000000E+00  0.15281121769E+04  0.15281121769E+04  0.25500000920E-02 0. -1.
        2   -1    0    0  501    0  0.00000000000E+00  0.00000000000E+00 -0.15944648610E+04  0.15944648610E+04  0.25500000920E-02 0.  1.
    10030    2    1    2    0    0  0.00000000000E+00  0.00000000000E+00 -0.66352684117E+02  0.31225770378E+04  0.31218719831E+04 0.  0.
        4    1    3    3  502    0  0.75830115517E+03 -0.31530230954E+03  0.12945583335E+04  0.15330750406E+04  0.12699999809E+01 0. -1.
       -4    1    3    3    0  502 -0.75830115517E+03  0.31530230954E+03 -0.13609110176E+04  0.15895019972E+04  0.12699999809E+01 0.  1.
</event>
<event>
 5   0  0.8335929E-07  0.3198897E+04  0.7818609E-02  0.8189108E-01
       -2   -1    0    0    0  501  0.00000000000E+00  0.00000000000E+00  0.12486337798E+04  0.12486337798E+04  0.25500000920E-02 0. -1.
        2   -1    0    0  501    0  0.00000000000E+00  0.00000000000E+00 -0.20488283603E+04  0.20488283603E+04  0.25500000920E-02 0.  1.
    10030    2    1    2    0    0  0.00000000000E+00  0.00000000000E+00 -0.80019458053E+03  0.32974621400E+04  0.31988974973E+04 0.  0.
        4    1    3    3  502    0  0.25249185979E+03 -0.54273099004E+03 -0.19290128217E+04  0.20197527438E+04  0.12699999809E+01 0.  1.
       -4    1    3    3    0  502 -0.25249185979E+03  0.54273099004E+03  0.11288182412E+04  0.12777093963E+04  0.12699999809E+01 0. -1.
</event>
<event>
 5   0  0.8335929E-07  0.3212062E+04  0.7818609E-02  0.8185639E-01
       -2   -1    0    0    0  501  0.00000000000E+00  0.00000000000E+00  0.98398491037E+03  0.98398491037E+03  0.25500000920E-02 0. -1.
        2   -1    0    0  501    0  0.00000000000E+00  0.00000000000E+00 -0.26213164727E+04  0.26213164727E+04  0.25500000920E-02 0.  1.
    10030    2    1    2    0    0  0.00000000000E+00  0.00000000000E+00 -0.16373315623E+04  0.36053013830E+04  0.32120621753E+04 0.  0.
        4    1    3    3  502    0 -0.14836452586E+04  0.61452084078E+03 -0.79369024711E+03  0.17913081640E+04  0.12699999809E+01 0.  1.
       -4    1    3    3    0  502  0.14836452586E+04 -0.61452084078E+03 -0.84364131519E+03  0.18139932190E+04  0.12699999809E+01 0. -1.
</event>
<event>
 5   0  0.8488469E-07  0.3188251E+04  0.7818609E-02  0.8191927E-01
       -2   -1    0    0    0  501  0.00000000000E+00  0.00000000000E+00  0.15852349291E+04  0.15852349291E+04  0.25500000920E-02 0.  1.
        2   -1    0    0  501    0  0.00000000000E+00  0.00000000000E+00 -0.16030658975E+04  0.16030658975E+04  0.25500000920E-02 0. -1.
    10030    2    1    2    0    0  0.00000000000E+00  0.00000000000E+00 -0.17830968320E+02  0.31883008266E+04  0.31882509653E+04 0.  0.
        3    1    3    3  502    0  0.87407504969E+03  0.10804503040E+04 -0.78986046789E+03  0.15985179451E+04  0.10100000352E+00 0. -1.
       -3    1    3    3    0  502 -0.87407504969E+03 -0.10804503040E+04  0.77202949957E+03  0.15897828815E+04  0.10100000352E+00 0.  1.
</event>
<event>
 5   0  0.3013888E-07  0.3213545E+04  0.7818609E-02  0.8185249E-01
       -1   -1    0    0    0  501  0.00000000000E+00  0.00000000000E+00  0.22581594912E+04  0.22581594912E+04  0.50400001928E-02 0. -1.
        1   -1    0    0  501    0  0.00000000000E+00  0.00000000000E+00 -0.11432840292E+04  0.11432840292E+04  0.50400001928E-02 0.  1.
    10030    2    1    2    0    0  0.00000000000E+00  0.00000000000E+00  0.11148754620E+04  0.34014435204E+04  0.32135448848E+04 0.  0.
        1    1    3    3  502    0  0.12597241446E+04  0.99324318710E+03  0.46111844140E+03  0.16691516307E+04  0.50400001928E-02 0. -1.
       -1    1    3    3    0  502 -0.12597241446E+04 -0.99324318710E+03  0.65375702061E+03  0.17322918897E+04  0.50400001928E-02 0.  1.
</event>
<event>
 5   0  0.8838951E-07  0.3155466E+04  0.7818609E-02  0.8200679E-01
       -2   -1    0    0    0  501  0.00000000000E+00  0.00000000000E+00  0.10705394382E+04  0.10705394382E+04  0.25500000920E-02 0.  1.
        2   -1    0    0  501    0  0.00000000000E+00  0.00000000000E+00 -0.23252211996E+04  0.23252211996E+04  0.25500000920E-02 0. -1.
    10030    2    1    2    0    0  0.00000000000E+00  0.00000000000E+00 -0.12546817614E+04  0.33957606378E+04  0.31554657321E+04 0.  0.
        2    1    3    3  502    0  0.58358766773E+03 -0.68476050049E+03 -0.20220975470E+04  0.22132216334E+04  0.25500000920E-02 0. -1.
       -2    1    3    3    0  502 -0.58358766773E+03  0.68476050049E+03  0.76741578560E+03  0.11825390044E+04  0.25500000920E-02 0.  1.
</event>
<event>
 5   0  0.8195618E-07  0.3210992E+04  0.7818609E-02  0.8185920E-01
       -2   -1    0    0    0  501  0.00000000000E+00  0.00000000000E+00  0.13104625921E+04  0.13104625921E+04  0.25500000920E-02 0.  1.
        2   -1    0    0  501    0  0.00000000000E+00  0.00000000000E+00 -0.19669518368E+04  0.19669518368E+04  0.25500000920E-02 0. -1.
    10030    2    1    2    0    0  0.00000000000E+00  0.00000000000E+00 -0.65648924471E+03  0.32774144288E+04  0.32109916241E+04 0.  0.
        1    1    3    3  502    0  0.12289096592E+04  0.78559661945E+03 -0.10131210246E+04  0.17758927922E+04  0.50400001928E-02 0. -1.
       -1    1    3    3    0  502 -0.12289096592E+04 -0.78559661945E+03  0.35663177989E+03  0.15015216366E+04  0.50400001928E-02 0.  1.
</event>
<event>
 5   0  0.2783875E-07  0.3192505E+04  0.7818609E-02  0.8190799E-01
       -1   -1    0    0    0  501  0.00000000000E+00  0.00000000000E+00  0.11759034556E+04  0.11759034556E+04  0.50400001928E-02 0. -1.
        1   -1    0    0  501    0  0.00000000000E+00  0.00000000000E+00 -0.21668634463E+04  0.21668634463E+04  0.50400001928E-02 0.  1.
    10030    2    1    2    0    0  0.00000000000E+00  0.00000000000E+00 -0.99095999068E+03  0.33427669020E+04  0.31925051069E+04 0.  0.
        2    1    3    3  502    0  0.40391179382E+02 -0.13743944716E+04 -0.13444638888E+04  0.19230638989E+04  0.25500000920E-02 0.  1.
       -2    1    3    3    0  502 -0.40391179382E+02  0.13743944716E+04  0.35350389809E+03  0.14197030031E+04  0.25500000920E-02 0. -1.
</event>
<event>
 5   0  0.2783875E-07  0.3203261E+04  0.7818609E-02  0.8187956E-01
        1   -1    0    0  501    0  0.00000000000E+00  0.00000000000E+00  0.28583974899E+04  0.28583974899E+04  0.50400001928E-02 0.  1.
       -1   -1    0    0    0  501  0.00000000000E+00  0.00000000000E+00 -0.89743299268E+03  0.89743299270E+03  0.50400001928E-02 0. -1.
    10030    2    1    2    0    0  0.00000000000E+00  0.00000000000E+00  0.19609644972E+04  0.37558304826E+04  0.32032609720E+04 0.  0.
        2    1    3    3  502    0 -0.92478604537E+03 -0.12496865618E+04  0.14319709293E+04  0.21136429393E+04  0.25500000920E-02 0.  1.
       -2    1    3    3    0  502  0.92478604537E+03  0.12496865618E+04  0.52899356797E+03  0.16421875433E+04  0.25500000920E-02 0. -1.
</event>
<event>
 5   0  0.8335929E-07  0.3204177E+04  0.7818609E-02  0.8187715E-01
       -2   -1    0    0    0  501  0.00000000000E+00  0.00000000000E+00  0.16512715226E+04  0.16512715226E+04  0.25500000920E-02 0. -1.
        2   -1    0    0  501    0  0.00000000000E+00  0.00000000000E+00 -0.15543704919E+04  0.15543704919E+04  0.25500000920E-02 0.  1.
    10030    2    1    2    0    0  0.00000000000E+00  0.00000000000E+00  0.96901030699E+02  0.32056420145E+04  0.32041771043E+04 0.  0.
        4    1    3    3  502    0 -0.86700849820E+03  0.11311558138E+03  0.13915199467E+04  0.16434196804E+04  0.12699999809E+01 0. -1.
       -4    1    3    3    0  502  0.86700849820E+03 -0.11311558138E+03 -0.12946189160E+04  0.15622223342E+04  0.12699999809E+01 0.  1.
</event>
<event>
 5   0  0.8335929E-07  0.3200773E+04  0.7818609E-02  0.8188613E-01
       -2   -1    0    0    0  501  0.00000000000E+00  0.00000000000E+00  0.17081197258E+04  0.17081197258E+04  0.25500000920E-02 0. -1.
        2   -1    0    0  501    0  0.00000000000E+00  0.00000000000E+00 -0.14994479894E+04  0.14994479894E+04  0.25500000920E-02 0.  1.
    10030    2    1    2    0    0  0.00000000000E+00  0.00000000000E+00  0.20867173637E+03  0.32075677152E+04  0.32007728370E+04 0.  0.
        4    1    3    3  502    0  0.13901075071E+04  0.31509639076E+03  0.83358287483E+03  0.16512257989E+04  0.12699999809E+01 0. -1.
       -4    1    3    3    0  502 -0.13901075071E+04 -0.31509639076E+03 -0.62491113846E+03  0.15563419164E+04  0.12699999809E+01 0.  1.
</event>
<event>
 5   0  0.8335929E-07  0.3192108E+04  0.7818609E-02  0.8190904E-01
       -2   -1    0    0    0  501  0.00000000000E+00  0.00000000000E+00  0.14829549038E+04  0.14829549038E+04  0.25500000920E-02 0.  1.
        2   -1    0    0  501    0  0.00000000000E+00  0.00000000000E+00 -0.17177790576E+04  0.17177790576E+04  0.25500000920E-02 0. -1.
    10030    2    1    2    0    0  0.00000000000E+00  0.00000000000E+00 -0.23482415382E+03  0.32007339614E+04  0.31921083172E+04 0.  0.
        4    1    3    3  502    0  0.34980329877E+02 -0.71868456464E+03 -0.15459217692E+04  0.17051706238E+04  0.12699999809E+01 0. -1.
       -4    1    3    3    0  502 -0.34980329877E+02  0.71868456464E+03  0.13110976154E+04  0.14955633376E+04  0.12699999809E+01 0.  1.
</event>
<event>
 5   0  0.2997105E-07  0.3218599E+04  0.7818609E-02  0.8183923E-01
        1   -1    0    0  501    0  0.00000000000E+00  0.00000000000E+00  0.13875707589E+04  0.13875707589E+04  0.50400001928E-02 0. -1.
       -1   -1    0    0    0  501  0.00000000000E+00  0.00000000000E+00 -0.18664591710E+04  0.18664591710E+04  0.50400001928E-02 0.  1.
    10030    2    1    2    0    0  0.00000000000E+00  0.00000000000E+00 -0.47888841205E+03  0.32540299299E+04  0.32185985574E+04 0.  0.
        3    1    3    3  502    0  0.39638636442E+03  0.39414362041E+03 -0.17651535182E+04  0.18515502414E+04  0.10100000352E+00 0.  1.
       -3    1    3    3    0  502 -0.39638636442E+03 -0.39414362041E+03  0.12862651061E+04  0.14024796886E+04  0.10100000352E+00 0. -1.
</event>
<event>
 5   0  0.3075756E-07  0.3196395E+04  0.7818609E-02  0.8189770E-01
        1   -1    0    0  501    0  0.00000000000E+00  0.00000000000E+00  0.22781551365E+04  0.22781551365E+04  0.50400001928E-02 0. -1.
       -1   -1    0    0    0  501  0.00000000000E+00  0.00000000000E+00 -0.11211857552E+04  0.11211857552E+04  0.50400001928E-02 0.  1.
    10030    2    1    2    0    0  0.00000000000E+00  0.00000000000E+00  0.11569693813E+04  0.33993408917E+04  0.31963948987E+04 0.  0.
        5    1    3    3  502    0  0.87832075330E+03 -0.13289612153E+04  0.44134887390E+03  0.16529961210E+04  0.46999998093E+01 0.  1.
       -5    1    3    3    0  502 -0.87832075330E+03  0.13289612153E+04  0.71562050735E+03  0.17463447707E+04  0.46999998093E+01 0. -1.
</event>
<event>
 5   0  0.8838951E-07  0.3216290E+04  0.7818609E-02  0.8184528E-01
        2   -1    0    0  501    0  0.00000000000E+00  0.00000000000E+00  0.19511314065E+04  0.19511314065E+04  0.25500000920E-02 0. -1.
       -2   -1    0    0    0  501  0.00000000000E+00  0.00000000000E+00 -0.13254516714E+04  0.13254516714E+04  0.25500000920E-02 0.  1.
    10030    2    1    2    0    0  0.00000000000E+00  0.00000000000E+00  0.62567973502E+03  0.32765830779E+04  0.32162900267E+04 0.  0.
        2    1    3    3  502    0 -0.81295922262E+03 -0.13433552427E+04  0.66666080085E+03  0.17058553951E+04  0.25500000920E-02 0. -1.
       -2    1    3    3    0  502  0.81295922262E+03  0.13433552427E+04 -0.40981065828E+02  0.15707276828E+04  0.25500000920E-02 0.  1.
</event>
<event>
 5   0  0.2783875E-07  0.3202507E+04  0.7818609E-02  0.8188155E-01
        1   -1    0    0  501    0  0.00000000000E+00  0.00000000000E+00  0.20062871758E+04  0.20062871758E+04  0.50400001928E-02 0.  1.
       -1   -1    0    0    0  501  0.00000000000E+00  0.00000000000E+00 -0.12779886949E+04  0.12779886949E+04  0.50400001928E-02 0. -1.
    10030    2    1    2    0    0  0.00000000000E+00  0.00000000000E+00  0.72829848094E+03  0.32842758707E+04  0.32025067240E+04 0.  0.
        2    1    3    3  502    0  0.13044064752E+04 -0.67841552205E+03 -0.28630741925E+03  0.14978971298E+04  0.25500000920E-02 0. -1.
       -2    1    3    3    0  502 -0.13044064752E+04  0.67841552205E+03  0.10146059002E+04  0.17863787409E+04  0.25500000920E-02 0.  1.
</event>
<event>
 5   0  0.2783875E-07  0.3196436E+04  0.7818609E-02  0.8189759E-01
       -1   -1    0    0    0  501  0.00000000000E+00  0.00000000000E+00  0.10940114624E+04  0.10940114625E+04  0.50400001928E-02 0. -1.
        1   -1    0    0  501    0  0.00000000000E+00  0.00000000000E+00 -0.23348031050E+04  0.23348031050E+04  0.50400001928E-02 0.  1.
    10030    2    1    2    0    0  0.00000000000E+00  0.00000000000E+00 -0.12407916426E+04  0.34288145675E+04  0.31964363654E+04 0.  0.
        2    1    3    3  502    0  0.49378041627E+03 -0.73565492186E+03 -0.20472446072E+04  0.22307437650E+04  0.25500000920E-02 0.  1.
       -2    1    3    3    0  502 -0.49378041627E+03  0.73565492186E+03  0.80645296461E+03  0.11980708025E+04  0.25500000920E-02 0. -1.
</event>
<event>
 5   0  0.3013888E-07  0.3195269E+04  0.7818609E-02  0.8190068E-01
       -1   -1    0    0    0  501  0.00000000000E+00  0.00000000000E+00  0.11372349759E+04  0.11372349759E+04  0.50400001928E-02 0. -1.
        1   -1    0    0  501    0  0.00000000000E+00  0.00000000000E+00 -0.22444220603E+04  0.22444220603E+04  0.50400001928E-02 0.  1.
    10030    2    1    2    0    0  0.00000000000E+00  0.00000000000E+00 -0.11071870844E+04  0.33816570362E+04  0.31952685443E+04 0.  0.
        1    1    3    3  502    0  0.66525112123E+03 -0.90432809090E+03 -0.17565909712E+04  0.20847014631E+04  0.50400001928E-02 0.  1.
       -1    1    3    3    0  502 -0.66525112123E+03  0.90432809090E+03  0.64940388678E+03  0.12969555731E+04  0.50400001928E-02 0. -1.
</event>
<event>
 5   0  0.8838951E-07  0.3211383E+04  0.7818609E-02  0.8185817E-01
       -2   -1    0    0    0  501  0.00000000000E+00  0.00000000000E+00  0.19306485618E+04  0.19306485618E+04  0.25500000920E-02 0. -1.
        2   -1    0    0  501    0  0.00000000000E+00  0.00000000000E+00 -0.13354298569E+04  0.13354298569E+04  0.25500000920E-02 0.  1.
    10030    2    1    2    0    0  0.00000000000E+00  0.00000000000E+00  0.59521870497E+03  0.32660784187E+04  0.32113833359E+04 0.  0.
        2    1    3    3  502    0 -0.18101958552E+03  0.14160341156E+04  0.10451967987E+04  0.17692815081E+04  0.25500000920E-02 0. -1.
       -2    1    3    3    0  502  0.18101958552E+03 -0.14160341156E+04 -0.44997809369E+03  0.14967969106E+04  0.25500000920E-02 0.  1.
</event>
<event>
 5   0  0.8335929E-07  0.3279890E+04  0.7818609E-02  0.8168031E-01
        2   -1    0    0  501    0  0.00000000000E+00  0.00000000000E+00  0.17318393955E+04  0.17318393955E+04  0.25500000920E-02 0. -1.
       -2   -1    0    0    0  501  0.00000000000E+00  0.00000000000E+00 -0.15529268437E+04  0.15529268437E+04  0.25500000920E-02 0.  1.
    10030    2    1    2    0    0  0.00000000000E+00  0.00000000000E+00  0.17891255173E+03  0.32847662392E+04  0.32798901727E+04 0.  0.
        4    1    3    3  502    0 -0.11709881090E+04  0.29929744082E+03 -0.10206256881E+04  0.15819198834E+04  0.12699999809E+01 0.  1.
       -4    1    3    3    0  502  0.11709881090E+04 -0.29929744082E+03  0.11995382399E+04  0.17028463557E+04  0.12699999809E+01 0. -1.
</event>
<event>
 5   0  0.3013888E-07  0.3200510E+04  0.7818609E-02  0.8188682E-01
        1   -1    0    0  501    0  0.00000000000E+00  0.00000000000E+00  0.18356512802E+04  0.18356512802E+04  0.50400001928E-02 0.  1.
       -1   -1    0    0    0  501  0.00000000000E+00  0.00000000000E+00 -0.13950453836E+04  0.13950453836E+04  0.50400001928E-02 0. -1.
    10030    2    1    2    0    0  0.00000000000E+00  0.00000000000E+00  0.44060589666E+03  0.32306966638E+04  0.32005104870E+04 0.  0.
        1    1    3    3  502    0  0.47255056921E+03  0.15251490151E+04  0.11236790845E+03  0.16006280347E+04  0.50400001928E-02 0.  1.
       -1    1    3    3    0  502 -0.47255056921E+03 -0.15251490151E+04  0.32823798821E+03  0.16300686291E+04  0.50400001928E-02 0. -1.
</event>
<event>
 5   0  0.8195618E-07  0.3303688E+04  0.7818609E-02  0.8161958E-01
       -2   -1    0    0    0  501  0.00000000000E+00  0.00000000000E+00  0.13223830408E+04  0.13223830409E+04  0.25500000920E-02 0. -1.
        2   -1    0    0  501    0  0.00000000000E+00  0.00000000000E+00 -0.20633876976E+04  0.20633876976E+04  0.25500000920E-02 0.  1.
    10030    2    1    2    0    0  0.00000000000E+00  0.00000000000E+00 -0.74100465677E+03  0.33857707385E+04  0.33036881802E+04 0.  0.
        1    1    3    3  502    0 -0.70548410150E+03  0.14251830245E+04 -0.82852287641E+03  0.17931270528E+04  0.50400001928E-02 0.  1.
       -1    1    3    3    0  502  0.70548410150E+03 -0.14251830245E+04  0.87518219633E+02  0.15926436857E+04  0.50400001928E-02 0. -1.
</event>
<event>
 5   0  0.2783875E-07  0.3174936E+04  0.7818609E-02  0.8195468E-01
       -1   -1    0    0    0  501  0.00000000000E+00  0.00000000000E+00  0.13617434310E+04  0.13617434310E+04  0.50400001928E-02 0. -1.
        1   -1    0    0  501    0  0.00000000000E+00  0.00000000000E+00 -0.18506090482E+04  0.18506090482E+04  0.50400001928E-02 0.  1.
    10030    2    1    2    0    0  0.00000000000E+00  0.00000000000E+00 -0.48886561724E+03  0.32123524792E+04  0.31749360402E+04 0.  0.
        2    1    3    3  502    0 -0.43952959419E+03  0.94128350636E+03 -0.14589346337E+04  0.17910028389E+04  0.25500000920E-02 0.  1.
       -2    1    3    3    0  502  0.43952959419E+03 -0.94128350636E+03  0.97006901643E+03  0.14213496404E+04  0.25500000920E-02 0. -1.
</event>
<event>
 5   0  0.3013888E-07  0.3205175E+04  0.7818609E-02  0.8187452E-01
        1   -1    0    0  501    0  0.00000000000E+00  0.00000000000E+00  0.17230726259E+04  0.17230726259E+04  0.50400001928E-02 0.  1.
       -1   -1    0    0    0  501  0.00000000000E+00  0.00000000000E+00 -0.14905269410E+04  0.14905269410E+04  0.50400001928E-02 0. -1.
    10030    2    1    2    0    0  0.00000000000E+00  0.00000000000E+00  0.23254568492E+03  0.32135995670E+04  0.32051746725E+04 0.  0.
        1    1    3    3  502    0  0.14756036075E+04  0.45913255012E+03 -0.30919794056E+03  0.15760114439E+04  0.50400001928E-02 0.  1.
       -1    1    3    3    0  502 -0.14756036075E+04 -0.45913255012E+03  0.54174362548E+03  0.16375881230E+04  0.50400001928E-02 0. -1.
</event>
<event>
 5   0  0.3013888E-07  0.3173995E+04  0.7818609E-02  0.8195719E-01
       -1   -1    0    0    0  501  0.00000000000E+00  0.00000000000E+00  0.13242868010E+04  0.13242868010E+04  0.50400001928E-02 0.  1.
        1   -1    0    0  501    0  0.00000000000E+00  0.00000000000E+00 -0.19018241385E+04  0.19018241385E+04  0.50400001928E-02 0. -1.
    10030    2    1    2    0    0  0.00000000000E+00  0.00000000000E+00 -0.57753733748E+03  0.32261109395E+04  0.31739947098E+04 0.  0.
        1    1    3    3  502    0 -0.58537672405E+03 -0.11832609037E+04 -0.11840194737E+04  0.17733229794E+04  0.50400001928E-02 0.  1.
       -1    1    3    3    0  502  0.58537672405E+03  0.11832609037E+04  0.60648213627E+03  0.14527879600E+04  0.50400001928E-02 0. -1.
</event>
<event>
 5   0  0.3013888E-07  0.3198607E+04  0.7818609E-02  0.8189185E-01
       -1   -1    0    0    0  501  0.00000000000E+00  0.00000000000E+00  0.31917062132E+04  0.31917062132E+04  0.50400001928E-02 0.  1.
        1   -1    0    0  501    0  0.00000000000E+00  0.00000000000E+00 -0.80138089895E+03  0.80138089896E+03  0.50400001928E-02 0. -1.
    10030    2    1    2    0    0  0.00000000000E+00  0.00000000000E+00  0.23903253143E+04  0.39930871122E+04  0.31986074435E+04 0.  0.
        1    1    3    3  502    0 -0.12589289780E+04 -0.98451510625E+03  0.11202573046E+04  0.19517040233E+04  0.50400001928E-02 0.  1.
       -1    1    3    3    0  502  0.12589289780E+04  0.98451510625E+03  0.12700680097E+04  0.20413830888E+04  0.50400001928E-02 0. -1.
</event>
<event>
 5   0  0.3013888E-07  0.3212329E+04  0.7818609E-02  0.8185569E-01
       -1   -1    0    0    0  501  0.00000000000E+00  0.00000000000E+00  0.13976928470E+04  0.13976928471E+04  0.50400001928E-02 0.  1.
        1   -1    0    0  501    0  0.00000000000E+00  0.00000000000E+00 -0.18457310834E+04  0.18457310835E+04  0.50400001928E-02 0. -1.
    10030    2    1    2    0    0  0.00000000000E+00  0.00000000000E+00 -0.44803823641E+03  0.32434239305E+04  0.32123294557E+04 0.  0.
        1    1    3    3  502    0  0.14905804763E+04 -0.26351459493E+03  0.31829736936E+03  0.15467977610E+04  0.50400001928E-02 0.  1.
       -1    1    3    3    0  502 -0.14905804763E+04  0.26351459493E+03 -0.76633560576E+03  0.16966261695E+04  0.50400001928E-02 0. -1.
</event>
<event>
 5   0  0.2783875E-07  0.3182937E+04  0.7818609E-02  0.8193338E-01
        1   -1    0    0  501    0  0.00000000000E+00  0.00000000000E+00  0.18841671718E+04  0.18841671718E+04  0.50400001928E-02 0.  1.
       -1   -1    0    0    0  501  0.00000000000E+00  0.00000000000E+00 -0.13442393455E+04  0.13442393455E+04  0.50400001928E-02 0. -1.
    10030    2    1    2    0    0  0.00000000000E+00  0.00000000000E+00  0.53992782628E+03  0.32284065173E+04  0.31829367859E+04 0.  0.
        2    1    3    3  502    0  0.15210290055E+04 -0.36382448689E+03 -0.28990861000E+02  0.15642052177E+04  0.25500000920E-02 0. -1.
       -2    1    3    3    0  502 -0.15210290055E+04  0.36382448689E+03  0.56891868728E+03  0.16642012996E+04  0.25500000920E-02 0.  1.
</event>
<event>
 5   0  0.2891204E-07  0.3202882E+04  0.7818609E-02  0.8188056E-01
        1   -1    0    0  501    0  0.00000000000E+00  0.00000000000E+00  0.15115922385E+04  0.15115922385E+04  0.50400001928E-02 0.  1.
       -1   -1    0    0    0  501  0.00000000000E+00  0.00000000000E+00 -0.16966306763E+04  0.16966306763E+04  0.50400001928E-02 0. -1.
    10030    2    1    2    0    0  0.00000000000E+00  0.00000000000E+00 -0.18503843785E+03  0.32082229148E+04  0.32028823031E+04 0.  0.
        4    1    3    3  502    0 -0.43055369393E+03  0.13488803756E+04 -0.84193611031E+03  0.16473350533E+04  0.12699999809E+01 0. -1.
       -4    1    3    3    0  502  0.43055369393E+03 -0.13488803756E+04  0.65689767246E+03  0.15608878615E+04  0.12699999809E+01 0.  1.
</event>
<event>
 5   0  0.8838951E-07  0.3096938E+04  0.7818609E-02  0.8216579E-01
        2   -1    0    0  501    0  0.00000000000E+00  0.00000000000E+00  0.18726254756E+04  0.18726254756E+04  0.25500000920E-02 0. -1.
       -2   -1    0    0    0  501  0.00000000000E+00  0.00000000000E+00 -0.12804244835E+04  0.12804244835E+04  0.25500000920E-02 0.  1.
    10030    2    1    2    0    0  0.00000000000E+00  0.00000000000E+00  0.59220099209E+03  0.31530499591E+04  0.30969375243E+04 0.  0.
        2    1    3    3  502    0  0.34598946385E+03  0.13372819982E+04 -0.41638158969E+03  0.14427076904E+04  0.25500000920E-02 0.  1.
       -2    1    3    3    0  502 -0.34598946385E+03 -0.13372819982E+04  0.10085825818E+04  0.17103422687E+04  0.25500000920E-02 0. -1.
</event>
<event>
 5   0  0.2783875E-07  0.3194361E+04  0.7818609E-02  0.8190308E-01
        1   -1    0    0  501    0  0.00000000000E+00  0.00000000000E+00  0.13991161467E+04  0.13991161467E+04  0.50400001928E-02 0. -1.
       -1   -1    0    0    0  501  0.00000000000E+00  0.00000000000E+00 -0.18232830767E+04  0.18232830767E+04  0.50400001928E-02 0.  1.
    10030    2    1    2    0    0  0.00000000000E+00  0.00000000000E+00 -0.42416693001E+03  0.32223992234E+04  0.31943605261E+04 0.  0.
        2    1    3    3  502    0  0.15093638026E+04  0.41497131435E+03  0.10788276469E+03  0.15690822067E+04  0.25500000920E-02 0. -1.
       -2    1    3    3    0  502 -0.15093638026E+04 -0.41497131435E+03 -0.53204969470E+03  0.16533170168E+04  0.25500000920E-02 0.  1.
</event>
<event>
 5   0  0.3075756E-07  0.3190334E+04  0.7818609E-02  0.8191375E-01
        1   -1    0    0  501    0  0.00000000000E+00  0.00000000000E+00  0.12879259039E+04  0.12879259039E+04  0.50400001928E-02 0.  1.
       -1   -1    0    0    0  501  0.00000000000E+00  0.00000000000E+00 -0.19757021659E+04  0.19757021659E+04  0.50400001928E-02 0. -1.
    10030    2    1    2    0    0  0.00000000000E+00  0.00000000000E+00 -0.68777626201E+03  0.32636280697E+04  0.31903341504E+04 0.  0.
        5    1    3    3  502    0 -0.84773859525E+03 -0.74039228373E+02  0.10363280358E+04  0.13409475833E+04  0.46999998093E+01 0.  1.
       -5    1    3    3    0  502  0.84773859525E+03  0.74039228373E+02 -0.17241042978E+04  0.19226804865E+04  0.46999998093E+01 0. -1.
</event>
<event>
 5   0  0.8195618E-07  0.3227023E+04  0.7818609E-02  0.8181717E-01
       -2   -1    0    0    0  501  0.00000000000E+00  0.00000000000E+00  0.97088059201E+03  0.97088059202E+03  0.25500000920E-02 0.  1.
        2   -1    0    0  501    0  0.00000000000E+00  0.00000000000E+00 -0.26815034670E+04  0.26815034670E+04  0.25500000920E-02 0. -1.
    10030    2    1    2    0    0  0.00000000000E+00  0.00000000000E+00 -0.17106228749E+04  0.36523840590E+04  0.32270231939E+04 0.  0.
        1    1    3    3  502    0 -0.72030708981E+03  0.31757891507E+03 -0.24494080814E+04  0.25727997629E+04  0.50400001928E-02 0. -1.
       -1    1    3    3    0  502  0.72030708981E+03 -0.31757891507E+03  0.73878520646E+03  0.10795842960E+04  0.50400001928E-02 0.  1.
</event>
<event>
 5   0  0.8195618E-07  0.3204556E+04  0.7818609E-02  0.8187615E-01
        2   -1    0    0  501    0  0.00000000000E+00  0.00000000000E+00  0.15450344812E+04  0.15450344812E+04  0.25500000920E-02 0. -1.
       -2   -1    0    0    0  501  0.00000000000E+00  0.00000000000E+00 -0.16616421383E+04  0.16616421383E+04  0.25500000920E-02 0.  1.
    10030    2    1    2    0    0  0.00000000000E+00  0.00000000000E+00 -0.11660765716E+03  0.32066766195E+04  0.32045557565E+04 0.  0.
        1    1    3    3  502    0 -0.13174953666E+04 -0.87075320429E+03  0.21259515083E+03  0.15934873335E+04  0.50400001928E-02 0. -1.
       -1    1    3    3    0  502  0.13174953666E+04  0.87075320429E+03 -0.32920280799E+03  0.16131892860E+04  0.50400001928E-02 0.  1.
</event>
<event>
 5   0  0.8838951E-07  0.3125912E+04  0.7818609E-02  0.8208662E-01
        2   -1    0    0  501    0  0.00000000000E+00  0.00000000000E+00  0.21664455869E+04  0.21664455869E+04  0.25500000920E-02 0. -1.
       -2   -1    0    0    0  501  0.00000000000E+00  0.00000000000E+00 -0.11275760491E+04  0.11275760492E+04  0.25500000920E-02 0.  1.
    10030    2    1    2    0    0  0.00000000000E+00  0.00000000000E+00  0.10388695378E+04  0.32940216361E+04  0.31259124464E+04 0.  0.
        2    1    3    3  502    0 -0.67372696147E+03  0.11321705085E+03 -0.96190526535E+03  0.11798253509E+04  0.25500000920E-02 0.  1.
       -2    1    3    3    0  502  0.67372696147E+03 -0.11321705085E+03  0.20007748031E+04  0.21141962851E+04  0.25500000920E-02 0. -1.
</event>
<event>
 5   0  0.8802800E-07  0.3197990E+04  0.7818609E-02  0.8189348E-01
        2   -1    0    0  501    0  0.00000000000E+00  0.00000000000E+00  0.17016705537E+04  0.17016705537E+04  0.25500000920E-02 0. -1.
       -2   -1    0    0    0  501  0.00000000000E+00  0.00000000000E+00 -0.15025147664E+04  0.15025147664E+04  0.25500000920E-02 0.  1.
    10030    2    1    2    0    0  0.00000000000E+00  0.00000000000E+00  0.19915578739E+03  0.32041853201E+04  0.31979900778E+04 0.  0.
        5    1    3    3  502    0 -0.56090940681E+03 -0.89060802643E+03  0.13056377613E+04  0.16770551789E+04  0.46999998093E+01 0. -1.
       -5    1    3    3    0  502  0.56090940681E+03  0.89060802643E+03 -0.11064819739E+04  0.15271301412E+04  0.46999998093E+01 0.  1.
</event>
<event>
 5   0  0.2891204E-07  0.3199920E+04  0.7818609E-02  0.8188838E-01
        1   -1    0    0  501    0  0.00000000000E+00  0.00000000000E+00  0.99876940027E+03  0.99876940028E+03  0.50400001928E-02 0. -1.
       -1   -1    0    0    0  501  0.00000000000E+00  0.00000000000E+00 -0.25630262704E+04  0.25630262704E+04  0.50400001928E-02 0.  1.
    10030    2    1    2    0    0  0.00000000000E+00  0.00000000000E+00 -0.15642568701E+04  0.35617956707E+04  0.31999201309E+04 0.  0.
        4    1    3    3  502    0 -0.17926873140E+03  0.15243569987E+04 -0.27930160182E+03  0.15600681188E+04  0.12699999809E+01 0.  1.
       -4    1    3    3    0  502  0.17926873140E+03 -0.15243569987E+04 -0.12849552683E+04  0.20017275519E+04  0.12699999809E+01 0. -1.
</event>
<event>
 5   0  0.8195618E-07  0.3201531E+04  0.7818609E-02  0.8188413E-01
        2   -1    0    0  501    0  0.00000000000E+00  0.00000000000E+00  0.20784785388E+04  0.20784785388E+04  0.25500000920E-02 0. -1.
       -2   -1    0    0    0  501  0.00000000000E+00  0.00000000000E+00 -0.12328490945E+04  0.12328490945E+04  0.25500000920E-02 0.  1.
    10030    2    1    2    0    0  0.00000000000E+00  0.00000000000E+00  0.84562944431E+03  0.33113276333E+04  0.32015311240E+04 0.  0.
        1    1    3    3  502    0  0.96450617972E+02  0.97153007655E+03 -0.88926379163E+03  0.13205921030E+04  0.50400001928E-02 0.  1.
       -1    1    3    3    0  502 -0.96450617972E+02 -0.97153007655E+03  0.17348932359E+04  0.19907355303E+04  0.50400001928E-02 0. -1.
</event>
<event>
 5   0  0.3013888E-07  0.3160921E+04  0.7818609E-02  0.8199215E-01
        1   -1    0    0  501    0  0.00000000000E+00  0.00000000000E+00  0.16677474292E+04  0.16677474292E+04  0.50400001928E-02 0.  1.
       -1   -1    0    0    0  501  0.00000000000E+00  0.00000000000E+00 -0.14977420933E+04  0.14977420933E+04  0.50400001928E-02 0. -1.
    10030    2    1    2    0    0  0.00000000000E+00  0.00000000000E+00  0.17000533595E+03  0.31654895225E+04  0.31609210846E+04 0.  0.
        1    1    3    3  502    0 -0.27293000149E+03 -0.15280404703E+04  0.38284983958E+03  0.15987408997E+04  0.50400001928E-02 0.  1.
       -1    1    3    3    0  502  0.27293000149E+03  0.15280404703E+04 -0.21284450364E+03  0.15667486229E+04  0.50400001928E-02 0. -1.
</event>
<event>
 5   0  0.2783875E-07  0.3205977E+04  0.7818609E-02  0.8187240E-01
        1   -1    0    0  501    0  0.00000000000E+00  0.00000000000E+00  0.18760726168E+04  0.18760726168E+04  0.50400001928E-02 0. -1.
       -1   -1    0    0    0  501  0.00000000000E+00  0.00000000000E+00 -0.13696553092E+04  0.13696553092E+04  0.50400001928E-02 0.  1.
    10030    2    1    2    0    0  0.00000000000E+00  0.00000000000E+00  0.50641730754E+03  0.32457279260E+04  0.32059774298E+04 0.  0.
        2    1    3    3  502    0 -0.84795638537E+02  0.10401174915E+04 -0.97865161755E+03  0.14306619744E+04  0.25500000920E-02 0.  1.
       -2    1    3    3    0  502  0.84795638537E+02 -0.10401174915E+04  0.14850689251E+04  0.18150659516E+04  0.25500000920E-02 0. -1.
</event>
<event>
 5   0  0.3013888E-07  0.3201113E+04  0.7818609E-02  0.8188523E-01
        1   -1    0    0  501    0  0.00000000000E+00  0.00000000000E+00  0.17923516836E+04  0.17923516836E+04  0.50400001928E-02 0.  1.
       -1   -1    0    0    0  501  0.00000000000E+00  0.00000000000E+00 -0.14292850726E+04  0.14292850727E+04  0.50400001928E-02 0. -1.
    10030    2    1    2    0    0  0.00000000000E+00  0.00000000000E+00  0.36306661092E+03  0.32216367562E+04  0.32011132478E+04 0.  0.
        1    1    3    3  502    0 -0.12619013150E+04  0.57902361178E+03  0.98295418642E+03  0.17011355632E+04  0.50400001928E-02 0.  1.
       -1    1    3    3    0  502  0.12619013150E+04 -0.57902361178E+03 -0.61988757549E+03  0.15205011930E+04  0.50400001928E-02 0. -1.
</event>
<event>
 5   0  0.3075756E-07  0.3208104E+04  0.7818609E-02  0.8186680E-01
        1   -1    0    0  501    0  0.00000000000E+00  0.00000000000E+00  0.14044530659E+04  0.14044530659E+04  0.50400001928E-02 0. -1.
       -1   -1    0    0    0  501  0.00000000000E+00  0.00000000000E+00 -0.18320179273E+04  0.18320179273E+04  0.50400001928E-02 0.  1.
    10030    2    1    2    0    0  0.00000000000E+00  0.00000000000E+00 -0.42756486139E+03  0.32364709932E+04  0.32081042344E+04 0.  0.
        5    1    3    3  502    0 -0.99310848944E+02 -0.34597333450E+03  0.13631773400E+04  0.14099059342E+04  0.46999998093E+01 0. -1.
       -5    1    3    3    0  502  0.99310848944E+02  0.34597333450E+03 -0.17907422014E+04  0.18265650590E+04  0.46999998093E+01 0.  1.
</event>
<event>
 5   0  0.2783875E-07  0.3219567E+04  0.7818609E-02  0.8183669E-01
        1   -1    0    0  501    0  0.00000000000E+00  0.00000000000E+00  0.21293193401E+04  0.21293193401E+04  0.50400001928E-02 0. -1.
       -1   -1    0    0    0  501  0.00000000000E+00  0.00000000000E+00 -0.12170099128E+04  0.12170099128E+04  0.50400001928E-02 0.  1.
    10030    2    1    2    0    0  0.00000000000E+00  0.00000000000E+00  0.91230942724E+03  0.33463292529E+04  0.32195668929E+04 0.  0.
        2    1    3    3  502    0 -0.30906893165E+03  0.44682748822E+03 -0.11188373683E+04  0.12437746844E+04  0.25500000920E-02 0.  1.
       -2    1    3    3    0  502  0.30906893165E+03 -0.44682748822E+03  0.20311467955E+04  0.21025545686E+04  0.25500000920E-02 0. -1.
</event>
<event>
 5   0  0.8195618E-07  0.3201389E+04  0.7818609E-02  0.8188451E-01
       -2   -1    0    0    0  501  0.00000000000E+00  0.00000000000E+00  0.13921153142E+04  0.13921153142E+04  0.25500000920E-02 0.  1.
        2   -1    0    0  501    0  0.00000000000E+00  0.00000000000E+00 -0.18405244282E+04  0.18405244282E+04  0.25500000920E-02 0. -1.
    10030    2    1    2    0    0  0.00000000000E+00  0.00000000000E+00 -0.44840911402E+03  0.32326397425E+04  0.32013886004E+04 0.  0.
        1    1    3    3  502    0  0.55230462948E+03  0.43687084998E+03 -0.16757087754E+04  0.18176623568E+04  0.50400001928E-02 0. -1.
       -1    1    3    3    0  502 -0.55230462948E+03 -0.43687084998E+03  0.12272996613E+04  0.14149773857E+04  0.50400001928E-02 0.  1.
</event>
<event>
 5   0  0.8488469E-07  0.3198858E+04  0.7818609E-02  0.8189119E-01
        2   -1    0    0  501    0  0.00000000000E+00  0.00000000000E+00  0.15654487230E+04  0.15654487230E+04  0.25500000920E-02 0.  1.
       -2   -1    0    0    0  501  0.00000000000E+00  0.00000000000E+00 -0.16341465788E+04  0.16341465788E+04  0.25500000920E-02 0. -1.
    10030    2    1    2    0    0  0.00000000000E+00  0.00000000000E+00 -0.68697855814E+02  0.31995953018E+04  0.31988577180E+04 0.  0.
        3    1    3    3  502    0 -0.80372180627E+01 -0.35405697664E+03 -0.15944366591E+04  0.16332939752E+04  0.10100000352E+00 0. -1.
       -3    1    3    3    0  502  0.80372180627E+01  0.35405697664E+03  0.15257388033E+04  0.15663013265E+04  0.10100000352E+00 0.  1.
</event>
<event>
 5   0  0.3013888E-07  0.3230812E+04  0.7818609E-02  0.8180727E-01
       -1   -1    0    0    0  501  0.00000000000E+00  0.00000000000E+00  0.16467192192E+04  0.16467192192E+04  0.50400001928E-02 0.  1.
        1   -1    0    0  501    0  0.00000000000E+00  0.00000000000E+00 -0.15846881505E+04  0.15846881505E+04  0.50400001928E-02 0. -1.
    10030    2    1    2    0    0  0.00000000000E+00  0.00000000000E+00  0.62031068733E+02  0.32314073698E+04  0.32308119314E+04 0.  0.
        1    1    3    3  502    0 -0.27595136946E+03  0.14194814466E+04 -0.68915862521E+03  0.16018790049E+04  0.50400001928E-02 0. -1.
       -1    1    3    3    0  502  0.27595136946E+03 -0.14194814466E+04  0.75118969394E+03  0.16295283649E+04  0.50400001928E-02 0.  1.
</event>
<event>
 5   0  0.2783875E-07  0.3196491E+04  0.7818609E-02  0.8189744E-01
       -1   -1    0    0    0  501  0.00000000000E+00  0.00000000000E+00  0.15044413376E+04  0.15044413376E+04  0.50400001928E-02 0. -1.
        1   -1    0    0  501    0  0.00000000000E+00  0.00000000000E+00 -0.16978985275E+04  0.16978985275E+04  0.50400001928E-02 0.  1.
    10030    2    1    2    0    0  0.00000000000E+00  0.00000000000E+00 -0.19345718987E+03  0.32023398651E+04  0.31964910336E+04 0.  0.
        2    1    3    3  502    0  0.15835989237E+04 -0.17120167397E+03 -0.22847270441E+03  0.16091287521E+04  0.25500000920E-02 0. -1.
       -2    1    3    3    0  502 -0.15835989237E+04  0.17120167397E+03  0.35015514535E+02  0.15932111130E+04  0.25500000920E-02 0.  1.
</event>
<event>
 5   0  0.3013888E-07  0.3214750E+04  0.7818609E-02  0.8184933E-01
        1   -1    0    0  501    0  0.00000000000E+00  0.00000000000E+00  0.30337068712E+04  0.30337068712E+04  0.50400001928E-02 0. -1.
       -1   -1    0    0    0  501  0.00000000000E+00  0.00000000000E+00 -0.85164938159E+03  0.85164938160E+03  0.50400001928E-02 0.  1.
    10030    2    1    2    0    0  0.00000000000E+00  0.00000000000E+00  0.21820574896E+04  0.38853562528E+04  0.32147501183E+04 0.  0.
        1    1    3    3  502    0 -0.33701857040E+03  0.87013390242E+03  0.26728401680E+04  0.28310402838E+04  0.50400001928E-02 0. -1.
       -1    1    3    3    0  502  0.33701857040E+03 -0.87013390242E+03 -0.49078267842E+03  0.10543159690E+04  0.50400001928E-02 0.  1.
</event>
<event>
 5   0  0.2783875E-07  0.3190599E+04  0.7818609E-02  0.8191304E-01
        1   -1    0    0  501    0  0.00000000000E+00  0.00000000000E+00  0.11137835591E+04  0.11137835591E+04  0.50400001928E-02 0. -1.
       -1   -1    0    0    0  501  0.00000000000E+00  0.00000000000E+00 -0.22849870310E+04  0.22849870310E+04  0.50400001928E-02 0.  1.
    10030    2    1    2    0    0  0.00000000000E+00  0.00000000000E+00 -0.11712034719E+04  0.33987705901E+04  0.31905993091E+04 0.  0.
        2    1    3    3  502    0  0.46217235909E+03 -0.45342397623E+03 -0.21387366843E+04  0.22345897155E+04  0.25500000920E-02 0.  1.
       -2    1    3    3    0  502 -0.46217235909E+03  0.45342397623E+03  0.96753321241E+03  0.11641808746E+04  0.25500000920E-02 0. -1.
</event>
<event>
 5   0  0.2997105E-07  0.3198301E+04  0.7818609E-02  0.8189266E-01
        1   -1    0    0  501    0  0.00000000000E+00  0.00000000000E+00  0.85047587699E+03  0.85047587700E+03  0.50400001928E-02 0. -1.
       -1   -1    0    0    0  501  0.00000000000E+00  0.00000000000E+00 -0.30068840672E+04  0.30068840672E+04  0.50400001928E-02 0.  1.
    10030    2    1    2    0    0  0.00000000000E+00  0.00000000000E+00 -0.21564081902E+04  0.38573599442E+04  0.31983010265E+04 0.  0.
        3    1    3    3  502    0 -0.82617773319E+03  0.90398127932E+03  0.16206890845E+03  0.12353210682E+04  0.10100000352E+00 0. -1.
       -3    1    3    3    0  502  0.82617773319E+03 -0.90398127932E+03 -0.23184770986E+04  0.26220388760E+04  0.10100000352E+00 0.  1.
</event>
<event>
 5   0  0.8195618E-07  0.3197412E+04  0.7818609E-02  0.8189501E-01
        2   -1    0    0  501    0  0.00000000000E+00  0.00000000000E+00  0.18890977595E+04  0.18890977595E+04  0.25500000920E-02 0.  1.
       -2   -1    0    0    0  501  0.00000000000E+00  0.00000000000E+00 -0.13529528670E+04  0.13529528670E+04  0.25500000920E-02 0. -1.
    10030    2    1    2    0    0  0.00000000000E+00  0.00000000000E+00  0.53614489249E+03  0.32420506266E+04  0.31974115968E+04 0.  0.
        1    1    3    3  502    0 -0.32157862272E+03  0.11127267613E+04  0.13854034330E+04  0.18058007443E+04  0.50400001928E-02 0.  1.
       -1    1    3    3    0  502  0.32157862272E+03 -0.11127267613E+04 -0.84925854049E+03  0.14362498823E+04  0.50400001928E-02 0. -1.
</event>
<event>
 5   0  0.3075756E-07  0.3259753E+04  0.7818609E-02  0.8173212E-01
        1   -1    0    0  501    0  0.00000000000E+00  0.00000000000E+00  0.23406304777E+04  0.23406304777E+04  0.50400001928E-02 0. -1.
       -1   -1    0    0    0  501  0.00000000000E+00  0.00000000000E+00 -0.11349492695E+04  0.11349492695E+04  0.50400001928E-02 0.  1.
    10030    2    1    2    0    0  0.00000000000E+00  0.00000000000E+00  0.12056812081E+04  0.34755797472E+04  0.32597526599E+04 0.  0.
        5    1    3    3  502    0 -0.13290584552E+04  0.86531168209E+03  0.10036476263E+04  0.18768301287E+04  0.46999998093E+01 0.  1.
       -5    1    3    3    0  502  0.13290584552E+04 -0.86531168209E+03  0.20203358185E+03  0.15987496185E+04  0.46999998093E+01 0. -1.
</event>
<event>
 5   0  0.8838951E-07  0.3198346E+04  0.7818609E-02  0.8189254E-01
       -2   -1    0    0    0  501  0.00000000000E+00  0.00000000000E+00  0.15273147698E+04  0.15273147698E+04  0.25500000920E-02 0. -1.
        2   -1    0    0  501    0  0.00000000000E+00  0.00000000000E+00 -0.16744120392E+04  0.16744120392E+04  0.25500000920E-02 0.  1.
    10030    2    1    2    0    0  0.00000000000E+00  0.00000000000E+00 -0.14709726935E+03  0.32017268090E+04  0.31983459714E+04 0.  0.
        2    1    3    3  502    0  0.45939511812E+03  0.12968213766E+04 -0.88961872391E+03  0.16383561979E+04  0.25500000920E-02 0.  1.
       -2    1    3    3    0  502 -0.45939511812E+03 -0.12968213766E+04  0.74252145456E+03  0.15633706111E+04  0.25500000920E-02 0. -1.
</event>
<event>
 5   0  0.2783875E-07  0.3195077E+04  0.7818609E-02  0.8190119E-01
        1   -1    0    0  501    0  0.00000000000E+00  0.00000000000E+00  0.33005061058E+04  0.33005061058E+04  0.50400001928E-02 0.  1.
       -1   -1    0    0    0  501  0.00000000000E+00  0.00000000000E+00 -0.77325387929E+03  0.77325387931E+03  0.50400001928E-02 0. -1.
    10030    2    1    2    0    0  0.00000000000E+00  0.00000000000E+00  0.25272522265E+04  0.40737599851E+04  0.31950769318E+04 0.  0.
        2    1    3    3  502    0 -0.50450819654E+03  0.15148516923E+04  0.11958585600E+04  0.19948388069E+04  0.25500000920E-02 0. -1.
       -2    1    3    3    0  502  0.50450819654E+03 -0.15148516923E+04  0.13313936665E+04  0.20789211782E+04  0.25500000920E-02 0.  1.
</event>
<event>
 5   0  0.8488469E-07  0.3197604E+04  0.7818609E-02  0.8189450E-01
        2   -1    0    0  501    0  0.00000000000E+00  0.00000000000E+00  0.18207555314E+04  0.18207555314E+04  0.25500000920E-02 0.  1.
       -2   -1    0    0    0  501  0.00000000000E+00  0.00000000000E+00 -0.14039052902E+04  0.14039052902E+04  0.25500000920E-02 0. -1.
    10030    2    1    2    0    0  0.00000000000E+00  0.00000000000E+00  0.41685024121E+03  0.32246608216E+04  0.31976043049E+04 0.  0.
        3    1    3    3  502    0 -0.54036857665E+03 -0.15041378089E+04  0.16636410706E+03  0.16068932053E+04  0.10100000352E+00 0.  1.
       -3    1    3    3    0  502  0.54036857665E+03  0.15041378089E+04  0.25048613415E+03  0.16177676163E+04  0.10100000352E+00 0. -1.
</event>
<event>
 5   0  0.3013888E-07  0.3206261E+04  0.7818609E-02  0.8187166E-01
        1   -1    0    0  501    0  0.00000000000E+00  0.00000000000E+00  0.13612372908E+04  0.13612372908E+04  0.50400001928E-02 0.  1.
       -1   -1    0    0    0  501  0.00000000000E+00  0.00000000000E+00 -0.18880080121E+04  0.18880080122E+04  0.50400001928E-02 0. -1.
    10030    2    1    2    0    0  0.00000000000E+00  0.00000000000E+00 -0.52677072136E+03  0.32492453030E+04  0.32062606952E+04 0.  0.
        1    1    3    3  502    0 -0.11207513598E+04 -0.47141303114E+03  0.79547312284E+03  0.14529595128E+04  0.50400001928E-02 0.  1.
       -1    1    3    3    0  502  0.11207513598E+04  0.47141303114E+03 -0.13222438442E+04  0.17962857902E+04  0.50400001928E-02 0. -1.
</event>
<event>
 5   0  0.8488469E-07  0.3213522E+04  0.7818609E-02  0.8185255E-01
        2   -1    0    0  501    0  0.00000000000E+00  0.00000000000E+00  0.15977948505E+04  0.15977948505E+04  0.25500000920E-02 0. -1.
       -2   -1    0    0    0  501  0.00000000000E+00  0.00000000000E+00 -0.16157776495E+04  0.16157776495E+04  0.25500000920E-02 0.  1.
    10030    2    1    2    0    0  0.00000000000E+00  0.00000000000E+00 -0.17982798955E+02  0.32135725000E+04  0.32135221847E+04 0.  0.
        3    1    3    3  502    0 -0.50033639946E+03 -0.36574861925E+03  0.14734530175E+04  0.15984906538E+04  0.10100000352E+00 0. -1.
       -3    1    3    3    0  502  0.50033639946E+03  0.36574861925E+03 -0.14914358165E+04  0.16150818462E+04  0.10100000352E+00 0.  1.
</event>
<event>
 5   0  0.2997105E-07  0.3212031E+04  0.7818609E-02  0.8185647E-01
       -1   -1    0    0    0  501  0.00000000000E+00  0.00000000000E+00  0.12315011667E+04  0.12315011667E+04  0.50400001928E-02 0. -1.
        1   -1    0    0  501    0  0.00000000000E+00  0.00000000000E+00 -0.20944241461E+04  0.20944241461E+04  0.50400001928E-02 0.  1.
    10030    2    1    2    0    0  0.00000000000E+00  0.00000000000E+00 -0.86292297940E+03  0.33259253127E+04  0.32120309957E+04 0.  0.
        3    1    3    3  502    0  0.60565431941E+03 -0.10045865281E+04 -0.15672961718E+04  0.19576589456E+04  0.10100000352E+00 0.  1.
       -3    1    3    3    0  502 -0.60565431941E+03  0.10045865281E+04  0.70437319239E+03  0.13682663671E+04  0.10100000352E+00 0. -1.
</event>
<event>
 5   0  0.3075756E-07  0.3207391E+04  0.7818609E-02  0.8186868E-01
        1   -1    0    0  501    0  0.00000000000E+00  0.00000000000E+00  0.15735915099E+04  0.15735915099E+04  0.50400001928E-02 0.  1.
       -1   -1    0    0    0  501  0.00000000000E+00  0.00000000000E+00 -0.16343757853E+04  0.16343757853E+04  0.50400001928E-02 0. -1.
    10030    2    1    2    0    0  0.00000000000E+00  0.00000000000E+00 -0.60784275456E+02  0.32079672952E+04  0.32073913760E+04 0.  0.
        5    1    3    3  502    0 -0.11577157371E+04 -0.75291316049E+03  0.78500501656E+03  0.15885335757E+04  0.46999998093E+01 0.  1.
       -5    1    3    3    0  502  0.11577157371E+04  0.75291316049E+03 -0.84578929202E+03  0.16194337195E+04  0.46999998093E+01 0. -1.
</event>
<event>
 5   0  0.2997105E-07  0.3195052E+04  0.7818609E-02  0.8190125E-01
       -1   -1    0    0    0  501  0.00000000000E+00  0.00000000000E+00  0.10733162787E+04  0.10733162788E+04  0.50400001928E-02 0. -1.
        1   -1    0    0  501    0  0.00000000000E+00  0.00000000000E+00 -0.23777600067E+04  0.23777600067E+04  0.50400001928E-02 0.  1.
    10030    2    1    2    0    0  0.00000000000E+00  0.00000000000E+00 -0.13044437279E+04  0.34510762854E+04  0.31950515001E+04 0.  0.
        3    1    3    3  502    0 -0.61002196767E+03  0.13184906574E+04 -0.13699562248E+04  0.19968286063E+04  0.10100000352E+00 0.  1.
       -3    1    3    3    0  502  0.61002196767E+03 -0.13184906574E+04  0.65512496895E+02  0.14542476791E+04  0.10100000352E+00 0. -1.
</event>
<event>
 5   0  0.8802800E-07  0.3198702E+04  0.7818609E-02  0.8189160E-01
        2   -1    0    0  501    0  0.00000000000E+00  0.00000000000E+00  0.15400522603E+04  0.15400522603E+04  0.25500000920E-02 0. -1.
       -2   -1    0    0    0  501  0.00000000000E+00  0.00000000000E+00 -0.16609331371E+04  0.16609331371E+04  0.25500000920E-02 0.  1.
    10030    2    1    2    0    0  0.00000000000E+00  0.00000000000E+00 -0.12088087687E+03  0.32009853974E+04  0.31987021318E+04 0.  0.
        5    1    3    3  502    0 -0.43159200969E+03  0.23035491083E+03  0.14633305115E+04  0.15429495532E+04  0.46999998093E+01 0. -1.
       -5    1    3    3    0  502  0.43159200969E+03 -0.23035491083E+03 -0.15842113884E+04  0.16580358442E+04  0.46999998093E+01 0.  1.
</event>
<event>
 5   0  0.8195618E-07  0.3196489E+04  0.7818609E-02  0.8189745E-01
       -2   -1    0    0    0  501  0.00000000000E+00  0.00000000000E+00  0.11622664900E+04  0.11622664900E+04  0.25500000920E-02 0. -1.
        2   -1    0    0  501    0  0.00000000000E+00  0.00000000000E+00 -0.21977626845E+04  0.21977626845E+04  0.25500000920E-02 0.  1.
    10030    2    1    2    0    0  0.00000000000E+00  0.00000000000E+00 -0.10354961944E+04  0.33600291745E+04  0.31964892749E+04 0.  0.
        1    1    3    3  502    0  0.42566907415E+03  0.13296333544E+04 -0.13355408549E+04  0.19320425443E+04  0.50400001928E-02 0.  1.
       -1    1    3    3    0  502 -0.42566907415E+03 -0.13296333544E+04  0.30004466046E+03  0.14279866302E+04  0.50400001928E-02 0. -1.
</event>
<event>
 5   0  0.8195618E-07  0.3192622E+04  0.7818609E-02  0.8190768E-01
       -2   -1    0    0    0  501  0.00000000000E+00  0.00000000000E+00  0.13556199301E+04  0.13556199301E+04  0.25500000920E-02 0. -1.
        2   -1    0    0  501    0  0.00000000000E+00  0.00000000000E+00 -0.18797371076E+04  0.18797371076E+04  0.25500000920E-02 0.  1.
    10030    2    1    2    0    0  0.00000000000E+00  0.00000000000E+00 -0.52411717745E+03  0.32353570377E+04  0.31926221739E+04 0.  0.
        1    1    3    3  502    0 -0.64909340471E+03  0.39507430624E+02 -0.17394224329E+04  0.18570065927E+04  0.50400001928E-02 0.  1.
       -1    1    3    3    0  502  0.64909340471E+03 -0.39507430624E+02  0.12153052555E+04  0.13783504450E+04  0.50400001928E-02 0. -1.
</event>
<event>
 5   0  0.2783875E-07  0.3191854E+04  0.7818609E-02  0.8190972E-01
        1   -1    0    0  501    0  0.00000000000E+00  0.00000000000E+00  0.15369857738E+04  0.15369857738E+04  0.50400001928E-02 0. -1.
       -1   -1    0    0    0  501  0.00000000000E+00  0.00000000000E+00 -0.16571284014E+04  0.16571284014E+04  0.50400001928E-02 0.  1.
    10030    2    1    2    0    0  0.00000000000E+00  0.00000000000E+00 -0.12014262764E+03  0.31941141752E+04  0.31918538677E+04 0.  0.
        2    1    3    3  502    0  0.34710357557E+03  0.75425501975E+03 -0.14239749390E+04  0.16483586242E+04  0.25500000920E-02 0.  1.
       -2    1    3    3    0  502 -0.34710357557E+03 -0.75425501975E+03  0.13038323114E+04  0.15457555509E+04  0.25500000920E-02 0. -1.
</event>
<event>
 5   0  0.2783875E-07  0.3197234E+04  0.7818609E-02  0.8189548E-01
        4   -1    0    0  501    0  0.00000000000E+00  0.00000000000E+00  0.20900885822E+04  0.20900889681E+04  0.12699999809E+01 0. -1.
       -4   -1    0    0    0  501  0.00000000000E+00  0.00000000000E+00 -0.12227112821E+04  0.12227119416E+04  0.12699999809E+01 0.  1.
    10030    2    1    2    0    0  0.00000000000E+00  0.00000000000E+00  0.86737730018E+03  0.33128009097E+04  0.31972341933E+04 0.  0.
        4    1    3    3  502    0 -0.11773857155E+04  0.86780402831E+03  0.11021866711E+04  0.18314305954E+04  0.12699999809E+01 0. -1.
       -4    1    3    3    0  502  0.11773857155E+04 -0.86780402831E+03 -0.23480937096E+03  0.14813703144E+04  0.12699999809E+01 0.  1.
</event>
<event>
 5   0  0.8838951E-07  0.3198710E+04  0.7818609E-02  0.8189158E-01
       -2   -1    0    0    0  501  0.00000000000E+00  0.00000000000E+00  0.14495813444E+04  0.14495813444E+04  0.25500000920E-02 0.  1.
        2   -1    0    0  501    0  0.00000000000E+00  0.00000000000E+00 -0.17646039802E+04  0.17646039802E+04  0.25500000920E-02 0. -1.
    10030    2    1    2    0    0  0.00000000000E+00  0.00000000000E+00 -0.31502263580E+03  0.32141853245E+04  0.31987103713E+04 0.  0.
        2    1    3    3  502    0 -0.65346464890E+03 -0.14555891714E+04 -0.46609229778E+02  0.15962231371E+04  0.25500000920E-02 0. -1.
       -2    1    3    3    0  502  0.65346464890E+03  0.14555891714E+04 -0.26841340602E+03  0.16179621874E+04  0.25500000920E-02 0.  1.
</event>
<event>
 5   0  0.3075756E-07  0.3198154E+04  0.7818609E-02  0.8189305E-01
        1   -1    0    0  501    0  0.00000000000E+00  0.00000000000E+00  0.93008806354E+03  0.93008806355E+03  0.50400001928E-02 0.  1.
       -1   -1    0    0    0  501  0.00000000000E+00  0.00000000000E+00 -0.27492536448E+04  0.27492536448E+04  0.50400001928E-02 0. -1.
    10030    2    1    2    0    0  0.00000000000E+00  0.00000000000E+00 -0.18191655813E+04  0.36793417084E+04  0.31981544670E+04 0.  0.
        5    1    3    3  502    0 -0.60278917752E+03 -0.79655500768E+03 -0.23461223658E+04  0.25499346889E+04  0.46999998093E+01 0. -1.
       -5    1    3    3    0  502  0.60278917752E+03  0.79655500768E+03  0.52695678449E+03  0.11294070194E+04  0.46999998093E+01 0.  1.
</event>
<event>
 5   0  0.2891204E-07  0.3210719E+04  0.7818609E-02  0.8185992E-01
        1   -1    0    0  501    0  0.00000000000E+00  0.00000000000E+00  0.22331346844E+04  0.22331346844E+04  0.50400001928E-02 0. -1.
       -1   -1    0    0    0  501  0.00000000000E+00  0.00000000000E+00 -0.11540637511E+04  0.11540637511E+04  0.50400001928E-02 0.  1.
    10030    2    1    2    0    0  0.00000000000E+00  0.00000000000E+00  0.10790709333E+04  0.33871984354E+04  0.32107194150E+04 0.  0.
        4    1    3    3  502    0  0.14385710831E+04  0.30164165779E+03 -0.14147216403E+03  0.14766483795E+04  0.12699999809E+01 0.  1.
       -4    1    3    3    0  502 -0.14385710831E+04 -0.30164165779E+03  0.12205430974E+04  0.19105500559E+04  0.12699999809E+01 0. -1.
</event>
<event>
 5   0  0.2997105E-07  0.3197168E+04  0.7818609E-02  0.8189566E-01
       -1   -1    0    0    0  501  0.00000000000E+00  0.00000000000E+00  0.88285222923E+03  0.88285222925E+03  0.50400001928E-02 0. -1.
        1   -1    0    0  501    0  0.00000000000E+00  0.00000000000E+00 -0.28945621653E+04  0.28945621653E+04  0.50400001928E-02 0.  1.
    10030    2    1    2    0    0  0.00000000000E+00  0.00000000000E+00 -0.20117099361E+04  0.37774143946E+04  0.31971679095E+04 0.  0.
        3    1    3    3  502    0  0.22564112770E+03  0.10449599847E+04  0.39838441212E+03  0.11408617086E+04  0.10100000352E+00 0. -1.
       -3    1    3    3    0  502 -0.22564112770E+03 -0.10449599847E+04 -0.24100943482E+04  0.26365526859E+04  0.10100000352E+00 0.  1.
</event>
<event>
 5   0  0.3075756E-07  0.3167017E+04  0.7818609E-02  0.8197582E-01
        1   -1    0    0  501    0  0.00000000000E+00  0.00000000000E+00  0.24901925008E+04  0.24901925008E+04  0.50400001928E-02 0. -1.
       -1   -1    0    0    0  501  0.00000000000E+00  0.00000000000E+00 -0.10069502179E+04  0.10069502179E+04  0.50400001928E-02 0.  1.
    10030    2    1    2    0    0  0.00000000000E+00  0.00000000000E+00  0.14832422829E+04  0.34971427187E+04  0.31670174494E+04 0.  0.
        5    1    3    3  502    0  0.11729107461E+04 -0.87009527930E+03  0.65693309548E+02  0.14618902539E+04  0.46999998093E+01 0.  1.
       -5    1    3    3    0  502 -0.11729107461E+04  0.87009527930E+03  0.14175489734E+04  0.20352524648E+04  0.46999998093E+01 0. -1.
</event>
<event>
 5   0  0.8838951E-07  0.3190647E+04  0.7818609E-02  0.8191292E-01
       -2   -1    0    0    0  501  0.00000000000E+00  0.00000000000E+00  0.16543533520E+04  0.16543533520E+04  0.25500000920E-02 0.  1.
        2   -1    0    0  501    0  0.00000000000E+00  0.00000000000E+00 -0.15383995350E+04  0.15383995350E+04  0.25500000920E-02 0. -1.
    10030    2    1    2    0    0  0.00000000000E+00  0.00000000000E+00  0.11595381698E+03  0.31927528870E+04  0.31906465975E+04 0.  0.
        2    1    3    3  502    0  0.57127584115E+03  0.37516275186E+03 -0.13844854505E+04  0.15439893587E+04  0.25500000920E-02 0. -1.
       -2    1    3    3    0  502 -0.57127584115E+03 -0.37516275186E+03  0.15004392675E+04  0.16487635284E+04  0.25500000920E-02 0.  1.
</event>
<event>
 5   0  0.8838951E-07  0.3184828E+04  0.7818609E-02  0.8192836E-01
        2   -1    0    0  501    0  0.00000000000E+00  0.00000000000E+00  0.20137453013E+04  0.20137453013E+04  0.25500000920E-02 0. -1.
       -2   -1    0    0    0  501  0.00000000000E+00  0.00000000000E+00 -0.12592370705E+04  0.12592370705E+04  0.25500000920E-02 0.  1.
    10030    2    1    2    0    0  0.00000000000E+00  0.00000000000E+00  0.75450823078E+03  0.32729823719E+04  0.31848282428E+04 0.  0.
        2    1    3    3  502    0  0.10517383416E+04 -0.11122067894E+04 -0.73785056178E+02  0.15325148339E+04  0.25500000920E-02 0.  1.
       -2    1    3    3    0  502 -0.10517383416E+04  0.11122067894E+04  0.82829328696E+03  0.17404675380E+04  0.25500000920E-02 0. -1.
</event>
<event>
 5   0  0.2891204E-07  0.3211927E+04  0.7818609E-02  0.8185674E-01
        1   -1    0    0  501    0  0.00000000000E+00  0.00000000000E+00  0.19416318930E+04  0.19416318930E+04  0.50400001928E-02 0.  1.
       -1   -1    0    0    0  501  0.00000000000E+00  0.00000000000E+00 -0.13283250364E+04  0.13283250364E+04  0.50400001928E-02 0. -1.
    10030    2    1    2    0    0  0.00000000000E+00  0.00000000000E+00  0.61330685655E+03  0.32699569294E+04  0.32119266835E+04 0.  0.
        4    1    3    3  502    0 -0.10043115080E+04 -0.10376316247E+03  0.15780999343E+04  0.18734485353E+04  0.12699999809E+01 0.  1.
       -4    1    3    3    0  502  0.10043115080E+04  0.10376316247E+03 -0.96479307779E+03  0.13965083941E+04  0.12699999809E+01 0. -1.
</event>
<event>
 5   0  0.3013888E-07  0.3194557E+04  0.7818609E-02  0.8190256E-01
        1   -1    0    0  501    0  0.00000000000E+00  0.00000000000E+00  0.12660895372E+04  0.12660895372E+04  0.50400001928E-02 0.  1.
       -1   -1    0    0    0  501  0.00000000000E+00  0.00000000000E+00 -0.20151011520E+04  0.20151011520E+04  0.50400001928E-02 0. -1.
    10030    2    1    2    0    0  0.00000000000E+00  0.00000000000E+00 -0.74901161476E+03  0.32811906892E+04  0.31945569239E+04 0.  0.
        1    1    3    3  502    0  0.11084122979E+04 -0.79030284460E+03  0.48370256296E+03  0.14446884016E+04  0.50400001928E-02 0.  1.
       -1    1    3    3    0  502 -0.11084122979E+04  0.79030284460E+03 -0.12327141777E+04  0.18365022876E+04  0.50400001928E-02 0. -1.
</event>
<event>
 5   0  0.3013888E-07  0.3202245E+04  0.7818609E-02  0.8188224E-01
       -1   -1    0    0    0  501  0.00000000000E+00  0.00000000000E+00  0.12057416794E+04  0.12057416794E+04  0.50400001928E-02 0.  1.
        1   -1    0    0  501    0  0.00000000000E+00  0.00000000000E+00 -0.21261550423E+04  0.21261550423E+04  0.50400001928E-02 0. -1.
    10030    2    1    2    0    0  0.00000000000E+00  0.00000000000E+00 -0.92041336296E+03  0.33318967217E+04  0.32022453069E+04 0.  0.
        1    1    3    3  502    0  0.16844779887E+03 -0.34739261632E+03  0.11565844087E+04  0.12193210345E+04  0.50400001928E-02 0.  1.
       -1    1    3    3    0  502 -0.16844779887E+03  0.34739261632E+03 -0.20769977716E+04  0.21125756872E+04  0.50400001928E-02 0. -1.
</event>
<event>
 5   0  0.3075756E-07  0.3189446E+04  0.7818609E-02  0.8191610E-01
        1   -1    0    0  501    0  0.00000000000E+00  0.00000000000E+00  0.12223033161E+04  0.12223033161E+04  0.50400001928E-02 0. -1.
       -1   -1    0    0    0  501  0.00000000000E+00  0.00000000000E+00 -0.20806140352E+04  0.20806140353E+04  0.50400001928E-02 0.  1.
    10030    2    1    2    0    0  0.00000000000E+00  0.00000000000E+00 -0.85831071919E+03  0.33029173513E+04  0.31894459925E+04 0.  0.
        5    1    3    3  502    0  0.14566722874E+04 -0.57321749127E+03 -0.11394687482E+03  0.15695472039E+04  0.46999998093E+01 0. -1.
       -5    1    3    3    0  502 -0.14566722874E+04  0.57321749127E+03 -0.74436384437E+03  0.17333701474E+04  0.46999998093E+01 0.  1.
</event>
<event>
 5   0  0.8335929E-07  0.3170618E+04  0.7818609E-02  0.8196620E-01
       -2   -1    0    0    0  501  0.00000000000E+00  0.00000000000E+00  0.12493607143E+04  0.12493607143E+04  0.25500000920E-02 0.  1.
        2   -1    0    0  501    0  0.00000000000E+00  0.00000000000E+00 -0.20115925482E+04  0.20115925482E+04  0.25500000920E-02 0. -1.
    10030    2    1    2    0    0  0.00000000000E+00  0.00000000000E+00 -0.76223183393E+03  0.32609532626E+04  0.31706180489E+04 0.  0.
        4    1    3    3  502    0 -0.12836244971E+04  0.13028878964E+03  0.56628936444E+03  0.14090252927E+04  0.12699999809E+01 0.  1.
       -4    1    3    3    0  502  0.12836244971E+04 -0.13028878964E+03 -0.13285211984E+04  0.18519279699E+04  0.12699999809E+01 0. -1.
</event>
<event>
 5   0  0.8488469E-07  0.3188761E+04  0.7818609E-02  0.8191792E-01
       -2   -1    0    0    0  501  0.00000000000E+00  0.00000000000E+00  0.12605615035E+04  0.12605615035E+04  0.25500000920E-02 0. -1.
        2   -1    0    0  501    0  0.00000000000E+00  0.00000000000E+00 -0.20166005488E+04  0.20166005488E+04  0.25500000920E-02 0.  1.
    10030    2    1    2    0    0  0.00000000000E+00  0.00000000000E+00 -0.75603904529E+03  0.32771620524E+04  0.31887609003E+04 0.  0.
        3    1    3    3  502    0 -0.15913861489E+04  0.59887014511E+02 -0.45731204563E+03  0.16568737570E+04  0.10100000352E+00 0.  1.
       -3    1    3    3    0  502  0.15913861489E+04 -0.59887014511E+02 -0.29872699966E+03  0.16202882953E+04  0.10100000352E+00 0. -1.
</event>
<event>
 5   0  0.8195618E-07  0.3199908E+04  0.7818609E-02  0.8188842E-01
        2   -1    0    0  501    0  0.00000000000E+00  0.00000000000E+00  0.17100440191E+04  0.17100440191E+04  0.25500000920E-02 0. -1.
       -2   -1    0    0    0  501  0.00000000000E+00  0.00000000000E+00 -0.14969512290E+04  0.14969512290E+04  0.25500000920E-02 0.  1.
    10030    2    1    2    0    0  0.00000000000E+00  0.00000000000E+00  0.21309279014E+03  0.32069952481E+04  0.31999078087E+04 0.  0.
        1    1    3    3  502    0 -0.60209018963E+03  0.51987974655E+03  0.14978087251E+04  0.16959417809E+04  0.50400001928E-02 0. -1.
       -1    1    3    3    0  502  0.60209018963E+03 -0.51987974655E+03 -0.12847159349E+04  0.15110534672E+04  0.50400001928E-02 0.  1.
</event>
<event>
 5   0  0.8488469E-07  0.3199606E+04  0.7818609E-02  0.8188921E-01
        2   -1    0    0  501    0  0.00000000000E+00  0.00000000000E+00  0.12531622670E+04  0.12531622670E+04  0.25500000920E-02 0. -1.
       -2   -1    0    0    0  501  0.00000000000E+00  0.00000000000E+00 -0.20423284509E+04  0.20423284509E+04  0.25500000920E-02 0.  1.
    10030    2    1    2    0    0  0.00000000000E+00  0.00000000000E+00 -0.78916618385E+03  0.32954907179E+04  0.31996055704E+04 0.  0.
        3    1    3    3  502    0  0.53355782063E+03 -0.36611683339E+03  0.11123564105E+04  0.12868808328E+04  0.10100000352E+00 0. -1.
       -3    1    3    3    0  502 -0.53355782063E+03  0.36611683339E+03 -0.19015225943E+04  0.20086098851E+04  0.10100000352E+00 0.  1.
</event>
<event>
 5   0  0.8802800E-07  0.3184934E+04  0.7818609E-02  0.8192807E-01
        2   -1    0    0  501    0  0.00000000000E+00  0.00000000000E+00  0.10779735148E+04  0.10779735148E+04  0.25500000920E-02 0.  1.
       -2   -1    0    0    0  501  0.00000000000E+00  0.00000000000E+00 -0.23525174954E+04  0.23525174954E+04  0.25500000920E-02 0. -1.
    10030    2    1    2    0    0  0.00000000000E+00  0.00000000000E+00 -0.12745439806E+04  0.34304910103E+04  0.31849342557E+04 0.  0.
        5    1    3    3  502    0  0.59942434535E+03  0.39833336668E+03  0.89279717213E+03  0.11467728186E+04  0.46999998093E+01 0.  1.
       -5    1    3    3    0  502 -0.59942434535E+03 -0.39833336668E+03 -0.21673411527E+04  0.22837181917E+04  0.46999998093E+01 0. -1.
</event>
<event>
 5   0  0.8802800E-07  0.3188290E+04  0.7818609E-02  0.8191917E-01
       -2   -1    0    0    0  501  0.00000000000E+00  0.00000000000E+00  0.10500940579E+04  0.10500940579E+04  0.25500000920E-02 0.  1.
        2   -1    0    0  501    0  0.00000000000E+00  0.00000000000E+00 -0.24200671737E+04  0.24200671737E+04  0.25500000920E-02 0. -1.
    10030    2    1    2    0    0  0.00000000000E+00  0.00000000000E+00 -0.13699731158E+04  0.34701612316E+04  0.31882899233E+04 0.  0.
        5    1    3    3  502    0  0.14150748877E+04  0.38181081026E+03 -0.26147574785E+01  0.14656893803E+04  0.46999998093E+01 0. -1.
       -5    1    3    3    0  502 -0.14150748877E+04 -0.38181081026E+03 -0.13673583584E+04  0.20044718513E+04  0.46999998093E+01 0.  1.
</event>
<event>
 5   0  0.3013888E-07  0.3227603E+04  0.7818609E-02  0.8181565E-01
        1   -1    0    0  501    0  0.00000000000E+00  0.00000000000E+00  0.13802030802E+04  0.13802030802E+04  0.50400001928E-02 0.  1.
       -1   -1    0    0    0  501  0.00000000000E+00  0.00000000000E+00 -0.18869358212E+04  0.18869358212E+04  0.50400001928E-02 0. -1.
    10030    2    1    2    0    0  0.00000000000E+00  0.00000000000E+00 -0.50673274100E+03  0.32671389014E+04  0.32276025979E+04 0.  0.
        1    1    3    3  502    0  0.94827793742E+03 -0.83239743886E+03  0.76505822712E+03  0.14756119523E+04  0.50400001928E-02 0.  1.
       -1    1    3    3    0  502 -0.94827793742E+03  0.83239743886E+03 -0.12717909681E+04  0.17915269491E+04  0.50400001928E-02 0. -1.
</event>
<event>
 5   0  0.8195618E-07  0.3256159E+04  0.7818609E-02  0.8174141E-01
        2   -1    0    0  501    0  0.00000000000E+00  0.00000000000E+00  0.16667556246E+04  0.16667556246E+04  0.25500000920E-02 0. -1.
       -2   -1    0    0    0  501  0.00000000000E+00  0.00000000000E+00 -0.15903012337E+04  0.15903012337E+04  0.25500000920E-02 0.  1.
    10030    2    1    2    0    0  0.00000000000E+00  0.00000000000E+00  0.76454390909E+02  0.32570568583E+04  0.32561594101E+04 0.  0.
        1    1    3    3  502    0 -0.45732664994E+03 -0.13439428672E+04 -0.75905800055E+03  0.16098133877E+04  0.50400001928E-02 0.  1.
       -1    1    3    3    0  502  0.45732664994E+03  0.13439428672E+04  0.83551239145E+03  0.16472434706E+04  0.50400001928E-02 0. -1.
</event>
<event>
 5   0  0.2997105E-07  0.3150797E+04  0.7818609E-02  0.8201934E-01
       -1   -1    0    0    0  501  0.00000000000E+00  0.00000000000E+00  0.19119902579E+04  0.19119902579E+04  0.50400001928E-02 0.  1.
        1   -1    0    0  501    0  0.00000000000E+00  0.00000000000E+00 -0.12980610781E+04  0.12980610781E+04  0.50400001928E-02 0. -1.
    10030    2    1    2    0    0  0.00000000000E+00  0.00000000000E+00  0.61392917980E+03  0.32100513361E+04  0.31507968107E+04 0.  0.
        3    1    3    3  502    0  0.55194482333E+03 -0.16419768822E+03  0.18009236633E+04  0.18907485343E+04  0.10100000352E+00 0.  1.
       -3    1    3    3    0  502 -0.55194482333E+03  0.16419768822E+03 -0.11869944835E+04  0.13193028018E+04  0.10100000352E+00 0. -1.
</event>
<event>
 5   0  0.2783875E-07  0.3182897E+04  0.7818609E-02  0.8193349E-01
       -1   -1    0    0    0  501  0.00000000000E+00  0.00000000000E+00  0.20727368147E+04  0.20727368147E+04  0.50400001928E-02 0.  1.
        1   -1    0    0  501    0  0.00000000000E+00  0.00000000000E+00 -0.12219150422E+04  0.12219150422E+04  0.50400001928E-02 0. -1.
    10030    2    1    2    0    0  0.00000000000E+00  0.00000000000E+00  0.85082177254E+03  0.32946518569E+04  0.31828969775E+04 0.  0.
        2    1    3    3  502    0  0.98219407063E+03 -0.63184642620E+03  0.15444675280E+04  0.19363148101E+04  0.25500000920E-02 0.  1.
       -2    1    3    3    0  502 -0.98219407063E+03  0.63184642620E+03 -0.69364575545E+03  0.13583370468E+04  0.25500000920E-02 0. -1.
</event>
<event>
 5   0  0.2891204E-07  0.3143949E+04  0.7818609E-02  0.8203779E-01
       -1   -1    0    0    0  501  0.00000000000E+00  0.00000000000E+00  0.11803247115E+04  0.11803247115E+04  0.50400001928E-02 0. -1.
        1   -1    0    0  501    0  0.00000000000E+00  0.00000000000E+00 -0.20935796363E+04  0.20935796363E+04  0.50400001928E-02 0.  1.
    10030    2    1    2    0    0  0.00000000000E+00  0.00000000000E+00 -0.91325492486E+03  0.32739043478E+04  0.31439489692E+04 0.  0.
        4    1    3    3  502    0  0.32179504892E+03 -0.11991013015E+04  0.54744107351E+03  0.13568674683E+04  0.12699999809E+01 0. -1.
       -4    1    3    3    0  502 -0.32179504892E+03  0.11991013015E+04 -0.14606959984E+04  0.19170368795E+04  0.12699999809E+01 0.  1.
</event>
<event>
 5   0  0.8335929E-07  0.3193652E+04  0.7818609E-02  0.8190496E-01
        2   -1    0    0  501    0  0.00000000000E+00  0.00000000000E+00  0.17323164087E+04  0.17323164087E+04  0.25500000920E-02 0.  1.
       -2   -1    0    0    0  501  0.00000000000E+00  0.00000000000E+00 -0.14719332109E+04  0.14719332109E+04  0.25500000920E-02 0. -1.
    10030    2    1    2    0    0  0.00000000000E+00  0.00000000000E+00  0.26038319784E+03  0.32042496196E+04  0.31936524881E+04 0.  0.
        4    1    3    3  502    0  0.12961820927E+04  0.33775034961E+03  0.10023799264E+04  0.16730004321E+04  0.12699999809E+01 0.  1.
       -4    1    3    3    0  502 -0.12961820927E+04 -0.33775034961E+03 -0.74199672851E+03  0.15312491875E+04  0.12699999809E+01 0. -1.
</event>
<event>
 5   0  0.3075756E-07  0.3194687E+04  0.7818609E-02  0.8190222E-01
       -1   -1    0    0    0  501  0.00000000000E+00  0.00000000000E+00  0.18011451811E+04  0.18011451811E+04  0.50400001928E-02 0.  1.
        1   -1    0    0  501    0  0.00000000000E+00  0.00000000000E+00 -0.14166023020E+04  0.14166023020E+04  0.50400001928E-02 0. -1.
    10030    2    1    2    0    0  0.00000000000E+00  0.00000000000E+00  0.38454287903E+03  0.32177474831E+04  0.31946870956E+04 0.  0.
        5    1    3    3  502    0 -0.12130276622E+04 -0.74528555147E+03 -0.53724789274E+03  0.15216911811E+04  0.46999998093E+01 0. -1.
       -5    1    3    3    0  502  0.12130276622E+04  0.74528555147E+03  0.92179077177E+03  0.16960563020E+04  0.46999998093E+01 0.  1.
</event>
<event>
 5   0  0.3075756E-07  0.3139932E+04  0.7818609E-02  0.8204864E-01
       -1   -1    0    0    0  501  0.00000000000E+00  0.00000000000E+00  0.19492994631E+04  0.19492994631E+04  0.50400001928E-02 0. -1.
        1   -1    0    0  501    0  0.00000000000E+00  0.00000000000E+00 -0.12644509056E+04  0.12644509056E+04  0.50400001928E-02 0.  1.
    10030    2    1    2    0    0  0.00000000000E+00  0.00000000000E+00  0.68484855745E+03  0.32137503687E+04  0.31399321467E+04 0.  0.
        5    1    3    3  502    0  0.14678368768E+03 -0.50913661636E+03  0.18550057414E+04  0.19292055193E+04  0.46999998093E+01 0. -1.
       -5    1    3    3    0  502 -0.14678368768E+03  0.50913661636E+03 -0.11701571839E+04  0.12845448494E+04  0.46999998093E+01 0.  1.
</event>
<event>
 5   0  0.3075756E-07  0.3201709E+04  0.7818609E-02  0.8188366E-01
       -1   -1    0    0    0  501  0.00000000000E+00  0.00000000000E+00  0.21067163674E+04  0.21067163674E+04  0.50400001928E-02 0.  1.
        1   -1    0    0  501    0  0.00000000000E+00  0.00000000000E+00 -0.12164598217E+04  0.12164598218E+04  0.50400001928E-02 0. -1.
    10030    2    1    2    0    0  0.00000000000E+00  0.00000000000E+00  0.89025654563E+03  0.33231761891E+04  0.32017094289E+04 0.  0.
        5    1    3    3  502    0 -0.20892268602E+03 -0.14852098633E+04 -0.13576173668E+03  0.15059715687E+04  0.46999998093E+01 0. -1.
       -5    1    3    3    0  502  0.20892268602E+03  0.14852098633E+04  0.10260182823E+04  0.18172046204E+04  0.46999998093E+01 0.  1.
</event>
<event>
 5   0  0.8802800E-07  0.3194954E+04  0.7818609E-02  0.8190151E-01
       -2   -1    0    0    0  501  0.00000000000E+00  0.00000000000E+00  0.18166235067E+04  0.18166235067E+04  0.25500000920E-02 0.  1.
        2   -1    0    0  501    0  0.00000000000E+00  0.00000000000E+00 -0.14047669808E+04  0.14047669808E+04  0.25500000920E-02 0. -1.
    10030    2    1    2    0    0  0.00000000000E+00  0.00000000000E+00  0.41185652591E+03  0.32213904876E+04  0.31949539708E+04 0.  0.
        5    1    3    3  502    0 -0.10673062625E+04 -0.11646095082E+04  0.44549194979E+03  0.16413235914E+04  0.46999998093E+01 0. -1.
       -5    1    3    3    0  502  0.10673062625E+04  0.11646095082E+04 -0.33635423877E+02  0.15800668961E+04  0.46999998093E+01 0.  1.
</event>
<event>
 5   0  0.8195618E-07  0.3181088E+04  0.7818609E-02  0.8193830E-01
        2   -1    0    0  501    0  0.00000000000E+00  0.00000000000E+00  0.15493282479E+04  0.15493282479E+04  0.25500000920E-02 0. -1.
       -2   -1    0    0    0  501  0.00000000000E+00  0.00000000000E+00 -0.16328559370E+04  0.16328559370E+04  0.25500000920E-02 0.  1.
    10030    2    1    2    0    0  0.00000000000E+00  0.00000000000E+00 -0.83527689080E+02  0.31821841849E+04  0.31810877560E+04 0.  0.
        1    1    3    3  502    0  0.31259443494E+03  0.94571132570E+03 -0.12822495761E+04  0.16236530319E+04  0.50400001928E-02 0.  1.
       -1    1    3    3    0  502 -0.31259443494E+03 -0.94571132570E+03  0.11987218871E+04  0.15585311530E+04  0.50400001928E-02 0. -1.
</event>
<event>
 5   0  0.2783875E-07  0.3200204E+04  0.7818609E-02  0.8188763E-01
        1   -1    0    0  501    0  0.00000000000E+00  0.00000000000E+00  0.23212862920E+04  0.23212862920E+04  0.50400001928E-02 0. -1.
       -1   -1    0    0    0  501  0.00000000000E+00  0.00000000000E+00 -0.11029771308E+04  0.11029771308E+04  0.50400001928E-02 0.  1.
    10030    2    1    2    0    0  0.00000000000E+00  0.00000000000E+00  0.12183091612E+04  0.34242634228E+04  0.32002035524E+04 0.  0.
        2    1    3    3  502    0  0.28212719464E+01 -0.84817190232E+03  0.20609562000E+04  0.22286641725E+04  0.25500000920E-02 0. -1.
       -2    1    3    3    0  502 -0.28212719464E+01  0.84817190232E+03 -0.84264703880E+03  0.11955992504E+04  0.25500000920E-02 0.  1.
</event>
<event>
 5   0  0.8802800E-07  0.3203168E+04  0.7818609E-02  0.8187981E-01
       -2   -1    0    0    0  501  0.00000000000E+00  0.00000000000E+00  0.80563452829E+03  0.80563452830E+03  0.25500000920E-02 0.  1.
        2   -1    0    0  501    0  0.00000000000E+00  0.00000000000E+00 -0.31839150127E+04  0.31839150127E+04  0.25500000920E-02 0. -1.
    10030    2    1    2    0    0  0.00000000000E+00  0.00000000000E+00 -0.23782804845E+04  0.39895495410E+04  0.32031683499E+04 0.  0.
        5    1    3    3  502    0  0.69424409662E+03  0.13901149801E+04 -0.70570729957E+03  0.17065870638E+04  0.46999998093E+01 0.  1.
       -5    1    3    3    0  502 -0.69424409662E+03 -0.13901149801E+04 -0.16725731849E+04  0.22829624772E+04  0.46999998093E+01 0. -1.
</event>
<event>
 5   0  0.8195618E-07  0.3196780E+04  0.7818609E-02  0.8189668E-01
        2   -1    0    0  501    0  0.00000000000E+00  0.00000000000E+00  0.23092469609E+04  0.23092469609E+04  0.25500000920E-02 0. -1.
       -2   -1    0    0    0  501  0.00000000000E+00  0.00000000000E+00 -0.11063567783E+04  0.11063567783E+04  0.25500000920E-02 0.  1.
    10030    2    1    2    0    0  0.00000000000E+00  0.00000000000E+00  0.12028901826E+04  0.34156037392E+04  0.31967802726E+04 0.  0.
        1    1    3    3  502    0  0.66477702891E+03  0.36491534219E+03 -0.90190764419E+03  0.11783586482E+04  0.50400001928E-02 0.  1.
       -1    1    3    3    0  502 -0.66477702891E+03 -0.36491534219E+03  0.21047978268E+04  0.22372450910E+04  0.50400001928E-02 0. -1.
</event>
<event>
 5   0  0.8195618E-07  0.3186381E+04  0.7818609E-02  0.8192423E-01
       -2   -1    0    0    0  501  0.00000000000E+00  0.00000000000E+00  0.15529846065E+04  0.15529846065E+04  0.25500000920E-02 0.  1.
        2   -1    0    0  501    0  0.00000000000E+00  0.00000000000E+00 -0.16344372595E+04  0.16344372595E+04  0.25500000920E-02 0. -1.
    10030    2    1    2    0    0  0.00000000000E+00  0.00000000000E+00 -0.81452653067E+02  0.31874218660E+04  0.31863809592E+04 0.  0.
        1    1    3    3  502    0  0.37882128515E+03 -0.45919528507E+03  0.14375554802E+04  0.15559343285E+04  0.50400001928E-02 0.  1.
       -1    1    3    3    0  502 -0.37882128515E+03  0.45919528507E+03 -0.15190081333E+04  0.16314875375E+04  0.50400001928E-02 0. -1.
</event>
<event>
 5   0  0.8488469E-07  0.3184984E+04  0.7818609E-02  0.8192794E-01
        2   -1    0    0  501    0  0.00000000000E+00  0.00000000000E+00  0.21292494468E+04  0.21292494469E+04  0.25500000920E-02 0.  1.
       -2   -1    0    0    0  501  0.00000000000E+00  0.00000000000E+00 -0.11910446772E+04  0.11910446772E+04  0.25500000920E-02 0. -1.
    10030    2    1    2    0    0  0.00000000000E+00  0.00000000000E+00  0.93820476964E+03  0.33202941241E+04  0.31849842826E+04 0.  0.
        3    1    3    3  502    0  0.13237315605E+04 -0.81943690023E+03  0.11977058108E+03  0.15614375043E+04  0.10100000352E+00 0. -1.
       -3    1    3    3    0  502 -0.13237315605E+04  0.81943690023E+03  0.81843418856E+03  0.17588566197E+04  0.10100000352E+00 0.  1.
</event>
<event>
 5   0  0.2891204E-07  0.3204580E+04  0.7818609E-02  0.8187609E-01
       -1   -1    0    0    0  501  0.00000000000E+00  0.00000000000E+00  0.13536455196E+04  0.13536455196E+04  0.50400001928E-02 0. -1.
        1   -1    0    0  501    0  0.00000000000E+00  0.00000000000E+00 -0.18966069987E+04  0.18966069987E+04  0.50400001928E-02 0.  1.
    10030    2    1    2    0    0  0.00000000000E+00  0.00000000000E+00 -0.54296147907E+03  0.32502525183E+04  0.32045802011E+04 0.  0.
        4    1    3    3  502    0  0.15217529147E+04 -0.49173755819E+03 -0.17110464165E+03  0.16083582221E+04  0.12699999809E+01 0.  1.
       -4    1    3    3    0  502 -0.15217529147E+04  0.49173755819E+03 -0.37185683742E+03  0.16418942962E+04  0.12699999809E+01 0. -1.
</event>
<event>
 5   0  0.2891204E-07  0.3241451E+04  0.7818609E-02  0.8177955E-01
        1   -1    0    0  501    0  0.00000000000E+00  0.00000000000E+00  0.20297238786E+04  0.20297238786E+04  0.50400001928E-02 0.  1.
       -1   -1    0    0    0  501  0.00000000000E+00  0.00000000000E+00 -0.12941418438E+04  0.12941418438E+04  0.50400001928E-02 0. -1.
    10030    2    1    2    0    0  0.00000000000E+00  0.00000000000E+00  0.73558203474E+03  0.33238657224E+04  0.32414506646E+04 0.  0.
        4    1    3    3  502    0  0.13832700161E+04 -0.74288321919E+03 -0.44217664500E+02  0.15707540321E+04  0.12699999809E+01 0. -1.
       -4    1    3    3    0  502 -0.13832700161E+04  0.74288321919E+03  0.77979969924E+03  0.17531116903E+04  0.12699999809E+01 0.  1.
</event>
<event>
 5   0  0.3013888E-07  0.3205665E+04  0.7818609E-02  0.8187323E-01
        1   -1    0    0  501    0  0.00000000000E+00  0.00000000000E+00  0.18218186693E+04  0.18218186693E+04  0.50400001928E-02 0. -1.
       -1   -1    0    0    0  501  0.00000000000E+00  0.00000000000E+00 -0.14101692974E+04  0.14101692974E+04  0.50400001928E-02 0.  1.
    10030    2    1    2    0    0  0.00000000000E+00  0.00000000000E+00  0.41164937186E+03  0.32319879667E+04  0.32056654554E+04 0.  0.
        1    1    3    3  502    0 -0.17943330338E+01 -0.11229172957E+04 -0.94730027547E+03  0.14691236451E+04  0.50400001928E-02 0.  1.
       -1    1    3    3    0  502  0.17943330338E+01  0.11229172957E+04  0.13589496473E+04  0.17628643217E+04  0.50400001928E-02 0. -1.
</event>
<event>
 5   0  0.8802800E-07  0.3211599E+04  0.7818609E-02  0.8185761E-01
       -2   -1    0    0    0  501  0.00000000000E+00  0.00000000000E+00  0.96367602828E+03  0.96367602829E+03  0.25500000920E-02 0.  1.
        2   -1    0    0  501    0  0.00000000000E+00  0.00000000000E+00 -0.26757873640E+04  0.26757873640E+04  0.25500000920E-02 0. -1.
    10030    2    1    2    0    0  0.00000000000E+00  0.00000000000E+00 -0.17121113357E+04  0.36394633923E+04  0.32115990656E+04 0.  0.
        5    1    3    3  502    0 -0.28785638689E+03 -0.98029628242E+03  0.54782997778E+03  0.11593023227E+04  0.46999998093E+01 0.  1.
       -5    1    3    3    0  502  0.28785638689E+03  0.98029628242E+03 -0.22599413135E+04  0.24801610696E+04  0.46999998093E+01 0. -1.
</event>
<event>
 5   0  0.3013888E-07  0.3209430E+04  0.7818609E-02  0.8186331E-01
        1   -1    0    0  501    0  0.00000000000E+00  0.00000000000E+00  0.21937726322E+04  0.21937726322E+04  0.50400001928E-02 0. -1.
       -1   -1    0    0    0  501  0.00000000000E+00  0.00000000000E+00 -0.11738271400E+04  0.11738271400E+04  0.50400001928E-02 0.  1.
    10030    2    1    2    0    0  0.00000000000E+00  0.00000000000E+00  0.10199454921E+04  0.33675997722E+04  0.32094297654E+04 0.  0.
        1    1    3    3  502    0  0.80105295439E+03 -0.35035316550E+03 -0.90195687458E+03  0.12561685317E+04  0.50400001928E-02 0.  1.
       -1    1    3    3    0  502 -0.80105295439E+03  0.35035316550E+03  0.19219023667E+04  0.21114312405E+04  0.50400001928E-02 0. -1.
</event>
<event>
 5   0  0.8802800E-07  0.3200941E+04  0.7818609E-02  0.8188569E-01
        2   -1    0    0  501    0  0.00000000000E+00  0.00000000000E+00  0.17100006412E+04  0.17100006412E+04  0.25500000920E-02 0. -1.
       -2   -1    0    0    0  501  0.00000000000E+00  0.00000000000E+00 -0.14979558452E+04  0.14979558452E+04  0.25500000920E-02 0.  1.
    10030    2    1    2    0    0  0.00000000000E+00  0.00000000000E+00  0.21204479597E+03  0.32079564865E+04  0.32009407716E+04 0.  0.
        5    1    3    3  502    0 -0.11009673020E+04  0.84275146947E+03 -0.69518233204E+03  0.15510188922E+04  0.46999998093E+01 0.  1.
       -5    1    3    3    0  502  0.11009673020E+04 -0.84275146947E+03  0.90722712801E+03  0.16569375942E+04  0.46999998093E+01 0. -1.
</event>
<event>
 5   0  0.8195618E-07  0.3185843E+04  0.7818609E-02  0.8192566E-01
       -2   -1    0    0    0  501  0.00000000000E+00  0.00000000000E+00  0.12835964216E+04  0.12835964216E+04  0.25500000920E-02 0. -1.
        2   -1    0    0  501    0  0.00000000000E+00  0.00000000000E+00 -0.19767883598E+04  0.19767883598E+04  0.25500000920E-02 0.  1.
    10030    2    1    2    0    0  0.00000000000E+00  0.00000000000E+00 -0.69319193815E+03  0.32603847814E+04  0.31858427237E+04 0.  0.
        1    1    3    3  502    0 -0.88397935772E+03  0.13248984658E+04 -0.32105167154E+03  0.16247614056E+04  0.50400001928E-02 0. -1.
       -1    1    3    3    0  502  0.88397935772E+03 -0.13248984658E+04 -0.37214026661E+03  0.16356233758E+04  0.50400001928E-02 0.  1.
</event>
<event>
 5   0  0.8335929E-07  0.3186664E+04  0.7818609E-02  0.8192348E-01
       -2   -1    0    0    0  501  0.00000000000E+00  0.00000000000E+00  0.11890782072E+04  0.11890782072E+04  0.25500000920E-02 0. -1.
        2   -1    0    0  501    0  0.00000000000E+00  0.00000000000E+00 -0.21350212665E+04  0.21350212665E+04  0.25500000920E-02 0.  1.
    10030    2    1    2    0    0  0.00000000000E+00  0.00000000000E+00 -0.94594305926E+03  0.33240994736E+04  0.31866642495E+04 0.  0.
        4    1    3    3  502    0 -0.68445055147E+03 -0.13401449212E+04  0.73297789111E+02  0.15065972076E+04  0.12699999809E+01 0. -1.
       -4    1    3    3    0  502  0.68445055147E+03  0.13401449212E+04 -0.10192408484E+04  0.18175022660E+04  0.12699999809E+01 0.  1.
</event>
<event>
 5   0  0.8802800E-07  0.3185654E+04  0.7818609E-02  0.8192616E-01
       -2   -1    0    0    0  501  0.00000000000E+00  0.00000000000E+00  0.10934100310E+04  0.10934100310E+04  0.25500000920E-02 0.  1.
        2   -1    0    0  501    0  0.00000000000E+00  0.00000000000E+00 -0.23203532070E+04  0.23203532070E+04  0.25500000920E-02 0. -1.
    10030    2    1    2    0    0  0.00000000000E+00  0.00000000000E+00 -0.12269431760E+04  0.34137632380E+04  0.31856537615E+04 0.  0.
        5    1    3    3  502    0  0.11800001683E+04  0.10138602054E+04 -0.24729846851E+03  0.15752750667E+04  0.46999998093E+01 0.  1.
       -5    1    3    3    0  502 -0.11800001683E+04 -0.10138602054E+04 -0.97964470744E+03  0.18384881713E+04  0.46999998093E+01 0. -1.
</event>
<event>
 5   0  0.2891204E-07  0.3204551E+04  0.7818609E-02  0.8187616E-01
        1   -1    0    0  501    0  0.00000000000E+00  0.00000000000E+00  0.18955118501E+04  0.18955118501E+04  0.50400001928E-02 0.  1.
       -1   -1    0    0    0  501  0.00000000000E+00  0.00000000000E+00 -0.13544027217E+04  0.13544027217E+04  0.50400001928E-02 0. -1.
    10030    2    1    2    0    0  0.00000000000E+00  0.00000000000E+00  0.54110912843E+03  0.32499145717E+04  0.32045507696E+04 0.  0.
        4    1    3    3  502    0 -0.68125095580E+03  0.84916023787E+02  0.17387958911E+04  0.18694187224E+04  0.12699999809E+01 0.  1.
       -4    1    3    3    0  502  0.68125095580E+03 -0.84916023787E+02 -0.11976867626E+04  0.13804958494E+04  0.12699999809E+01 0. -1.
</event>
<event>
 5   0  0.8195618E-07  0.3198496E+04  0.7818609E-02  0.8189215E-01
        2   -1    0    0  501    0  0.00000000000E+00  0.00000000000E+00  0.23464798840E+04  0.23464798840E+04  0.25500000920E-02 0.  1.
       -2   -1    0    0    0  501  0.00000000000E+00  0.00000000000E+00 -0.10899703858E+04  0.10899703858E+04  0.25500000920E-02 0. -1.
    10030    2    1    2    0    0  0.00000000000E+00  0.00000000000E+00  0.12565094982E+04  0.34364502698E+04  0.31984956367E+04 0.  0.
        1    1    3    3  502    0  0.14593448547E+04 -0.57411530616E+03  0.29140503100E+03  0.15950588333E+04  0.50400001928E-02 0. -1.
       -1    1    3    3    0  502 -0.14593448547E+04  0.57411530616E+03  0.96510446724E+03  0.18413914365E+04  0.50400001928E-02 0.  1.
</event>
<event>
 5   0  0.2891204E-07  0.3199944E+04  0.7818609E-02  0.8188832E-01
        1   -1    0    0  501    0  0.00000000000E+00  0.00000000000E+00  0.14577315865E+04  0.14577315865E+04  0.50400001928E-02 0. -1.
       -1   -1    0    0    0  501  0.00000000000E+00  0.00000000000E+00 -0.17560915061E+04  0.17560915061E+04  0.50400001928E-02 0.  1.
    10030    2    1    2    0    0  0.00000000000E+00  0.00000000000E+00 -0.29835991957E+03  0.32138230926E+04  0.31999437853E+04 0.  0.
        4    1    3    3  502    0 -0.12124616385E+04  0.62631176484E+03 -0.98801439899E+03  0.16847859559E+04  0.12699999809E+01 0. -1.
       -4    1    3    3    0  502  0.12124616385E+04 -0.62631176484E+03  0.68965447942E+03  0.15290371367E+04  0.12699999809E+01 0.  1.
</event>
<event>
 5   0  0.2783875E-07  0.3210576E+04  0.7818609E-02  0.8186030E-01
       -1   -1    0    0    0  501  0.00000000000E+00  0.00000000000E+00  0.10595951448E+04  0.10595951448E+04  0.50400001928E-02 0.  1.
        1   -1    0    0  501    0  0.00000000000E+00  0.00000000000E+00 -0.24320134745E+04  0.24320134745E+04  0.50400001928E-02 0. -1.
    10030    2    1    2    0    0  0.00000000000E+00  0.00000000000E+00 -0.13724183297E+04  0.34916086193E+04  0.32105760665E+04 0.  0.
        2    1    3    3  502    0  0.78895071975E+03 -0.10206733648E+04 -0.17252061951E+04  0.21541944599E+04  0.25500000920E-02 0. -1.
       -2    1    3    3    0  502 -0.78895071975E+03  0.10206733648E+04  0.35278786537E+03  0.13374141594E+04  0.25500000920E-02 0.  1.
</event>
<event>
 5   0  0.2783875E-07  0.3216661E+04  0.7818609E-02  0.8184431E-01
        1   -1    0    0  501    0  0.00000000000E+00  0.00000000000E+00  0.21004175045E+04  0.21004175045E+04  0.50400001928E-02 0. -1.
       -1   -1    0    0    0  501  0.00000000000E+00  0.00000000000E+00 -0.12315301694E+04  0.12315301694E+04  0.50400001928E-02 0.  1.
    10030    2    1    2    0    0  0.00000000000E+00  0.00000000000E+00  0.86888733508E+03  0.33319476738E+04  0.32166613282E+04 0.  0.
        2    1    3    3  502    0 -0.13810693808E+04  0.80096013390E+03  0.23295273291E+03  0.16134301182E+04  0.25500000920E-02 0.  1.
       -2    1    3    3    0  502  0.13810693808E+04 -0.80096013390E+03  0.63593460217E+03  0.17185175556E+04  0.25500000920E-02 0. -1.
</event>
<event>
 5   0  0.3013888E-07  0.3194062E+04  0.7818609E-02  0.8190387E-01
        1   -1    0    0  501    0  0.00000000000E+00  0.00000000000E+00  0.27120791726E+04  0.27120791726E+04  0.50400001928E-02 0. -1.
       -1   -1    0    0    0  501  0.00000000000E+00  0.00000000000E+00 -0.94042564300E+03  0.94042564302E+03  0.50400001928E-02 0.  1.
    10030    2    1    2    0    0  0.00000000000E+00  0.00000000000E+00  0.17716535296E+04  0.36525048156E+04  0.31940624914E+04 0.  0.
        1    1    3    3  502    0  0.14440279948E+04 -0.23546287103E+03  0.16179082562E+04  0.21813497516E+04  0.50400001928E-02 0. -1.
       -1    1    3    3    0  502 -0.14440279948E+04  0.23546287103E+03  0.15374527340E+03  0.14711550640E+04  0.50400001928E-02 0.  1.
</event>
<event>
 5   0  0.2891204E-07  0.3202351E+04  0.7818609E-02  0.8188197E-01
       -1   -1    0    0    0  501  0.00000000000E+00  0.00000000000E+00  0.89222101790E+03  0.89222101792E+03  0.50400001928E-02 0. -1.
        1   -1    0    0  501    0  0.00000000000E+00  0.00000000000E+00 -0.28734611543E+04  0.28734611543E+04  0.50400001928E-02 0.  1.
    10030    2    1    2    0    0  0.00000000000E+00  0.00000000000E+00 -0.19812401364E+04  0.37656821722E+04  0.32023506591E+04 0.  0.
        4    1    3    3  502    0 -0.94492793248E+03  0.89360742666E+03  0.10767016259E+03  0.13049971293E+04  0.12699999809E+01 0. -1.
       -4    1    3    3    0  502  0.94492793248E+03 -0.89360742666E+03 -0.20889102990E+04  0.24606850430E+04  0.12699999809E+01 0.  1.
</event>
<event>
 5   0  0.8335929E-07  0.3204516E+04  0.7818609E-02  0.8187626E-01
        2   -1    0    0  501    0  0.00000000000E+00  0.00000000000E+00  0.22694404048E+04  0.22694404048E+04  0.25500000920E-02 0.  1.
       -2   -1    0    0    0  501  0.00000000000E+00  0.00000000000E+00 -0.11312175474E+04  0.11312175474E+04  0.25500000920E-02 0. -1.
    10030    2    1    2    0    0  0.00000000000E+00  0.00000000000E+00  0.11382228573E+04  0.34006579522E+04  0.32045160688E+04 0.  0.
        4    1    3    3  502    0 -0.89220787061E+03 -0.13206569453E+04  0.39454499618E+03  0.16419004289E+04  0.12699999809E+01 0. -1.
       -4    1    3    3    0  502  0.89220787061E+03  0.13206569453E+04  0.74367786117E+03  0.17587575233E+04  0.12699999809E+01 0.  1.
</event>
<event>
 5   0  0.8335929E-07  0.3236928E+04  0.7818609E-02  0.8179132E-01
        2   -1    0    0  501    0  0.00000000000E+00  0.00000000000E+00  0.20726810226E+04  0.20726810226E+04  0.25500000920E-02 0.  1.
       -2   -1    0    0    0  501  0.00000000000E+00  0.00000000000E+00 -0.12637862525E+04  0.12637862526E+04  0.25500000920E-02 0. -1.
    10030    2    1    2    0    0  0.00000000000E+00  0.00000000000E+00  0.80889477001E+03  0.33364672751E+04  0.32369280389E+04 0.  0.
        4    1    3    3  502    0 -0.96356591869E+03  0.94034081504E+03  0.13302455694E+04  0.18926846055E+04  0.12699999809E+01 0. -1.
       -4    1    3    3    0  502  0.96356591869E+03 -0.94034081504E+03 -0.52135079940E+03  0.14437826696E+04  0.12699999809E+01 0.  1.
</event>
<event>
 5   0  0.3075756E-07  0.3145730E+04  0.7818609E-02  0.8203299E-01
       -1   -1    0    0    0  501  0.00000000000E+00  0.00000000000E+00  0.14965056535E+04  0.14965056535E+04  0.50400001928E-02 0.  1.
        1   -1    0    0  501    0  0.00000000000E+00  0.00000000000E+00 -0.16531203661E+04  0.16531203661E+04  0.50400001928E-02 0. -1.
    10030    2    1    2    0    0  0.00000000000E+00  0.00000000000E+00 -0.15661471263E+03  0.31496260197E+04  0.31457297874E+04 0.  0.
        5    1    3    3  502    0 -0.39973228416E+03  0.13191114201E+04 -0.83690073639E+03  0.16125339594E+04  0.46999998093E+01 0. -1.
       -5    1    3    3    0  502  0.39973228416E+03 -0.13191114201E+04  0.68028602376E+03  0.15370920603E+04  0.46999998093E+01 0.  1.
</event>
<event>
 5   0  0.8838951E-07  0.3213635E+04  0.7818609E-02  0.8185225E-01
       -2   -1    0    0    0  501  0.00000000000E+00  0.00000000000E+00  0.12216577395E+04  0.12216577395E+04  0.25500000920E-02 0. -1.
        2   -1    0    0  501    0  0.00000000000E+00  0.00000000000E+00 -0.21134090037E+04  0.21134090037E+04  0.25500000920E-02 0.  1.
    10030    2    1    2    0    0  0.00000000000E+00  0.00000000000E+00 -0.89175126412E+03  0.33350667432E+04  0.32136349924E+04 0.  0.
        2    1    3    3  502    0 -0.75897184443E+03 -0.43778219328E+03 -0.18436822329E+04  0.20412877517E+04  0.25500000920E-02 0.  1.
       -2    1    3    3    0  502  0.75897184443E+03  0.43778219328E+03  0.95193096880E+03  0.12937789915E+04  0.25500000920E-02 0. -1.
</event>
<event>
 5   0  0.3075756E-07  0.3086879E+04  0.7818609E-02  0.8219348E-01
       -1   -1    0    0    0  501  0.00000000000E+00  0.00000000000E+00  0.14449798945E+04  0.14449798945E+04  0.50400001928E-02 0.  1.
        1   -1    0    0  501    0  0.00000000000E+00  0.00000000000E+00 -0.16486083887E+04  0.16486083888E+04  0.50400001928E-02 0. -1.
    10030    2    1    2    0    0  0.00000000000E+00  0.00000000000E+00 -0.20362849425E+03  0.30935882833E+04  0.30868793146E+04 0.  0.
        5    1    3    3  502    0 -0.75949530219E+03  0.29522011752E+02  0.12444143339E+04  0.14581816717E+04  0.46999998093E+01 0.  1.
       -5    1    3    3    0  502  0.75949530219E+03 -0.29522011752E+02 -0.14480428281E+04  0.16354066116E+04  0.46999998093E+01 0. -1.
</event>
<event>
 5   0  0.8195618E-07  0.3196089E+04  0.7818609E-02  0.8189851E-01
       -2   -1    0    0    0  501  0.00000000000E+00  0.00000000000E+00  0.12583038494E+04  0.12583038494E+04  0.25500000920E-02 0. -1.
        2   -1    0    0  501    0  0.00000000000E+00  0.00000000000E+00 -0.20295150133E+04  0.20295150133E+04  0.25500000920E-02 0.  1.
    10030    2    1    2    0    0  0.00000000000E+00  0.00000000000E+00 -0.77121116390E+03  0.32878188627E+04  0.31960892063E+04 0.  0.
        1    1    3    3  502    0 -0.19489601513E+03 -0.15035900318E+04 -0.90505264309E+03  0.17657541525E+04  0.50400001928E-02 0.  1.
       -1    1    3    3    0  502  0.19489601513E+03  0.15035900318E+04  0.13384147919E+03  0.15220647102E+04  0.50400001928E-02 0. -1.
</event>
<event>
 5   0  0.8335929E-07  0.3190094E+04  0.7818609E-02  0.8191438E-01
       -2   -1    0    0    0  501  0.00000000000E+00  0.00000000000E+00  0.17597681939E+04  0.17597681939E+04  0.25500000920E-02 0.  1.
        2   -1    0    0  501    0  0.00000000000E+00  0.00000000000E+00 -0.14457447070E+04  0.14457447071E+04  0.25500000920E-02 0. -1.
    10030    2    1    2    0    0  0.00000000000E+00  0.00000000000E+00  0.31402348685E+03  0.32055129010E+04  0.31900943886E+04 0.  0.
        4    1    3    3  502    0  0.11827426711E+04  0.28447648219E+03  0.11936796761E+04  0.17043121419E+04  0.12699999809E+01 0.  1.
       -4    1    3    3    0  502 -0.11827426711E+04 -0.28447648219E+03 -0.87965618927E+03  0.15012007591E+04  0.12699999809E+01 0. -1.
</event>
<event>
 5   0  0.2997105E-07  0.3221128E+04  0.7818609E-02  0.8183259E-01
        1   -1    0    0  501    0  0.00000000000E+00  0.00000000000E+00  0.27528210687E+04  0.27528210687E+04  0.50400001928E-02 0. -1.
       -1   -1    0    0    0  501  0.00000000000E+00  0.00000000000E+00 -0.94227579621E+03  0.94227579622E+03  0.50400001928E-02 0.  1.
    10030    2    1    2    0    0  0.00000000000E+00  0.00000000000E+00  0.18105452725E+04  0.36950968649E+04  0.32211281653E+04 0.  0.
        3    1    3    3  502    0 -0.55280646361E+03  0.13838052125E+04  0.20428917469E+03  0.15040764373E+04  0.10100000352E+00 0.  1.
       -3    1    3    3    0  502  0.55280646361E+03 -0.13838052125E+04  0.16062560978E+04  0.21910204276E+04  0.10100000352E+00 0. -1.
</event>
<event>
 5   0  0.8335929E-07  0.3174244E+04  0.7818609E-02  0.8195653E-01
        2   -1    0    0  501    0  0.00000000000E+00  0.00000000000E+00  0.20433897940E+04  0.20433897940E+04  0.25500000920E-02 0.  1.
       -2   -1    0    0    0  501  0.00000000000E+00  0.00000000000E+00 -0.12327341674E+04  0.12327341674E+04  0.25500000920E-02 0. -1.
    10030    2    1    2    0    0  0.00000000000E+00  0.00000000000E+00  0.81065562656E+03  0.32761239615E+04  0.31742441094E+04 0.  0.
        4    1    3    3  502    0 -0.84867235131E+03  0.34365894120E+03 -0.93266349282E+03  0.13069847097E+04  0.12699999809E+01 0. -1.
       -4    1    3    3    0  502  0.84867235131E+03 -0.34365894120E+03  0.17433191194E+04  0.19691392517E+04  0.12699999809E+01 0.  1.
</event>
<event>
 5   0  0.8802800E-07  0.3170125E+04  0.7818609E-02  0.8196752E-01
        2   -1    0    0  501    0  0.00000000000E+00  0.00000000000E+00  0.31418296331E+04  0.31418296331E+04  0.25500000920E-02 0.  1.
       -2   -1    0    0    0  501  0.00000000000E+00  0.00000000000E+00 -0.79966862204E+03  0.79966862205E+03  0.25500000920E-02 0. -1.
    10030    2    1    2    0    0  0.00000000000E+00  0.00000000000E+00  0.23421610110E+04  0.39414982551E+04  0.31701246495E+04 0.  0.
        5    1    3    3  502    0  0.10976596906E+04 -0.10591161373E+04  0.17070343185E+04  0.22892295742E+04  0.46999998093E+01 0.  1.
       -5    1    3    3    0  502 -0.10976596906E+04  0.10591161373E+04  0.63512669247E+03  0.16522686809E+04  0.46999998093E+01 0. -1.
</event>
<event>
 5   0  0.8195618E-07  0.3203646E+04  0.7818609E-02  0.8187855E-01
       -2   -1    0    0    0  501  0.00000000000E+00  0.00000000000E+00  0.14909821206E+04  0.14909821206E+04  0.25500000920E-02 0. -1.
        2   -1    0    0  501    0  0.00000000000E+00  0.00000000000E+00 -0.17209039559E+04  0.17209039559E+04  0.25500000920E-02 0.  1.
    10030    2    1    2    0    0  0.00000000000E+00  0.00000000000E+00 -0.22992183539E+03  0.32118860765E+04  0.32036460663E+04 0.  0.
        1    1    3    3  502    0  0.36684812422E+02 -0.95693604468E+03 -0.14023058803E+04  0.16980972148E+04  0.50400001928E-02 0.  1.
       -1    1    3    3    0  502 -0.36684812422E+02  0.95693604468E+03  0.11723840449E+04  0.15137888617E+04  0.50400001928E-02 0. -1.
</event>
<event>
 5   0  0.2891204E-07  0.3200239E+04  0.7818609E-02  0.8188754E-01
       -1   -1    0    0    0  501  0.00000000000E+00  0.00000000000E+00  0.12613863631E+04  0.12613863631E+04  0.50400001928E-02 0.  1.
        1   -1    0    0  501    0  0.00000000000E+00  0.00000000000E+00 -0.20298167465E+04  0.20298167465E+04  0.50400001928E-02 0. -1.
    10030    2    1    2    0    0  0.00000000000E+00  0.00000000000E+00 -0.76843038339E+03  0.32912031096E+04  0.32002394683E+04 0.  0.
        4    1    3    3  502    0  0.70216705749E+03 -0.80103280950E+03 -0.16121764631E+04  0.19323060574E+04  0.12699999809E+01 0. -1.
       -4    1    3    3    0  502 -0.70216705749E+03  0.80103280950E+03  0.84374607970E+03  0.13588970522E+04  0.12699999809E+01 0.  1.
</event>
<event>
 5   0  0.8195618E-07  0.3202580E+04  0.7818609E-02  0.8188136E-01
       -2   -1    0    0    0  501  0.00000000000E+00  0.00000000000E+00  0.15190404552E+04  0.15190404552E+04  0.25500000920E-02 0.  1.
        2   -1    0    0  501    0  0.00000000000E+00  0.00000000000E+00 -0.16879933274E+04  0.16879933274E+04  0.25500000920E-02 0. -1.
    10030    2    1    2    0    0  0.00000000000E+00  0.00000000000E+00 -0.16895287222E+03  0.32070337826E+04  0.32025803050E+04 0.  0.
        1    1    3    3  502    0 -0.54350061012E+02 -0.15134538639E+04 -0.60542444643E+03  0.16309614611E+04  0.50400001928E-02 0. -1.
       -1    1    3    3    0  502  0.54350061012E+02  0.15134538639E+04  0.43647157421E+03  0.15760723215E+04  0.50400001928E-02 0.  1.
</event>
<event>
 5   0  0.2783875E-07  0.3188812E+04  0.7818609E-02  0.8191778E-01
       -1   -1    0    0    0  501  0.00000000000E+00  0.00000000000E+00  0.23417710222E+04  0.23417710222E+04  0.50400001928E-02 0. -1.
        1   -1    0    0  501    0  0.00000000000E+00  0.00000000000E+00 -0.10855588160E+04  0.10855588160E+04  0.50400001928E-02 0.  1.
    10030    2    1    2    0    0  0.00000000000E+00  0.00000000000E+00  0.12562122062E+04  0.34273298382E+04  0.31888118027E+04 0.  0.
        2    1    3    3  502    0  0.12803344639E+04  0.68126222575E+03 -0.83825641986E+02  0.14527220305E+04  0.25500000920E-02 0.  1.
       -2    1    3    3    0  502 -0.12803344639E+04 -0.68126222575E+03  0.13400378482E+04  0.19746078077E+04  0.25500000920E-02 0. -1.
</event>
<event>
 5   0  0.8488469E-07  0.3225460E+04  0.7818609E-02  0.8182126E-01
       -2   -1    0    0    0  501  0.00000000000E+00  0.00000000000E+00  0.12051192806E+04  0.12051192806E+04  0.25500000920E-02 0. -1.
        2   -1    0    0  501    0  0.00000000000E+00  0.00000000000E+00 -0.21582075611E+04  0.21582075611E+04  0.25500000920E-02 0.  1.
    10030    2    1    2    0    0  0.00000000000E+00  0.00000000000E+00 -0.95308828049E+03  0.33633268416E+04  0.32254596840E+04 0.  0.
        3    1    3    3  502    0 -0.47746146853E+03  0.14339010484E+04 -0.10635039008E+04  0.18479941092E+04  0.10100000352E+00 0.  1.
       -3    1    3    3    0  502  0.47746146853E+03 -0.14339010484E+04  0.11041562028E+03  0.15153327324E+04  0.10100000352E+00 0. -1.
</event>
<event>
 5   0  0.2891204E-07  0.3199885E+04  0.7818609E-02  0.8188848E-01
        1   -1    0    0  501    0  0.00000000000E+00  0.00000000000E+00  0.18435911564E+04  0.18435911565E+04  0.50400001928E-02 0.  1.
       -1   -1    0    0    0  501  0.00000000000E+00  0.00000000000E+00 -0.13884944585E+04  0.13884944585E+04  0.50400001928E-02 0. -1.
    10030    2    1    2    0    0  0.00000000000E+00  0.00000000000E+00  0.45509669799E+03  0.32320856149E+04  0.31998850632E+04 0.  0.
        4    1    3    3  502    0  0.10501075518E+04 -0.89875841803E+03 -0.58636563762E+03  0.15014389226E+04  0.12699999809E+01 0. -1.
       -4    1    3    3    0  502 -0.10501075518E+04  0.89875841803E+03  0.10414623356E+04  0.17306466923E+04  0.12699999809E+01 0.  1.
</event>
<event>
 5   0  0.2891204E-07  0.3229206E+04  0.7818609E-02  0.8181146E-01
        1   -1    0    0  501    0  0.00000000000E+00  0.00000000000E+00  0.11520087581E+04  0.11520087581E+04  0.50400001928E-02 0.  1.
       -1   -1    0    0    0  501  0.00000000000E+00  0.00000000000E+00 -0.22629542611E+04  0.22629542611E+04  0.50400001928E-02 0. -1.
    10030    2    1    2    0    0  0.00000000000E+00  0.00000000000E+00 -0.11109455029E+04  0.34149630192E+04  0.32292061736E+04 0.  0.
        4    1    3    3  502    0 -0.71909011201E+03 -0.16954594890E+03 -0.20737122981E+04  0.22013906346E+04  0.12699999809E+01 0. -1.
       -4    1    3    3    0  502  0.71909011201E+03  0.16954594890E+03  0.96276679512E+03  0.12135723846E+04  0.12699999809E+01 0.  1.
</event>
<event>
 5   0  0.8195618E-07  0.3200626E+04  0.7818609E-02  0.8188652E-01
        2   -1    0    0  501    0  0.00000000000E+00  0.00000000000E+00  0.17477238112E+04  0.17477238112E+04  0.25500000920E-02 0. -1.
       -2   -1    0    0    0  501  0.00000000000E+00  0.00000000000E+00 -0.14653350663E+04  0.14653350663E+04  0.25500000920E-02 0.  1.
    10030    2    1    2    0    0  0.00000000000E+00  0.00000000000E+00  0.28238874496E+03  0.32130588775E+04  0.32006255556E+04 0.  0.
        1    1    3    3  502    0 -0.84750125626E+02 -0.75779829877E+03 -0.12712396349E+04  0.14823936909E+04  0.50400001928E-02 0.  1.
       -1    1    3    3    0  502  0.84750125626E+02  0.75779829877E+03  0.15536283799E+04  0.17306651866E+04  0.50400001928E-02 0. -1.
</event>
<event>
 5   0  0.8335929E-07  0.3217873E+04  0.7818609E-02  0.8184113E-01
        2   -1    0    0  501    0  0.00000000000E+00  0.00000000000E+00  0.25679872749E+04  0.25679872749E+04  0.25500000920E-02 0.  1.
       -2   -1    0    0    0  501  0.00000000000E+00  0.00000000000E+00 -0.10080564552E+04  0.10080564552E+04  0.25500000920E-02 0. -1.
    10030    2    1    2    0    0  0.00000000000E+00  0.00000000000E+00  0.15599308197E+04  0.35760437301E+04  0.32178726820E+04 0.  0.
        4    1    3    3  502    0 -0.10298169917E+04  0.17791723945E+03 -0.57951164826E+03  0.11949949555E+04  0.12699999809E+01 0. -1.
       -4    1    3    3    0  502  0.10298169917E+04 -0.17791723945E+03  0.21394424679E+04  0.23810487746E+04  0.12699999809E+01 0.  1.
</event>
<event>
 5   0  0.3075756E-07  0.3044167E+04  0.7818609E-02  0.8231230E-01
        1   -1    0    0  501    0  0.00000000000E+00  0.00000000000E+00  0.15369732011E+04  0.15369732011E+04  0.50400001928E-02 0.  1.
       -1   -1    0    0    0  501  0.00000000000E+00  0.00000000000E+00 -0.15073384514E+04  0.15073384514E+04  0.50400001928E-02 0. -1.
    10030    2    1    2    0    0  0.00000000000E+00  0.00000000000E+00  0.29634749711E+02  0.30443116525E+04  0.30441674099E+04 0.  0.
        5    1    3    3  502    0  0.12848729168E+04  0.67935459496E+03 -0.43719479051E+03  0.15177557290E+04  0.46999998093E+01 0.  1.
       -5    1    3    3    0  502 -0.12848729168E+04 -0.67935459496E+03  0.46682954022E+03  0.15265559235E+04  0.46999998093E+01 0. -1.
</event>
<event>
 5   0  0.8195618E-07  0.3210710E+04  0.7818609E-02  0.8185994E-01
        2   -1    0    0  501    0  0.00000000000E+00  0.00000000000E+00  0.15910634661E+04  0.15910634661E+04  0.25500000920E-02 0.  1.
       -2   -1    0    0    0  501  0.00000000000E+00  0.00000000000E+00 -0.16197745957E+04  0.16197745957E+04  0.25500000920E-02 0. -1.
    10030    2    1    2    0    0  0.00000000000E+00  0.00000000000E+00 -0.28711129650E+02  0.32108380618E+04  0.32107096926E+04 0.  0.
        1    1    3    3  502    0 -0.84237772697E+03  0.46191024734E+03 -0.13005651702E+04  0.16169202434E+04  0.50400001928E-02 0. -1.
       -1    1    3    3    0  502  0.84237772697E+03 -0.46191024734E+03  0.12718540405E+04  0.15939178184E+04  0.50400001928E-02 0.  1.
</event>
<event>
 5   0  0.8488469E-07  0.3195860E+04  0.7818609E-02  0.8189911E-01
       -2   -1    0    0    0  501  0.00000000000E+00  0.00000000000E+00  0.11754805291E+04  0.11754805291E+04  0.25500000920E-02 0.  1.
        2   -1    0    0  501    0  0.00000000000E+00  0.00000000000E+00 -0.21722014042E+04  0.21722014042E+04  0.25500000920E-02 0. -1.
    10030    2    1    2    0    0  0.00000000000E+00  0.00000000000E+00 -0.99672087503E+03  0.33476819333E+04  0.31958601071E+04 0.  0.
        3    1    3    3  502    0  0.13310682497E+04 -0.80650393775E+03 -0.11895338307E+03  0.15608783439E+04  0.10100000352E+00 0.  1.
       -3    1    3    3    0  502 -0.13310682497E+04  0.80650393775E+03 -0.87776749196E+03  0.17868035894E+04  0.10100000352E+00 0. -1.
</event>
<event>
 5   0  0.3013888E-07  0.3186652E+04  0.7818609E-02  0.8192351E-01
       -1   -1    0    0    0  501  0.00000000000E+00  0.00000000000E+00  0.26496690812E+04  0.26496690812E+04  0.50400001928E-02 0.  1.
        1   -1    0    0  501    0  0.00000000000E+00  0.00000000000E+00 -0.95811520890E+03  0.95811520891E+03  0.50400001928E-02 0. -1.
    10030    2    1    2    0    0  0.00000000000E+00  0.00000000000E+00  0.16915538723E+04  0.36077842902E+04  0.31866523157E+04 0.  0.
        1    1    3    3  502    0  0.25280668401E+02 -0.15903112347E+04  0.73861435620E+03  0.17536476563E+04  0.50400001928E-02 0.  1.
       -1    1    3    3    0  502 -0.25280668401E+02  0.15903112347E+04  0.95293951615E+03  0.18541366338E+04  0.50400001928E-02 0. -1.
</event>
<event>
 5   0  0.2891204E-07  0.3236279E+04  0.7818609E-02  0.8179301E-01
        1   -1    0    0  501    0  0.00000000000E+00  0.00000000000E+00  0.26225345554E+04  0.26225345555E+04  0.50400001928E-02 0. -1.
       -1   -1    0    0    0  501  0.00000000000E+00  0.00000000000E+00 -0.99841431489E+03  0.99841431490E+03  0.50400001928E-02 0.  1.
    10030    2    1    2    0    0  0.00000000000E+00  0.00000000000E+00  0.16241202406E+04  0.36209488704E+04  0.32362793708E+04 0.  0.
        4    1    3    3  502    0 -0.68539433700E+03  0.12475713450E+04  0.16730565245E+04  0.21966609673E+04  0.12699999809E+01 0. -1.
       -4    1    3    3    0  502  0.68539433700E+03 -0.12475713450E+04 -0.48936283994E+02  0.14242879031E+04  0.12699999809E+01 0.  1.
</event>
<event>
 5   0  0.2997105E-07  0.3189568E+04  0.7818609E-02  0.8191578E-01
       -1   -1    0    0    0  501  0.00000000000E+00  0.00000000000E+00  0.16567326625E+04  0.16567326625E+04  0.50400001928E-02 0.  1.
        1   -1    0    0  501    0  0.00000000000E+00  0.00000000000E+00 -0.15351515044E+04  0.15351515044E+04  0.50400001928E-02 0. -1.
    10030    2    1    2    0    0  0.00000000000E+00  0.00000000000E+00  0.12158115809E+03  0.31918841668E+04  0.31895677696E+04 0.  0.
        3    1    3    3  502    0  0.11811167982E+04  0.34111181052E+02 -0.10110312182E+04  0.15551156221E+04  0.10100000352E+00 0. -1.
       -3    1    3    3    0  502 -0.11811167982E+04 -0.34111181052E+02  0.11326123763E+04  0.16367685447E+04  0.10100000352E+00 0.  1.
</event>
<event>
 5   0  0.3075756E-07  0.3211468E+04  0.7818609E-02  0.8185795E-01
        1   -1    0    0  501    0  0.00000000000E+00  0.00000000000E+00  0.10721776400E+04  0.10721776400E+04  0.50400001928E-02 0. -1.
       -1   -1    0    0    0  501  0.00000000000E+00  0.00000000000E+00 -0.24048088969E+04  0.24048088969E+04  0.50400001928E-02 0.  1.
    10030    2    1    2    0    0  0.00000000000E+00  0.00000000000E+00 -0.13326312569E+04  0.34769865369E+04  0.32114684042E+04 0.  0.
        5    1    3    3  502    0 -0.59053678359E+03 -0.12304002518E+04 -0.15822777948E+04  0.20895558337E+04  0.46999998093E+01 0.  1.
       -5    1    3    3    0  502  0.59053678359E+03  0.12304002518E+04  0.24964653791E+03  0.13874307032E+04  0.46999998093E+01 0. -1.
</event>
<event>
 5   0  0.2997105E-07  0.3205396E+04  0.7818609E-02  0.8187394E-01
       -1   -1    0    0    0  501  0.00000000000E+00  0.00000000000E+00  0.14398319881E+04  0.14398319881E+04  0.50400001928E-02 0. -1.
        1   -1    0    0  501    0  0.00000000000E+00  0.00000000000E+00 -0.17839860081E+04  0.17839860081E+04  0.50400001928E-02 0.  1.
    10030    2    1    2    0    0  0.00000000000E+00  0.00000000000E+00 -0.34415402004E+03  0.32238179962E+04  0.32053955268E+04 0.  0.
        3    1    3    3  502    0  0.77994090051E+03  0.11750582341E+04  0.59359364986E+03  0.15301709360E+04  0.10100000352E+00 0. -1.
       -3    1    3    3    0  502 -0.77994090051E+03 -0.11750582341E+04 -0.93774766990E+03  0.16936470602E+04  0.10100000352E+00 0.  1.
</event>
<event>
 5   0  0.8335929E-07  0.3184708E+04  0.7818609E-02  0.8192868E-01
       -2   -1    0    0    0  501  0.00000000000E+00  0.00000000000E+00  0.13165528541E+04  0.13165528541E+04  0.25500000920E-02 0.  1.
        2   -1    0    0  501    0  0.00000000000E+00  0.00000000000E+00 -0.19259315091E+04  0.19259315091E+04  0.25500000920E-02 0. -1.
    10030    2    1    2    0    0  0.00000000000E+00  0.00000000000E+00 -0.60937865507E+03  0.32424843632E+04  0.31847076004E+04 0.  0.
        4    1    3    3  502    0 -0.74538226341E+03  0.15189758429E+03 -0.17289681579E+04  0.18889150586E+04  0.12699999809E+01 0. -1.
       -4    1    3    3    0  502  0.74538226341E+03 -0.15189758429E+03  0.11195895028E+04  0.13535693046E+04  0.12699999809E+01 0.  1.
</event>
<event>
 5   0  0.8195618E-07  0.3130252E+04  0.7818609E-02  0.8207484E-01
        2   -1    0    0  501    0  0.00000000000E+00  0.00000000000E+00  0.14782132861E+04  0.14782132861E+04  0.25500000920E-02 0. -1.
       -2   -1    0    0    0  501  0.00000000000E+00  0.00000000000E+00 -0.16571483949E+04  0.16571483949E+04  0.25500000920E-02 0.  1.
    10030    2    1    2    0    0  0.00000000000E+00  0.00000000000E+00 -0.17893510879E+03  0.31353616810E+04  0.31302516029E+04 0.  0.
        1    1    3    3  502    0 -0.65477760989E+02 -0.15545461480E+04 -0.25920720708E+03  0.15773678834E+04  0.50400001928E-02 0.  1.
       -1    1    3    3    0  502  0.65477760989E+02  0.15545461480E+04  0.80272098295E+02  0.15579937976E+04  0.50400001928E-02 0. -1.
</event>
<event>
 5   0  0.2783875E-07  0.3197099E+04  0.7818609E-02  0.8189584E-01
       -1   -1    0    0    0  501  0.00000000000E+00  0.00000000000E+00  0.12082975026E+04  0.12082975026E+04  0.50400001928E-02 0.  1.
        1   -1    0    0  501    0  0.00000000000E+00  0.00000000000E+00 -0.21148436574E+04  0.21148436574E+04  0.50400001928E-02 0. -1.
    10030    2    1    2    0    0  0.00000000000E+00  0.00000000000E+00 -0.90654615480E+03  0.33231411600E+04  0.31970988785E+04 0.  0.
        2    1    3    3  502    0 -0.47896303578E+03  0.17594501100E+02 -0.20384014766E+04  0.20939903859E+04  0.25500000920E-02 0. -1.
       -2    1    3    3    0  502  0.47896303578E+03 -0.17594501100E+02  0.11318553218E+04  0.12291507742E+04  0.25500000920E-02 0.  1.
</event>
<event>
 5   0  0.8802800E-07  0.3192425E+04  0.7818609E-02  0.8190821E-01
        2   -1    0    0  501    0  0.00000000000E+00  0.00000000000E+00  0.32022788788E+04  0.32022788788E+04  0.25500000920E-02 0. -1.
       -2   -1    0    0    0  501  0.00000000000E+00  0.00000000000E+00 -0.79565019009E+03  0.79565019009E+03  0.25500000920E-02 0.  1.
    10030    2    1    2    0    0  0.00000000000E+00  0.00000000000E+00  0.24066286887E+04  0.39979290689E+04  0.31924246576E+04 0.  0.
        5    1    3    3  502    0 -0.62197714370E+03 -0.13007501385E+04  0.34562296788E+03  0.14826610590E+04  0.46999998093E+01 0.  1.
       -5    1    3    3    0  502  0.62197714370E+03  0.13007501385E+04  0.20610057208E+04  0.25152680098E+04  0.46999998093E+01 0. -1.
</event>
<event>
 5   0  0.2783875E-07  0.3206314E+04  0.7818609E-02  0.8187152E-01
        1   -1    0    0  501    0  0.00000000000E+00  0.00000000000E+00  0.17915670472E+04  0.17915670472E+04  0.50400001928E-02 0. -1.
       -1   -1    0    0    0  501  0.00000000000E+00  0.00000000000E+00 -0.14345607781E+04  0.14345607781E+04  0.50400001928E-02 0.  1.
    10030    2    1    2    0    0  0.00000000000E+00  0.00000000000E+00  0.35700626913E+03  0.32261278254E+04  0.32063136573E+04 0.  0.
        2    1    3    3  502    0  0.79354484796E+03  0.75975638038E+03 -0.99626013243E+03  0.14830635302E+04  0.25500000920E-02 0.  1.
       -2    1    3    3    0  502 -0.79354484796E+03 -0.75975638038E+03  0.13532664016E+04  0.17430642951E+04  0.25500000920E-02 0. -1.
</event>
<event>
 5   0  0.8838951E-07  0.3192221E+04  0.7818609E-02  0.8190875E-01
        2   -1    0    0  501    0  0.00000000000E+00  0.00000000000E+00  0.96839247640E+03  0.96839247640E+03  0.25500000920E-02 0. -1.
       -2   -1    0    0    0  501  0.00000000000E+00  0.00000000000E+00 -0.26307191725E+04  0.26307191725E+04  0.25500000920E-02 0.  1.
    10030    2    1    2    0    0  0.00000000000E+00  0.00000000000E+00 -0.16623266961E+04  0.35991116489E+04  0.31922209536E+04 0.  0.
        2    1    3    3  502    0 -0.21792311032E+03 -0.27212196694E+03  0.92494077474E+03  0.98846157420E+03  0.25500000920E-02 0. -1.
       -2    1    3    3    0  502  0.21792311032E+03  0.27212196694E+03 -0.25872674708E+04  0.26106500747E+04  0.25500000920E-02 0.  1.
</event>
<event>
 5   0  0.8488469E-07  0.3201113E+04  0.7818609E-02  0.8188523E-01
        2   -1    0    0  501    0  0.00000000000E+00  0.00000000000E+00  0.20441243556E+04  0.20441243556E+04  0.25500000920E-02 0. -1.
       -2   -1    0    0    0  501  0.00000000000E+00  0.00000000000E+00 -0.12532410445E+04  0.12532410445E+04  0.25500000920E-02 0.  1.
    10030    2    1    2    0    0  0.00000000000E+00  0.00000000000E+00  0.79088331116E+03  0.32973654001E+04  0.32011126456E+04 0.  0.
        3    1    3    3  502    0  0.12262128563E+04  0.10187429205E+04  0.24851536802E+03  0.16134419746E+04  0.10100000352E+00 0. -1.
       -3    1    3    3    0  502 -0.12262128563E+04 -0.10187429205E+04  0.54236794313E+03  0.16839234255E+04  0.10100000352E+00 0.  1.
</event>
<event>
 5   0  0.8195618E-07  0.3189256E+04  0.7818609E-02  0.8191660E-01
       -2   -1    0    0    0  501  0.00000000000E+00  0.00000000000E+00  0.13309485555E+04  0.13309485555E+04  0.25500000920E-02 0. -1.
        2   -1    0    0  501    0  0.00000000000E+00  0.00000000000E+00 -0.19105457721E+04  0.19105457721E+04  0.25500000920E-02 0.  1.
    10030    2    1    2    0    0  0.00000000000E+00  0.00000000000E+00 -0.57959721656E+03  0.32414943276E+04  0.31892557976E+04 0.  0.
        1    1    3    3  502    0 -0.51628341770E+03  0.45950474894E+03  0.11708010090E+04  0.13595838277E+04  0.50400001928E-02 0. -1.
       -1    1    3    3    0  502  0.51628341770E+03 -0.45950474894E+03 -0.17503982256E+04  0.18819105000E+04  0.50400001928E-02 0.  1.
</event>
<event>
 5   0  0.8335929E-07  0.3196387E+04  0.7818609E-02  0.8189772E-01
        2   -1    0    0  501    0  0.00000000000E+00  0.00000000000E+00  0.19478626854E+04  0.19478626854E+04  0.25500000920E-02 0.  1.
       -2   -1    0    0    0  501  0.00000000000E+00  0.00000000000E+00 -0.13112948748E+04  0.13112948748E+04  0.25500000920E-02 0. -1.
    10030    2    1    2    0    0  0.00000000000E+00  0.00000000000E+00  0.63656781061E+03  0.32591575603E+04  0.31963869330E+04 0.  0.
        4    1    3    3  502    0 -0.54446191078E+03 -0.23831003328E+03 -0.11944239916E+04  0.13341217069E+04  0.12699999809E+01 0. -1.
       -4    1    3    3    0  502  0.54446191078E+03  0.23831003328E+03  0.18309918022E+04  0.19250358534E+04  0.12699999809E+01 0.  1.
</event>
<event>
 5   0  0.3075756E-07  0.3198348E+04  0.7818609E-02  0.8189254E-01
       -1   -1    0    0    0  501  0.00000000000E+00  0.00000000000E+00  0.14938155257E+04  0.14938155257E+04  0.50400001928E-02 0. -1.
        1   -1    0    0  501    0  0.00000000000E+00  0.00000000000E+00 -0.17119634020E+04  0.17119634020E+04  0.50400001928E-02 0.  1.
    10030    2    1    2    0    0  0.00000000000E+00  0.00000000000E+00 -0.21814787628E+03  0.32057789278E+04  0.31983480170E+04 0.  0.
        5    1    3    3  502    0  0.22793671926E+03  0.13427141930E+04  0.73102544500E+03  0.15457221107E+04  0.46999998093E+01 0.  1.
       -5    1    3    3    0  502 -0.22793671926E+03 -0.13427141930E+04 -0.94917332128E+03  0.16600568171E+04  0.46999998093E+01 0. -1.
</event>
<event>
 5   0  0.2891204E-07  0.3201954E+04  0.7818609E-02  0.8188301E-01
       -1   -1    0    0    0  501  0.00000000000E+00  0.00000000000E+00  0.17791834546E+04  0.17791834546E+04  0.50400001928E-02 0. -1.
        1   -1    0    0  501    0  0.00000000000E+00  0.00000000000E+00 -0.14406198611E+04  0.14406198611E+04  0.50400001928E-02 0.  1.
    10030    2    1    2    0    0  0.00000000000E+00  0.00000000000E+00  0.33856359344E+03  0.32198033157E+04  0.32019537918E+04 0.  0.
        4    1    3    3  502    0  0.96463117347E+03  0.79488949537E+03 -0.83667622774E+03  0.15041247733E+04  0.12699999809E+01 0.  1.
       -4    1    3    3    0  502 -0.96463117347E+03 -0.79488949537E+03  0.11752398212E+04  0.17156785424E+04  0.12699999809E+01 0. -1.
</event>
<event>
 5   0  0.3075756E-07  0.3193820E+04  0.7818609E-02  0.8190451E-01
        1   -1    0    0  501    0  0.00000000000E+00  0.00000000000E+00  0.27224896147E+04  0.27224896147E+04  0.50400001928E-02 0. -1.
       -1   -1    0    0    0  501  0.00000000000E+00  0.00000000000E+00 -0.93668726379E+03  0.93668726381E+03  0.50400001928E-02 0.  1.
    10030    2    1    2    0    0  0.00000000000E+00  0.00000000000E+00  0.17858023509E+04  0.36591768785E+04  0.31938198747E+04 0.  0.
        5    1    3    3  502    0 -0.61936419420E+03 -0.11231115259E+04  0.19828927138E+04  0.23615412572E+04  0.46999998093E+01 0. -1.
       -5    1    3    3    0  502  0.61936419420E+03  0.11231115259E+04 -0.19709036288E+03  0.12976356214E+04  0.46999998093E+01 0.  1.
</event>
<event>
 5   0  0.8488469E-07  0.3205973E+04  0.7818609E-02  0.8187241E-01
        2   -1    0    0  501    0  0.00000000000E+00  0.00000000000E+00  0.21197145320E+04  0.21197145320E+04  0.25500000920E-02 0. -1.
       -2   -1    0    0    0  501  0.00000000000E+00  0.00000000000E+00 -0.12122227342E+04  0.12122227342E+04  0.25500000920E-02 0.  1.
    10030    2    1    2    0    0  0.00000000000E+00  0.00000000000E+00  0.90749179783E+03  0.33319372662E+04  0.32059732661E+04 0.  0.
        3    1    3    3  502    0  0.44627303853E+03  0.61815328150E+02  0.20525601386E+04  0.21014242533E+04  0.10100000352E+00 0. -1.
       -3    1    3    3    0  502 -0.44627303853E+03 -0.61815328150E+02 -0.11450683407E+04  0.12305130129E+04  0.10100000352E+00 0.  1.
</event>
<event>
 5   0  0.8838951E-07  0.3252946E+04  0.7818609E-02  0.8174973E-01
        2   -1    0    0  501    0  0.00000000000E+00  0.00000000000E+00  0.20783928617E+04  0.20783928617E+04  0.25500000920E-02 0.  1.
       -2   -1    0    0    0  501  0.00000000000E+00  0.00000000000E+00 -0.12728174208E+04  0.12728174208E+04  0.25500000920E-02 0. -1.
    10030    2    1    2    0    0  0.00000000000E+00  0.00000000000E+00  0.80557544088E+03  0.33512102825E+04  0.32529461364E+04 0.  0.
        2    1    3    3  502    0 -0.12579719364E+04  0.70491036623E+03 -0.37228366406E+03  0.14892908191E+04  0.25500000920E-02 0.  1.
       -2    1    3    3    0  502  0.12579719364E+04 -0.70491036623E+03  0.11778591049E+04  0.18619194634E+04  0.25500000920E-02 0. -1.
</event>
<event>
 5   0  0.8802800E-07  0.3168998E+04  0.7818609E-02  0.8197053E-01
        2   -1    0    0  501    0  0.00000000000E+00  0.00000000000E+00  0.14496111614E+04  0.14496111614E+04  0.25500000920E-02 0. -1.
       -2   -1    0    0    0  501  0.00000000000E+00  0.00000000000E+00 -0.17319382179E+04  0.17319382179E+04  0.25500000920E-02 0.  1.
    10030    2    1    2    0    0  0.00000000000E+00  0.00000000000E+00 -0.28232705651E+03  0.31815493793E+04  0.31689979309E+04 0.  0.
        5    1    3    3  502    0  0.33237503619E+03  0.81634494475E+03 -0.14630876388E+04  0.17080807247E+04  0.46999998093E+01 0.  1.
       -5    1    3    3    0  502 -0.33237503619E+03 -0.81634494475E+03  0.11807605822E+04  0.14734686546E+04  0.46999998093E+01 0. -1.
</event>
<event>
 5   0  0.2891204E-07  0.3195454E+04  0.7818609E-02  0.8190019E-01
       -1   -1    0    0    0  501  0.00000000000E+00  0.00000000000E+00  0.11034138116E+04  0.11034138116E+04  0.50400001928E-02 0.  1.
        1   -1    0    0  501    0  0.00000000000E+00  0.00000000000E+00 -0.23134854747E+04  0.23134854747E+04  0.50400001928E-02 0. -1.
    10030    2    1    2    0    0  0.00000000000E+00  0.00000000000E+00 -0.12100716631E+04  0.34168992864E+04  0.31954541623E+04 0.  0.
        4    1    3    3  502    0  0.53416776370E+03  0.10583537181E+04  0.54030503124E+03  0.13028349596E+04  0.12699999809E+01 0. -1.
       -4    1    3    3    0  502 -0.53416776370E+03 -0.10583537181E+04 -0.17503766944E+04  0.21140643267E+04  0.12699999809E+01 0.  1.
</event>
<event>
 5   0  0.3013888E-07  0.3211513E+04  0.7818609E-02  0.8185783E-01
       -1   -1    0    0    0  501  0.00000000000E+00  0.00000000000E+00  0.15176307867E+04  0.15176307867E+04  0.50400001928E-02 0.  1.
        1   -1    0    0  501    0  0.00000000000E+00  0.00000000000E+00 -0.16989999144E+04  0.16989999144E+04  0.50400001928E-02 0. -1.
    10030    2    1    2    0    0  0.00000000000E+00  0.00000000000E+00 -0.18136912768E+03  0.32166307010E+04  0.32115133981E+04 0.  0.
        1    1    3    3  502    0  0.75075079358E+03 -0.14172323625E+04 -0.11310240010E+02  0.16038398439E+04  0.50400001928E-02 0.  1.
       -1    1    3    3    0  502 -0.75075079358E+03  0.14172323625E+04 -0.17005888767E+03  0.16127908571E+04  0.50400001928E-02 0. -1.
</event>
<event>
 5   0  0.8838951E-07  0.3209776E+04  0.7818609E-02  0.8186240E-01
       -2   -1    0    0    0  501  0.00000000000E+00  0.00000000000E+00  0.10286350216E+04  0.10286350216E+04  0.25500000920E-02 0.  1.
        2   -1    0    0  501    0  0.00000000000E+00  0.00000000000E+00 -0.25039641009E+04  0.25039641009E+04  0.25500000920E-02 0. -1.
    10030    2    1    2    0    0  0.00000000000E+00  0.00000000000E+00 -0.14753290793E+04  0.35325991225E+04  0.32097757972E+04 0.  0.
        2    1    3    3  502    0  0.39860915667E+03 -0.28615587255E+03  0.94405255432E+03  0.10639594299E+04  0.25500000920E-02 0.  1.
       -2    1    3    3    0  502 -0.39860915667E+03  0.28615587255E+03 -0.24193816336E+04  0.24686396926E+04  0.25500000920E-02 0. -1.
</event>
<event>
 5   0  0.2783875E-07  0.3186718E+04  0.7818609E-02  0.8192334E-01
       -3   -1    0    0    0  501  0.00000000000E+00  0.00000000000E+00  0.13780113084E+04  0.13780113121E+04  0.10100000352E+00 0. -1.
        3   -1    0    0  501    0  0.00000000000E+00  0.00000000000E+00 -0.18423604043E+04  0.18423604071E+04  0.10100000352E+00 0.  1.
    10030    2    1    2    0    0  0.00000000000E+00  0.00000000000E+00 -0.46434909591E+03  0.32203717191E+04  0.31867183632E+04 0.  0.
        5    1    3    3  502    0 -0.10970854247E+04 -0.74481921536E+03  0.66056818030E+03  0.14814602605E+04  0.46999998093E+01 0. -1.
       -5    1    3    3    0  502  0.10970854247E+04  0.74481921536E+03 -0.11249172762E+04  0.17389114586E+04  0.46999998093E+01 0.  1.
</event>
<event>
 5   0  0.2891204E-07  0.3200342E+04  0.7818609E-02  0.8188727E-01
        1   -1    0    0  501    0  0.00000000000E+00  0.00000000000E+00  0.20417856874E+04  0.20417856874E+04  0.50400001928E-02 0. -1.
       -1   -1    0    0    0  501  0.00000000000E+00  0.00000000000E+00 -0.12540726430E+04  0.12540726430E+04  0.50400001928E-02 0.  1.
    10030    2    1    2    0    0  0.00000000000E+00  0.00000000000E+00  0.78771304436E+03  0.32958583304E+04  0.32003422151E+04 0.  0.
        4    1    3    3  502    0  0.81556531494E+03  0.13640496176E+04  0.20183016840E+03  0.16020346975E+04  0.12699999809E+01 0. -1.
       -4    1    3    3    0  502 -0.81556531494E+03 -0.13640496176E+04  0.58588287596E+03  0.16938236329E+04  0.12699999809E+01 0.  1.
</event>
<event>
 5   0  0.8335929E-07  0.3207325E+04  0.7818609E-02  0.8186885E-01
        2   -1    0    0  501    0  0.00000000000E+00  0.00000000000E+00  0.91646884861E+03  0.91646884861E+03  0.25500000920E-02 0.  1.
       -2   -1    0    0    0  501  0.00000000000E+00  0.00000000000E+00 -0.28061335386E+04  0.28061335386E+04  0.25500000920E-02 0. -1.
    10030    2    1    2    0    0  0.00000000000E+00  0.00000000000E+00 -0.18896646900E+04  0.37226023872E+04  0.32073253487E+04 0.  0.
        4    1    3    3  502    0 -0.93802197434E+03  0.11915601777E+04 -0.15501916411E+04  0.21685932350E+04  0.12699999809E+01 0. -1.
       -4    1    3    3    0  502  0.93802197434E+03 -0.11915601777E+04 -0.33947304885E+03  0.15540091523E+04  0.12699999809E+01 0.  1.
</event>
<event>
 5   0  0.3075756E-07  0.3204039E+04  0.7818609E-02  0.8187751E-01
        1   -1    0    0  501    0  0.00000000000E+00  0.00000000000E+00  0.28741895063E+04  0.28741895063E+04  0.50400001928E-02 0. -1.
       -1   -1    0    0    0  501  0.00000000000E+00  0.00000000000E+00 -0.89293562948E+03  0.89293562950E+03  0.50400001928E-02 0.  1.
    10030    2    1    2    0    0  0.00000000000E+00  0.00000000000E+00  0.19812538768E+04  0.37671251358E+04  0.32040388363E+04 0.  0.
        5    1    3    3  502    0  0.53812969548E+03 -0.31715449296E+03 -0.74385195980E+03  0.97134358991E+03  0.46999998093E+01 0.  1.
       -5    1    3    3    0  502 -0.53812969548E+03  0.31715449296E+03  0.27251058366E+04  0.27957815459E+04  0.46999998093E+01 0. -1.
</event>
<event>
 5   0  0.8488469E-07  0.3196693E+04  0.7818609E-02  0.8189691E-01
       -2   -1    0    0    0  501  0.00000000000E+00  0.00000000000E+00  0.10440760931E+04  0.10440760931E+04  0.25500000920E-02 0. -1.
        2   -1    0    0  501    0  0.00000000000E+00  0.00000000000E+00 -0.24468626466E+04  0.24468626466E+04  0.25500000920E-02 0.  1.
    10030    2    1    2    0    0  0.00000000000E+00  0.00000000000E+00 -0.14027865534E+04  0.34909387397E+04  0.31966925360E+04 0.  0.
        3    1    3    3  502    0 -0.89442579415E+03  0.54019534016E+03 -0.20222296451E+04  0.22762296137E+04  0.10100000352E+00 0.  1.
       -3    1    3    3    0  502  0.89442579415E+03 -0.54019534016E+03  0.61944309164E+03  0.12147091260E+04  0.10100000352E+00 0. -1.
</event>
<event>
 5   0  0.8195618E-07  0.3229581E+04  0.7818609E-02  0.8181048E-01
       -2   -1    0    0    0  501  0.00000000000E+00  0.00000000000E+00  0.90761673402E+03  0.90761673402E+03  0.25500000920E-02 0. -1.
        2   -1    0    0  501    0  0.00000000000E+00  0.00000000000E+00 -0.28729625849E+04  0.28729625849E+04  0.25500000920E-02 0.  1.
    10030    2    1    2    0    0  0.00000000000E+00  0.00000000000E+00 -0.19653458509E+04  0.37805793189E+04  0.32295813464E+04 0.  0.
        1    1    3    3  502    0 -0.31959245309E+03  0.93780092430E+03 -0.24753444624E+04  0.26662595742E+04  0.50400001928E-02 0.  1.
       -1    1    3    3    0  502  0.31959245309E+03 -0.93780092430E+03  0.50999861149E+03  0.11143197447E+04  0.50400001928E-02 0. -1.
</event>
<event>
 5   0  0.2997105E-07  0.3215795E+04  0.7818609E-02  0.8184658E-01
       -1   -1    0    0    0  501  0.00000000000E+00  0.00000000000E+00  0.11805070973E+04  0.11805070973E+04  0.50400001928E-02 0.  1.
        1   -1    0    0  501    0  0.00000000000E+00  0.00000000000E+00 -0.21900205393E+04  0.21900205393E+04  0.50400001928E-02 0. -1.
    10030    2    1    2    0    0  0.00000000000E+00  0.00000000000E+00 -0.10095134420E+04  0.33705276366E+04  0.32157952608E+04 0.  0.
        3    1    3    3  502    0 -0.10900328891E+04 -0.11794645594E+04 -0.58612210603E+03  0.17096337267E+04  0.10100000352E+00 0. -1.
       -3    1    3    3    0  502  0.10900328891E+04  0.11794645594E+04 -0.42339133597E+03  0.16608939099E+04  0.10100000352E+00 0.  1.
</event>
<event>
 5   0  0.2783875E-07  0.3213211E+04  0.7818609E-02  0.8185337E-01
       -1   -1    0    0    0  501  0.00000000000E+00  0.00000000000E+00  0.17727580497E+04  0.17727580497E+04  0.50400001928E-02 0.  1.
        1   -1    0    0  501    0  0.00000000000E+00  0.00000000000E+00 -0.14560260404E+04  0.14560260404E+04  0.50400001928E-02 0. -1.
    10030    2    1    2    0    0  0.00000000000E+00  0.00000000000E+00  0.31673200938E+03  0.32287840901E+04  0.32132114052E+04 0.  0.
        2    1    3    3  502    0  0.65748509321E+03  0.12297853983E+04 -0.64332459788E+03  0.15357491044E+04  0.25500000920E-02 0. -1.
       -2    1    3    3    0  502 -0.65748509321E+03 -0.12297853983E+04  0.96005660726E+03  0.16930349857E+04  0.25500000920E-02 0.  1.
</event>
<event>
 5   0  0.2891204E-07  0.3191601E+04  0.7818609E-02  0.8191039E-01
       -1   -1    0    0    0  501  0.00000000000E+00  0.00000000000E+00  0.19103777340E+04  0.19103777340E+04  0.50400001928E-02 0.  1.
        1   -1    0    0  501    0  0.00000000000E+00  0.00000000000E+00 -0.13330236187E+04  0.13330236187E+04  0.50400001928E-02 0. -1.
    10030    2    1    2    0    0  0.00000000000E+00  0.00000000000E+00  0.57735411528E+03  0.32434013527E+04  0.31916006267E+04 0.  0.
        4    1    3    3  502    0 -0.10566848755E+04  0.10098158154E+04 -0.36223899015E+03  0.15058318652E+04  0.12699999809E+01 0. -1.
       -4    1    3    3    0  502  0.10566848755E+04 -0.10098158154E+04  0.93959310543E+03  0.17375694875E+04  0.12699999809E+01 0.  1.
</event>
<event>
 5   0  0.2891204E-07  0.3207977E+04  0.7818609E-02  0.8186714E-01
       -1   -1    0    0    0  501  0.00000000000E+00  0.00000000000E+00  0.17381070116E+04  0.17381070116E+04  0.50400001928E-02 0.  1.
        1   -1    0    0  501    0  0.00000000000E+00  0.00000000000E+00 -0.14802187167E+04  0.14802187167E+04  0.50400001928E-02 0. -1.
    10030    2    1    2    0    0  0.00000000000E+00  0.00000000000E+00  0.25788829491E+03  0.32183257283E+04  0.32079766397E+04 0.  0.
        4    1    3    3  502    0 -0.13975528690E+04 -0.69373649201E+03 -0.24421356627E+03  0.15792612896E+04  0.12699999809E+01 0.  1.
       -4    1    3    3    0  502  0.13975528690E+04  0.69373649201E+03  0.50210186118E+03  0.16390644386E+04  0.12699999809E+01 0. -1.
</event>
<event>
 5   0  0.3013888E-07  0.3118144E+04  0.7818609E-02  0.8210776E-01
       -1   -1    0    0    0  501  0.00000000000E+00  0.00000000000E+00  0.14425661934E+04  0.14425661934E+04  0.50400001928E-02 0.  1.
        1   -1    0    0  501    0  0.00000000000E+00  0.00000000000E+00 -0.16849867463E+04  0.16849867464E+04  0.50400001928E-02 0. -1.
    10030    2    1    2    0    0  0.00000000000E+00  0.00000000000E+00 -0.24242055292E+03  0.31275529398E+04  0.31181436251E+04 0.  0.
        1    1    3    3  502    0 -0.54189930732E+03  0.11807322199E+04 -0.98574016558E+03  0.16307872664E+04  0.50400001928E-02 0. -1.
       -1    1    3    3    0  502  0.54189930732E+03 -0.11807322199E+04  0.74331961266E+03  0.14967656733E+04  0.50400001928E-02 0.  1.
</event>
<event>
 5   0  0.8802800E-07  0.3198220E+04  0.7818609E-02  0.8189287E-01
       -2   -1    0    0    0  501  0.00000000000E+00  0.00000000000E+00  0.97555427683E+03  0.97555427683E+03  0.25500000920E-02 0.  1.
        2   -1    0    0  501    0  0.00000000000E+00  0.00000000000E+00 -0.26212305701E+04  0.26212305701E+04  0.25500000920E-02 0. -1.
    10030    2    1    2    0    0  0.00000000000E+00  0.00000000000E+00 -0.16456762933E+04  0.35967848469E+04  0.31982199382E+04 0.  0.
        5    1    3    3  502    0  0.52502308834E+02  0.13499737347E+04 -0.17849938654E+04  0.22386180484E+04  0.46999998093E+01 0. -1.
       -5    1    3    3    0  502 -0.52502308834E+02 -0.13499737347E+04  0.13931757215E+03  0.13581667986E+04  0.46999998093E+01 0.  1.
</event>
<event>
 5   0  0.8838951E-07  0.3199922E+04  0.7818609E-02  0.8188838E-01
        2   -1    0    0  501    0  0.00000000000E+00  0.00000000000E+00  0.15607922804E+04  0.15607922804E+04  0.25500000920E-02 0.  1.
       -2   -1    0    0    0  501  0.00000000000E+00  0.00000000000E+00 -0.16401123654E+04  0.16401123654E+04  0.25500000920E-02 0. -1.
    10030    2    1    2    0    0  0.00000000000E+00  0.00000000000E+00 -0.79320084944E+02  0.32009046458E+04  0.31999216983E+04 0.  0.
        2    1    3    3  502    0  0.49246213920E+02  0.14438370572E+04 -0.72746421842E+03  0.16174964688E+04  0.25500000920E-02 0. -1.
       -2    1    3    3    0  502 -0.49246213920E+02 -0.14438370572E+04  0.64814413348E+03  0.15834081770E+04  0.25500000920E-02 0.  1.
</event>
<event>
 5   0  0.2783875E-07  0.3349809E+04  0.7818609E-02  0.8150336E-01
       -1   -1    0    0    0  501  0.00000000000E+00  0.00000000000E+00  0.13482896427E+04  0.13482896427E+04  0.50400001928E-02 0. -1.
        1   -1    0    0  501    0  0.00000000000E+00  0.00000000000E+00 -0.20806398171E+04  0.20806398171E+04  0.50400001928E-02 0.  1.
    10030    2    1    2    0    0  0.00000000000E+00  0.00000000000E+00 -0.73235017437E+03  0.34289294598E+04  0.33498090188E+04 0.  0.
        2    1    3    3  502    0  0.10978580153E+04  0.10352459030E+04 -0.11101702305E+04  0.18733670868E+04  0.25500000920E-02 0.  1.
       -2    1    3    3    0  502 -0.10978580153E+04 -0.10352459030E+04  0.37782005612E+03  0.15555623730E+04  0.25500000920E-02 0. -1.
</event>
<event>
 5   0  0.3013888E-07  0.3193966E+04  0.7818609E-02  0.8190412E-01
        1   -1    0    0  501    0  0.00000000000E+00  0.00000000000E+00  0.23082520420E+04  0.23082520420E+04  0.50400001928E-02 0.  1.
       -1   -1    0    0    0  501  0.00000000000E+00  0.00000000000E+00 -0.11048859375E+04  0.11048859375E+04  0.50400001928E-02 0. -1.
    10030    2    1    2    0    0  0.00000000000E+00  0.00000000000E+00  0.12033661045E+04  0.34131379794E+04  0.31939663250E+04 0.  0.
        1    1    3    3  502    0  0.15736092142E+04 -0.16051739815E+03  0.83664213033E+03  0.17894082398E+04  0.50400001928E-02 0.  1.
       -1    1    3    3    0  502 -0.15736092142E+04  0.16051739815E+03  0.36672397417E+03  0.16237297397E+04  0.50400001928E-02 0. -1.
</event>
<event>
 5   0  0.2997105E-07  0.3283420E+04  0.7818609E-02  0.8167127E-01
        1   -1    0    0  501    0  0.00000000000E+00  0.00000000000E+00  0.16922165299E+04  0.16922165300E+04  0.50400001928E-02 0.  1.
       -1   -1    0    0    0  501  0.00000000000E+00  0.00000000000E+00 -0.15927112999E+04  0.15927112999E+04  0.50400001928E-02 0. -1.
    10030    2    1    2    0    0  0.00000000000E+00  0.00000000000E+00  0.99505230093E+02  0.32849278298E+04  0.32834204050E+04 0.  0.
        3    1    3    3  502    0 -0.98320455829E+03  0.16866465146E+03  0.13542198562E+04  0.16819781203E+04  0.10100000352E+00 0.  1.
       -3    1    3    3    0  502  0.98320455829E+03 -0.16866465146E+03 -0.12547146261E+04  0.16029497095E+04  0.10100000352E+00 0. -1.
</event>
<event>
 5   0  0.3013888E-07  0.3198584E+04  0.7818609E-02  0.8189191E-01
       -1   -1    0    0    0  501  0.00000000000E+00  0.00000000000E+00  0.19933718750E+04  0.19933718750E+04  0.50400001928E-02 0. -1.
        1   -1    0    0  501    0  0.00000000000E+00  0.00000000000E+00 -0.12831199636E+04  0.12831199636E+04  0.50400001928E-02 0.  1.
    10030    2    1    2    0    0  0.00000000000E+00  0.00000000000E+00  0.71025191138E+03  0.32764918386E+04  0.31985842167E+04 0.  0.
        1    1    3    3  502    0 -0.22478662866E+03  0.20603207122E+03 -0.12530677404E+04  0.12896344462E+04  0.50400001928E-02 0.  1.
       -1    1    3    3    0  502  0.22478662866E+03 -0.20603207122E+03  0.19633196518E+04  0.19868573924E+04  0.50400001928E-02 0. -1.
</event>
<event>
 5   0  0.2891204E-07  0.3195116E+04  0.7818609E-02  0.8190108E-01
       -1   -1    0    0    0  501  0.00000000000E+00  0.00000000000E+00  0.15142666123E+04  0.15142666123E+04  0.50400001928E-02 0.  1.
        1   -1    0    0  501    0  0.00000000000E+00  0.00000000000E+00 -0.16854303946E+04  0.16854303946E+04  0.50400001928E-02 0. -1.
    10030    2    1    2    0    0  0.00000000000E+00  0.00000000000E+00 -0.17116378234E+03  0.31996970070E+04  0.31951156311E+04 0.  0.
        4    1    3    3  502    0  0.44086060000E+02 -0.55429707597E+03 -0.15853943726E+04  0.16800790930E+04  0.12699999809E+01 0. -1.
       -4    1    3    3    0  502 -0.44086060000E+02  0.55429707597E+03  0.14142305903E+04  0.15196179140E+04  0.12699999809E+01 0.  1.
</event>
<event>
 5   0  0.2891204E-07  0.3195045E+04  0.7818609E-02  0.8190127E-01
        1   -1    0    0  501    0  0.00000000000E+00  0.00000000000E+00  0.23455568965E+04  0.23455568965E+04  0.50400001928E-02 0. -1.
       -1   -1    0    0    0  501  0.00000000000E+00  0.00000000000E+00 -0.10880477995E+04  0.10880477995E+04  0.50400001928E-02 0.  1.
    10030    2    1    2    0    0  0.00000000000E+00  0.00000000000E+00  0.12575090970E+04  0.34336046960E+04  0.31950449261E+04 0.  0.
        4    1    3    3  502    0  0.12283631159E+04  0.10030917493E+04  0.83549127820E+03  0.17925167477E+04  0.12699999809E+01 0. -1.
       -4    1    3    3    0  502 -0.12283631159E+04 -0.10030917493E+04  0.42201781878E+03  0.16410879483E+04  0.12699999809E+01 0.  1.
</event>
<event>
 5   0  0.2997105E-07  0.3188426E+04  0.7818609E-02  0.8191880E-01
        1   -1    0    0  501    0  0.00000000000E+00  0.00000000000E+00  0.15528141787E+04  0.15528141787E+04  0.50400001928E-02 0. -1.
       -1   -1    0    0    0  501  0.00000000000E+00  0.00000000000E+00 -0.16367157113E+04  0.16367157113E+04  0.50400001928E-02 0.  1.
    10030    2    1    2    0    0  0.00000000000E+00  0.00000000000E+00 -0.83901532545E+02  0.31895298900E+04  0.31884261716E+04 0.  0.
        3    1    3    3  502    0  0.75738061414E+03 -0.24380841056E+03  0.13399931245E+04  0.15584124999E+04  0.10100000352E+00 0. -1.
       -3    1    3    3    0  502 -0.75738061414E+03  0.24380841056E+03 -0.14238946571E+04  0.16311173901E+04  0.10100000352E+00 0.  1.
</event>
<event>
 5   0  0.8838951E-07  0.3175870E+04  0.7818609E-02  0.8195219E-01
       -2   -1    0    0    0  501  0.00000000000E+00  0.00000000000E+00  0.16965498727E+04  0.16965498727E+04  0.25500000920E-02 0.  1.
        2   -1    0    0  501    0  0.00000000000E+00  0.00000000000E+00 -0.14862732976E+04  0.14862732976E+04  0.25500000920E-02 0. -1.
    10030    2    1    2    0    0  0.00000000000E+00  0.00000000000E+00  0.21027657508E+03  0.31828231703E+04  0.31758695022E+04 0.  0.
        2    1    3    3  502    0  0.10181074185E+04 -0.51156296868E+03 -0.10033111473E+04  0.15181807023E+04  0.25500000920E-02 0. -1.
       -2    1    3    3    0  502 -0.10181074185E+04  0.51156296868E+03  0.12135877224E+04  0.16646424680E+04  0.25500000920E-02 0.  1.
</event>
<event>
 5   0  0.3075756E-07  0.3230486E+04  0.7818609E-02  0.8180812E-01
        1   -1    0    0  501    0  0.00000000000E+00  0.00000000000E+00  0.14233008347E+04  0.14233008347E+04  0.50400001928E-02 0.  1.
       -1   -1    0    0    0  501  0.00000000000E+00  0.00000000000E+00 -0.18330703295E+04  0.18330703295E+04  0.50400001928E-02 0. -1.
    10030    2    1    2    0    0  0.00000000000E+00  0.00000000000E+00 -0.40976949481E+03  0.32563711643E+04  0.32304863598E+04 0.  0.
        5    1    3    3  502    0 -0.80912211268E+03  0.10426970365E+04  0.73375461560E+03  0.15100707365E+04  0.46999998093E+01 0.  1.
       -5    1    3    3    0  502  0.80912211268E+03 -0.10426970365E+04 -0.11435241104E+04  0.17463004278E+04  0.46999998093E+01 0. -1.
</event>
<event>
 5   0  0.8195618E-07  0.3123233E+04  0.7818609E-02  0.8209391E-01
        2   -1    0    0  501    0  0.00000000000E+00  0.00000000000E+00  0.19940234403E+04  0.19940234403E+04  0.25500000920E-02 0.  1.
       -2   -1    0    0    0  501  0.00000000000E+00  0.00000000000E+00 -0.12229772611E+04  0.12229772611E+04  0.25500000920E-02 0. -1.
    10030    2    1    2    0    0  0.00000000000E+00  0.00000000000E+00  0.77104617920E+03  0.32170007014E+04  0.31232325086E+04 0.  0.
        1    1    3    3  502    0 -0.88181549019E+03  0.12024728832E+04  0.86324243754E+03  0.17229994485E+04  0.50400001928E-02 0.  1.
       -1    1    3    3    0  502  0.88181549019E+03 -0.12024728832E+04 -0.92196258344E+02  0.14940012529E+04  0.50400001928E-02 0. -1.
</event>
<event>
 5   0  0.2997105E-07  0.3256264E+04  0.7818609E-02  0.8174114E-01
       -1   -1    0    0    0  501  0.00000000000E+00  0.00000000000E+00  0.10906157660E+04  0.10906157660E+04  0.50400001928E-02 0.  1.
        1   -1    0    0  501    0  0.00000000000E+00  0.00000000000E+00 -0.24305666079E+04  0.24305666079E+04  0.50400001928E-02 0. -1.
    10030    2    1    2    0    0  0.00000000000E+00  0.00000000000E+00 -0.13399508419E+04  0.35211823739E+04  0.32562642785E+04 0.  0.
        3    1    3    3  502    0  0.63978900929E+03 -0.28989527801E+03  0.91834727295E+03  0.11561708233E+04  0.10100000352E+00 0.  1.
       -3    1    3    3    0  502 -0.63978900929E+03  0.28989527801E+03 -0.22582981149E+04  0.23650115506E+04  0.10100000352E+00 0. -1.
</event>
<event>
 5   0  0.8195618E-07  0.3205110E+04  0.7818609E-02  0.8187469E-01
       -2   -1    0    0    0  501  0.00000000000E+00  0.00000000000E+00  0.12837625541E+04  0.12837625542E+04  0.25500000920E-02 0. -1.
        2   -1    0    0  501    0  0.00000000000E+00  0.00000000000E+00 -0.20005124595E+04  0.20005124595E+04  0.25500000920E-02 0.  1.
    10030    2    1    2    0    0  0.00000000000E+00  0.00000000000E+00 -0.71674990536E+03  0.32842750137E+04  0.32051102849E+04 0.  0.
        1    1    3    3  502    0 -0.10903421931E+04 -0.82492870537E+03  0.49823311202E+03  0.14551940424E+04  0.50400001928E-02 0. -1.
       -1    1    3    3    0  502  0.10903421931E+04  0.82492870537E+03 -0.12149830174E+04  0.18290809713E+04  0.50400001928E-02 0.  1.
</event>
<event>
 5   0  0.3013888E-07  0.3221376E+04  0.7818609E-02  0.8183195E-01
       -1   -1    0    0    0  501  0.00000000000E+00  0.00000000000E+00  0.22151210696E+04  0.22151210696E+04  0.50400001928E-02 0. -1.
        1   -1    0    0  501    0  0.00000000000E+00  0.00000000000E+00 -0.11711844693E+04  0.11711844693E+04  0.50400001928E-02 0.  1.
    10030    2    1    2    0    0  0.00000000000E+00  0.00000000000E+00  0.10439366003E+04  0.33863055388E+04  0.32213757274E+04 0.  0.
        1    1    3    3  502    0  0.68843555333E+03 -0.10427562402E+04  0.15903870492E+04  0.20225268982E+04  0.50400001928E-02 0. -1.
       -1    1    3    3    0  502 -0.68843555333E+03  0.10427562402E+04 -0.54645044890E+03  0.13637786407E+04  0.50400001928E-02 0.  1.
</event>
<event>
 5   0  0.8802800E-07  0.3218745E+04  0.7818609E-02  0.8183884E-01
        2   -1    0    0  501    0  0.00000000000E+00  0.00000000000E+00  0.11803398173E+04  0.11803398173E+04  0.25500000920E-02 0. -1.
       -2   -1    0    0    0  501  0.00000000000E+00  0.00000000000E+00 -0.21943503647E+04  0.21943503647E+04  0.25500000920E-02 0.  1.
    10030    2    1    2    0    0  0.00000000000E+00  0.00000000000E+00 -0.10140105474E+04  0.33746901819E+04  0.32187445431E+04 0.  0.
        5    1    3    3  502    0  0.91084013494E+03 -0.92928293911E+02  0.88067245292E+03  0.12703824143E+04  0.46999998093E+01 0. -1.
       -5    1    3    3    0  502 -0.91084013494E+03  0.92928293911E+02 -0.18946830003E+04  0.21043077676E+04  0.46999998093E+01 0.  1.
</event>
<event>
 5   0  0.2783875E-07  0.3218301E+04  0.7818609E-02  0.8184001E-01
        1   -1    0    0  501    0  0.00000000000E+00  0.00000000000E+00  0.12971173555E+04  0.12971173555E+04  0.50400001928E-02 0.  1.
       -1   -1    0    0    0  501  0.00000000000E+00  0.00000000000E+00 -0.19962461150E+04  0.19962461151E+04  0.50400001928E-02 0. -1.
    10030    2    1    2    0    0  0.00000000000E+00  0.00000000000E+00 -0.69912875959E+03  0.32933634705E+04  0.32183010932E+04 0.  0.
        2    1    3    3  502    0  0.86469321982E+03 -0.98027910664E+03 -0.13099218181E+04  0.18505503670E+04  0.25500000920E-02 0. -1.
       -2    1    3    3    0  502 -0.86469321982E+03  0.98027910664E+03  0.61079305849E+03  0.14428131035E+04  0.25500000920E-02 0.  1.
</event>
<event>
 5   0  0.8488469E-07  0.3190798E+04  0.7818609E-02  0.8191252E-01
        2   -1    0    0  501    0  0.00000000000E+00  0.00000000000E+00  0.19900245026E+04  0.19900245026E+04  0.25500000920E-02 0.  1.
       -2   -1    0    0    0  501  0.00000000000E+00  0.00000000000E+00 -0.12790281315E+04  0.12790281315E+04  0.25500000920E-02 0. -1.
    10030    2    1    2    0    0  0.00000000000E+00  0.00000000000E+00  0.71099637117E+03  0.32690526341E+04  0.31907975938E+04 0.  0.
        3    1    3    3  502    0 -0.12372617598E+04  0.16571453335E+03 -0.66235581731E+03  0.14131501009E+04  0.10100000352E+00 0. -1.
       -3    1    3    3    0  502  0.12372617598E+04 -0.16571453335E+03  0.13733521885E+04  0.18559025332E+04  0.10100000352E+00 0.  1.
</event>
<event>
 5   0  0.8838951E-07  0.3195469E+04  0.7818609E-02  0.8190015E-01
        2   -1    0    0  501    0  0.00000000000E+00  0.00000000000E+00  0.21454560519E+04  0.21454560519E+04  0.25500000920E-02 0. -1.
       -2   -1    0    0    0  501  0.00000000000E+00  0.00000000000E+00 -0.11898431900E+04  0.11898431900E+04  0.25500000920E-02 0.  1.
    10030    2    1    2    0    0  0.00000000000E+00  0.00000000000E+00  0.95561286191E+03  0.33352992419E+04  0.31954694634E+04 0.  0.
        2    1    3    3  502    0  0.79817669433E+03 -0.13398754039E+04  0.83998341005E+03  0.17714187147E+04  0.25500000920E-02 0. -1.
       -2    1    3    3    0  502 -0.79817669433E+03  0.13398754039E+04  0.11562945186E+03  0.15638805273E+04  0.25500000920E-02 0.  1.
</event>
<event>
 5   0  0.2783875E-07  0.3192205E+04  0.7818609E-02  0.8190879E-01
        1   -1    0    0  501    0  0.00000000000E+00  0.00000000000E+00  0.23947647428E+04  0.23947647428E+04  0.50400001928E-02 0. -1.
       -1   -1    0    0    0  501  0.00000000000E+00  0.00000000000E+00 -0.10637968955E+04  0.10637968955E+04  0.50400001928E-02 0.  1.
    10030    2    1    2    0    0  0.00000000000E+00  0.00000000000E+00  0.13309678473E+04  0.34585616383E+04  0.31922050679E+04 0.  0.
        2    1    3    3  502    0  0.37063861426E+03 -0.75261604290E+03 -0.80565777865E+03  0.11631372863E+04  0.25500000920E-02 0.  1.
       -2    1    3    3    0  502 -0.37063861426E+03  0.75261604290E+03  0.21366256259E+04  0.22954243520E+04  0.25500000920E-02 0. -1.
</event>
<event>
 5   0  0.8802800E-07  0.2975685E+04  0.7818609E-02  0.8250709E-01
       -2   -1    0    0    0  501  0.00000000000E+00  0.00000000000E+00  0.15491347383E+04  0.15491347383E+04  0.25500000920E-02 0.  1.
        2   -1    0    0  501    0  0.00000000000E+00  0.00000000000E+00 -0.14289750154E+04  0.14289750154E+04  0.25500000920E-02 0. -1.
    10030    2    1    2    0    0  0.00000000000E+00  0.00000000000E+00  0.12015972289E+03  0.29781097537E+04  0.29756846852E+04 0.  0.
        5    1    3    3  502    0 -0.41931355462E+03 -0.61915710841E+03 -0.12272317277E+04  0.14371148825E+04  0.46999998093E+01 0. -1.
       -5    1    3    3    0  502  0.41931355462E+03  0.61915710841E+03  0.13473914506E+04  0.15409948712E+04  0.46999998093E+01 0.  1.
</event>
<event>
 5   0  0.8802800E-07  0.3214655E+04  0.7818609E-02  0.8184957E-01
        2   -1    0    0  501    0  0.00000000000E+00  0.00000000000E+00  0.28647609116E+04  0.28647609116E+04  0.25500000920E-02 0. -1.
       -2   -1    0    0    0  501  0.00000000000E+00  0.00000000000E+00 -0.90182115317E+03  0.90182115318E+03  0.25500000920E-02 0.  1.
    10030    2    1    2    0    0  0.00000000000E+00  0.00000000000E+00  0.19629397584E+04  0.37665820648E+04  0.32146551845E+04 0.  0.
        5    1    3    3  502    0  0.47909568088E+03  0.42108881184E+03  0.27101135776E+04  0.27841670482E+04  0.46999998093E+01 0. -1.
       -5    1    3    3    0  502 -0.47909568088E+03 -0.42108881184E+03 -0.74717381912E+03  0.98241501661E+03  0.46999998093E+01 0.  1.
</event>
<event>
 5   0  0.8488469E-07  0.3199263E+04  0.7818609E-02  0.8189012E-01
       -2   -1    0    0    0  501  0.00000000000E+00  0.00000000000E+00  0.11819952153E+04  0.11819952153E+04  0.25500000920E-02 0. -1.
        2   -1    0    0  501    0  0.00000000000E+00  0.00000000000E+00 -0.21648323314E+04  0.21648323314E+04  0.25500000920E-02 0.  1.
    10030    2    1    2    0    0  0.00000000000E+00  0.00000000000E+00 -0.98283711610E+03  0.33468275467E+04  0.31992633262E+04 0.  0.
        3    1    3    3  502    0  0.71478734976E+03 -0.14107307358E+04 -0.74279179671E+03  0.17472326198E+04  0.10100000352E+00 0.  1.
       -3    1    3    3    0  502 -0.71478734976E+03  0.14107307358E+04 -0.24004531939E+03  0.15995949268E+04  0.10100000352E+00 0. -1.
</event>
<event>
 5   0  0.8195618E-07  0.3188947E+04  0.7818609E-02  0.8191742E-01
       -2   -1    0    0    0  501  0.00000000000E+00  0.00000000000E+00  0.84626571468E+03  0.84626571468E+03  0.25500000920E-02 0. -1.
        2   -1    0    0  501    0  0.00000000000E+00  0.00000000000E+00 -0.30041923807E+04  0.30041923807E+04  0.25500000920E-02 0.  1.
    10030    2    1    2    0    0  0.00000000000E+00  0.00000000000E+00 -0.21579266660E+04  0.38504580954E+04  0.31889465421E+04 0.  0.
        1    1    3    3  502    0  0.50065543426E+03  0.11284999740E+04 -0.22973265930E+04  0.26080409372E+04  0.50400001928E-02 0.  1.
       -1    1    3    3    0  502 -0.50065543426E+03 -0.11284999740E+04  0.13939992696E+03  0.12424171582E+04  0.50400001928E-02 0. -1.
</event>
<event>
 5   0  0.3075756E-07  0.3199354E+04  0.7818609E-02  0.8188988E-01
       -1   -1    0    0    0  501  0.00000000000E+00  0.00000000000E+00  0.14962566304E+04  0.14962566304E+04  0.50400001928E-02 0.  1.
        1   -1    0    0  501    0  0.00000000000E+00  0.00000000000E+00 -0.17102461126E+04  0.17102461126E+04  0.50400001928E-02 0. -1.
    10030    2    1    2    0    0  0.00000000000E+00  0.00000000000E+00 -0.21398948223E+03  0.32065027430E+04  0.31993543633E+04 0.  0.
        5    1    3    3  502    0  0.10690687895E+04 -0.55583846689E+03  0.94753510072E+03  0.15328761643E+04  0.46999998093E+01 0.  1.
       -5    1    3    3    0  502 -0.10690687895E+04  0.55583846689E+03 -0.11615245830E+04  0.16736265787E+04  0.46999998093E+01 0. -1.
</event>
<event>
 5   0  0.3013888E-07  0.3181837E+04  0.7818609E-02  0.8193631E-01
        1   -1    0    0  501    0  0.00000000000E+00  0.00000000000E+00  0.13509499098E+04  0.13509499098E+04  0.50400001928E-02 0. -1.
       -1   -1    0    0    0  501  0.00000000000E+00  0.00000000000E+00 -0.18735125175E+04  0.18735125175E+04  0.50400001928E-02 0.  1.
    10030    2    1    2    0    0  0.00000000000E+00  0.00000000000E+00 -0.52256260771E+03  0.32244624272E+04  0.31818369326E+04 0.  0.
        1    1    3    3  502    0 -0.47515229565E+03  0.15096139630E+04 -0.42568140849E+03  0.16388742120E+04  0.50400001928E-02 0.  1.
       -1    1    3    3    0  502  0.47515229565E+03 -0.15096139630E+04 -0.96881199219E+02  0.15855882152E+04  0.50400001928E-02 0. -1.
</event>
<event>
 5   0  0.8838951E-07  0.3190937E+04  0.7818609E-02  0.8191215E-01
        2   -1    0    0  501    0  0.00000000000E+00  0.00000000000E+00  0.17598572837E+04  0.17598572837E+04  0.25500000920E-02 0.  1.
       -2   -1    0    0    0  501  0.00000000000E+00  0.00000000000E+00 -0.14464349749E+04  0.14464349749E+04  0.25500000920E-02 0. -1.
    10030    2    1    2    0    0  0.00000000000E+00  0.00000000000E+00  0.31342230875E+03  0.32062922586E+04  0.31909366186E+04 0.  0.
        2    1    3    3  502    0  0.14242929199E+04  0.21851517213E+03  0.84495982634E+03  0.16704239912E+04  0.25500000920E-02 0.  1.
       -2    1    3    3    0  502 -0.14242929199E+04 -0.21851517213E+03 -0.53153751759E+03  0.15358682674E+04  0.25500000920E-02 0. -1.
</event>
<event>
 5   0  0.2783875E-07  0.3209212E+04  0.7818609E-02  0.8186389E-01
        1   -1    0    0  501    0  0.00000000000E+00  0.00000000000E+00  0.19857199840E+04  0.19857199840E+04  0.50400001928E-02 0. -1.
       -1   -1    0    0    0  501  0.00000000000E+00  0.00000000000E+00 -0.12966383364E+04  0.12966383364E+04  0.50400001928E-02 0.  1.
    10030    2    1    2    0    0  0.00000000000E+00  0.00000000000E+00  0.68908164756E+03  0.32823583204E+04  0.32092121504E+04 0.  0.
        2    1    3    3  502    0  0.12120725896E+04 -0.87442512086E+03 -0.25273973560E+03  0.15157891108E+04  0.25500000920E-02 0. -1.
       -2    1    3    3    0  502 -0.12120725896E+04  0.87442512086E+03  0.94182138317E+03  0.17665692096E+04  0.25500000920E-02 0.  1.
</event>
<event>
 5   0  0.8195618E-07  0.3205972E+04  0.7818609E-02  0.8187242E-01
        2   -1    0    0  501    0  0.00000000000E+00  0.00000000000E+00  0.24083806599E+04  0.24083806599E+04  0.25500000920E-02 0.  1.
       -2   -1    0    0    0  501  0.00000000000E+00  0.00000000000E+00 -0.10669258645E+04  0.10669258645E+04  0.25500000920E-02 0. -1.
    10030    2    1    2    0    0  0.00000000000E+00  0.00000000000E+00  0.13414547955E+04  0.34753065244E+04  0.32059716889E+04 0.  0.
        1    1    3    3  502    0  0.75897288071E+03  0.11951363159E+04 -0.14420976778E+03  0.14230906874E+04  0.50400001928E-02 0. -1.
       -1    1    3    3    0  502 -0.75897288071E+03 -0.11951363159E+04  0.14856645633E+04  0.20522158371E+04  0.50400001928E-02 0.  1.
</event>
<event>
 5   0  0.8802800E-07  0.3196307E+04  0.7818609E-02  0.8189793E-01
       -2   -1    0    0    0  501  0.00000000000E+00  0.00000000000E+00  0.14959514313E+04  0.14959514313E+04  0.25500000920E-02 0. -1.
        2   -1    0    0  501    0  0.00000000000E+00  0.00000000000E+00 -0.17073378273E+04  0.17073378273E+04  0.25500000920E-02 0.  1.
    10030    2    1    2    0    0  0.00000000000E+00  0.00000000000E+00 -0.21138639598E+03  0.32032892586E+04  0.31963069105E+04 0.  0.
        5    1    3    3  502    0 -0.65168398021E+03 -0.12312693013E+04 -0.89057469270E+03  0.16534392869E+04  0.46999998093E+01 0.  1.
       -5    1    3    3    0  502  0.65168398021E+03  0.12312693013E+04  0.67918829672E+03  0.15498499717E+04  0.46999998093E+01 0. -1.
</event>
<event>
 5   0  0.2997105E-07  0.3289228E+04  0.7818609E-02  0.8165642E-01
        1   -1    0    0  501    0  0.00000000000E+00  0.00000000000E+00  0.22501759766E+04  0.22501759766E+04  0.50400001928E-02 0. -1.
       -1   -1    0    0    0  501  0.00000000000E+00  0.00000000000E+00 -0.12020193117E+04  0.12020193117E+04  0.50400001928E-02 0.  1.
    10030    2    1    2    0    0  0.00000000000E+00  0.00000000000E+00  0.10481566649E+04  0.34521952883E+04  0.32892278599E+04 0.  0.
        3    1    3    3  502    0  0.75699246174E+03  0.10560312263E+03 -0.10042871718E+04  0.12620548088E+04  0.10100000352E+00 0.  1.
       -3    1    3    3    0  502 -0.75699246174E+03 -0.10560312263E+03  0.20524438368E+04  0.21901404795E+04  0.10100000352E+00 0. -1.
</event>
<event>
 5   0  0.3075756E-07  0.3198869E+04  0.7818609E-02  0.8189116E-01
       -1   -1    0    0    0  501  0.00000000000E+00  0.00000000000E+00  0.13295332957E+04  0.13295332957E+04  0.50400001928E-02 0.  1.
        1   -1    0    0  501    0  0.00000000000E+00  0.00000000000E+00 -0.19241272274E+04  0.19241272274E+04  0.50400001928E-02 0. -1.
    10030    2    1    2    0    0  0.00000000000E+00  0.00000000000E+00 -0.59459393172E+03  0.32536605231E+04  0.31988693090E+04 0.  0.
        5    1    3    3  502    0 -0.11924930373E+03  0.10075000981E+04  0.96036574565E+03  0.13969972439E+04  0.46999998093E+01 0.  1.
       -5    1    3    3    0  502  0.11924930373E+03 -0.10075000981E+04 -0.15549596774E+04  0.18566632792E+04  0.46999998093E+01 0. -1.
</event>
<event>
 5   0  0.8195618E-07  0.3197775E+04  0.7818609E-02  0.8189405E-01
       -2   -1    0    0    0  501  0.00000000000E+00  0.00000000000E+00  0.12882147124E+04  0.12882147124E+04  0.25500000920E-02 0. -1.
        2   -1    0    0  501    0  0.00000000000E+00  0.00000000000E+00 -0.19844839982E+04  0.19844839982E+04  0.25500000920E-02 0.  1.
    10030    2    1    2    0    0  0.00000000000E+00  0.00000000000E+00 -0.69626928582E+03  0.32726987106E+04  0.31977751535E+04 0.  0.
        1    1    3    3  502    0 -0.13513408848E+04 -0.72258450352E+03  0.11883538398E+03  0.15370011061E+04  0.50400001928E-02 0. -1.
       -1    1    3    3    0  502  0.13513408848E+04  0.72258450352E+03 -0.81510466980E+03  0.17356976045E+04  0.50400001928E-02 0.  1.
</event>
<event>
 5   0  0.8335929E-07  0.3201455E+04  0.7818609E-02  0.8188433E-01
       -2   -1    0    0    0  501  0.00000000000E+00  0.00000000000E+00  0.13225855958E+04  0.13225855958E+04  0.25500000920E-02 0.  1.
        2   -1    0    0  501    0  0.00000000000E+00  0.00000000000E+00 -0.19373636376E+04  0.19373636376E+04  0.25500000920E-02 0. -1.
    10030    2    1    2    0    0  0.00000000000E+00  0.00000000000E+00 -0.61477804177E+03  0.32599492333E+04  0.32014554445E+04 0.  0.
        4    1    3    3  502    0  0.49167265471E+03  0.14986088022E+04 -0.58580242437E+03  0.16824792524E+04  0.12699999809E+01 0.  1.
       -4    1    3    3    0  502 -0.49167265471E+03 -0.14986088022E+04 -0.28975617405E+02  0.15774699809E+04  0.12699999809E+01 0. -1.
</event>
<event>
 5   0  0.2783875E-07  0.3182495E+04  0.7818609E-02  0.8193456E-01
       -1   -1    0    0    0  501  0.00000000000E+00  0.00000000000E+00  0.23417879782E+04  0.23417879782E+04  0.50400001928E-02 0. -1.
        1   -1    0    0  501    0  0.00000000000E+00  0.00000000000E+00 -0.10812541087E+04  0.10812541087E+04  0.50400001928E-02 0.  1.
    10030    2    1    2    0    0  0.00000000000E+00  0.00000000000E+00  0.12605338695E+04  0.34230420869E+04  0.31824945393E+04 0.  0.
        2    1    3    3  502    0  0.14817457979E+03 -0.11192546068E+04  0.18363523591E+04  0.21556615151E+04  0.25500000920E-02 0. -1.
       -2    1    3    3    0  502 -0.14817457979E+03  0.11192546068E+04 -0.57581848958E+03  0.12673805718E+04  0.25500000920E-02 0.  1.
</event>
<event>
 5   0  0.2891204E-07  0.3211195E+04  0.7818609E-02  0.8185867E-01
        1   -1    0    0  501    0  0.00000000000E+00  0.00000000000E+00  0.18154018991E+04  0.18154018991E+04  0.50400001928E-02 0. -1.
       -1   -1    0    0    0  501  0.00000000000E+00  0.00000000000E+00 -0.14200398447E+04  0.14200398447E+04  0.50400001928E-02 0.  1.
    10030    2    1    2    0    0  0.00000000000E+00  0.00000000000E+00  0.39536205438E+03  0.32354417438E+04  0.32111948124E+04 0.  0.
        4    1    3    3  502    0  0.26953596459E+03  0.11672492986E+04 -0.87941893281E+03  0.14861022285E+04  0.12699999809E+01 0.  1.
       -4    1    3    3    0  502 -0.26953596459E+03 -0.11672492986E+04  0.12747809872E+04  0.17493395152E+04  0.12699999809E+01 0. -1.
</event>
<event>
 5   0  0.8488469E-07  0.3188121E+04  0.7818609E-02  0.8191961E-01
        2   -1    0    0  501    0  0.00000000000E+00  0.00000000000E+00  0.26120254759E+04  0.26120254759E+04  0.25500000920E-02 0.  1.
       -2   -1    0    0    0  501  0.00000000000E+00  0.00000000000E+00 -0.97281921066E+03  0.97281921066E+03  0.25500000920E-02 0. -1.
    10030    2    1    2    0    0  0.00000000000E+00  0.00000000000E+00  0.16392062652E+04  0.35848446866E+04  0.31881208018E+04 0.  0.
        3    1    3    3  502    0 -0.52476123291E+03 -0.67354121035E+03 -0.69400776334E+03  0.11003085474E+04  0.10100000352E+00 0. -1.
       -3    1    3    3    0  502  0.52476123291E+03  0.67354121035E+03  0.23332140286E+04  0.24845361392E+04  0.10100000352E+00 0.  1.
</event>
<event>
 5   0  0.3013888E-07  0.3205087E+04  0.7818609E-02  0.8187475E-01
        1   -1    0    0  501    0  0.00000000000E+00  0.00000000000E+00  0.19645966356E+04  0.19645966356E+04  0.50400001928E-02 0.  1.
       -1   -1    0    0    0  501  0.00000000000E+00  0.00000000000E+00 -0.13072124527E+04  0.13072124528E+04  0.50400001928E-02 0. -1.
    10030    2    1    2    0    0  0.00000000000E+00  0.00000000000E+00  0.65738418287E+03  0.32718090884E+04  0.32050866988E+04 0.  0.
        1    1    3    3  502    0 -0.11206945304E+04  0.10260586607E+04  0.84860062728E+03  0.17403665219E+04  0.50400001928E-02 0.  1.
       -1    1    3    3    0  502  0.11206945304E+04 -0.10260586607E+04 -0.19121644441E+03  0.15314425665E+04  0.50400001928E-02 0. -1.
</event>
<event>
 5   0  0.8488469E-07  0.3211523E+04  0.7818609E-02  0.8185781E-01
       -2   -1    0    0    0  501  0.00000000000E+00  0.00000000000E+00  0.24601866952E+04  0.24601866952E+04  0.25500000920E-02 0.  1.
        2   -1    0    0  501    0  0.00000000000E+00  0.00000000000E+00 -0.10480786680E+04  0.10480786680E+04  0.25500000920E-02 0. -1.
    10030    2    1    2    0    0  0.00000000000E+00  0.00000000000E+00  0.14121080272E+04  0.35082653631E+04  0.32115225015E+04 0.  0.
        3    1    3    3  502    0  0.52821298718E+03 -0.10058675821E+04 -0.53356216159E+03  0.12551761403E+04  0.10100000352E+00 0. -1.
       -3    1    3    3    0  502 -0.52821298718E+03  0.10058675821E+04  0.19456701888E+04  0.22530892229E+04  0.10100000352E+00 0.  1.
</event>
<event>
 5   0  0.2783875E-07  0.3204461E+04  0.7818609E-02  0.8187640E-01
       -1   -1    0    0    0  501  0.00000000000E+00  0.00000000000E+00  0.15599407573E+04  0.15599407573E+04  0.50400001928E-02 0. -1.
        1   -1    0    0  501    0  0.00000000000E+00  0.00000000000E+00 -0.16456663286E+04  0.16456663286E+04  0.50400001928E-02 0.  1.
    10030    2    1    2    0    0  0.00000000000E+00  0.00000000000E+00 -0.85725571326E+02  0.32056070860E+04  0.32044606279E+04 0.  0.
        2    1    3    3  502    0 -0.63211658616E+03 -0.14695504672E+04  0.46567323925E+02  0.16004119688E+04  0.25500000920E-02 0.  1.
       -2    1    3    3    0  502  0.63211658616E+03  0.14695504672E+04 -0.13229289525E+03  0.16051951172E+04  0.25500000920E-02 0. -1.
</event>
<event>
 5   0  0.8195618E-07  0.3187722E+04  0.7818609E-02  0.8192067E-01
        2   -1    0    0  501    0  0.00000000000E+00  0.00000000000E+00  0.25454386980E+04  0.25454386980E+04  0.25500000920E-02 0.  1.
       -2   -1    0    0    0  501  0.00000000000E+00  0.00000000000E+00 -0.99801793766E+03  0.99801793767E+03  0.25500000920E-02 0. -1.
    10030    2    1    2    0    0  0.00000000000E+00  0.00000000000E+00  0.15474207604E+04  0.35434566357E+04  0.31877223718E+04 0.  0.
        1    1    3    3  502    0  0.24562594121E+03 -0.84494894099E+03  0.22509708062E+04  0.24168451308E+04  0.50400001928E-02 0.  1.
       -1    1    3    3    0  502 -0.24562594121E+03  0.84494894099E+03 -0.70355004585E+03  0.11266115049E+04  0.50400001928E-02 0. -1.
</event>
<event>
 5   0  0.8838951E-07  0.3209412E+04  0.7818609E-02  0.8186336E-01
        2   -1    0    0  501    0  0.00000000000E+00  0.00000000000E+00  0.17499124196E+04  0.17499124196E+04  0.25500000920E-02 0. -1.
       -2   -1    0    0    0  501  0.00000000000E+00  0.00000000000E+00 -0.14715485675E+04  0.14715485675E+04  0.25500000920E-02 0.  1.
    10030    2    1    2    0    0  0.00000000000E+00  0.00000000000E+00  0.27836385207E+03  0.32214609871E+04  0.32094118553E+04 0.  0.
        2    1    3    3  502    0  0.96692672483E+03  0.29685840773E+03 -0.11112916778E+04  0.15026780755E+04  0.25500000920E-02 0.  1.
       -2    1    3    3    0  502 -0.96692672483E+03 -0.29685840773E+03  0.13896555299E+04  0.17187829116E+04  0.25500000920E-02 0. -1.
</event>
<event>
 5   0  0.2783875E-07  0.3200758E+04  0.7818609E-02  0.8188617E-01
        3   -1    0    0  501    0  0.00000000000E+00  0.00000000000E+00  0.16577060505E+04  0.16577060536E+04  0.10100000352E+00 0.  1.
       -3   -1    0    0    0  501  0.00000000000E+00  0.00000000000E+00 -0.15450347565E+04  0.15450347598E+04  0.10100000352E+00 0. -1.
    10030    2    1    2    0    0  0.00000000000E+00  0.00000000000E+00  0.11267129406E+03  0.32027408134E+04  0.32007583316E+04 0.  0.
        1    1    3    3  502    0 -0.18523866052E+03  0.99832998760E+03 -0.11814581682E+04  0.15578252561E+04  0.50400001928E-02 0. -1.
       -1    1    3    3    0  502  0.18523866052E+03 -0.99832998760E+03  0.12941294622E+04  0.16449155573E+04  0.50400001928E-02 0.  1.
</event>
<event>
 5   0  0.2891204E-07  0.3195106E+04  0.7818609E-02  0.8190111E-01
       -1   -1    0    0    0  501  0.00000000000E+00  0.00000000000E+00  0.15980107456E+04  0.15980107456E+04  0.50400001928E-02 0.  1.
        1   -1    0    0  501    0  0.00000000000E+00  0.00000000000E+00 -0.15970948994E+04  0.15970948994E+04  0.50400001928E-02 0. -1.
    10030    2    1    2    0    0  0.00000000000E+00  0.00000000000E+00  0.91584618274E+00  0.31951056450E+04  0.31951055137E+04 0.  0.
        4    1    3    3  502    0  0.12816990756E+04  0.81559088686E+03  0.49465646908E+03  0.15976944797E+04  0.12699999809E+01 0.  1.
       -4    1    3    3    0  502 -0.12816990756E+04 -0.81559088686E+03 -0.49374062290E+03  0.15974111652E+04  0.12699999809E+01 0. -1.
</event>
<event>
 5   0  0.8335929E-07  0.3194254E+04  0.7818609E-02  0.8190336E-01
       -2   -1    0    0    0  501  0.00000000000E+00  0.00000000000E+00  0.85150685665E+03  0.85150685665E+03  0.25500000920E-02 0.  1.
        2   -1    0    0  501    0  0.00000000000E+00  0.00000000000E+00 -0.29956470301E+04  0.29956470301E+04  0.25500000920E-02 0. -1.
    10030    2    1    2    0    0  0.00000000000E+00  0.00000000000E+00 -0.21441401735E+04  0.38471538868E+04  0.31942535818E+04 0.  0.
        4    1    3    3  502    0  0.87973237802E+03  0.39889103450E+03  0.45982300399E+03  0.10698046187E+04  0.12699999809E+01 0.  1.
       -4    1    3    3    0  502 -0.87973237802E+03 -0.39889103450E+03 -0.26039631775E+04  0.27773492681E+04  0.12699999809E+01 0. -1.
</event>
<event>
 5   0  0.8802800E-07  0.3201512E+04  0.7818609E-02  0.8188418E-01
        2   -1    0    0  501    0  0.00000000000E+00  0.00000000000E+00  0.12524270955E+04  0.12524270955E+04  0.25500000920E-02 0. -1.
       -2   -1    0    0    0  501  0.00000000000E+00  0.00000000000E+00 -0.20459633328E+04  0.20459633328E+04  0.25500000920E-02 0.  1.
    10030    2    1    2    0    0  0.00000000000E+00  0.00000000000E+00 -0.79353623728E+03  0.32983904283E+04  0.32015120892E+04 0.  0.
        5    1    3    3  502    0 -0.13322218460E+04 -0.15975507089E+03 -0.12961451881E+04  0.18655699312E+04  0.46999998093E+01 0.  1.
       -5    1    3    3    0  502  0.13322218460E+04  0.15975507089E+03  0.50260895077E+03  0.14328204971E+04  0.46999998093E+01 0. -1.
</event>
<event>
 5   0  0.3013888E-07  0.3192526E+04  0.7818609E-02  0.8190794E-01
       -1   -1    0    0    0  501  0.00000000000E+00  0.00000000000E+00  0.20589744043E+04  0.20589744043E+04  0.50400001928E-02 0. -1.
        1   -1    0    0  501    0  0.00000000000E+00  0.00000000000E+00 -0.12375363710E+04  0.12375363710E+04  0.50400001928E-02 0.  1.
    10030    2    1    2    0    0  0.00000000000E+00  0.00000000000E+00  0.82143803329E+03  0.32965107753E+04  0.31925260922E+04 0.  0.
        1    1    3    3  502    0 -0.79749002811E+03 -0.95180494323E+02  0.18351457890E+04  0.20031998748E+04  0.50400001928E-02 0. -1.
       -1    1    3    3    0  502  0.79749002811E+03  0.95180494323E+02 -0.10137077557E+04  0.12933109005E+04  0.50400001928E-02 0.  1.
</event>
<event>
 5   0  0.8335929E-07  0.3180150E+04  0.7818609E-02  0.8194079E-01
       -2   -1    0    0    0  501  0.00000000000E+00  0.00000000000E+00  0.16163536443E+04  0.16163536443E+04  0.25500000920E-02 0. -1.
        2   -1    0    0  501    0  0.00000000000E+00  0.00000000000E+00 -0.15642237642E+04  0.15642237642E+04  0.25500000920E-02 0.  1.
    10030    2    1    2    0    0  0.00000000000E+00  0.00000000000E+00  0.52129880157E+02  0.31805774085E+04  0.31801501736E+04 0.  0.
        4    1    3    3  502    0  0.84316750945E+03 -0.65235284336E+03 -0.11538568728E+04  0.15709497054E+04  0.12699999809E+01 0.  1.
       -4    1    3    3    0  502 -0.84316750945E+03  0.65235284336E+03  0.12059867529E+04  0.16096277030E+04  0.12699999809E+01 0. -1.
</event>
<event>
 5   0  0.2997105E-07  0.3195056E+04  0.7818609E-02  0.8190124E-01
        1   -1    0    0  501    0  0.00000000000E+00  0.00000000000E+00  0.79519182750E+03  0.79519182751E+03  0.50400001928E-02 0.  1.
       -1   -1    0    0    0  501  0.00000000000E+00  0.00000000000E+00 -0.32094097481E+04  0.32094097481E+04  0.50400001928E-02 0. -1.
    10030    2    1    2    0    0  0.00000000000E+00  0.00000000000E+00 -0.24142179206E+04  0.40046015756E+04  0.31950564332E+04 0.  0.
        3    1    3    3  502    0  0.24748078841E+03 -0.82752031660E+03  0.47729727674E+03  0.98683803920E+03  0.10100000352E+00 0.  1.
       -3    1    3    3    0  502 -0.24748078841E+03  0.82752031660E+03 -0.28915151973E+04  0.30177635364E+04  0.10100000352E+00 0. -1.
</event>
<event>
 5   0  0.2783875E-07  0.3194413E+04  0.7818609E-02  0.8190294E-01
        1   -1    0    0  501    0  0.00000000000E+00  0.00000000000E+00  0.15087303448E+04  0.15087303448E+04  0.50400001928E-02 0. -1.
       -1   -1    0    0    0  501  0.00000000000E+00  0.00000000000E+00 -0.16908707548E+04  0.16908707548E+04  0.50400001928E-02 0.  1.
    10030    2    1    2    0    0  0.00000000000E+00  0.00000000000E+00 -0.18214041001E+03  0.31996010997E+04  0.31944126327E+04 0.  0.
        2    1    3    3  502    0  0.23986868807E+03 -0.63751735114E+03 -0.15380975164E+04  0.16821739894E+04  0.25500000920E-02 0.  1.
       -2    1    3    3    0  502 -0.23986868807E+03  0.63751735114E+03  0.13559571064E+04  0.15174271103E+04  0.25500000920E-02 0. -1.
</event>
<event>
 5   0  0.2783875E-07  0.3229543E+04  0.7818609E-02  0.8181058E-01
       -1   -1    0    0    0  501  0.00000000000E+00  0.00000000000E+00  0.11234708171E+04  0.11234708171E+04  0.50400001928E-02 0.  1.
        1   -1    0    0  501    0  0.00000000000E+00  0.00000000000E+00 -0.23209205525E+04  0.23209205525E+04  0.50400001928E-02 0. -1.
    10030    2    1    2    0    0  0.00000000000E+00  0.00000000000E+00 -0.11974497354E+04  0.34443913696E+04  0.32295426980E+04 0.  0.
        2    1    3    3  502    0  0.47282824643E+03  0.23240409810E+03 -0.22266741677E+04  0.22881556032E+04  0.25500000920E-02 0. -1.
       -2    1    3    3    0  502 -0.47282824643E+03 -0.23240409810E+03  0.10292244323E+04  0.11562357664E+04  0.25500000920E-02 0.  1.
</event>
<event>
 5   0  0.3013888E-07  0.2976942E+04  0.7818609E-02  0.8250346E-01
       -1   -1    0    0    0  501  0.00000000000E+00  0.00000000000E+00  0.11004156357E+04  0.11004156357E+04  0.50400001928E-02 0.  1.
        1   -1    0    0  501    0  0.00000000000E+00  0.00000000000E+00 -0.20133714536E+04  0.20133714536E+04  0.50400001928E-02 0. -1.
    10030    2    1    2    0    0  0.00000000000E+00  0.00000000000E+00 -0.91295581796E+03  0.31137870893E+04  0.29769416709E+04 0.  0.
        1    1    3    3  502    0  0.72024249188E+03 -0.57787900348E+03 -0.16775546032E+04  0.19149106602E+04  0.50400001928E-02 0. -1.
       -1    1    3    3    0  502 -0.72024249188E+03  0.57787900348E+03  0.76459878526E+03  0.11988764291E+04  0.50400001928E-02 0.  1.
</event>
<event>
 5   0  0.3075756E-07  0.3066415E+04  0.7818609E-02  0.8225016E-01
       -1   -1    0    0    0  501  0.00000000000E+00  0.00000000000E+00  0.14030033101E+04  0.14030033101E+04  0.50400001928E-02 0. -1.
        1   -1    0    0  501    0  0.00000000000E+00  0.00000000000E+00 -0.16754951448E+04  0.16754951448E+04  0.50400001928E-02 0.  1.
    10030    2    1    2    0    0  0.00000000000E+00  0.00000000000E+00 -0.27249183468E+03  0.30784984549E+04  0.30664149975E+04 0.  0.
        5    1    3    3  502    0 -0.65710440917E+03 -0.13778281741E+04 -0.28001098749E+03  0.15519745246E+04  0.46999998093E+01 0.  1.
       -5    1    3    3    0  502  0.65710440917E+03  0.13778281741E+04  0.75191528112E+01  0.15265239303E+04  0.46999998093E+01 0. -1.
</event>
<event>
 5   0  0.2783875E-07  0.3193885E+04  0.7818609E-02  0.8190434E-01
       -1   -1    0    0    0  501  0.00000000000E+00  0.00000000000E+00  0.12258928847E+04  0.12258928847E+04  0.50400001928E-02 0.  1.
        1   -1    0    0  501    0  0.00000000000E+00  0.00000000000E+00 -0.20802996727E+04  0.20802996727E+04  0.50400001928E-02 0. -1.
    10030    2    1    2    0    0  0.00000000000E+00  0.00000000000E+00 -0.85440678795E+03  0.33061925574E+04  0.31938845107E+04 0.  0.
        2    1    3    3  502    0 -0.32208520631E+02 -0.30427629010E+03 -0.20496724963E+04  0.20723848078E+04  0.25500000920E-02 0. -1.
       -2    1    3    3    0  502  0.32208520631E+02  0.30427629010E+03  0.11952657083E+04  0.12338077496E+04  0.25500000920E-02 0.  1.
</event>
<event>
 5   0  0.8335929E-07  0.3201053E+04  0.7818609E-02  0.8188539E-01
        2   -1    0    0  501    0  0.00000000000E+00  0.00000000000E+00  0.20972018301E+04  0.20972018301E+04  0.25500000920E-02 0.  1.
       -2   -1    0    0    0  501  0.00000000000E+00  0.00000000000E+00 -0.12214772656E+04  0.12214772656E+04  0.25500000920E-02 0. -1.
    10030    2    1    2    0    0  0.00000000000E+00  0.00000000000E+00  0.87572456446E+03  0.33186790957E+04  0.32010525499E+04 0.  0.
        4    1    3    3  502    0 -0.99391618421E+03 -0.11187432589E+03 -0.85757170712E+03  0.13175037350E+04  0.12699999809E+01 0. -1.
       -4    1    3    3    0  502  0.99391618421E+03  0.11187432589E+03  0.17332962716E+04  0.20011753606E+04  0.12699999809E+01 0.  1.
</event>
<event>
 5   0  0.8335929E-07  0.3202927E+04  0.7818609E-02  0.8188045E-01
       -2   -1    0    0    0  501  0.00000000000E+00  0.00000000000E+00  0.14421476292E+04  0.14421476292E+04  0.25500000920E-02 0.  1.
        2   -1    0    0  501    0  0.00000000000E+00  0.00000000000E+00 -0.17783791153E+04  0.17783791153E+04  0.25500000920E-02 0. -1.
    10030    2    1    2    0    0  0.00000000000E+00  0.00000000000E+00 -0.33623148603E+03  0.32205267445E+04  0.32029269270E+04 0.  0.
        4    1    3    3  502    0 -0.48622539498E+03  0.15232690557E+04 -0.25759835828E+03  0.16196055933E+04  0.12699999809E+01 0. -1.
       -4    1    3    3    0  502  0.48622539498E+03 -0.15232690557E+04 -0.78633127758E+02  0.16009211512E+04  0.12699999809E+01 0.  1.
</event>
<event>
 5   0  0.8195618E-07  0.3189477E+04  0.7818609E-02  0.8191602E-01
        2   -1    0    0  501    0  0.00000000000E+00  0.00000000000E+00  0.24015835606E+04  0.24015835606E+04  0.25500000920E-02 0.  1.
       -2   -1    0    0    0  501  0.00000000000E+00  0.00000000000E+00 -0.10589642301E+04  0.10589642301E+04  0.25500000920E-02 0. -1.
    10030    2    1    2    0    0  0.00000000000E+00  0.00000000000E+00  0.13426193305E+04  0.34605477907E+04  0.31894771272E+04 0.  0.
        1    1    3    3  502    0 -0.33990357792E+02  0.40013010625E+03 -0.10032090505E+04  0.10805960602E+04  0.50400001928E-02 0. -1.
       -1    1    3    3    0  502  0.33990357792E+02 -0.40013010625E+03  0.23458283810E+04  0.23799517305E+04  0.50400001928E-02 0.  1.
</event>
<event>
 5   0  0.2891204E-07  0.3238346E+04  0.7818609E-02  0.8178763E-01
        1   -1    0    0  501    0  0.00000000000E+00  0.00000000000E+00  0.14492747292E+04  0.14492747292E+04  0.50400001928E-02 0. -1.
       -1   -1    0    0    0  501  0.00000000000E+00  0.00000000000E+00 -0.18089882004E+04  0.18089882004E+04  0.50400001928E-02 0.  1.
    10030    2    1    2    0    0  0.00000000000E+00  0.00000000000E+00 -0.35971347119E+03  0.32582629297E+04  0.32383458026E+04 0.  0.
        4    1    3    3  502    0 -0.11847970298E+04 -0.19250850403E+02 -0.12900946599E+04  0.17517021555E+04  0.12699999809E+01 0.  1.
       -4    1    3    3    0  502  0.11847970298E+04  0.19250850403E+02  0.93038118870E+03  0.15065607742E+04  0.12699999809E+01 0. -1.
</event>
<event>
 5   0  0.2891204E-07  0.3222710E+04  0.7818609E-02  0.8182845E-01
        1   -1    0    0  501    0  0.00000000000E+00  0.00000000000E+00  0.16868605126E+04  0.16868605126E+04  0.50400001928E-02 0. -1.
       -1   -1    0    0    0  501  0.00000000000E+00  0.00000000000E+00 -0.15392290748E+04  0.15392290749E+04  0.50400001928E-02 0.  1.
    10030    2    1    2    0    0  0.00000000000E+00  0.00000000000E+00  0.14763143777E+03  0.32260895875E+04  0.32227098822E+04 0.  0.
        4    1    3    3  502    0  0.11544800455E+04 -0.10834482438E+04 -0.22612971710E+03  0.15993187720E+04  0.12699999809E+01 0.  1.
       -4    1    3    3    0  502 -0.11544800455E+04  0.10834482438E+04  0.37376115487E+03  0.16267708155E+04  0.12699999809E+01 0. -1.
</event>
<event>
 5   0  0.8802800E-07  0.3192318E+04  0.7818609E-02  0.8190849E-01
        2   -1    0    0  501    0  0.00000000000E+00  0.00000000000E+00  0.27768860407E+04  0.27768860407E+04  0.25500000920E-02 0. -1.
       -2   -1    0    0    0  501  0.00000000000E+00  0.00000000000E+00 -0.91747472817E+03  0.91747472817E+03  0.25500000920E-02 0.  1.
    10030    2    1    2    0    0  0.00000000000E+00  0.00000000000E+00  0.18594113125E+04  0.36943607688E+04  0.31923175063E+04 0.  0.
        5    1    3    3  502    0  0.62300175962E+03 -0.18733142984E+03  0.26164885249E+04  0.26961562544E+04  0.46999998093E+01 0. -1.
       -5    1    3    3    0  502 -0.62300175962E+03  0.18733142984E+03 -0.75707721242E+03  0.99820451444E+03  0.46999998093E+01 0.  1.
</event>
<event>
 5   0  0.3075756E-07  0.3201307E+04  0.7818609E-02  0.8188472E-01
       -1   -1    0    0    0  501  0.00000000000E+00  0.00000000000E+00  0.99264718854E+03  0.99264718856E+03  0.50400001928E-02 0.  1.
        1   -1    0    0  501    0  0.00000000000E+00  0.00000000000E+00 -0.25810697875E+04  0.25810697875E+04  0.50400001928E-02 0. -1.
    10030    2    1    2    0    0  0.00000000000E+00  0.00000000000E+00 -0.15884225989E+04  0.35737169760E+04  0.32013070256E+04 0.  0.
        5    1    3    3  502    0  0.14626668634E+04  0.12713882133E+03 -0.15059637138E+04  0.21032135960E+04  0.46999998093E+01 0. -1.
       -5    1    3    3    0  502 -0.14626668634E+04 -0.12713882133E+03 -0.82458885161E+02  0.14705033801E+04  0.46999998093E+01 0.  1.
</event>
<event>
 5   0  0.3075756E-07  0.3147244E+04  0.7818609E-02  0.8202890E-01
       -1   -1    0    0    0  501  0.00000000000E+00  0.00000000000E+00  0.21524844049E+04  0.21524844049E+04  0.50400001928E-02 0. -1.
        1   -1    0    0  501    0  0.00000000000E+00  0.00000000000E+00 -0.11504317997E+04  0.11504317997E+04  0.50400001928E-02 0.  1.
    10030    2    1    2    0    0  0.00000000000E+00  0.00000000000E+00  0.10020526053E+04  0.33029162046E+04  0.31472441963E+04 0.  0.
        5    1    3    3  502    0  0.40036352130E+03  0.19938509376E+03 -0.10823135442E+04  0.11710978024E+04  0.46999998093E+01 0.  1.
       -5    1    3    3    0  502 -0.40036352130E+03 -0.19938509376E+03  0.20843661495E+04  0.21318184022E+04  0.46999998093E+01 0. -1.
</event>
<event>
 5   0  0.8838951E-07  0.3196345E+04  0.7818609E-02  0.8189783E-01
       -2   -1    0    0    0  501  0.00000000000E+00  0.00000000000E+00  0.12299943064E+04  0.12299943064E+04  0.25500000920E-02 0.  1.
        2   -1    0    0  501    0  0.00000000000E+00  0.00000000000E+00 -0.20765592356E+04  0.20765592356E+04  0.25500000920E-02 0. -1.
    10030    2    1    2    0    0  0.00000000000E+00  0.00000000000E+00 -0.84656492920E+03  0.33065535421E+04  0.31963454362E+04 0.  0.
        2    1    3    3  502    0  0.16207985730E+03 -0.13813834226E+04 -0.12376129319E+04  0.18617668516E+04  0.25500000920E-02 0. -1.
       -2    1    3    3    0  502 -0.16207985730E+03  0.13813834226E+04  0.39104800275E+03  0.14447866905E+04  0.25500000920E-02 0.  1.
</event>
<event>
 5   0  0.2997105E-07  0.3192682E+04  0.7818609E-02  0.8190752E-01
       -1   -1    0    0    0  501  0.00000000000E+00  0.00000000000E+00  0.10819615732E+04  0.10819615732E+04  0.50400001928E-02 0.  1.
        1   -1    0    0  501    0  0.00000000000E+00  0.00000000000E+00 -0.23552639634E+04  0.23552639634E+04  0.50400001928E-02 0. -1.
    10030    2    1    2    0    0  0.00000000000E+00  0.00000000000E+00 -0.12733023901E+04  0.34372255366E+04  0.31926823226E+04 0.  0.
        3    1    3    3  502    0  0.76200125703E+03 -0.48014921405E+03  0.78229759155E+03  0.11929705426E+04  0.10100000352E+00 0.  1.
       -3    1    3    3    0  502 -0.76200125703E+03  0.48014921405E+03 -0.20555999817E+04  0.22442549940E+04  0.10100000352E+00 0. -1.
</event>
<event>
 5   0  0.8488469E-07  0.3154222E+04  0.7818609E-02  0.8201013E-01
       -2   -1    0    0    0  501  0.00000000000E+00  0.00000000000E+00  0.13980340559E+04  0.13980340559E+04  0.25500000920E-02 0.  1.
        2   -1    0    0  501    0  0.00000000000E+00  0.00000000000E+00 -0.17791267236E+04  0.17791267236E+04  0.25500000920E-02 0. -1.
    10030    2    1    2    0    0  0.00000000000E+00  0.00000000000E+00 -0.38109266770E+03  0.31771607795E+04  0.31542224078E+04 0.  0.
        3    1    3    3  502    0  0.32398399603E+03  0.64625799871E+02  0.13627895363E+04  0.14022615499E+04  0.10100000352E+00 0.  1.
       -3    1    3    3    0  502 -0.32398399603E+03 -0.64625799871E+02 -0.17438822040E+04  0.17748992297E+04  0.10100000352E+00 0. -1.
</event>
<event>
 5   0  0.8335929E-07  0.3157063E+04  0.7818609E-02  0.8200250E-01
        2   -1    0    0  501    0  0.00000000000E+00  0.00000000000E+00  0.19398690858E+04  0.19398690858E+04  0.25500000920E-02 0. -1.
       -2   -1    0    0    0  501  0.00000000000E+00  0.00000000000E+00 -0.12844999925E+04  0.12844999925E+04  0.25500000920E-02 0.  1.
    10030    2    1    2    0    0  0.00000000000E+00  0.00000000000E+00  0.65536909329E+03  0.32243690783E+04  0.31570630821E+04 0.  0.
        4    1    3    3  502    0  0.47929982506E+03 -0.73189576583E+03  0.16696064155E+04  0.18849368504E+04  0.12699999809E+01 0. -1.
       -4    1    3    3    0  502 -0.47929982506E+03  0.73189576583E+03 -0.10142373222E+04  0.13394322279E+04  0.12699999809E+01 0.  1.
</event>
<event>
 5   0  0.8335929E-07  0.3196197E+04  0.7818609E-02  0.8189822E-01
       -2   -1    0    0    0  501  0.00000000000E+00  0.00000000000E+00  0.18440086501E+04  0.18440086501E+04  0.25500000920E-02 0.  1.
        2   -1    0    0  501    0  0.00000000000E+00  0.00000000000E+00 -0.13849815842E+04  0.13849815842E+04  0.25500000920E-02 0. -1.
    10030    2    1    2    0    0  0.00000000000E+00  0.00000000000E+00  0.45902706584E+03  0.32289902343E+04  0.31961965030E+04 0.  0.
        4    1    3    3  502    0 -0.51973957839E+03  0.67123002228E+03  0.15973765832E+04  0.18089479079E+04  0.12699999809E+01 0.  1.
       -4    1    3    3    0  502  0.51973957839E+03 -0.67123002228E+03 -0.11383495173E+04  0.14200423264E+04  0.12699999809E+01 0. -1.
</event>
<event>
 5   0  0.2783875E-07  0.3213284E+04  0.7818609E-02  0.8185318E-01
        1   -1    0    0  501    0  0.00000000000E+00  0.00000000000E+00  0.20840612269E+04  0.20840612269E+04  0.50400001928E-02 0. -1.
       -1   -1    0    0    0  501  0.00000000000E+00  0.00000000000E+00 -0.12385909201E+04  0.12385909201E+04  0.50400001928E-02 0.  1.
    10030    2    1    2    0    0  0.00000000000E+00  0.00000000000E+00  0.84547030683E+03  0.33226521470E+04  0.32132844956E+04 0.  0.
        2    1    3    3  502    0 -0.14508004513E+03 -0.48845563277E+03 -0.11528258111E+04  0.12604144062E+04  0.25500000920E-02 0.  1.
       -2    1    3    3    0  502  0.14508004513E+03  0.48845563277E+03  0.19982961179E+04  0.20622377408E+04  0.25500000920E-02 0. -1.
</event>
<event>
 5   0  0.8195618E-07  0.3201779E+04  0.7818609E-02  0.8188348E-01
        2   -1    0    0  501    0  0.00000000000E+00  0.00000000000E+00  0.20558674895E+04  0.20558674895E+04  0.25500000920E-02 0.  1.
       -2   -1    0    0    0  501  0.00000000000E+00  0.00000000000E+00 -0.12466011589E+04  0.12466011589E+04  0.25500000920E-02 0. -1.
    10030    2    1    2    0    0  0.00000000000E+00  0.00000000000E+00  0.80926633064E+03  0.33024686484E+04  0.32017787524E+04 0.  0.
        1    1    3    3  502    0  0.14379824234E+04  0.59442117771E+03  0.16341501720E+02  0.15560838767E+04  0.50400001928E-02 0.  1.
       -1    1    3    3    0  502 -0.14379824234E+04 -0.59442117771E+03  0.79292482892E+03  0.17463847717E+04  0.50400001928E-02 0. -1.
</event>
<event>
 5   0  0.3013888E-07  0.3207226E+04  0.7818609E-02  0.8186911E-01
       -1   -1    0    0    0  501  0.00000000000E+00  0.00000000000E+00  0.10995045083E+04  0.10995045083E+04  0.50400001928E-02 0.  1.
        1   -1    0    0  501    0  0.00000000000E+00  0.00000000000E+00 -0.23388488501E+04  0.23388488501E+04  0.50400001928E-02 0. -1.
    10030    2    1    2    0    0  0.00000000000E+00  0.00000000000E+00 -0.12393443417E+04  0.34383533584E+04  0.32072261255E+04 0.  0.
        1    1    3    3  502    0 -0.63936557939E+03 -0.26530579314E+03 -0.21704272559E+04  0.22781417825E+04  0.50400001928E-02 0. -1.
       -1    1    3    3    0  502  0.63936557939E+03  0.26530579314E+03  0.93108291412E+03  0.11602115760E+04  0.50400001928E-02 0.  1.
</event>
<event>
 5   0  0.3075756E-07  0.3205998E+04  0.7818609E-02  0.8187235E-01
       -1   -1    0    0    0  501  0.00000000000E+00  0.00000000000E+00  0.12007840613E+04  0.12007840613E+04  0.50400001928E-02 0. -1.
        1   -1    0    0  501    0  0.00000000000E+00  0.00000000000E+00 -0.21399397157E+04  0.21399397157E+04  0.50400001928E-02 0.  1.
    10030    2    1    2    0    0  0.00000000000E+00  0.00000000000E+00 -0.93915565436E+03  0.33407237770E+04  0.32059978183E+04 0.  0.
        5    1    3    3  502    0  0.46212417789E+03  0.12077174048E+04 -0.14567226268E+04  0.19478713990E+04  0.46999998093E+01 0.  1.
       -5    1    3    3    0  502 -0.46212417789E+03 -0.12077174048E+04  0.51756697247E+03  0.13928523779E+04  0.46999998093E+01 0. -1.
</event>
<event>
 5   0  0.8195618E-07  0.3210023E+04  0.7818609E-02  0.8186175E-01
       -2   -1    0    0    0  501  0.00000000000E+00  0.00000000000E+00  0.89806670292E+03  0.89806670292E+03  0.25500000920E-02 0. -1.
        2   -1    0    0  501    0  0.00000000000E+00  0.00000000000E+00 -0.28684525353E+04  0.28684525353E+04  0.25500000920E-02 0.  1.
    10030    2    1    2    0    0  0.00000000000E+00  0.00000000000E+00 -0.19703858324E+04  0.37665192382E+04  0.32100228727E+04 0.  0.
        1    1    3    3  502    0  0.90218088353E+03  0.34821569403E+03 -0.24882314077E+04  0.26695467882E+04  0.50400001928E-02 0.  1.
       -1    1    3    3    0  502 -0.90218088353E+03 -0.34821569403E+03  0.51784557532E+03  0.10969724500E+04  0.50400001928E-02 0. -1.
</event>
<event>
 5   0  0.3075756E-07  0.3202721E+04  0.7818609E-02  0.8188099E-01
        1   -1    0    0  501    0  0.00000000000E+00  0.00000000000E+00  0.15373384375E+04  0.15373384375E+04  0.50400001928E-02 0.  1.
       -1   -1    0    0    0  501  0.00000000000E+00  0.00000000000E+00 -0.16680482730E+04  0.16680482730E+04  0.50400001928E-02 0. -1.
    10030    2    1    2    0    0  0.00000000000E+00  0.00000000000E+00 -0.13070983551E+03  0.32053867105E+04  0.32027205471E+04 0.  0.
        5    1    3    3  502    0  0.50445218907E+03  0.14615060463E+04 -0.48266809615E+03  0.16197106271E+04  0.46999998093E+01 0. -1.
       -5    1    3    3    0  502 -0.50445218907E+03 -0.14615060463E+04  0.35195826064E+03  0.15856760834E+04  0.46999998093E+01 0.  1.
</event>
<event>
 5   0  0.2997105E-07  0.3201927E+04  0.7818609E-02  0.8188308E-01
       -1   -1    0    0    0  501  0.00000000000E+00  0.00000000000E+00  0.16710234638E+04  0.16710234638E+04  0.50400001928E-02 0. -1.
        1   -1    0    0  501    0  0.00000000000E+00  0.00000000000E+00 -0.15338411463E+04  0.15338411463E+04  0.50400001928E-02 0.  1.
    10030    2    1    2    0    0  0.00000000000E+00  0.00000000000E+00  0.13718231755E+03  0.32048646101E+04  0.32019272604E+04 0.  0.
        3    1    3    3  502    0  0.15085355228E+04 -0.35376194752E+03 -0.33459047876E+03  0.15851743556E+04  0.10100000352E+00 0.  1.
       -3    1    3    3    0  502 -0.15085355228E+04  0.35376194752E+03  0.47177279630E+03  0.16196902545E+04  0.10100000352E+00 0. -1.
</event>
<event>
 5   0  0.2891204E-07  0.3206041E+04  0.7818609E-02  0.8187224E-01
       -1   -1    0    0    0  501  0.00000000000E+00  0.00000000000E+00  0.14347867254E+04  0.14347867254E+04  0.50400001928E-02 0.  1.
        1   -1    0    0  501    0  0.00000000000E+00  0.00000000000E+00 -0.17909799428E+04  0.17909799428E+04  0.50400001928E-02 0. -1.
    10030    2    1    2    0    0  0.00000000000E+00  0.00000000000E+00 -0.35619321743E+03  0.32257666682E+04  0.32060407030E+04 0.  0.
        4    1    3    3  502    0 -0.48372376211E+03 -0.61400222874E+03 -0.15862379251E+04  0.17683720714E+04  0.12699999809E+01 0. -1.
       -4    1    3    3    0  502  0.48372376211E+03  0.61400222874E+03  0.12300447077E+04  0.14573945968E+04  0.12699999809E+01 0.  1.
</event>
<event>
 5   0  0.8802800E-07  0.3182152E+04  0.7818609E-02  0.8193547E-01
       -2   -1    0    0    0  501  0.00000000000E+00  0.00000000000E+00  0.20306301909E+04  0.20306301909E+04  0.25500000920E-02 0.  1.
        2   -1    0    0  501    0  0.00000000000E+00  0.00000000000E+00 -0.12466688049E+04  0.12466688049E+04  0.25500000920E-02 0. -1.
    10030    2    1    2    0    0  0.00000000000E+00  0.00000000000E+00  0.78396138600E+03  0.32772989957E+04  0.31821522988E+04 0.  0.
        5    1    3    3  502    0  0.92859353627E+03  0.12440929820E+04  0.33066903878E+02  0.15527938735E+04  0.46999998093E+01 0. -1.
       -5    1    3    3    0  502 -0.92859353627E+03 -0.12440929820E+04  0.75089448212E+03  0.17245051223E+04  0.46999998093E+01 0.  1.
</event>
<event>
 5   0  0.8195618E-07  0.3269854E+04  0.7818609E-02  0.8170609E-01
        2   -1    0    0  501    0  0.00000000000E+00  0.00000000000E+00  0.23127707008E+04  0.23127707008E+04  0.25500000920E-02 0.  1.
       -2   -1    0    0    0  501  0.00000000000E+00  0.00000000000E+00 -0.11557505080E+04  0.11557505080E+04  0.25500000920E-02 0. -1.
    10030    2    1    2    0    0  0.00000000000E+00  0.00000000000E+00  0.11570201928E+04  0.34685212088E+04  0.32698537658E+04 0.  0.
        1    1    3    3  502    0  0.13380340621E+04 -0.54747011115E+03  0.13883948034E+04  0.20044198174E+04  0.50400001928E-02 0.  1.
       -1    1    3    3    0  502 -0.13380340621E+04  0.54747011115E+03 -0.23137461064E+03  0.14641013915E+04  0.50400001928E-02 0. -1.
</event>
<event>
 5   0  0.2783875E-07  0.3165952E+04  0.7818609E-02  0.8197867E-01
        1   -1    0    0  501    0  0.00000000000E+00  0.00000000000E+00  0.14001021475E+04  0.14001021475E+04  0.50400001928E-02 0. -1.
       -1   -1    0    0    0  501  0.00000000000E+00  0.00000000000E+00 -0.17897357721E+04  0.17897357721E+04  0.50400001928E-02 0.  1.
    10030    2    1    2    0    0  0.00000000000E+00  0.00000000000E+00 -0.38963362456E+03  0.31898379196E+04  0.31659519251E+04 0.  0.
        2    1    3    3  502    0 -0.15618557928E+04 -0.18061655668E+03 -0.95900941612E+01  0.15722938110E+04  0.25500000920E-02 0. -1.
       -2    1    3    3    0  502  0.15618557928E+04  0.18061655668E+03 -0.38004353040E+03  0.16175441086E+04  0.25500000920E-02 0.  1.
</event>
<event>
 5   0  0.3075756E-07  0.3222925E+04  0.7818609E-02  0.8182789E-01
        1   -1    0    0  501    0  0.00000000000E+00  0.00000000000E+00  0.15255203789E+04  0.15255203789E+04  0.50400001928E-02 0.  1.
       -1   -1    0    0    0  501  0.00000000000E+00  0.00000000000E+00 -0.17022467306E+04  0.17022467306E+04  0.50400001928E-02 0. -1.
    10030    2    1    2    0    0  0.00000000000E+00  0.00000000000E+00 -0.17672635168E+03  0.32277671094E+04  0.32229254272E+04 0.  0.
        5    1    3    3  502    0  0.74672348385E+02  0.92881318183E+03 -0.14050701995E+04  0.16859757536E+04  0.46999998093E+01 0. -1.
       -5    1    3    3    0  502 -0.74672348385E+02 -0.92881318183E+03  0.12283438478E+04  0.15417913558E+04  0.46999998093E+01 0.  1.
</event>
<event>
 5   0  0.8488469E-07  0.3287800E+04  0.7818609E-02  0.8166007E-01
       -2   -1    0    0    0  501  0.00000000000E+00  0.00000000000E+00  0.14871118797E+04  0.14871118797E+04  0.25500000920E-02 0. -1.
        2   -1    0    0  501    0  0.00000000000E+00  0.00000000000E+00 -0.18172185566E+04  0.18172185566E+04  0.25500000920E-02 0.  1.
    10030    2    1    2    0    0  0.00000000000E+00  0.00000000000E+00 -0.33010667689E+03  0.33043304363E+04  0.32878000569E+04 0.  0.
        3    1    3    3  502    0 -0.24951494652E+03 -0.20393983645E+03 -0.17851625455E+04  0.18140161216E+04  0.10100000352E+00 0.  1.
       -3    1    3    3    0  502  0.24951494652E+03  0.20393983645E+03  0.14550558686E+04  0.14903143146E+04  0.10100000352E+00 0. -1.
</event>
<event>
 5   0  0.8195618E-07  0.3173484E+04  0.7818609E-02  0.8195855E-01
       -2   -1    0    0    0  501  0.00000000000E+00  0.00000000000E+00  0.13688192546E+04  0.13688192546E+04  0.25500000920E-02 0. -1.
        2   -1    0    0  501    0  0.00000000000E+00  0.00000000000E+00 -0.18393595081E+04  0.18393595081E+04  0.25500000920E-02 0.  1.
    10030    2    1    2    0    0  0.00000000000E+00  0.00000000000E+00 -0.47054025346E+03  0.32081787627E+04  0.31734843380E+04 0.  0.
        1    1    3    3  502    0 -0.15817043357E+04  0.70614338987E+02 -0.34118055271E+03  0.16196231538E+04  0.50400001928E-02 0.  1.
       -1    1    3    3    0  502  0.15817043357E+04 -0.70614338987E+02 -0.12935970075E+03  0.15885556090E+04  0.50400001928E-02 0. -1.
</event>
<event>
 5   0  0.2783875E-07  0.3202036E+04  0.7818609E-02  0.8188280E-01
       -3   -1    0    0    0  501  0.00000000000E+00  0.00000000000E+00  0.95675829377E+03  0.95675829910E+03  0.10100000352E+00 0. -1.
        3   -1    0    0  501    0  0.00000000000E+00  0.00000000000E+00 -0.26791077035E+04  0.26791077054E+04  0.10100000352E+00 0.  1.
    10030    2    1    2    0    0  0.00000000000E+00  0.00000000000E+00 -0.17223494097E+04  0.36358660045E+04  0.32020359326E+04 0.  0.
        2    1    3    3  502    0  0.13273347942E+03  0.15663335793E+04 -0.51631689320E+03  0.16545700929E+04  0.25500000920E-02 0.  1.
       -2    1    3    3    0  502 -0.13273347942E+03 -0.15663335793E+04 -0.12060325165E+04  0.19812959116E+04  0.25500000920E-02 0. -1.
</event>
<event>
 5   0  0.2783875E-07  0.3196341E+04  0.7818609E-02  0.8189784E-01
       -1   -1    0    0    0  501  0.00000000000E+00  0.00000000000E+00  0.95304368189E+03  0.95304368191E+03  0.50400001928E-02 0. -1.
        1   -1    0    0  501    0  0.00000000000E+00  0.00000000000E+00 -0.26799914662E+04  0.26799914662E+04  0.50400001928E-02 0.  1.
    10030    2    1    2    0    0  0.00000000000E+00  0.00000000000E+00 -0.17269477843E+04  0.36330351481E+04  0.31963409921E+04 0.  0.
        2    1    3    3  502    0 -0.96426237626E+03 -0.15083612872E+03 -0.23019177309E+04  0.25002757264E+04  0.25500000920E-02 0.  1.
       -2    1    3    3    0  502  0.96426237626E+03  0.15083612872E+03  0.57496994662E+03  0.11327594217E+04  0.25500000920E-02 0. -1.
</event>
<event>
 5   0  0.3075756E-07  0.3203272E+04  0.7818609E-02  0.8187953E-01
       -1   -1    0    0    0  501  0.00000000000E+00  0.00000000000E+00  0.22086645262E+04  0.22086645262E+04  0.50400001928E-02 0.  1.
        1   -1    0    0  501    0  0.00000000000E+00  0.00000000000E+00 -0.11614432089E+04  0.11614432089E+04  0.50400001928E-02 0. -1.
    10030    2    1    2    0    0  0.00000000000E+00  0.00000000000E+00  0.10472213173E+04  0.33701077352E+04  0.32032723361E+04 0.  0.
        5    1    3    3  502    0  0.13456201274E+04  0.85772162076E+03  0.66800463969E+03  0.17299225979E+04  0.46999998093E+01 0.  1.
       -5    1    3    3    0  502 -0.13456201274E+04 -0.85772162076E+03  0.37921667763E+03  0.16401851373E+04  0.46999998093E+01 0. -1.
</event>
<event>
 5   0  0.2783875E-07  0.3206852E+04  0.7818609E-02  0.8187010E-01
        1   -1    0    0  501    0  0.00000000000E+00  0.00000000000E+00  0.16118837800E+04  0.16118837801E+04  0.50400001928E-02 0. -1.
       -1   -1    0    0    0  501  0.00000000000E+00  0.00000000000E+00 -0.15950126612E+04  0.15950126612E+04  0.50400001928E-02 0.  1.
    10030    2    1    2    0    0  0.00000000000E+00  0.00000000000E+00  0.16871118823E+02  0.32068964413E+04  0.32068520625E+04 0.  0.
        2    1    3    3  502    0  0.11670517795E+04 -0.10756959598E+04  0.23613013259E+03  0.16046460960E+04  0.25500000920E-02 0. -1.
       -2    1    3    3    0  502 -0.11670517795E+04  0.10756959598E+04 -0.21925901377E+03  0.16022503453E+04  0.25500000920E-02 0.  1.
</event>
<event>
 5   0  0.3075756E-07  0.3203588E+04  0.7818609E-02  0.8187870E-01
       -1   -1    0    0    0  501  0.00000000000E+00  0.00000000000E+00  0.80034359094E+03  0.80034359096E+03  0.50400001928E-02 0. -1.
        1   -1    0    0  501    0  0.00000000000E+00  0.00000000000E+00 -0.32058034701E+04  0.32058034701E+04  0.50400001928E-02 0.  1.
    10030    2    1    2    0    0  0.00000000000E+00  0.00000000000E+00 -0.24054598792E+04  0.40061470611E+04  0.32035881515E+04 0.  0.
        5    1    3    3  502    0  0.11203888412E+04 -0.50271346372E+03  0.83378709590E+02  0.12308395839E+04  0.46999998093E+01 0. -1.
       -5    1    3    3    0  502 -0.11203888412E+04  0.50271346372E+03 -0.24888385888E+04  0.27753074772E+04  0.46999998093E+01 0.  1.
</event>
<event>
 5   0  0.2783875E-07  0.3191902E+04  0.7818609E-02  0.8190959E-01
       -1   -1    0    0    0  501  0.00000000000E+00  0.00000000000E+00  0.16356485623E+04  0.16356485623E+04  0.50400001928E-02 0. -1.
        1   -1    0    0  501    0  0.00000000000E+00  0.00000000000E+00 -0.15572173874E+04  0.15572173874E+04  0.50400001928E-02 0.  1.
    10030    2    1    2    0    0  0.00000000000E+00  0.00000000000E+00  0.78431174957E+02  0.31928659497E+04  0.31919024928E+04 0.  0.
        2    1    3    3  502    0  0.87936520250E+03 -0.64370658778E+03  0.12055087922E+04  0.16250823913E+04  0.25500000920E-02 0. -1.
       -2    1    3    3    0  502 -0.87936520250E+03  0.64370658778E+03 -0.11270776173E+04  0.15677835584E+04  0.25500000920E-02 0.  1.
</event>
<event>
 5   0  0.8488469E-07  0.3209304E+04  0.7818609E-02  0.8186364E-01
       -2   -1    0    0    0  501  0.00000000000E+00  0.00000000000E+00  0.15861173700E+04  0.15861173700E+04  0.25500000920E-02 0.  1.
        2   -1    0    0  501    0  0.00000000000E+00  0.00000000000E+00 -0.16234036870E+04  0.16234036870E+04  0.25500000920E-02 0. -1.
    10030    2    1    2    0    0  0.00000000000E+00  0.00000000000E+00 -0.37286316988E+02  0.32095210570E+04  0.32093044645E+04 0.  0.
        3    1    3    3  502    0 -0.38258734108E+03  0.10340415628E+04 -0.11846093800E+04  0.16183060343E+04  0.10100000352E+00 0. -1.
       -3    1    3    3    0  502  0.38258734108E+03 -0.10340415628E+04  0.11473230631E+04  0.15912150227E+04  0.10100000352E+00 0.  1.
</event>
<event>
 5   0  0.8838951E-07  0.3182194E+04  0.7818609E-02  0.8193536E-01
       -2   -1    0    0    0  501  0.00000000000E+00  0.00000000000E+00  0.11740879486E+04  0.11740879486E+04  0.25500000920E-02 0.  1.
        2   -1    0    0  501    0  0.00000000000E+00  0.00000000000E+00 -0.21562180819E+04  0.21562180819E+04  0.25500000920E-02 0. -1.
    10030    2    1    2    0    0  0.00000000000E+00  0.00000000000E+00 -0.98213013326E+03  0.33303060304E+04  0.31821940006E+04 0.  0.
        2    1    3    3  502    0  0.95273493531E+03 -0.34026802562E+03  0.79414187309E+03  0.12861366571E+04  0.25500000920E-02 0.  1.
       -2    1    3    3    0  502 -0.95273493531E+03  0.34026802562E+03 -0.17762720064E+04  0.20441693733E+04  0.25500000920E-02 0. -1.
</event>
<event>
 5   0  0.8195618E-07  0.3202992E+04  0.7818609E-02  0.8188028E-01
       -2   -1    0    0    0  501  0.00000000000E+00  0.00000000000E+00  0.15937219467E+04  0.15937219467E+04  0.25500000920E-02 0.  1.
        2   -1    0    0  501    0  0.00000000000E+00  0.00000000000E+00 -0.16093076026E+04  0.16093076026E+04  0.25500000920E-02 0. -1.
    10030    2    1    2    0    0  0.00000000000E+00  0.00000000000E+00 -0.15585655942E+02  0.32030295493E+04  0.32029916299E+04 0.  0.
        1    1    3    3  502    0 -0.96647838598E+02  0.15571724776E+04  0.35368332501E+03  0.15997558640E+04  0.50400001928E-02 0.  1.
       -1    1    3    3    0  502  0.96647838598E+02 -0.15571724776E+04 -0.36926898095E+03  0.16032736854E+04  0.50400001928E-02 0. -1.
</event>
<event>
 5   0  0.2783875E-07  0.3140038E+04  0.7818609E-02  0.8204835E-01
        1   -1    0    0  501    0  0.00000000000E+00  0.00000000000E+00  0.22166361320E+04  0.22166361320E+04  0.50400001928E-02 0.  1.
       -1   -1    0    0    0  501  0.00000000000E+00  0.00000000000E+00 -0.11120274760E+04  0.11120274760E+04  0.50400001928E-02 0. -1.
    10030    2    1    2    0    0  0.00000000000E+00  0.00000000000E+00  0.11046086560E+04  0.33286636080E+04  0.31400383967E+04 0.  0.
        2    1    3    3  502    0 -0.40681427441E+02 -0.12151245094E+04  0.16053437244E+04  0.20137802822E+04  0.25500000920E-02 0.  1.
       -2    1    3    3    0  502  0.40681427441E+02  0.12151245094E+04 -0.50073506833E+03  0.13148833258E+04  0.25500000920E-02 0. -1.
</event>
<event>
 5   0  0.8335929E-07  0.3169083E+04  0.7818609E-02  0.8197030E-01
        2   -1    0    0  501    0  0.00000000000E+00  0.00000000000E+00  0.20056431610E+04  0.20056431610E+04  0.25500000920E-02 0.  1.
       -2   -1    0    0    0  501  0.00000000000E+00  0.00000000000E+00 -0.12518533699E+04  0.12518533699E+04  0.25500000920E-02 0. -1.
    10030    2    1    2    0    0  0.00000000000E+00  0.00000000000E+00  0.75378979107E+03  0.32574965310E+04  0.31690826117E+04 0.  0.
        4    1    3    3  502    0 -0.29098745063E+03  0.55288843338E+03 -0.11198932876E+04  0.12823891393E+04  0.12699999809E+01 0. -1.
       -4    1    3    3    0  502  0.29098745063E+03 -0.55288843338E+03  0.18736830787E+04  0.19751073916E+04  0.12699999809E+01 0.  1.
</event>
<event>
 5   0  0.3013888E-07  0.3197354E+04  0.7818609E-02  0.8189516E-01
        1   -1    0    0  501    0  0.00000000000E+00  0.00000000000E+00  0.15373104569E+04  0.15373104570E+04  0.50400001928E-02 0. -1.
       -1   -1    0    0    0  501  0.00000000000E+00  0.00000000000E+00 -0.16624929491E+04  0.16624929491E+04  0.50400001928E-02 0.  1.
    10030    2    1    2    0    0  0.00000000000E+00  0.00000000000E+00 -0.12518249216E+03  0.31998034061E+04  0.31973537779E+04 0.  0.
        1    1    3    3  502    0 -0.25460931952E+03 -0.94174582646E+03  0.12048926793E+04  0.15503152827E+04  0.50400001928E-02 0. -1.
       -1    1    3    3    0  502  0.25460931952E+03  0.94174582646E+03 -0.13300751715E+04  0.16494881233E+04  0.50400001928E-02 0.  1.
</event>
<event>
 5   0  0.2891204E-07  0.3205382E+04  0.7818609E-02  0.8187397E-01
        1   -1    0    0  501    0  0.00000000000E+00  0.00000000000E+00  0.15370627945E+04  0.15370627945E+04  0.50400001928E-02 0. -1.
       -1   -1    0    0    0  501  0.00000000000E+00  0.00000000000E+00 -0.16711210922E+04  0.16711210922E+04  0.50400001928E-02 0.  1.
    10030    2    1    2    0    0  0.00000000000E+00  0.00000000000E+00 -0.13405829777E+03  0.32081838867E+04  0.32053817594E+04 0.  0.
        4    1    3    3  502    0 -0.15787834494E+04 -0.26351086797E+03 -0.14847156399E+03  0.16074951247E+04  0.12699999809E+01 0.  1.
       -4    1    3    3    0  502  0.15787834494E+04  0.26351086797E+03  0.14413266224E+02  0.16006887620E+04  0.12699999809E+01 0. -1.
</event>
<event>
 5   0  0.8488469E-07  0.3175275E+04  0.7818609E-02  0.8195378E-01
       -2   -1    0    0    0  501  0.00000000000E+00  0.00000000000E+00  0.20751997343E+04  0.20751997343E+04  0.25500000920E-02 0. -1.
        2   -1    0    0  501    0  0.00000000000E+00  0.00000000000E+00 -0.12146262847E+04  0.12146262847E+04  0.25500000920E-02 0.  1.
    10030    2    1    2    0    0  0.00000000000E+00  0.00000000000E+00  0.86057344957E+03  0.32898260190E+04  0.31752745666E+04 0.  0.
        3    1    3    3  502    0 -0.11374587422E+04  0.40514658896E+03  0.14983178407E+04  0.19242953283E+04  0.10100000352E+00 0. -1.
       -3    1    3    3    0  502  0.11374587422E+04 -0.40514658896E+03 -0.63774439108E+03  0.13655306907E+04  0.10100000352E+00 0.  1.
</event>
<event>
 5   0  0.3075756E-07  0.3197465E+04  0.7818609E-02  0.8189487E-01
        1   -1    0    0  501    0  0.00000000000E+00  0.00000000000E+00  0.17834859497E+04  0.17834859497E+04  0.50400001928E-02 0.  1.
       -1   -1    0    0    0  501  0.00000000000E+00  0.00000000000E+00 -0.14331180813E+04  0.14331180813E+04  0.50400001928E-02 0. -1.
    10030    2    1    2    0    0  0.00000000000E+00  0.00000000000E+00  0.35036786843E+03  0.32166040310E+04  0.31974652224E+04 0.  0.
        5    1    3    3  502    0 -0.34746287863E+03 -0.66298424940E+03 -0.12459448950E+04  0.14535058783E+04  0.46999998093E+01 0. -1.
       -5    1    3    3    0  502  0.34746287863E+03  0.66298424940E+03  0.15963127634E+04  0.17630981526E+04  0.46999998093E+01 0.  1.
</event>
<event>
 5   0  0.8488469E-07  0.3206331E+04  0.7818609E-02  0.8187147E-01
       -2   -1    0    0    0  501  0.00000000000E+00  0.00000000000E+00  0.10259853318E+04  0.10259853318E+04  0.25500000920E-02 0. -1.
        2   -1    0    0  501    0  0.00000000000E+00  0.00000000000E+00 -0.25050448590E+04  0.25050448590E+04  0.25500000920E-02 0.  1.
    10030    2    1    2    0    0  0.00000000000E+00  0.00000000000E+00 -0.14790595272E+04  0.35310301908E+04  0.32063307882E+04 0.  0.
        3    1    3    3  502    0  0.93782499607E+03 -0.29590797050E+03 -0.21338684207E+04  0.23495684066E+04  0.10100000352E+00 0.  1.
       -3    1    3    3    0  502 -0.93782499607E+03  0.29590797050E+03  0.65480889354E+03  0.11814617842E+04  0.10100000352E+00 0. -1.
</event>
<event>
 5   0  0.2891204E-07  0.3193496E+04  0.7818609E-02  0.8190537E-01
        1   -1    0    0  501    0  0.00000000000E+00  0.00000000000E+00  0.23769777653E+04  0.23769777653E+04  0.50400001928E-02 0. -1.
       -1   -1    0    0    0  501  0.00000000000E+00  0.00000000000E+00 -0.10726244228E+04  0.10726244228E+04  0.50400001928E-02 0.  1.
    10030    2    1    2    0    0  0.00000000000E+00  0.00000000000E+00  0.13043533425E+04  0.34496021880E+04  0.31934961427E+04 0.  0.
        4    1    3    3  502    0 -0.10511173761E+04  0.44469176572E+03  0.18584246308E+04  0.21809039929E+04  0.12699999809E+01 0. -1.
       -4    1    3    3    0  502  0.10511173761E+04 -0.44469176572E+03 -0.55407128832E+03  0.12686981951E+04  0.12699999809E+01 0.  1.
</event>
<event>
 5   0  0.3075756E-07  0.3132005E+04  0.7818609E-02  0.8207009E-01
       -1   -1    0    0    0  501  0.00000000000E+00  0.00000000000E+00  0.11541249028E+04  0.11541249028E+04  0.50400001928E-02 0. -1.
        1   -1    0    0  501    0  0.00000000000E+00  0.00000000000E+00 -0.21248688385E+04  0.21248688385E+04  0.50400001928E-02 0.  1.
    10030    2    1    2    0    0  0.00000000000E+00  0.00000000000E+00 -0.97074393566E+03  0.32789937413E+04  0.31320051352E+04 0.  0.
        5    1    3    3  502    0  0.12710022373E+04 -0.85543769329E+03 -0.82481284373E+03  0.17399881182E+04  0.46999998093E+01 0.  1.
       -5    1    3    3    0  502 -0.12710022373E+04  0.85543769329E+03 -0.14593109193E+03  0.15390056231E+04  0.46999998093E+01 0. -1.
</event>
<event>
 5   0  0.8488469E-07  0.3234413E+04  0.7818609E-02  0.8179787E-01
        2   -1    0    0  501    0  0.00000000000E+00  0.00000000000E+00  0.18483713676E+04  0.18483713676E+04  0.25500000920E-02 0. -1.
       -2   -1    0    0    0  501  0.00000000000E+00  0.00000000000E+00 -0.14149519992E+04  0.14149519992E+04  0.25500000920E-02 0.  1.
    10030    2    1    2    0    0  0.00000000000E+00  0.00000000000E+00  0.43341936838E+03  0.32633233667E+04  0.32344129370E+04 0.  0.
        3    1    3    3  502    0  0.83957797109E+02 -0.14136242262E+04  0.10046992102E+04  0.17363187719E+04  0.10100000352E+00 0.  1.
       -3    1    3    3    0  502 -0.83957797109E+02  0.14136242262E+04 -0.57127984180E+03  0.15270045948E+04  0.10100000352E+00 0. -1.
</event>
<event>
 5   0  0.3013888E-07  0.3262361E+04  0.7818609E-02  0.8172539E-01
        1   -1    0    0  501    0  0.00000000000E+00  0.00000000000E+00  0.21427603006E+04  0.21427603006E+04  0.50400001928E-02 0.  1.
       -1   -1    0    0    0  501  0.00000000000E+00  0.00000000000E+00 -0.12417396453E+04  0.12417396454E+04  0.50400001928E-02 0. -1.
    10030    2    1    2    0    0  0.00000000000E+00  0.00000000000E+00  0.90102065524E+03  0.33844999460E+04  0.32623613630E+04 0.  0.
        1    1    3    3  502    0  0.39016522363E+03  0.12069123115E+04 -0.61350138710E+03  0.14089890636E+04  0.50400001928E-02 0. -1.
       -1    1    3    3    0  502 -0.39016522363E+03 -0.12069123115E+04  0.15145220423E+04  0.19755108823E+04  0.50400001928E-02 0.  1.
</event>
<event>
 5   0  0.8802800E-07  0.3179869E+04  0.7818609E-02  0.8194154E-01
       -2   -1    0    0    0  501  0.00000000000E+00  0.00000000000E+00  0.16036602439E+04  0.16036602439E+04  0.25500000920E-02 0. -1.
        2   -1    0    0  501    0  0.00000000000E+00  0.00000000000E+00 -0.15763267255E+04  0.15763267255E+04  0.25500000920E-02 0.  1.
    10030    2    1    2    0    0  0.00000000000E+00  0.00000000000E+00  0.27333518408E+02  0.31799869694E+04  0.31798694948E+04 0.  0.
        5    1    3    3  502    0 -0.10408872840E+04 -0.11643406544E+04  0.31156182446E+03  0.15925540361E+04  0.46999998093E+01 0. -1.
       -5    1    3    3    0  502  0.10408872840E+04  0.11643406544E+04 -0.28422830605E+03  0.15874329332E+04  0.46999998093E+01 0.  1.
</event>
<event>
 5   0  0.2783875E-07  0.3197755E+04  0.7818609E-02  0.8189410E-01
       -1   -1    0    0    0  501  0.00000000000E+00  0.00000000000E+00  0.18618574140E+04  0.18618574140E+04  0.50400001928E-02 0. -1.
        1   -1    0    0  501    0  0.00000000000E+00  0.00000000000E+00 -0.13730424237E+04  0.13730424237E+04  0.50400001928E-02 0.  1.
    10030    2    1    2    0    0  0.00000000000E+00  0.00000000000E+00  0.48881499030E+03  0.32348998377E+04  0.31977549727E+04 0.  0.
        2    1    3    3  502    0  0.67422602550E+03  0.11890666218E+04  0.10834689937E+04  0.17442377203E+04  0.25500000920E-02 0. -1.
       -2    1    3    3    0  502 -0.67422602550E+03 -0.11890666218E+04 -0.59465400337E+03  0.14906621174E+04  0.25500000920E-02 0.  1.
</event>
<event>
 5   0  0.2997105E-07  0.3191514E+04  0.7818609E-02  0.8191062E-01
       -1   -1    0    0    0  501  0.00000000000E+00  0.00000000000E+00  0.11186087842E+04  0.11186087842E+04  0.50400001928E-02 0. -1.
        1   -1    0    0  501    0  0.00000000000E+00  0.00000000000E+00 -0.22764350779E+04  0.22764350779E+04  0.50400001928E-02 0.  1.
    10030    2    1    2    0    0  0.00000000000E+00  0.00000000000E+00 -0.11578262937E+04  0.33950438621E+04  0.31915139197E+04 0.  0.
        3    1    3    3  502    0 -0.60753902897E+03 -0.99281167666E+03  0.58233521174E+03  0.13014964487E+04  0.10100000352E+00 0. -1.
       -3    1    3    3    0  502  0.60753902897E+03  0.99281167666E+03 -0.17401615054E+04  0.20935474134E+04  0.10100000352E+00 0.  1.
</event>
<event>
 5   0  0.3075756E-07  0.3208319E+04  0.7818609E-02  0.8186624E-01
       -1   -1    0    0    0  501  0.00000000000E+00  0.00000000000E+00  0.18308631329E+04  0.18308631329E+04  0.50400001928E-02 0.  1.
        1   -1    0    0  501    0  0.00000000000E+00  0.00000000000E+00 -0.14055272035E+04  0.14055272035E+04  0.50400001928E-02 0. -1.
    10030    2    1    2    0    0  0.00000000000E+00  0.00000000000E+00  0.42533592937E+03  0.32363903365E+04  0.32083191483E+04 0.  0.
        5    1    3    3  502    0  0.12035039555E+04  0.10229227111E+04  0.49532167250E+03  0.16553423492E+04  0.46999998093E+01 0.  1.
       -5    1    3    3    0  502 -0.12035039555E+04 -0.10229227111E+04 -0.69985743126E+02  0.15810479873E+04  0.46999998093E+01 0. -1.
</event>
<event>
 5   0  0.8838951E-07  0.3212476E+04  0.7818609E-02  0.8185530E-01
        2   -1    0    0  501    0  0.00000000000E+00  0.00000000000E+00  0.11314722244E+04  0.11314722244E+04  0.25500000920E-02 0.  1.
       -2   -1    0    0    0  501  0.00000000000E+00  0.00000000000E+00 -0.22802152747E+04  0.22802152747E+04  0.25500000920E-02 0. -1.
    10030    2    1    2    0    0  0.00000000000E+00  0.00000000000E+00 -0.11487430504E+04  0.34116874991E+04  0.32124758358E+04 0.  0.
        2    1    3    3  502    0 -0.46639552747E+03 -0.15329104603E+04 -0.45487285709E+03  0.16656075718E+04  0.25500000920E-02 0. -1.
       -2    1    3    3    0  502  0.46639552747E+03  0.15329104603E+04 -0.69387019326E+03  0.17460799273E+04  0.25500000920E-02 0.  1.
</event>
<event>
 5   0  0.8195618E-07  0.3181307E+04  0.7818609E-02  0.8193772E-01
       -2   -1    0    0    0  501  0.00000000000E+00  0.00000000000E+00  0.17533405874E+04  0.17533405874E+04  0.25500000920E-02 0.  1.
        2   -1    0    0  501    0  0.00000000000E+00  0.00000000000E+00 -0.14430612356E+04  0.14430612356E+04  0.25500000920E-02 0. -1.
    10030    2    1    2    0    0  0.00000000000E+00  0.00000000000E+00  0.31027935185E+03  0.31964018230E+04  0.31813065457E+04 0.  0.
        1    1    3    3  502    0  0.12041438151E+04 -0.82940183481E+03 -0.47417736237E+03  0.15371121956E+04  0.50400001928E-02 0. -1.
       -1    1    3    3    0  502 -0.12041438151E+04  0.82940183481E+03  0.78445671422E+03  0.16592896274E+04  0.50400001928E-02 0.  1.
</event>
<event>
 5   0  0.3013888E-07  0.3205659E+04  0.7818609E-02  0.8187324E-01
        1   -1    0    0  501    0  0.00000000000E+00  0.00000000000E+00  0.18147370629E+04  0.18147370629E+04  0.50400001928E-02 0. -1.
       -1   -1    0    0    0  501  0.00000000000E+00  0.00000000000E+00 -0.14156666772E+04  0.14156666772E+04  0.50400001928E-02 0.  1.
    10030    2    1    2    0    0  0.00000000000E+00  0.00000000000E+00  0.39907038573E+03  0.32304037401E+04  0.32056592381E+04 0.  0.
        1    1    3    3  502    0 -0.57759158205E+03  0.10607020568E+04  0.12614061065E+04  0.17463809019E+04  0.50400001928E-02 0. -1.
       -1    1    3    3    0  502  0.57759158205E+03 -0.10607020568E+04 -0.86233572078E+03  0.14840228382E+04  0.50400001928E-02 0.  1.
</event>
<event>
 5   0  0.2997105E-07  0.3198812E+04  0.7818609E-02  0.8189131E-01
       -1   -1    0    0    0  501  0.00000000000E+00  0.00000000000E+00  0.24102248705E+04  0.24102248705E+04  0.50400001928E-02 0.  1.
        1   -1    0    0  501    0  0.00000000000E+00  0.00000000000E+00 -0.10613529653E+04  0.10613529653E+04  0.50400001928E-02 0. -1.
    10030    2    1    2    0    0  0.00000000000E+00  0.00000000000E+00  0.13488719052E+04  0.34715778357E+04  0.31988118502E+04 0.  0.
        3    1    3    3  502    0 -0.11418553297E+04 -0.11195524472E+04  0.64246137200E+03  0.17233652836E+04  0.10100000352E+00 0.  1.
       -3    1    3    3    0  502  0.11418553297E+04  0.11195524472E+04  0.70641053318E+03  0.17482125522E+04  0.10100000352E+00 0. -1.
</event>
<event>
 5   0  0.2997105E-07  0.3203056E+04  0.7818609E-02  0.8188010E-01
        1   -1    0    0  501    0  0.00000000000E+00  0.00000000000E+00  0.16855069683E+04  0.16855069683E+04  0.50400001928E-02 0. -1.
       -1   -1    0    0    0  501  0.00000000000E+00  0.00000000000E+00 -0.15217335777E+04  0.15217335777E+04  0.50400001928E-02 0.  1.
    10030    2    1    2    0    0  0.00000000000E+00  0.00000000000E+00  0.16377339062E+03  0.32072405461E+04  0.32030563837E+04 0.  0.
        3    1    3    3  502    0 -0.42930843413E+03 -0.10428178866E+04  0.12205254776E+04  0.16617633189E+04  0.10100000352E+00 0. -1.
       -3    1    3    3    0  502  0.42930843413E+03  0.10428178866E+04 -0.10567520870E+04  0.15454772272E+04  0.10100000352E+00 0.  1.
</event>
<event>
 5   0  0.2783875E-07  0.3194198E+04  0.7818609E-02  0.8190351E-01
        1   -1    0    0  501    0  0.00000000000E+00  0.00000000000E+00  0.12418997319E+04  0.12418997319E+04  0.50400001928E-02 0. -1.
       -1   -1    0    0    0  501  0.00000000000E+00  0.00000000000E+00 -0.20538896789E+04  0.20538896789E+04  0.50400001928E-02 0.  1.
    10030    2    1    2    0    0  0.00000000000E+00  0.00000000000E+00 -0.81198994700E+03  0.32957894109E+04  0.31941978910E+04 0.  0.
        2    1    3    3  502    0 -0.13954805610E+04  0.43902314448E+03 -0.10671700607E+04  0.18107896775E+04  0.25500000920E-02 0.  1.
       -2    1    3    3    0  502  0.13954805610E+04 -0.43902314448E+03  0.25518011373E+03  0.14849997334E+04  0.25500000920E-02 0. -1.
</event>
<event>
 5   0  0.8195618E-07  0.3207465E+04  0.7818609E-02  0.8186849E-01
        2   -1    0    0  501    0  0.00000000000E+00  0.00000000000E+00  0.22876556730E+04  0.22876556730E+04  0.25500000920E-02 0. -1.
       -2   -1    0    0    0  501  0.00000000000E+00  0.00000000000E+00 -0.11242765689E+04  0.11242765689E+04  0.25500000920E-02 0.  1.
    10030    2    1    2    0    0  0.00000000000E+00  0.00000000000E+00  0.11633791041E+04  0.34119322419E+04  0.32074648374E+04 0.  0.
        1    1    3    3  502    0 -0.68913859610E+03 -0.17665396219E+03 -0.94723739276E+03  0.11846422689E+04  0.50400001928E-02 0.  1.
       -1    1    3    3    0  502  0.68913859610E+03  0.17665396219E+03  0.21106164968E+04  0.22272899730E+04  0.50400001928E-02 0. -1.
</event>
<event>
 5   0  0.8488469E-07  0.3197148E+04  0.7818609E-02  0.8189571E-01
        2   -1    0    0  501    0  0.00000000000E+00  0.00000000000E+00  0.25195270156E+04  0.25195270156E+04  0.25500000920E-02 0.  1.
       -2   -1    0    0    0  501  0.00000000000E+00  0.00000000000E+00 -0.10142533024E+04  0.10142533024E+04  0.25500000920E-02 0. -1.
    10030    2    1    2    0    0  0.00000000000E+00  0.00000000000E+00  0.15052737131E+04  0.35337803180E+04  0.31971478515E+04 0.  0.
        3    1    3    3  502    0  0.42934199669E+03  0.13081112467E+04 -0.14527150354E+03  0.13844108508E+04  0.10100000352E+00 0. -1.
       -3    1    3    3    0  502 -0.42934199669E+03 -0.13081112467E+04  0.16505452167E+04  0.21493694672E+04  0.10100000352E+00 0.  1.
</event>
<event>
 5   0  0.2997105E-07  0.3203888E+04  0.7818609E-02  0.8187791E-01
       -1   -1    0    0    0  501  0.00000000000E+00  0.00000000000E+00  0.12386853878E+04  0.12386853878E+04  0.50400001928E-02 0.  1.
        1   -1    0    0  501    0  0.00000000000E+00  0.00000000000E+00 -0.20717317029E+04  0.20717317029E+04  0.50400001928E-02 0. -1.
    10030    2    1    2    0    0  0.00000000000E+00  0.00000000000E+00 -0.83304631513E+03  0.33104170907E+04  0.32038875060E+04 0.  0.
        3    1    3    3  502    0 -0.60282088505E+03  0.39993133550E+03 -0.18933428992E+04  0.20268412461E+04  0.10100000352E+00 0. -1.
       -3    1    3    3    0  502  0.60282088505E+03 -0.39993133550E+03  0.10602965841E+04  0.12835758447E+04  0.10100000352E+00 0.  1.
</event>
<event>
 5   0  0.8335929E-07  0.3198885E+04  0.7818609E-02  0.8189112E-01
       -2   -1    0    0    0  501  0.00000000000E+00  0.00000000000E+00  0.88978383011E+03  0.88978383011E+03  0.25500000920E-02 0. -1.
        2   -1    0    0  501    0  0.00000000000E+00  0.00000000000E+00 -0.28750985319E+04  0.28750985319E+04  0.25500000920E-02 0.  1.
    10030    2    1    2    0    0  0.00000000000E+00  0.00000000000E+00 -0.19853147018E+04  0.37648823620E+04  0.31988849205E+04 0.  0.
        4    1    3    3  502    0 -0.13022145546E+04  0.20671490810E+03 -0.20582366234E+04  0.24443472360E+04  0.12699999809E+01 0.  1.
       -4    1    3    3    0  502  0.13022145546E+04 -0.20671490810E+03  0.72921921610E+02  0.13205351260E+04  0.12699999809E+01 0. -1.
</event>
<event>
 5   0  0.2997105E-07  0.3210616E+04  0.7818609E-02  0.8186019E-01
       -1   -1    0    0    0  501  0.00000000000E+00  0.00000000000E+00  0.14433867877E+04  0.14433867877E+04  0.50400001928E-02 0.  1.
        1   -1    0    0  501    0  0.00000000000E+00  0.00000000000E+00 -0.17853932245E+04  0.17853932245E+04  0.50400001928E-02 0. -1.
    10030    2    1    2    0    0  0.00000000000E+00  0.00000000000E+00 -0.34200643676E+03  0.32287800122E+04  0.32106155118E+04 0.  0.
        3    1    3    3  502    0  0.10955165165E+04  0.70505412032E+03 -0.11142624954E+04  0.17143041356E+04  0.10100000352E+00 0. -1.
       -3    1    3    3    0  502 -0.10955165165E+04 -0.70505412032E+03  0.77225605867E+03  0.15144758766E+04  0.10100000352E+00 0.  1.
</event>
<event>
 5   0  0.2997105E-07  0.3249998E+04  0.7818609E-02  0.8175736E-01
       -1   -1    0    0    0  501  0.00000000000E+00  0.00000000000E+00  0.15626243366E+04  0.15626243366E+04  0.50400001928E-02 0. -1.
        1   -1    0    0  501    0  0.00000000000E+00  0.00000000000E+00 -0.16898638945E+04  0.16898638945E+04  0.50400001928E-02 0.  1.
    10030    2    1    2    0    0  0.00000000000E+00  0.00000000000E+00 -0.12723955790E+03  0.32524882311E+04  0.32499984289E+04 0.  0.
        3    1    3    3  502    0 -0.11119158814E+03  0.12224610233E+04  0.10020189244E+04  0.15845556027E+04  0.10100000352E+00 0. -1.
       -3    1    3    3    0  502  0.11119158814E+03 -0.12224610233E+04 -0.11292584823E+04  0.16679326284E+04  0.10100000352E+00 0.  1.
</event>
<event>
 5   0  0.8488469E-07  0.3166633E+04  0.7818609E-02  0.8197685E-01
        2   -1    0    0  501    0  0.00000000000E+00  0.00000000000E+00  0.24130530302E+04  0.24130530302E+04  0.25500000920E-02 0. -1.
       -2   -1    0    0    0  501  0.00000000000E+00  0.00000000000E+00 -0.10388873984E+04  0.10388873984E+04  0.25500000920E-02 0.  1.
    10030    2    1    2    0    0  0.00000000000E+00  0.00000000000E+00  0.13741656318E+04  0.34519404286E+04  0.31666325235E+04 0.  0.
        3    1    3    3  502    0  0.34877796482E+03 -0.14543537556E+04  0.12054685526E+03  0.15004407585E+04  0.10100000352E+00 0.  1.
       -3    1    3    3    0  502 -0.34877796482E+03  0.14543537556E+04  0.12536187766E+04  0.19514996701E+04  0.10100000352E+00 0. -1.
</event>
<event>
 5   0  0.2891204E-07  0.3191188E+04  0.7818609E-02  0.8191148E-01
        1   -1    0    0  501    0  0.00000000000E+00  0.00000000000E+00  0.12468486231E+04  0.12468486231E+04  0.50400001928E-02 0. -1.
       -1   -1    0    0    0  501  0.00000000000E+00  0.00000000000E+00 -0.20418844889E+04  0.20418844889E+04  0.50400001928E-02 0.  1.
    10030    2    1    2    0    0  0.00000000000E+00  0.00000000000E+00 -0.79503586577E+03  0.32887331120E+04  0.31911884078E+04 0.  0.
        4    1    3    3  502    0  0.86181774363E+03 -0.46684639950E+03  0.90003243767E+03  0.13306898157E+04  0.12699999809E+01 0. -1.
       -4    1    3    3    0  502 -0.86181774363E+03  0.46684639950E+03 -0.16950683034E+04  0.19580432963E+04  0.12699999809E+01 0.  1.
</event>
<event>
 5   0  0.2997105E-07  0.3193407E+04  0.7818609E-02  0.8190560E-01
        1   -1    0    0  501    0  0.00000000000E+00  0.00000000000E+00  0.24946113457E+04  0.24946113457E+04  0.50400001928E-02 0.  1.
       -1   -1    0    0    0  501  0.00000000000E+00  0.00000000000E+00 -0.10219878806E+04  0.10219878806E+04  0.50400001928E-02 0. -1.
    10030    2    1    2    0    0  0.00000000000E+00  0.00000000000E+00  0.14726234651E+04  0.35165992263E+04  0.31934073102E+04 0.  0.
        3    1    3    3  502    0 -0.11596025924E+04  0.79643664378E+03 -0.95425471581E+02  0.14099984151E+04  0.10100000352E+00 0. -1.
       -3    1    3    3    0  502  0.11596025924E+04 -0.79643664378E+03  0.15680489367E+04  0.21066008112E+04  0.10100000352E+00 0.  1.
</event>
<event>
 5   0  0.8838951E-07  0.3210065E+04  0.7818609E-02  0.8186164E-01
        2   -1    0    0  501    0  0.00000000000E+00  0.00000000000E+00  0.14479934527E+04  0.14479934527E+04  0.25500000920E-02 0. -1.
       -2   -1    0    0    0  501  0.00000000000E+00  0.00000000000E+00 -0.17791031465E+04  0.17791031465E+04  0.25500000920E-02 0.  1.
    10030    2    1    2    0    0  0.00000000000E+00  0.00000000000E+00 -0.33110969383E+03  0.32270965992E+04  0.32100652378E+04 0.  0.
        2    1    3    3  502    0  0.15311805506E+04 -0.20821994011E+03  0.27063691970E+03  0.15687937291E+04  0.25500000920E-02 0. -1.
       -2    1    3    3    0  502 -0.15311805506E+04  0.20821994011E+03 -0.60174661353E+03  0.16583028701E+04  0.25500000920E-02 0.  1.
</event>
<event>
 5   0  0.2891204E-07  0.3211742E+04  0.7818609E-02  0.8185723E-01
        1   -1    0    0  501    0  0.00000000000E+00  0.00000000000E+00  0.16805058691E+04  0.16805058691E+04  0.50400001928E-02 0. -1.
       -1   -1    0    0    0  501  0.00000000000E+00  0.00000000000E+00 -0.15345503829E+04  0.15345503829E+04  0.50400001928E-02 0.  1.
    10030    2    1    2    0    0  0.00000000000E+00  0.00000000000E+00  0.14595548626E+03  0.32150562520E+04  0.32117415369E+04 0.  0.
        4    1    3    3  502    0  0.15658934898E+04 -0.27902425520E+03 -0.14847977181E+03  0.15974745105E+04  0.12699999809E+01 0. -1.
       -4    1    3    3    0  502 -0.15658934898E+04  0.27902425520E+03  0.29443525807E+03  0.16175817415E+04  0.12699999809E+01 0.  1.
</event>
<event>
 5   0  0.8195618E-07  0.3205697E+04  0.7818609E-02  0.8187314E-01
        2   -1    0    0  501    0  0.00000000000E+00  0.00000000000E+00  0.10536429574E+04  0.10536429574E+04  0.25500000920E-02 0.  1.
       -2   -1    0    0    0  501  0.00000000000E+00  0.00000000000E+00 -0.24383238517E+04  0.24383238517E+04  0.25500000920E-02 0. -1.
    10030    2    1    2    0    0  0.00000000000E+00  0.00000000000E+00 -0.13846808943E+04  0.34919668091E+04  0.32056966508E+04 0.  0.
        1    1    3    3  502    0  0.11647632998E+04 -0.14419706814E+03 -0.18814536777E+04  0.22175063203E+04  0.50400001928E-02 0. -1.
       -1    1    3    3    0  502 -0.11647632998E+04  0.14419706814E+03  0.49677278345E+03  0.12744604888E+04  0.50400001928E-02 0.  1.
</event>
<event>
 5   0  0.2783875E-07  0.3207195E+04  0.7818609E-02  0.8186920E-01
       -1   -1    0    0    0  501  0.00000000000E+00  0.00000000000E+00  0.11901359023E+04  0.11901359023E+04  0.50400001928E-02 0.  1.
        1   -1    0    0  501    0  0.00000000000E+00  0.00000000000E+00 -0.21606980168E+04  0.21606980168E+04  0.50400001928E-02 0. -1.
    10030    2    1    2    0    0  0.00000000000E+00  0.00000000000E+00 -0.97056211452E+03  0.33508339190E+04  0.32071945895E+04 0.  0.
        2    1    3    3  502    0 -0.43243525640E+03 -0.10401909130E+03 -0.20949659896E+04  0.21416588711E+04  0.25500000920E-02 0. -1.
       -2    1    3    3    0  502  0.43243525640E+03  0.10401909130E+03  0.11244038751E+04  0.12091750480E+04  0.25500000920E-02 0.  1.
</event>
<event>
 5   0  0.2891204E-07  0.3193847E+04  0.7818609E-02  0.8190444E-01
       -1   -1    0    0    0  501  0.00000000000E+00  0.00000000000E+00  0.20847043308E+04  0.20847043308E+04  0.50400001928E-02 0.  1.
        1   -1    0    0  501    0  0.00000000000E+00  0.00000000000E+00 -0.12232736495E+04  0.12232736495E+04  0.50400001928E-02 0. -1.
    10030    2    1    2    0    0  0.00000000000E+00  0.00000000000E+00  0.86143068130E+03  0.33079779804E+04  0.31938465054E+04 0.  0.
        4    1    3    3  502    0 -0.10831819367E+04 -0.43832363594E+03 -0.69664359475E+03  0.13604134037E+04  0.12699999809E+01 0. -1.
       -4    1    3    3    0  502  0.10831819367E+04  0.43832363594E+03  0.15580742761E+04  0.19475645767E+04  0.12699999809E+01 0.  1.
</event>
<event>
 5   0  0.8488469E-07  0.3203873E+04  0.7818609E-02  0.8187795E-01
       -2   -1    0    0    0  501  0.00000000000E+00  0.00000000000E+00  0.22619020618E+04  0.22619020618E+04  0.25500000920E-02 0.  1.
        2   -1    0    0  501    0  0.00000000000E+00  0.00000000000E+00 -0.11345320900E+04  0.11345320900E+04  0.25500000920E-02 0. -1.
    10030    2    1    2    0    0  0.00000000000E+00  0.00000000000E+00  0.11273699718E+04  0.33964341518E+04  0.32038729522E+04 0.  0.
        3    1    3    3  502    0  0.11810411449E+04 -0.10172589219E+04  0.95538761988E+03  0.18282339606E+04  0.10100000352E+00 0.  1.
       -3    1    3    3    0  502 -0.11810411449E+04  0.10172589219E+04  0.17198235190E+03  0.15682001912E+04  0.10100000352E+00 0. -1.
</event>
<event>
 5   0  0.2997105E-07  0.3200318E+04  0.7818609E-02  0.8188733E-01
        1   -1    0    0  501    0  0.00000000000E+00  0.00000000000E+00  0.78984844336E+03  0.78984844338E+03  0.50400001928E-02 0. -1.
       -1   -1    0    0    0  501  0.00000000000E+00  0.00000000000E+00 -0.32417724903E+04  0.32417724903E+04  0.50400001928E-02 0.  1.
    10030    2    1    2    0    0  0.00000000000E+00  0.00000000000E+00 -0.24519240470E+04  0.40316209337E+04  0.32003180812E+04 0.  0.
        3    1    3    3  502    0 -0.25221283341E+03  0.14665290967E+04 -0.19671763942E+04  0.24665972272E+04  0.10100000352E+00 0.  1.
       -3    1    3    3    0  502  0.25221283341E+03 -0.14665290967E+04 -0.48474765272E+03  0.15650237065E+04  0.10100000352E+00 0. -1.
</event>
<event>
 5   0  0.8838951E-07  0.3233424E+04  0.7818609E-02  0.8180045E-01
        2   -1    0    0  501    0  0.00000000000E+00  0.00000000000E+00  0.23575907371E+04  0.23575907371E+04  0.25500000920E-02 0. -1.
       -2   -1    0    0    0  501  0.00000000000E+00  0.00000000000E+00 -0.11086564226E+04  0.11086564226E+04  0.25500000920E-02 0.  1.
    10030    2    1    2    0    0  0.00000000000E+00  0.00000000000E+00  0.12489343145E+04  0.34662471597E+04  0.32334242608E+04 0.  0.
        2    1    3    3  502    0 -0.18797148993E+03  0.14541347502E+04 -0.10569102960E+03  0.14700380085E+04  0.25500000920E-02 0. -1.
       -2    1    3    3    0  502  0.18797148993E+03 -0.14541347502E+04  0.13546253441E+04  0.19962091512E+04  0.25500000920E-02 0.  1.
</event>
<event>
 5   0  0.8488469E-07  0.3201826E+04  0.7818609E-02  0.8188335E-01
        2   -1    0    0  501    0  0.00000000000E+00  0.00000000000E+00  0.95438465542E+03  0.95438465542E+03  0.25500000920E-02 0. -1.
       -2   -1    0    0    0  501  0.00000000000E+00  0.00000000000E+00 -0.26854195725E+04  0.26854195725E+04  0.25500000920E-02 0.  1.
    10030    2    1    2    0    0  0.00000000000E+00  0.00000000000E+00 -0.17310349171E+04  0.36398042279E+04  0.32018264996E+04 0.  0.
        3    1    3    3  502    0  0.34604720535E+03  0.56126834854E+03 -0.25238880689E+04  0.26085976734E+04  0.10100000352E+00 0.  1.
       -3    1    3    3    0  502 -0.34604720535E+03 -0.56126834854E+03  0.79285315182E+03  0.10312065545E+04  0.10100000352E+00 0. -1.
</event>
<event>
 5   0  0.8838951E-07  0.3205579E+04  0.7818609E-02  0.8187345E-01
        2   -1    0    0  501    0  0.00000000000E+00  0.00000000000E+00  0.19527530340E+04  0.19527530340E+04  0.25500000920E-02 0.  1.
       -2   -1    0    0    0  501  0.00000000000E+00  0.00000000000E+00 -0.13155447859E+04  0.13155447859E+04  0.25500000920E-02 0. -1.
    10030    2    1    2    0    0  0.00000000000E+00  0.00000000000E+00  0.63720824810E+03  0.32682978198E+04  0.32055789317E+04 0.  0.
        2    1    3    3  502    0  0.14032129779E+03  0.15884065811E+04  0.15354613452E+03  0.16019681485E+04  0.25500000920E-02 0. -1.
       -2    1    3    3    0  502 -0.14032129779E+03 -0.15884065811E+04  0.48366211358E+03  0.16663296713E+04  0.25500000920E-02 0.  1.
</event>
<event>
 5   0  0.8838951E-07  0.3206994E+04  0.7818609E-02  0.8186973E-01
       -2   -1    0    0    0  501  0.00000000000E+00  0.00000000000E+00  0.12309938443E+04  0.12309938443E+04  0.25500000920E-02 0.  1.
        2   -1    0    0  501    0  0.00000000000E+00  0.00000000000E+00 -0.20887204677E+04  0.20887204677E+04  0.25500000920E-02 0. -1.
    10030    2    1    2    0    0  0.00000000000E+00  0.00000000000E+00 -0.85772662334E+03  0.33197143120E+04  0.32069936315E+04 0.  0.
        2    1    3    3  502    0  0.30841753218E+03 -0.64241572702E+03 -0.19158000968E+04  0.20440424045E+04  0.25500000920E-02 0. -1.
       -2    1    3    3    0  502 -0.30841753218E+03  0.64241572702E+03  0.10580734734E+04  0.12756719075E+04  0.25500000920E-02 0.  1.
</event>
<event>
 5   0  0.3075756E-07  0.3205768E+04  0.7818609E-02  0.8187295E-01
       -1   -1    0    0    0  501  0.00000000000E+00  0.00000000000E+00  0.16470262849E+04  0.16470262849E+04  0.50400001928E-02 0. -1.
        1   -1    0    0  501    0  0.00000000000E+00  0.00000000000E+00 -0.15599248714E+04  0.15599248715E+04  0.50400001928E-02 0.  1.
    10030    2    1    2    0    0  0.00000000000E+00  0.00000000000E+00  0.87101413410E+02  0.32069511563E+04  0.32057680925E+04 0.  0.
        5    1    3    3  502    0 -0.81180712749E+03 -0.10442401994E+04 -0.86218210348E+03  0.15788756999E+04  0.46999998093E+01 0.  1.
       -5    1    3    3    0  502  0.81180712749E+03  0.10442401994E+04  0.94928351689E+03  0.16280754564E+04  0.46999998093E+01 0. -1.
</event>
<event>
 5   0  0.2891204E-07  0.3223186E+04  0.7818609E-02  0.8182720E-01
        1   -1    0    0  501    0  0.00000000000E+00  0.00000000000E+00  0.24953959114E+04  0.24953959114E+04  0.50400001928E-02 0.  1.
       -1   -1    0    0    0  501  0.00000000000E+00  0.00000000000E+00 -0.10408096520E+04  0.10408096520E+04  0.50400001928E-02 0. -1.
    10030    2    1    2    0    0  0.00000000000E+00  0.00000000000E+00  0.14545862594E+04  0.35362055634E+04  0.32231860946E+04 0.  0.
        4    1    3    3  502    0  0.10546695896E+04  0.98378087190E+02 -0.60524964200E+03  0.12199733330E+04  0.12699999809E+01 0. -1.
       -4    1    3    3    0  502 -0.10546695896E+04 -0.98378087190E+02  0.20598359014E+04  0.23162322304E+04  0.12699999809E+01 0.  1.
</event>
<event>
 5   0  0.8838951E-07  0.3179095E+04  0.7818609E-02  0.8194360E-01
       -2   -1    0    0    0  501  0.00000000000E+00  0.00000000000E+00  0.12110178281E+04  0.12110178281E+04  0.25500000920E-02 0. -1.
        2   -1    0    0  501    0  0.00000000000E+00  0.00000000000E+00 -0.20863951257E+04  0.20863951257E+04  0.25500000920E-02 0.  1.
    10030    2    1    2    0    0  0.00000000000E+00  0.00000000000E+00 -0.87537729760E+03  0.32974129539E+04  0.31790952762E+04 0.  0.
        2    1    3    3  502    0  0.38800935301E+03 -0.15414058536E+04 -0.45154357157E+03  0.16523845982E+04  0.25500000920E-02 0.  1.
       -2    1    3    3    0  502 -0.38800935301E+03  0.15414058536E+04 -0.42383372603E+03  0.16450283556E+04  0.25500000920E-02 0. -1.
</event>
<event>
 5   0  0.8838951E-07  0.3167759E+04  0.7818609E-02  0.8197384E-01
        2   -1    0    0  501    0  0.00000000000E+00  0.00000000000E+00  0.21656088080E+04  0.21656088080E+04  0.25500000920E-02 0. -1.
       -2   -1    0    0    0  501  0.00000000000E+00  0.00000000000E+00 -0.11584152935E+04  0.11584152935E+04  0.25500000920E-02 0.  1.
    10030    2    1    2    0    0  0.00000000000E+00  0.00000000000E+00  0.10071935145E+04  0.33240241016E+04  0.31677590584E+04 0.  0.
        2    1    3    3  502    0  0.76778564208E+03  0.64368067292E+03  0.17908361330E+04  0.20520510852E+04  0.25500000920E-02 0. -1.
       -2    1    3    3    0  502 -0.76778564208E+03 -0.64368067292E+03 -0.78364261853E+03  0.12719730164E+04  0.25500000920E-02 0.  1.
</event>
<event>
 5   0  0.8488469E-07  0.3194727E+04  0.7818609E-02  0.8190211E-01
       -2   -1    0    0    0  501  0.00000000000E+00  0.00000000000E+00  0.86510548151E+03  0.86510548152E+03  0.25500000920E-02 0. -1.
        2   -1    0    0  501    0  0.00000000000E+00  0.00000000000E+00 -0.29494325866E+04  0.29494325866E+04  0.25500000920E-02 0.  1.
    10030    2    1    2    0    0  0.00000000000E+00  0.00000000000E+00 -0.20843271051E+04  0.38145380681E+04  0.31947270920E+04 0.  0.
        3    1    3    3  502    0  0.15057636882E+03 -0.10985805340E+01  0.85661212326E+03  0.86974639386E+03  0.10100000352E+00 0. -1.
       -3    1    3    3    0  502 -0.15057636882E+03  0.10985805340E+01 -0.29409392283E+04  0.29447916742E+04  0.10100000352E+00 0.  1.
</event>
<event>
 5   0  0.2783875E-07  0.3201688E+04  0.7818609E-02  0.8188372E-01
       -1   -1    0    0    0  501  0.00000000000E+00  0.00000000000E+00  0.13412369870E+04  0.13412369870E+04  0.50400001928E-02 0.  1.
        1   -1    0    0  501    0  0.00000000000E+00  0.00000000000E+00 -0.19106997296E+04  0.19106997296E+04  0.50400001928E-02 0. -1.
    10030    2    1    2    0    0  0.00000000000E+00  0.00000000000E+00 -0.56946274261E+03  0.32519367166E+04  0.32016877727E+04 0.  0.
        2    1    3    3  502    0 -0.10124364167E+04 -0.12120262767E+04 -0.18576854222E+02  0.15793607228E+04  0.25500000920E-02 0.  1.
       -2    1    3    3    0  502  0.10124364167E+04  0.12120262767E+04 -0.55088588839E+03  0.16725759938E+04  0.25500000920E-02 0. -1.
</event>
<event>
 5   0  0.3013888E-07  0.3211710E+04  0.7818609E-02  0.8185731E-01
        1   -1    0    0  501    0  0.00000000000E+00  0.00000000000E+00  0.18589892700E+04  0.18589892700E+04  0.50400001928E-02 0. -1.
       -1   -1    0    0    0  501  0.00000000000E+00  0.00000000000E+00 -0.13871894960E+04  0.13871894961E+04  0.50400001928E-02 0.  1.
    10030    2    1    2    0    0  0.00000000000E+00  0.00000000000E+00  0.47179977394E+03  0.32461787660E+04  0.32117100670E+04 0.  0.
        1    1    3    3  502    0  0.58046873325E+03 -0.14318961855E+04  0.67820321579E+03  0.16873737696E+04  0.50400001928E-02 0. -1.
       -1    1    3    3    0  502 -0.58046873325E+03  0.14318961855E+04 -0.20640344185E+03  0.15588049965E+04  0.50400001928E-02 0.  1.
</event>
<event>
 5   0  0.8838951E-07  0.3195247E+04  0.7818609E-02  0.8190073E-01
       -2   -1    0    0    0  501  0.00000000000E+00  0.00000000000E+00  0.12181101485E+04  0.12181101485E+04  0.25500000920E-02 0. -1.
        2   -1    0    0  501    0  0.00000000000E+00  0.00000000000E+00 -0.20953780719E+04  0.20953780719E+04  0.25500000920E-02 0.  1.
    10030    2    1    2    0    0  0.00000000000E+00  0.00000000000E+00 -0.87726792340E+03  0.33134882204E+04  0.31952472796E+04 0.  0.
        2    1    3    3  502    0  0.55329529633E+03 -0.35026101094E+02  0.11151580381E+04  0.12453674007E+04  0.25500000920E-02 0. -1.
       -2    1    3    3    0  502 -0.55329529633E+03  0.35026101094E+02 -0.19924259615E+04  0.20681208197E+04  0.25500000920E-02 0.  1.
</event>
<event>
 5   0  0.8802800E-07  0.3198053E+04  0.7818609E-02  0.8189331E-01
       -2   -1    0    0    0  501  0.00000000000E+00  0.00000000000E+00  0.14028500493E+04  0.14028500493E+04  0.25500000920E-02 0.  1.
        2   -1    0    0  501    0  0.00000000000E+00  0.00000000000E+00 -0.18226370488E+04  0.18226370488E+04  0.25500000920E-02 0. -1.
    10030    2    1    2    0    0  0.00000000000E+00  0.00000000000E+00 -0.41978699956E+03  0.32254870981E+04  0.31980534541E+04 0.  0.
        5    1    3    3  502    0 -0.15639158723E+03 -0.13018898761E+02 -0.18148443170E+04  0.18216228493E+04  0.46999998093E+01 0. -1.
       -5    1    3    3    0  502  0.15639158723E+03  0.13018898761E+02  0.13950573174E+04  0.14038642488E+04  0.46999998093E+01 0.  1.
</event>
<event>
 5   0  0.2783875E-07  0.3205670E+04  0.7818609E-02  0.8187321E-01
       -1   -1    0    0    0  501  0.00000000000E+00  0.00000000000E+00  0.11208918708E+04  0.11208918708E+04  0.50400001928E-02 0. -1.
        1   -1    0    0  501    0  0.00000000000E+00  0.00000000000E+00 -0.22919959412E+04  0.22919959412E+04  0.50400001928E-02 0.  1.
    10030    2    1    2    0    0  0.00000000000E+00  0.00000000000E+00 -0.11711040704E+04  0.34128878120E+04  0.32056697387E+04 0.  0.
        2    1    3    3  502    0 -0.23667625866E+03  0.16806346232E+02  0.11020910298E+04  0.11273432231E+04  0.25500000920E-02 0. -1.
       -2    1    3    3    0  502  0.23667625866E+03 -0.16806346232E+02 -0.22731951002E+04  0.22855445890E+04  0.25500000920E-02 0.  1.
</event>
<event>
 5   0  0.3075756E-07  0.3164903E+04  0.7818609E-02  0.8198148E-01
       -1   -1    0    0    0  501  0.00000000000E+00  0.00000000000E+00  0.12859897703E+04  0.12859897703E+04  0.50400001928E-02 0. -1.
        1   -1    0    0  501    0  0.00000000000E+00  0.00000000000E+00 -0.19472572819E+04  0.19472572819E+04  0.50400001928E-02 0.  1.
    10030    2    1    2    0    0  0.00000000000E+00  0.00000000000E+00 -0.66126751158E+03  0.32332470521E+04  0.31649031230E+04 0.  0.
        5    1    3    3  502    0  0.30449821704E+03 -0.10806314541E+04 -0.14699048904E+04  0.18496286061E+04  0.46999998093E+01 0.  1.
       -5    1    3    3    0  502 -0.30449821704E+03  0.10806314541E+04  0.80863737885E+03  0.13836184460E+04  0.46999998093E+01 0. -1.
</event>
<event>
 5   0  0.8335929E-07  0.3206056E+04  0.7818609E-02  0.8187220E-01
       -2   -1    0    0    0  501  0.00000000000E+00  0.00000000000E+00  0.10501739570E+04  0.10501739570E+04  0.25500000920E-02 0.  1.
        2   -1    0    0  501    0  0.00000000000E+00  0.00000000000E+00 -0.24469270611E+04  0.24469270611E+04  0.25500000920E-02 0. -1.
    10030    2    1    2    0    0  0.00000000000E+00  0.00000000000E+00 -0.13967531041E+04  0.34971010181E+04  0.32060561906E+04 0.  0.
        4    1    3    3  502    0  0.41044262720E+03  0.48080043978E+03  0.90846644365E+03  0.11067723819E+04  0.12699999809E+01 0.  1.
       -4    1    3    3    0  502 -0.41044262720E+03 -0.48080043978E+03 -0.23052195477E+04  0.23903286362E+04  0.12699999809E+01 0. -1.
</event>
<event>
 5   0  0.2997105E-07  0.3212239E+04  0.7818609E-02  0.8185592E-01
       -1   -1    0    0    0  501  0.00000000000E+00  0.00000000000E+00  0.17314828937E+04  0.17314828937E+04  0.50400001928E-02 0. -1.
        1   -1    0    0  501    0  0.00000000000E+00  0.00000000000E+00 -0.14898324836E+04  0.14898324836E+04  0.50400001928E-02 0.  1.
    10030    2    1    2    0    0  0.00000000000E+00  0.00000000000E+00  0.24165041006E+03  0.32213153773E+04  0.32122387582E+04 0.  0.
        3    1    3    3  502    0  0.55249810673E+03 -0.12940470482E+04  0.89748600230E+03  0.16689197270E+04  0.10100000352E+00 0.  1.
       -3    1    3    3    0  502 -0.55249810673E+03  0.12940470482E+04 -0.65583559224E+03  0.15523956503E+04  0.10100000352E+00 0. -1.
</event>
<event>
 5   0  0.2783875E-07  0.3197905E+04  0.7818609E-02  0.8189371E-01
        1   -1    0    0  501    0  0.00000000000E+00  0.00000000000E+00  0.12686656658E+04  0.12686656658E+04  0.50400001928E-02 0.  1.
       -1   -1    0    0    0  501  0.00000000000E+00  0.00000000000E+00 -0.20152265531E+04  0.20152265531E+04  0.50400001928E-02 0. -1.
    10030    2    1    2    0    0  0.00000000000E+00  0.00000000000E+00 -0.74656088734E+03  0.32838922190E+04  0.31979047746E+04 0.  0.
        2    1    3    3  502    0 -0.86057222857E+03 -0.11669209028E+04 -0.10654672370E+04  0.17993080301E+04  0.25500000920E-02 0. -1.
       -2    1    3    3    0  502  0.86057222857E+03  0.11669209028E+04  0.31890634962E+03  0.14845841889E+04  0.25500000920E-02 0.  1.
</event>
<event>
 5   0  0.8838951E-07  0.3200141E+04  0.7818609E-02  0.8188780E-01
       -2   -1    0    0    0  501  0.00000000000E+00  0.00000000000E+00  0.10983912450E+04  0.10983912451E+04  0.25500000920E-02 0.  1.
        2   -1    0    0  501    0  0.00000000000E+00  0.00000000000E+00 -0.23308863299E+04  0.23308863299E+04  0.25500000920E-02 0. -1.
    10030    2    1    2    0    0  0.00000000000E+00  0.00000000000E+00 -0.12324950848E+04  0.34292775749E+04  0.32001407081E+04 0.  0.
        2    1    3    3  502    0 -0.21436559841E+03 -0.15169487021E+04 -0.11109740646E+04  0.18924453352E+04  0.25500000920E-02 0. -1.
       -2    1    3    3    0  502  0.21436559841E+03  0.15169487021E+04 -0.12152102019E+03  0.15368322397E+04  0.25500000920E-02 0.  1.
</event>
<event>
 5   0  0.8488469E-07  0.3204315E+04  0.7818609E-02  0.8187679E-01
       -2   -1    0    0    0  501  0.00000000000E+00  0.00000000000E+00  0.29515087358E+04  0.29515087358E+04  0.25500000920E-02 0. -1.
        2   -1    0    0  501    0  0.00000000000E+00  0.00000000000E+00 -0.86969350402E+03  0.86969350402E+03  0.25500000920E-02 0.  1.
    10030    2    1    2    0    0  0.00000000000E+00  0.00000000000E+00  0.20818152318E+04  0.38212022399E+04  0.32043145755E+04 0.  0.
        3    1    3    3  502    0 -0.11051560892E+04  0.37227794613E+03 -0.26920611577E+03  0.11968428442E+04  0.10100000352E+00 0.  1.
       -3    1    3    3    0  502  0.11051560892E+04 -0.37227794613E+03  0.23510213476E+04  0.26243593957E+04  0.10100000352E+00 0. -1.
</event>
<event>
 5   0  0.2891204E-07  0.3210744E+04  0.7818609E-02  0.8185986E-01
        1   -1    0    0  501    0  0.00000000000E+00  0.00000000000E+00  0.15600817525E+04  0.15600817525E+04  0.50400001928E-02 0. -1.
       -1   -1    0    0    0  501  0.00000000000E+00  0.00000000000E+00 -0.16519766958E+04  0.16519766958E+04  0.50400001928E-02 0.  1.
    10030    2    1    2    0    0  0.00000000000E+00  0.00000000000E+00 -0.91894943214E+02  0.32120584483E+04  0.32107436514E+04 0.  0.
        4    1    3    3  502    0  0.89275539833E+03 -0.23939420163E+03  0.12671810972E+04  0.15684614535E+04  0.12699999809E+01 0. -1.
       -4    1    3    3    0  502 -0.89275539833E+03  0.23939420163E+03 -0.13590760404E+04  0.16435969949E+04  0.12699999809E+01 0.  1.
</event>
<event>
 5   0  0.8488469E-07  0.3205563E+04  0.7818609E-02  0.8187349E-01
       -2   -1    0    0    0  501  0.00000000000E+00  0.00000000000E+00  0.97515490090E+03  0.97515490091E+03  0.25500000920E-02 0.  1.
        2   -1    0    0  501    0  0.00000000000E+00  0.00000000000E+00 -0.26343600060E+04  0.26343600060E+04  0.25500000920E-02 0. -1.
    10030    2    1    2    0    0  0.00000000000E+00  0.00000000000E+00 -0.16592051051E+04  0.36095149069E+04  0.32055633331E+04 0.  0.
        3    1    3    3  502    0  0.74747572984E+03  0.72482054465E+03 -0.22016906819E+04  0.24354725738E+04  0.10100000352E+00 0. -1.
       -3    1    3    3    0  502 -0.74747572984E+03 -0.72482054465E+03  0.54248557684E+03  0.11740423331E+04  0.10100000352E+00 0.  1.
</event>
<event>
 5   0  0.2997105E-07  0.3188757E+04  0.7818609E-02  0.8191793E-01
        1   -1    0    0  501    0  0.00000000000E+00  0.00000000000E+00  0.17483816274E+04  0.17483816274E+04  0.50400001928E-02 0.  1.
       -1   -1    0    0    0  501  0.00000000000E+00  0.00000000000E+00 -0.14539403316E+04  0.14539403316E+04  0.50400001928E-02 0. -1.
    10030    2    1    2    0    0  0.00000000000E+00  0.00000000000E+00  0.29444129575E+03  0.32023219590E+04  0.31887568506E+04 0.  0.
        3    1    3    3  502    0 -0.61616077811E+03 -0.17023705811E+03  0.16140531594E+04  0.17360306369E+04  0.10100000352E+00 0.  1.
       -3    1    3    3    0  502  0.61616077811E+03  0.17023705811E+03 -0.13196118637E+04  0.14662913221E+04  0.10100000352E+00 0. -1.
</event>
<event>
 5   0  0.8838951E-07  0.3191073E+04  0.7818609E-02  0.8191179E-01
       -2   -1    0    0    0  501  0.00000000000E+00  0.00000000000E+00  0.16683641346E+04  0.16683641346E+04  0.25500000920E-02 0.  1.
        2   -1    0    0  501    0  0.00000000000E+00  0.00000000000E+00 -0.15258878994E+04  0.15258878994E+04  0.25500000920E-02 0. -1.
    10030    2    1    2    0    0  0.00000000000E+00  0.00000000000E+00  0.14247623517E+03  0.31942520340E+04  0.31910729511E+04 0.  0.
        2    1    3    3  502    0 -0.17494287223E+03 -0.12117865423E+04  0.10953433833E+04  0.16428051497E+04  0.25500000920E-02 0.  1.
       -2    1    3    3    0  502  0.17494287223E+03  0.12117865423E+04 -0.95286714815E+03  0.15514468843E+04  0.25500000920E-02 0. -1.
</event>
<event>
 5   0  0.8488469E-07  0.3240423E+04  0.7818609E-02  0.8178223E-01
        2   -1    0    0  501    0  0.00000000000E+00  0.00000000000E+00  0.18606000645E+04  0.18606000645E+04  0.25500000920E-02 0. -1.
       -2   -1    0    0    0  501  0.00000000000E+00  0.00000000000E+00 -0.14108806716E+04  0.14108806716E+04  0.25500000920E-02 0.  1.
    10030    2    1    2    0    0  0.00000000000E+00  0.00000000000E+00  0.44971939289E+03  0.32714807361E+04  0.32404226074E+04 0.  0.
        3    1    3    3  502    0  0.13434846056E+04 -0.76870969824E+03 -0.25849749470E+03  0.15692948897E+04  0.10100000352E+00 0.  1.
       -3    1    3    3    0  502 -0.13434846056E+04  0.76870969824E+03  0.70821688759E+03  0.17021858464E+04  0.10100000352E+00 0. -1.
</event>
<event>
 5   0  0.8195618E-07  0.3199373E+04  0.7818609E-02  0.8188983E-01
        2   -1    0    0  501    0  0.00000000000E+00  0.00000000000E+00  0.30824602896E+04  0.30824602896E+04  0.25500000920E-02 0.  1.
       -2   -1    0    0    0  501  0.00000000000E+00  0.00000000000E+00 -0.83017978574E+03  0.83017978575E+03  0.25500000920E-02 0. -1.
    10030    2    1    2    0    0  0.00000000000E+00  0.00000000000E+00  0.22522805038E+04  0.39126400753E+04  0.31993725777E+04 0.  0.
        1    1    3    3  502    0  0.16663522887E+03 -0.15154123756E+04  0.17186722624E+04  0.22974064318E+04  0.50400001928E-02 0.  1.
       -1    1    3    3    0  502 -0.16663522887E+03  0.15154123756E+04  0.53360824147E+03  0.16152336435E+04  0.50400001928E-02 0. -1.
</event>
<event>
 5   0  0.3013888E-07  0.3175691E+04  0.7818609E-02  0.8195267E-01
        1   -1    0    0  501    0  0.00000000000E+00  0.00000000000E+00  0.19810533486E+04  0.19810533486E+04  0.50400001928E-02 0. -1.
       -1   -1    0    0    0  501  0.00000000000E+00  0.00000000000E+00 -0.12726834792E+04  0.12726834792E+04  0.50400001928E-02 0.  1.
    10030    2    1    2    0    0  0.00000000000E+00  0.00000000000E+00  0.70836986947E+03  0.32537368278E+04  0.31756913378E+04 0.  0.
        1    1    3    3  502    0  0.47952917793E+02 -0.53965333888E+03  0.18834236506E+04  0.19597984224E+04  0.50400001928E-02 0. -1.
       -1    1    3    3    0  502 -0.47952917793E+02  0.53965333888E+03 -0.11750537812E+04  0.12939384055E+04  0.50400001928E-02 0.  1.
</event>
<event>
 5   0  0.8488469E-07  0.3179040E+04  0.7818609E-02  0.8194375E-01
        2   -1    0    0  501    0  0.00000000000E+00  0.00000000000E+00  0.94094261669E+03  0.94094261669E+03  0.25500000920E-02 0. -1.
       -2   -1    0    0    0  501  0.00000000000E+00  0.00000000000E+00 -0.26851518907E+04  0.26851518907E+04  0.25500000920E-02 0.  1.
    10030    2    1    2    0    0  0.00000000000E+00  0.00000000000E+00 -0.17442092740E+04  0.36260945073E+04  0.31790400099E+04 0.  0.
        3    1    3    3  502    0  0.36538944183E+02 -0.15890601635E+04 -0.88493544936E+03  0.18192190790E+04  0.10100000352E+00 0. -1.
       -3    1    3    3    0  502 -0.36538944183E+02  0.15890601635E+04 -0.85927382460E+03  0.18068754283E+04  0.10100000352E+00 0.  1.
</event>
<event>
 5   0  0.2891204E-07  0.3203621E+04  0.7818609E-02  0.8187862E-01
        1   -1    0    0  501    0  0.00000000000E+00  0.00000000000E+00  0.15171230184E+04  0.15171230184E+04  0.50400001928E-02 0. -1.
       -1   -1    0    0    0  501  0.00000000000E+00  0.00000000000E+00 -0.16912250305E+04  0.16912250305E+04  0.50400001928E-02 0.  1.
    10030    2    1    2    0    0  0.00000000000E+00  0.00000000000E+00 -0.17410201210E+03  0.32083480488E+04  0.32036207160E+04 0.  0.
        4    1    3    3  502    0  0.10337684626E+04  0.12215542428E+04 -0.15731726177E+03  0.16079870448E+04  0.12699999809E+01 0.  1.
       -4    1    3    3    0  502 -0.10337684626E+04 -0.12215542428E+04 -0.16784750332E+02  0.16003610040E+04  0.12699999809E+01 0. -1.
</event>
<event>
 5   0  0.8802800E-07  0.3185279E+04  0.7818609E-02  0.8192716E-01
       -2   -1    0    0    0  501  0.00000000000E+00  0.00000000000E+00  0.22755474896E+04  0.22755474896E+04  0.25500000920E-02 0.  1.
        2   -1    0    0  501    0  0.00000000000E+00  0.00000000000E+00 -0.11146773584E+04  0.11146773584E+04  0.25500000920E-02 0. -1.
    10030    2    1    2    0    0  0.00000000000E+00  0.00000000000E+00  0.11608701312E+04  0.33902248480E+04  0.31852794318E+04 0.  0.
        5    1    3    3  502    0 -0.20287322451E+03 -0.89075395439E+03  0.19689332235E+04  0.21705575968E+04  0.46999998093E+01 0.  1.
       -5    1    3    3    0  502  0.20287322451E+03  0.89075395439E+03 -0.80806309232E+03  0.12196672512E+04  0.46999998093E+01 0. -1.
</event>
<event>
 5   0  0.2891204E-07  0.3188692E+04  0.7818609E-02  0.8191810E-01
        1   -1    0    0  501    0  0.00000000000E+00  0.00000000000E+00  0.12834181497E+04  0.12834181497E+04  0.50400001928E-02 0.  1.
       -1   -1    0    0    0  501  0.00000000000E+00  0.00000000000E+00 -0.19806006520E+04  0.19806006520E+04  0.50400001928E-02 0. -1.
    10030    2    1    2    0    0  0.00000000000E+00  0.00000000000E+00 -0.69718250231E+03  0.32640188018E+04  0.31886917846E+04 0.  0.
        4    1    3    3  502    0  0.12152819854E+03 -0.56622912980E+03 -0.18691291849E+04  0.19567907535E+04  0.12699999809E+01 0. -1.
       -4    1    3    3    0  502 -0.12152819854E+03  0.56622912980E+03  0.11719466826E+04  0.13072280483E+04  0.12699999809E+01 0.  1.
</event>
<event>
 5   0  0.2997105E-07  0.3236039E+04  0.7818609E-02  0.8179364E-01
       -1   -1    0    0    0  501  0.00000000000E+00  0.00000000000E+00  0.14681917799E+04  0.14681917799E+04  0.50400001928E-02 0. -1.
        1   -1    0    0  501    0  0.00000000000E+00  0.00000000000E+00 -0.17831368827E+04  0.17831368827E+04  0.50400001928E-02 0.  1.
    10030    2    1    2    0    0  0.00000000000E+00  0.00000000000E+00 -0.31494510281E+03  0.32513286627E+04  0.32360388834E+04 0.  0.
        3    1    3    3  502    0 -0.69885992285E+03  0.41424525949E+03  0.12484181314E+04  0.14894805026E+04  0.10100000352E+00 0. -1.
       -3    1    3    3    0  502  0.69885992285E+03 -0.41424525949E+03 -0.15633632342E+04  0.17618481600E+04  0.10100000352E+00 0.  1.
</event>
<event>
 5   0  0.8195618E-07  0.3190714E+04  0.7818609E-02  0.8191274E-01
       -2   -1    0    0    0  501  0.00000000000E+00  0.00000000000E+00  0.11912168428E+04  0.11912168428E+04  0.25500000920E-02 0. -1.
        2   -1    0    0  501    0  0.00000000000E+00  0.00000000000E+00 -0.21366088925E+04  0.21366088925E+04  0.25500000920E-02 0.  1.
    10030    2    1    2    0    0  0.00000000000E+00  0.00000000000E+00 -0.94539204973E+03  0.33278257353E+04  0.31907143396E+04 0.  0.
        1    1    3    3  502    0  0.54621272542E+03 -0.63492596986E+03  0.94347607192E+03  0.12615967767E+04  0.50400001928E-02 0. -1.
       -1    1    3    3    0  502 -0.54621272542E+03  0.63492596986E+03 -0.18888681216E+04  0.20662289587E+04  0.50400001928E-02 0.  1.
</event>
<event>
 5   0  0.8335929E-07  0.3180599E+04  0.7818609E-02  0.8193960E-01
        2   -1    0    0  501    0  0.00000000000E+00  0.00000000000E+00  0.22100014857E+04  0.22100014857E+04  0.25500000920E-02 0.  1.
       -2   -1    0    0    0  501  0.00000000000E+00  0.00000000000E+00 -0.11443668160E+04  0.11443668160E+04  0.25500000920E-02 0. -1.
    10030    2    1    2    0    0  0.00000000000E+00  0.00000000000E+00  0.10656346696E+04  0.33543683017E+04  0.31805989144E+04 0.  0.
        4    1    3    3  502    0  0.83617122174E+03 -0.52742778483E+03  0.18465412067E+04  0.20945353712E+04  0.12699999809E+01 0.  1.
       -4    1    3    3    0  502 -0.83617122174E+03  0.52742778483E+03 -0.78090653702E+03  0.12598329305E+04  0.12699999809E+01 0. -1.
</event>
<event>
 5   0  0.8488469E-07  0.3343679E+04  0.7818609E-02  0.8151869E-01
       -2   -1    0    0    0  501  0.00000000000E+00  0.00000000000E+00  0.15350295692E+04  0.15350295692E+04  0.25500000920E-02 0. -1.
        2   -1    0    0  501    0  0.00000000000E+00  0.00000000000E+00 -0.18208430217E+04  0.18208430217E+04  0.25500000920E-02 0.  1.
    10030    2    1    2    0    0  0.00000000000E+00  0.00000000000E+00 -0.28581345251E+03  0.33558725909E+04  0.33436793382E+04 0.  0.
        3    1    3    3  502    0  0.68057485181E+03  0.19491798068E+03 -0.16629834219E+04  0.18073984120E+04  0.10100000352E+00 0.  1.
       -3    1    3    3    0  502 -0.68057485181E+03 -0.19491798068E+03  0.13771699694E+04  0.15484741789E+04  0.10100000352E+00 0. -1.
</event>
<event>
 5   0  0.2783875E-07  0.3236623E+04  0.7818609E-02  0.8179212E-01
       -1   -1    0    0    0  501  0.00000000000E+00  0.00000000000E+00  0.99031159444E+03  0.99031159445E+03  0.50400001928E-02 0. -1.
        1   -1    0    0  501    0  0.00000000000E+00  0.00000000000E+00 -0.26445529796E+04  0.26445529796E+04  0.50400001928E-02 0.  1.
    10030    2    1    2    0    0  0.00000000000E+00  0.00000000000E+00 -0.16542413852E+04  0.36348645741E+04  0.32366226087E+04 0.  0.
        2    1    3    3  502    0  0.64613966677E+03  0.87318880758E+02 -0.24905169460E+04  0.25744505655E+04  0.25500000920E-02 0.  1.
       -2    1    3    3    0  502 -0.64613966677E+03 -0.87318880758E+02  0.83627556082E+03  0.10604140086E+04  0.25500000920E-02 0. -1.
</event>
<event>
 5   0  0.2783875E-07  0.3212609E+04  0.7818609E-02  0.8185495E-01
        1   -1    0    0  501    0  0.00000000000E+00  0.00000000000E+00  0.14803447828E+04  0.14803447828E+04  0.50400001928E-02 0. -1.
       -1   -1    0    0    0  501  0.00000000000E+00  0.00000000000E+00 -0.17429824248E+04  0.17429824248E+04  0.50400001928E-02 0.  1.
    10030    2    1    2    0    0  0.00000000000E+00  0.00000000000E+00 -0.26263764197E+03  0.32233272076E+04  0.32126094933E+04 0.  0.
        2    1    3    3  502    0  0.72775217914E+03 -0.12521684061E+04  0.56574060396E+03  0.15548669983E+04  0.25500000920E-02 0. -1.
       -2    1    3    3    0  502 -0.72775217914E+03  0.12521684061E+04 -0.82837824593E+03  0.16684602093E+04  0.25500000920E-02 0.  1.
</event>
<event>
 5   0  0.8802800E-07  0.3201809E+04  0.7818609E-02  0.8188340E-01
        2   -1    0    0  501    0  0.00000000000E+00  0.00000000000E+00  0.23299224366E+04  0.23299224366E+04  0.25500000920E-02 0.  1.
       -2   -1    0    0    0  501  0.00000000000E+00  0.00000000000E+00 -0.10999915162E+04  0.10999915162E+04  0.25500000920E-02 0. -1.
    10030    2    1    2    0    0  0.00000000000E+00  0.00000000000E+00  0.12299309204E+04  0.34299139528E+04  0.32018088098E+04 0.  0.
        5    1    3    3  502    0 -0.14928149284E+04  0.55797806096E+03  0.45237321899E+03  0.16566531158E+04  0.46999998093E+01 0.  1.
       -5    1    3    3    0  502  0.14928149284E+04 -0.55797806096E+03  0.77755770142E+03  0.17732608370E+04  0.46999998093E+01 0. -1.
</event>
<event>
 5   0  0.3013888E-07  0.3198371E+04  0.7818609E-02  0.8189247E-01
        1   -1    0    0  501    0  0.00000000000E+00  0.00000000000E+00  0.21131542981E+04  0.21131542981E+04  0.50400001928E-02 0. -1.
       -1   -1    0    0    0  501  0.00000000000E+00  0.00000000000E+00 -0.12102262787E+04  0.12102262787E+04  0.50400001928E-02 0.  1.
    10030    2    1    2    0    0  0.00000000000E+00  0.00000000000E+00  0.90292801938E+03  0.33233805768E+04  0.31983713746E+04 0.  0.
        1    1    3    3  502    0 -0.18823933271E+03 -0.12803276770E+04  0.14277186861E+04  0.19269285544E+04  0.50400001928E-02 0. -1.
       -1    1    3    3    0  502  0.18823933271E+03  0.12803276770E+04 -0.52479066672E+03  0.13964520224E+04  0.50400001928E-02 0.  1.
</event>
<event>
 5   0  0.8488469E-07  0.3198395E+04  0.7818609E-02  0.8189241E-01
       -2   -1    0    0    0  501  0.00000000000E+00  0.00000000000E+00  0.10484571611E+04  0.10484571611E+04  0.25500000920E-02 0. -1.
        2   -1    0    0  501    0  0.00000000000E+00  0.00000000000E+00 -0.24392341793E+04  0.24392341793E+04  0.25500000920E-02 0.  1.
    10030    2    1    2    0    0  0.00000000000E+00  0.00000000000E+00 -0.13907770182E+04  0.34876913404E+04  0.31983949368E+04 0.  0.
        3    1    3    3  502    0 -0.12798871861E+04 -0.90712218353E+03 -0.10340443520E+04  0.18788905229E+04  0.10100000352E+00 0.  1.
       -3    1    3    3    0  502  0.12798871861E+04  0.90712218353E+03 -0.35673266620E+03  0.16088008175E+04  0.10100000352E+00 0. -1.
</event>
<event>
 5   0  0.2783875E-07  0.3202390E+04  0.7818609E-02  0.8188186E-01
        1   -1    0    0  501    0  0.00000000000E+00  0.00000000000E+00  0.16850923502E+04  0.16850923502E+04  0.50400001928E-02 0. -1.
       -1   -1    0    0    0  501  0.00000000000E+00  0.00000000000E+00 -0.15214747944E+04  0.15214747944E+04  0.50400001928E-02 0.  1.
    10030    2    1    2    0    0  0.00000000000E+00  0.00000000000E+00  0.16361755576E+03  0.32065671446E+04  0.32023900681E+04 0.  0.
        2    1    3    3  502    0 -0.75805333401E+03  0.13268652927E+04  0.56056335187E+03  0.16277123928E+04  0.25500000920E-02 0. -1.
       -2    1    3    3    0  502  0.75805333401E+03 -0.13268652927E+04 -0.39694579611E+03  0.15788547518E+04  0.25500000920E-02 0.  1.
</event>
<event>
 5   0  0.2891204E-07  0.3204033E+04  0.7818609E-02  0.8187753E-01
       -1   -1    0    0    0  501  0.00000000000E+00  0.00000000000E+00  0.13154863906E+04  0.13154863906E+04  0.50400001928E-02 0. -1.
        1   -1    0    0  501    0  0.00000000000E+00  0.00000000000E+00 -0.19509561922E+04  0.19509561922E+04  0.50400001928E-02 0.  1.
    10030    2    1    2    0    0  0.00000000000E+00  0.00000000000E+00 -0.63546980159E+03  0.32664425828E+04  0.32040326587E+04 0.  0.
        4    1    3    3  502    0 -0.28646928411E+03 -0.15755731655E+04 -0.27260922916E+03  0.16244423213E+04  0.12699999809E+01 0.  1.
       -4    1    3    3    0  502  0.28646928411E+03  0.15755731655E+04 -0.36286057243E+03  0.16420002614E+04  0.12699999809E+01 0. -1.
</event>
<event>
 5   0  0.2783875E-07  0.3216604E+04  0.7818609E-02  0.8184446E-01
       -3   -1    0    0    0  501  0.00000000000E+00  0.00000000000E+00  0.24782185231E+04  0.24782185252E+04  0.10100000352E+00 0.  1.
        3   -1    0    0  501    0  0.00000000000E+00  0.00000000000E+00 -0.10437476161E+04  0.10437476210E+04  0.10100000352E+00 0. -1.
    10030    2    1    2    0    0  0.00000000000E+00  0.00000000000E+00  0.14344709070E+04  0.35219661462E+04  0.32166036051E+04 0.  0.
        2    1    3    3  502    0  0.80446558718E+03  0.12682613787E+04  0.87308198052E+02  0.15044183351E+04  0.25500000920E-02 0. -1.
       -2    1    3    3    0  502 -0.80446558718E+03 -0.12682613787E+04  0.13471627089E+04  0.20175478111E+04  0.25500000920E-02 0.  1.
</event>
<event>
 5   0  0.8335929E-07  0.3180684E+04  0.7818609E-02  0.8193937E-01
        2   -1    0    0  501    0  0.00000000000E+00  0.00000000000E+00  0.14235723019E+04  0.14235723019E+04  0.25500000920E-02 0. -1.
       -2   -1    0    0    0  501  0.00000000000E+00  0.00000000000E+00 -0.17766482173E+04  0.17766482173E+04  0.25500000920E-02 0.  1.
    10030    2    1    2    0    0  0.00000000000E+00  0.00000000000E+00 -0.35307591542E+03  0.32002205193E+04  0.31806836954E+04 0.  0.
        4    1    3    3  502    0  0.11248991013E+04 -0.10899591621E+04  0.10042840472E+03  0.15695529429E+04  0.12699999809E+01 0.  1.
       -4    1    3    3    0  502 -0.11248991013E+04  0.10899591621E+04 -0.45350432014E+03  0.16306675763E+04  0.12699999809E+01 0. -1.
</event>
<event>
 5   0  0.3075756E-07  0.3184966E+04  0.7818609E-02  0.8192799E-01
       -1   -1    0    0    0  501  0.00000000000E+00  0.00000000000E+00  0.90820000045E+03  0.90820000047E+03  0.50400001928E-02 0.  1.
        1   -1    0    0  501    0  0.00000000000E+00  0.00000000000E+00 -0.27923391289E+04  0.27923391289E+04  0.50400001928E-02 0. -1.
    10030    2    1    2    0    0  0.00000000000E+00  0.00000000000E+00 -0.18841391285E+04  0.37005391294E+04  0.31849661839E+04 0.  0.
        5    1    3    3  502    0 -0.18047887936E+03 -0.10892279701E+04 -0.22754418751E+04  0.25291595469E+04  0.46999998093E+01 0. -1.
       -5    1    3    3    0  502  0.18047887936E+03  0.10892279701E+04  0.39130274661E+03  0.11713795825E+04  0.46999998093E+01 0.  1.
</event>
<event>
 5   0  0.8838951E-07  0.3202950E+04  0.7818609E-02  0.8188038E-01
        2   -1    0    0  501    0  0.00000000000E+00  0.00000000000E+00  0.18698685476E+04  0.18698685476E+04  0.25500000920E-02 0.  1.
       -2   -1    0    0    0  501  0.00000000000E+00  0.00000000000E+00 -0.13716058999E+04  0.13716058999E+04  0.25500000920E-02 0. -1.
    10030    2    1    2    0    0  0.00000000000E+00  0.00000000000E+00  0.49826264763E+03  0.32414744475E+04  0.32029503474E+04 0.  0.
        2    1    3    3  502    0  0.13027340898E+04 -0.57083010684E+03  0.99402743848E+03  0.17352387928E+04  0.25500000920E-02 0.  1.
       -2    1    3    3    0  502 -0.13027340898E+04  0.57083010684E+03 -0.49576479086E+03  0.15062356547E+04  0.25500000920E-02 0. -1.
</event>
<event>
 5   0  0.2783875E-07  0.3203801E+04  0.7818609E-02  0.8187814E-01
       -1   -1    0    0    0  501  0.00000000000E+00  0.00000000000E+00  0.21890361504E+04  0.21890361504E+04  0.50400001928E-02 0. -1.
        1   -1    0    0  501    0  0.00000000000E+00  0.00000000000E+00 -0.11722439767E+04  0.11722439768E+04  0.50400001928E-02 0.  1.
    10030    2    1    2    0    0  0.00000000000E+00  0.00000000000E+00  0.10167921737E+04  0.33612801272E+04  0.32038005195E+04 0.  0.
        2    1    3    3  502    0  0.45138496781E+03 -0.11057794182E+04 -0.61159137542E+03  0.13418422118E+04  0.25500000920E-02 0.  1.
       -2    1    3    3    0  502 -0.45138496781E+03  0.11057794182E+04  0.16283835491E+04  0.20194379153E+04  0.25500000920E-02 0. -1.
</event>
<event>
 5   0  0.3013888E-07  0.3123110E+04  0.7818609E-02  0.8209424E-01
       -1   -1    0    0    0  501  0.00000000000E+00  0.00000000000E+00  0.17020024762E+04  0.17020024762E+04  0.50400001928E-02 0.  1.
        1   -1    0    0  501    0  0.00000000000E+00  0.00000000000E+00 -0.14326971252E+04  0.14326971252E+04  0.50400001928E-02 0. -1.
    10030    2    1    2    0    0  0.00000000000E+00  0.00000000000E+00  0.26930535095E+03  0.31346996014E+04  0.31231100236E+04 0.  0.
        1    1    3    3  502    0  0.53339680074E+03  0.62118734222E+03  0.14692742783E+04  0.16820085511E+04  0.50400001928E-02 0.  1.
       -1    1    3    3    0  502 -0.53339680074E+03 -0.62118734222E+03 -0.11999689273E+04  0.14526910503E+04  0.50400001928E-02 0. -1.
</event>
<event>
 5   0  0.8838951E-07  0.3235555E+04  0.7818609E-02  0.8179490E-01
       -2   -1    0    0    0  501  0.00000000000E+00  0.00000000000E+00  0.12494956177E+04  0.12494956177E+04  0.25500000920E-02 0. -1.
        2   -1    0    0  501    0  0.00000000000E+00  0.00000000000E+00 -0.20946089416E+04  0.20946089416E+04  0.25500000920E-02 0.  1.
    10030    2    1    2    0    0  0.00000000000E+00  0.00000000000E+00 -0.84511332393E+03  0.33441045593E+04  0.32355554042E+04 0.  0.
        2    1    3    3  502    0 -0.10514720777E+04 -0.85505283001E+03 -0.13356523631E+04  0.19028074278E+04  0.25500000920E-02 0.  1.
       -2    1    3    3    0  502  0.10514720777E+04  0.85505283001E+03  0.49053903920E+03  0.14412971315E+04  0.25500000920E-02 0. -1.
</event>
<event>
 5   0  0.8335929E-07  0.3159904E+04  0.7818609E-02  0.8199487E-01
       -2   -1    0    0    0  501  0.00000000000E+00  0.00000000000E+00  0.15814385526E+04  0.15814385526E+04  0.25500000920E-02 0. -1.
        2   -1    0    0  501    0  0.00000000000E+00  0.00000000000E+00 -0.15784665434E+04  0.15784665434E+04  0.25500000920E-02 0.  1.
    10030    2    1    2    0    0  0.00000000000E+00  0.00000000000E+00  0.29720092368E+01  0.31599050960E+04  0.31599036984E+04 0.  0.
        4    1    3    3  502    0  0.30553005029E+03  0.10170715062E+04  0.11712998287E+04  0.15810528018E+04  0.12699999809E+01 0. -1.
       -4    1    3    3    0  502 -0.30553005029E+03 -0.10170715062E+04 -0.11683278195E+04  0.15788522942E+04  0.12699999809E+01 0.  1.
</event>
<event>
 5   0  0.2783875E-07  0.3198448E+04  0.7818609E-02  0.8189227E-01
        1   -1    0    0  501    0  0.00000000000E+00  0.00000000000E+00  0.12648316474E+04  0.12648316474E+04  0.50400001928E-02 0.  1.
       -1   -1    0    0    0  501  0.00000000000E+00  0.00000000000E+00 -0.20220217030E+04  0.20220217031E+04  0.50400001928E-02 0. -1.
    10030    2    1    2    0    0  0.00000000000E+00  0.00000000000E+00 -0.75719005568E+03  0.32868533504E+04  0.31984477746E+04 0.  0.
        2    1    3    3  502    0  0.88338770067E+03  0.78183823460E+03  0.73100519360E+03  0.13878088658E+04  0.25500000920E-02 0.  1.
       -2    1    3    3    0  502 -0.88338770067E+03 -0.78183823460E+03 -0.14881952493E+04  0.18990444847E+04  0.25500000920E-02 0. -1.
</event>
<event>
 5   0  0.3013888E-07  0.3193536E+04  0.7818609E-02  0.8190526E-01
        1   -1    0    0  501    0  0.00000000000E+00  0.00000000000E+00  0.15704798456E+04  0.15704798456E+04  0.50400001928E-02 0. -1.
       -1   -1    0    0    0  501  0.00000000000E+00  0.00000000000E+00 -0.16234965368E+04  0.16234965368E+04  0.50400001928E-02 0.  1.
    10030    2    1    2    0    0  0.00000000000E+00  0.00000000000E+00 -0.53016691195E+02  0.31939763825E+04  0.31935363411E+04 0.  0.
        1    1    3    3  502    0  0.93761811273E+03 -0.10382899044E+04  0.74333464624E+03  0.15842095970E+04  0.50400001928E-02 0. -1.
       -1    1    3    3    0  502 -0.93761811273E+03  0.10382899044E+04 -0.79635133744E+03  0.16097667855E+04  0.50400001928E-02 0.  1.
</event>
<event>
 5   0  0.2891204E-07  0.3174715E+04  0.7818609E-02  0.8195527E-01
       -1   -1    0    0    0  501  0.00000000000E+00  0.00000000000E+00  0.15033724673E+04  0.15033724673E+04  0.50400001928E-02 0.  1.
        1   -1    0    0  501    0  0.00000000000E+00  0.00000000000E+00 -0.16760342081E+04  0.16760342081E+04  0.50400001928E-02 0. -1.
    10030    2    1    2    0    0  0.00000000000E+00  0.00000000000E+00 -0.17266174080E+03  0.31794066753E+04  0.31747149054E+04 0.  0.
        4    1    3    3  502    0 -0.24895416163E+03 -0.10684921494E+04  0.10625560496E+04  0.15273115659E+04  0.12699999809E+01 0.  1.
       -4    1    3    3    0  502  0.24895416163E+03  0.10684921494E+04 -0.12352177904E+04  0.16520951094E+04  0.12699999809E+01 0. -1.
</event>
<event>
 5   0  0.8335929E-07  0.3194593E+04  0.7818609E-02  0.8190247E-01
       -2   -1    0    0    0  501  0.00000000000E+00  0.00000000000E+00  0.11248409289E+04  0.11248409289E+04  0.25500000920E-02 0. -1.
        2   -1    0    0  501    0  0.00000000000E+00  0.00000000000E+00 -0.22681923205E+04  0.22681923205E+04  0.25500000920E-02 0.  1.
    10030    2    1    2    0    0  0.00000000000E+00  0.00000000000E+00 -0.11433513917E+04  0.33930332494E+04  0.31945926543E+04 0.  0.
        4    1    3    3  502    0  0.12436674315E+04 -0.37904236280E+03  0.41384824467E+03  0.13644243385E+04  0.12699999809E+01 0. -1.
       -4    1    3    3    0  502 -0.12436674315E+04  0.37904236280E+03 -0.15571996363E+04  0.20286089109E+04  0.12699999809E+01 0.  1.
</event>
<event>
 5   0  0.2997105E-07  0.3175259E+04  0.7818609E-02  0.8195382E-01
       -1   -1    0    0    0  501  0.00000000000E+00  0.00000000000E+00  0.14769055969E+04  0.14769055969E+04  0.50400001928E-02 0.  1.
        1   -1    0    0  501    0  0.00000000000E+00  0.00000000000E+00 -0.17066546466E+04  0.17066546466E+04  0.50400001928E-02 0. -1.
    10030    2    1    2    0    0  0.00000000000E+00  0.00000000000E+00 -0.22974904966E+03  0.31835602435E+04  0.31752592333E+04 0.  0.
        3    1    3    3  502    0 -0.42515701660E+03  0.38095284371E+03 -0.16001941067E+04  0.16989716734E+04  0.10100000352E+00 0. -1.
       -3    1    3    3    0  502  0.42515701660E+03 -0.38095284371E+03  0.13704450570E+04  0.14845885701E+04  0.10100000352E+00 0.  1.
</event>
<event>
 5   0  0.3013888E-07  0.3202432E+04  0.7818609E-02  0.8188175E-01
        1   -1    0    0  501    0  0.00000000000E+00  0.00000000000E+00  0.12445658587E+04  0.12445658587E+04  0.50400001928E-02 0. -1.
       -1   -1    0    0    0  501  0.00000000000E+00  0.00000000000E+00 -0.20600705047E+04  0.20600705047E+04  0.50400001928E-02 0.  1.
    10030    2    1    2    0    0  0.00000000000E+00  0.00000000000E+00 -0.81550464598E+03  0.33046363633E+04  0.32024324609E+04 0.  0.
        1    1    3    3  502    0 -0.13195008831E+04  0.47418781745E+03  0.39020301529E+03  0.14554020269E+04  0.50400001928E-02 0. -1.
       -1    1    3    3    0  502  0.13195008831E+04 -0.47418781745E+03 -0.12057076613E+04  0.18492343365E+04  0.50400001928E-02 0.  1.
</event>
<event>
 5   0  0.3013888E-07  0.3201075E+04  0.7818609E-02  0.8188533E-01
        1   -1    0    0  501    0  0.00000000000E+00  0.00000000000E+00  0.12452423397E+04  0.12452423397E+04  0.50400001928E-02 0.  1.
       -1   -1    0    0    0  501  0.00000000000E+00  0.00000000000E+00 -0.20572063623E+04  0.20572063623E+04  0.50400001928E-02 0. -1.
    10030    2    1    2    0    0  0.00000000000E+00  0.00000000000E+00 -0.81196402262E+03  0.33024487020E+04  0.32010751093E+04 0.  0.
        1    1    3    3  502    0  0.10343566053E+04  0.18855159000E+03  0.83899673927E+03  0.13451248335E+04  0.50400001928E-02 0.  1.
       -1    1    3    3    0  502 -0.10343566053E+04 -0.18855159000E+03 -0.16509607619E+04  0.19573238686E+04  0.50400001928E-02 0. -1.
</event>
<event>
 5   0  0.8335929E-07  0.3206430E+04  0.7818609E-02  0.8187121E-01
        2   -1    0    0  501    0  0.00000000000E+00  0.00000000000E+00  0.18217177458E+04  0.18217177458E+04  0.25500000920E-02 0. -1.
       -2   -1    0    0    0  501  0.00000000000E+00  0.00000000000E+00 -0.14109198133E+04  0.14109198133E+04  0.25500000920E-02 0.  1.
    10030    2    1    2    0    0  0.00000000000E+00  0.00000000000E+00  0.41079793248E+03  0.32326375591E+04  0.32064295793E+04 0.  0.
        4    1    3    3  502    0  0.14201933398E+04  0.29246128337E+03  0.89495823741E+03  0.17039467668E+04  0.12699999809E+01 0.  1.
       -4    1    3    3    0  502 -0.14201933398E+04 -0.29246128337E+03 -0.48416030493E+03  0.15286907923E+04  0.12699999809E+01 0. -1.
</event>
<event>
 5   0  0.8488469E-07  0.3214951E+04  0.7818609E-02  0.8184880E-01
       -2   -1    0    0    0  501  0.00000000000E+00  0.00000000000E+00  0.16128149318E+04  0.16128149318E+04  0.25500000920E-02 0. -1.
        2   -1    0    0  501    0  0.00000000000E+00  0.00000000000E+00 -0.16021538182E+04  0.16021538182E+04  0.25500000920E-02 0.  1.
    10030    2    1    2    0    0  0.00000000000E+00  0.00000000000E+00  0.10661113627E+02  0.32149687500E+04  0.32149510733E+04 0.  0.
        3    1    3    3  502    0 -0.99308818630E+03 -0.35507594473E+03 -0.12078020418E+04  0.16034615227E+04  0.10100000352E+00 0.  1.
       -3    1    3    3    0  502  0.99308818630E+03  0.35507594473E+03  0.12184631554E+04  0.16115072273E+04  0.10100000352E+00 0. -1.
</event>
<event>
 5   0  0.8802800E-07  0.3196563E+04  0.7818609E-02  0.8189726E-01
       -2   -1    0    0    0  501  0.00000000000E+00  0.00000000000E+00  0.11661540289E+04  0.11661540289E+04  0.25500000920E-02 0. -1.
        2   -1    0    0  501    0  0.00000000000E+00  0.00000000000E+00 -0.21905366773E+04  0.21905366773E+04  0.25500000920E-02 0.  1.
    10030    2    1    2    0    0  0.00000000000E+00  0.00000000000E+00 -0.10243826485E+04  0.33566907062E+04  0.31965626361E+04 0.  0.
        5    1    3    3  502    0  0.15496783325E+04  0.19025739299E+03 -0.15334140882E+03  0.15688328424E+04  0.46999998093E+01 0.  1.
       -5    1    3    3    0  502 -0.15496783325E+04 -0.19025739299E+03 -0.87104123964E+03  0.17878578638E+04  0.46999998093E+01 0. -1.
</event>
<event>
 5   0  0.8488469E-07  0.3192421E+04  0.7818609E-02  0.8190822E-01
        2   -1    0    0  501    0  0.00000000000E+00  0.00000000000E+00  0.22270636925E+04  0.22270636925E+04  0.25500000920E-02 0.  1.
       -2   -1    0    0    0  501  0.00000000000E+00  0.00000000000E+00 -0.11440568396E+04  0.11440568396E+04  0.25500000920E-02 0. -1.
    10030    2    1    2    0    0  0.00000000000E+00  0.00000000000E+00  0.10830068529E+04  0.33711205321E+04  0.31924206801E+04 0.  0.
        3    1    3    3  502    0 -0.35847268372E+03 -0.67264449206E+03 -0.93947617547E+03  0.12097804644E+04  0.10100000352E+00 0. -1.
       -3    1    3    3    0  502  0.35847268372E+03  0.67264449206E+03  0.20224830284E+04  0.21613400676E+04  0.10100000352E+00 0.  1.
</event>
<event>
 5   0  0.3075756E-07  0.3193781E+04  0.7818609E-02  0.8190462E-01
       -1   -1    0    0    0  501  0.00000000000E+00  0.00000000000E+00  0.14631007210E+04  0.14631007210E+04  0.50400001928E-02 0.  1.
        1   -1    0    0  501    0  0.00000000000E+00  0.00000000000E+00 -0.17429143047E+04  0.17429143047E+04  0.50400001928E-02 0. -1.
    10030    2    1    2    0    0  0.00000000000E+00  0.00000000000E+00 -0.27981358367E+03  0.32060150257E+04  0.31937809416E+04 0.  0.
        5    1    3    3  502    0  0.10764880436E+04  0.76828528785E+03 -0.10382921576E+04  0.16814165118E+04  0.46999998093E+01 0. -1.
       -5    1    3    3    0  502 -0.10764880436E+04 -0.76828528785E+03  0.75847857391E+03  0.15245985139E+04  0.46999998093E+01 0.  1.
</event>
<event>
 5   0  0.8802800E-07  0.3205666E+04  0.7818609E-02  0.8187322E-01
        2   -1    0    0  501    0  0.00000000000E+00  0.00000000000E+00  0.15022536554E+04  0.15022536554E+04  0.25500000920E-02 0.  1.
       -2   -1    0    0    0  501  0.00000000000E+00  0.00000000000E+00 -0.17101462397E+04  0.17101462397E+04  0.25500000920E-02 0. -1.
    10030    2    1    2    0    0  0.00000000000E+00  0.00000000000E+00 -0.20789258421E+03  0.32123998951E+04  0.32056658839E+04 0.  0.
        5    1    3    3  502    0 -0.10640594368E+02  0.50433383969E+03 -0.16285183729E+04  0.17048636383E+04  0.46999998093E+01 0. -1.
       -5    1    3    3    0  502  0.10640594368E+02 -0.50433383969E+03  0.14206257887E+04  0.15075362568E+04  0.46999998093E+01 0.  1.
</event>
<event>
 5   0  0.8838951E-07  0.3151900E+04  0.7818609E-02  0.8201637E-01
       -2   -1    0    0    0  501  0.00000000000E+00  0.00000000000E+00  0.12337974345E+04  0.12337974345E+04  0.25500000920E-02 0. -1.
        2   -1    0    0  501    0  0.00000000000E+00  0.00000000000E+00 -0.20129868621E+04  0.20129868621E+04  0.25500000920E-02 0.  1.
    10030    2    1    2    0    0  0.00000000000E+00  0.00000000000E+00 -0.77918942758E+03  0.32467842965E+04  0.31518997611E+04 0.  0.
        2    1    3    3  502    0  0.86480713307E+03  0.10184406369E+04  0.47133143316E+03  0.14167801623E+04  0.25500000920E-02 0.  1.
       -2    1    3    3    0  502 -0.86480713307E+03 -0.10184406369E+04 -0.12505208607E+04  0.18300041343E+04  0.25500000920E-02 0. -1.
</event>
<event>
 5   0  0.8802800E-07  0.3209744E+04  0.7818609E-02  0.8186249E-01
       -2   -1    0    0    0  501  0.00000000000E+00  0.00000000000E+00  0.18583282359E+04  0.18583282359E+04  0.25500000920E-02 0.  1.
        2   -1    0    0  501    0  0.00000000000E+00  0.00000000000E+00 -0.13859844056E+04  0.13859844056E+04  0.25500000920E-02 0. -1.
    10030    2    1    2    0    0  0.00000000000E+00  0.00000000000E+00  0.47234383034E+03  0.32443126415E+04  0.32097438872E+04 0.  0.
        5    1    3    3  502    0  0.89456985357E+03  0.50566281626E+03 -0.10098421018E+04  0.14407474682E+04  0.46999998093E+01 0. -1.
       -5    1    3    3    0  502 -0.89456985357E+03 -0.50566281626E+03  0.14821859321E+04  0.18035651732E+04  0.46999998093E+01 0.  1.
</event>
<event>
 5   0  0.3013888E-07  0.3221051E+04  0.7818609E-02  0.8183280E-01
        1   -1    0    0  501    0  0.00000000000E+00  0.00000000000E+00  0.17782824412E+04  0.17782824412E+04  0.50400001928E-02 0. -1.
       -1   -1    0    0    0  501  0.00000000000E+00  0.00000000000E+00 -0.14585942258E+04  0.14585942258E+04  0.50400001928E-02 0.  1.
    10030    2    1    2    0    0  0.00000000000E+00  0.00000000000E+00  0.31968821536E+03  0.32368766670E+04  0.32210510711E+04 0.  0.
        1    1    3    3  502    0 -0.11887802440E+03 -0.47715870242E+03 -0.13813074928E+04  0.14662274045E+04  0.50400001928E-02 0.  1.
       -1    1    3    3    0  502  0.11887802440E+03  0.47715870242E+03  0.17009957081E+04  0.17706492626E+04  0.50400001928E-02 0. -1.
</event>
<event>
 5   0  0.8838951E-07  0.3198381E+04  0.7818609E-02  0.8189245E-01
       -2   -1    0    0    0  501  0.00000000000E+00  0.00000000000E+00  0.20568345665E+04  0.20568345665E+04  0.25500000920E-02 0.  1.
        2   -1    0    0  501    0  0.00000000000E+00  0.00000000000E+00 -0.12433715592E+04  0.12433715592E+04  0.25500000920E-02 0. -1.
    10030    2    1    2    0    0  0.00000000000E+00  0.00000000000E+00  0.81346300722E+03  0.33002061257E+04  0.31983805915E+04 0.  0.
        2    1    3    3  502    0 -0.13195185188E+04  0.75729717715E+03  0.91514689473E+03  0.17754216330E+04  0.25500000920E-02 0.  1.
       -2    1    3    3    0  502  0.13195185188E+04 -0.75729717715E+03 -0.10168388750E+03  0.15247844927E+04  0.25500000920E-02 0. -1.
</event>
<event>
 5   0  0.3075756E-07  0.3192394E+04  0.7818609E-02  0.8190829E-01
       -1   -1    0    0    0  501  0.00000000000E+00  0.00000000000E+00  0.12005015418E+04  0.12005015418E+04  0.50400001928E-02 0. -1.
        1   -1    0    0  501    0  0.00000000000E+00  0.00000000000E+00 -0.21223168896E+04  0.21223168896E+04  0.50400001928E-02 0.  1.
    10030    2    1    2    0    0  0.00000000000E+00  0.00000000000E+00 -0.92181534783E+03  0.33228184315E+04  0.31923938969E+04 0.  0.
        5    1    3    3  502    0 -0.29674399265E+03 -0.22881074535E+03 -0.20758807341E+04  0.21094345845E+04  0.46999998093E+01 0.  1.
       -5    1    3    3    0  502  0.29674399265E+03  0.22881074535E+03  0.11540653862E+04  0.12133838469E+04  0.46999998093E+01 0. -1.
</event>
<event>
 5   0  0.2997105E-07  0.3185623E+04  0.7818609E-02  0.8192624E-01
       -1   -1    0    0    0  501  0.00000000000E+00  0.00000000000E+00  0.12300764240E+04  0.12300764240E+04  0.50400001928E-02 0.  1.
        1   -1    0    0  501    0  0.00000000000E+00  0.00000000000E+00 -0.20625130177E+04  0.20625130177E+04  0.50400001928E-02 0. -1.
    10030    2    1    2    0    0  0.00000000000E+00  0.00000000000E+00 -0.83243659371E+03  0.32925894416E+04  0.31856231021E+04 0.  0.
        3    1    3    3  502    0  0.81899977002E+03 -0.12211584859E+04  0.21676687745E+03  0.14862626149E+04  0.10100000352E+00 0.  1.
       -3    1    3    3    0  502 -0.81899977002E+03  0.12211584859E+04 -0.10492034712E+04  0.18063268268E+04  0.10100000352E+00 0. -1.
</event>
<event>
 5   0  0.8335929E-07  0.3270480E+04  0.7818609E-02  0.8170448E-01
        2   -1    0    0  501    0  0.00000000000E+00  0.00000000000E+00  0.22247118830E+04  0.22247118830E+04  0.25500000920E-02 0. -1.
       -2   -1    0    0    0  501  0.00000000000E+00  0.00000000000E+00 -0.12019580247E+04  0.12019580247E+04  0.25500000920E-02 0.  1.
    10030    2    1    2    0    0  0.00000000000E+00  0.00000000000E+00  0.10227538583E+04  0.34266699077E+04  0.32704802707E+04 0.  0.
        4    1    3    3  502    0 -0.10506055540E+04  0.45490901031E+03  0.17347405744E+04  0.20784707626E+04  0.12699999809E+01 0. -1.
       -4    1    3    3    0  502  0.10506055540E+04 -0.45490901031E+03 -0.71198671608E+03  0.13481991450E+04  0.12699999809E+01 0.  1.
</event>
<event>
 5   0  0.2997105E-07  0.3204388E+04  0.7818609E-02  0.8187659E-01
       -1   -1    0    0    0  501  0.00000000000E+00  0.00000000000E+00  0.86314812885E+03  0.86314812887E+03  0.50400001928E-02 0. -1.
        1   -1    0    0  501    0  0.00000000000E+00  0.00000000000E+00 -0.29740268316E+04  0.29740268316E+04  0.50400001928E-02 0.  1.
    10030    2    1    2    0    0  0.00000000000E+00  0.00000000000E+00 -0.21108787028E+04  0.38371749605E+04  0.32043880507E+04 0.  0.
        3    1    3    3  502    0 -0.78432416536E+03  0.13753939434E+04 -0.76174581948E+03  0.17570229365E+04  0.10100000352E+00 0. -1.
       -3    1    3    3    0  502  0.78432416536E+03 -0.13753939434E+04 -0.13491328833E+04  0.20801520240E+04  0.10100000352E+00 0.  1.
</event>
<event>
 5   0  0.2891204E-07  0.3176058E+04  0.7818609E-02  0.8195169E-01
       -1   -1    0    0    0  501  0.00000000000E+00  0.00000000000E+00  0.11444231799E+04  0.11444231799E+04  0.50400001928E-02 0.  1.
        1   -1    0    0  501    0  0.00000000000E+00  0.00000000000E+00 -0.22035873065E+04  0.22035873065E+04  0.50400001928E-02 0. -1.
    10030    2    1    2    0    0  0.00000000000E+00  0.00000000000E+00 -0.10591641266E+04  0.33480104864E+04  0.31760581811E+04 0.  0.
        4    1    3    3  502    0 -0.45195867195E+03 -0.93138540026E+02 -0.21313525841E+04  0.21807353988E+04  0.12699999809E+01 0. -1.
       -4    1    3    3    0  502  0.45195867195E+03  0.93138540026E+02  0.10721884575E+04  0.11672750876E+04  0.12699999809E+01 0.  1.
</event>
<event>
 5   0  0.2997105E-07  0.3210661E+04  0.7818609E-02  0.8186007E-01
       -1   -1    0    0    0  501  0.00000000000E+00  0.00000000000E+00  0.11436256085E+04  0.11436256086E+04  0.50400001928E-02 0.  1.
        1   -1    0    0  501    0  0.00000000000E+00  0.00000000000E+00 -0.22534355419E+04  0.22534355419E+04  0.50400001928E-02 0. -1.
    10030    2    1    2    0    0  0.00000000000E+00  0.00000000000E+00 -0.11098099333E+04  0.33970611504E+04  0.32106613605E+04 0.  0.
        3    1    3    3  502    0 -0.14622847745E+04  0.57782154244E+03 -0.21216636833E+03  0.15865588785E+04  0.10100000352E+00 0.  1.
       -3    1    3    3    0  502  0.14622847745E+04 -0.57782154244E+03 -0.89764356499E+03  0.18105022720E+04  0.10100000352E+00 0. -1.
</event>
<event>
 5   0  0.8488469E-07  0.3187542E+04  0.7818609E-02  0.8192115E-01
        2   -1    0    0  501    0  0.00000000000E+00  0.00000000000E+00  0.15131143309E+04  0.15131143309E+04  0.25500000920E-02 0.  1.
       -2   -1    0    0    0  501  0.00000000000E+00  0.00000000000E+00 -0.16787275616E+04  0.16787275616E+04  0.25500000920E-02 0. -1.
    10030    2    1    2    0    0  0.00000000000E+00  0.00000000000E+00 -0.16561323076E+03  0.31918418925E+04  0.31875424584E+04 0.  0.
        3    1    3    3  502    0  0.14426332711E+04 -0.67523286112E+03 -0.28175265795E+02  0.15930863214E+04  0.10100000352E+00 0. -1.
       -3    1    3    3    0  502 -0.14426332711E+04  0.67523286112E+03 -0.13743796496E+03  0.15987555711E+04  0.10100000352E+00 0.  1.
</event>
<event>
 5   0  0.2891204E-07  0.3186305E+04  0.7818609E-02  0.8192443E-01
       -1   -1    0    0    0  501  0.00000000000E+00  0.00000000000E+00  0.15267570228E+04  0.15267570228E+04  0.50400001928E-02 0.  1.
        1   -1    0    0  501    0  0.00000000000E+00  0.00000000000E+00 -0.16624354214E+04  0.16624354214E+04  0.50400001928E-02 0. -1.
    10030    2    1    2    0    0  0.00000000000E+00  0.00000000000E+00 -0.13567839862E+03  0.31891924442E+04  0.31863050416E+04 0.  0.
        4    1    3    3  502    0 -0.70194592869E+03  0.53851764532E+03 -0.13939564288E+04  0.16510134704E+04  0.12699999809E+01 0. -1.
       -4    1    3    3    0  502  0.70194592869E+03 -0.53851764532E+03  0.12582780302E+04  0.15381789738E+04  0.12699999809E+01 0.  1.
</event>
<event>
 5   0  0.3075756E-07  0.3179302E+04  0.7818609E-02  0.8194305E-01
        1   -1    0    0  501    0  0.00000000000E+00  0.00000000000E+00  0.12221027548E+04  0.12221027548E+04  0.50400001928E-02 0. -1.
       -1   -1    0    0    0  501  0.00000000000E+00  0.00000000000E+00 -0.20677402475E+04  0.20677402475E+04  0.50400001928E-02 0.  1.
    10030    2    1    2    0    0  0.00000000000E+00  0.00000000000E+00 -0.84563749267E+03  0.32898430023E+04  0.31793024723E+04 0.  0.
        5    1    3    3  502    0  0.63446530284E+03 -0.12311316782E+04 -0.12301622691E+04  0.18524450674E+04  0.46999998093E+01 0.  1.
       -5    1    3    3    0  502 -0.63446530284E+03  0.12311316782E+04  0.38452477643E+03  0.14373979349E+04  0.46999998093E+01 0. -1.
</event>
<event>
 5   0  0.8802800E-07  0.3186664E+04  0.7818609E-02  0.8192348E-01
       -2   -1    0    0    0  501  0.00000000000E+00  0.00000000000E+00  0.19599025012E+04  0.19599025012E+04  0.25500000920E-02 0.  1.
        2   -1    0    0  501    0  0.00000000000E+00  0.00000000000E+00 -0.12953230418E+04  0.12953230418E+04  0.25500000920E-02 0. -1.
    10030    2    1    2    0    0  0.00000000000E+00  0.00000000000E+00  0.66457945944E+03  0.32552255430E+04  0.31866640045E+04 0.  0.
        5    1    3    3  502    0  0.10756580812E+04 -0.54191986483E+03  0.13977879716E+04  0.18451424745E+04  0.46999998093E+01 0.  1.
       -5    1    3    3    0  502 -0.10756580812E+04  0.54191986483E+03 -0.73320851218E+03  0.14100830685E+04  0.46999998093E+01 0. -1.
</event>
<event>
 5   0  0.3075756E-07  0.3241333E+04  0.7818609E-02  0.8177986E-01
        1   -1    0    0  501    0  0.00000000000E+00  0.00000000000E+00  0.17799344020E+04  0.17799344020E+04  0.50400001928E-02 0.  1.
       -1   -1    0    0    0  501  0.00000000000E+00  0.00000000000E+00 -0.14756497237E+04  0.14756497237E+04  0.50400001928E-02 0. -1.
    10030    2    1    2    0    0  0.00000000000E+00  0.00000000000E+00  0.30428467831E+03  0.32555841257E+04  0.32413328792E+04 0.  0.
        5    1    3    3  502    0 -0.90675319290E+03 -0.56657400637E+03  0.13754176240E+04  0.17421260540E+04  0.46999998093E+01 0.  1.
       -5    1    3    3    0  502  0.90675319290E+03  0.56657400637E+03 -0.10711329457E+04  0.15134580717E+04  0.46999998093E+01 0. -1.
</event>
<event>
 5   0  0.8335929E-07  0.3217009E+04  0.7818609E-02  0.8184340E-01
        2   -1    0    0  501    0  0.00000000000E+00  0.00000000000E+00  0.19014337812E+04  0.19014337812E+04  0.25500000920E-02 0. -1.
       -2   -1    0    0    0  501  0.00000000000E+00  0.00000000000E+00 -0.13607031501E+04  0.13607031501E+04  0.25500000920E-02 0.  1.
    10030    2    1    2    0    0  0.00000000000E+00  0.00000000000E+00  0.54073063105E+03  0.32621369313E+04  0.32170091301E+04 0.  0.
        4    1    3    3  502    0  0.44121557659E+03 -0.15450246818E+04  0.34565557446E+03  0.16435485516E+04  0.12699999809E+01 0.  1.
       -4    1    3    3    0  502 -0.44121557659E+03  0.15450246818E+04  0.19507505660E+03  0.16185883797E+04  0.12699999809E+01 0. -1.
</event>
<event>
 5   0  0.2891204E-07  0.3191710E+04  0.7818609E-02  0.8191010E-01
        1   -1    0    0  501    0  0.00000000000E+00  0.00000000000E+00  0.91721461114E+03  0.91721461115E+03  0.50400001928E-02 0. -1.
       -1   -1    0    0    0  501  0.00000000000E+00  0.00000000000E+00 -0.27766160285E+04  0.27766160285E+04  0.50400001928E-02 0.  1.
    10030    2    1    2    0    0  0.00000000000E+00  0.00000000000E+00 -0.18594014174E+04  0.36938306397E+04  0.31917097556E+04 0.  0.
        4    1    3    3  502    0  0.66088898630E+03 -0.11338771495E+04  0.12104134884E+03  0.13179925127E+04  0.12699999809E+01 0. -1.
       -4    1    3    3    0  502 -0.66088898630E+03  0.11338771495E+04 -0.19804427662E+04  0.23758381270E+04  0.12699999809E+01 0.  1.
</event>
<event>
 5   0  0.2783875E-07  0.3203759E+04  0.7818609E-02  0.8187825E-01
       -1   -1    0    0    0  501  0.00000000000E+00  0.00000000000E+00  0.32721479058E+04  0.32721479058E+04  0.50400001928E-02 0.  1.
        1   -1    0    0  501    0  0.00000000000E+00  0.00000000000E+00 -0.78420006953E+03  0.78420006955E+03  0.50400001928E-02 0. -1.
    10030    2    1    2    0    0  0.00000000000E+00  0.00000000000E+00  0.24879478362E+04  0.40563479753E+04  0.32037594262E+04 0.  0.
        2    1    3    3  502    0 -0.18030827309E+03 -0.76530775815E+03  0.30110236744E+04  0.31119882078E+04  0.25500000920E-02 0.  1.
       -2    1    3    3    0  502  0.18030827309E+03  0.76530775815E+03 -0.52307583812E+03  0.94435976750E+03  0.25500000920E-02 0. -1.
</event>
<event>
 5   0  0.2997105E-07  0.3168601E+04  0.7818609E-02  0.8197159E-01
       -1   -1    0    0    0  501  0.00000000000E+00  0.00000000000E+00  0.15809635428E+04  0.15809635428E+04  0.50400001928E-02 0.  1.
        1   -1    0    0  501    0  0.00000000000E+00  0.00000000000E+00 -0.15876448556E+04  0.15876448556E+04  0.50400001928E-02 0. -1.
    10030    2    1    2    0    0  0.00000000000E+00  0.00000000000E+00 -0.66813127746E+01  0.31686083984E+04  0.31686013543E+04 0.  0.
        3    1    3    3  502    0 -0.27990442740E+03 -0.13595202277E+04 -0.76712693607E+03  0.15859147153E+04  0.10100000352E+00 0. -1.
       -3    1    3    3    0  502  0.27990442740E+03  0.13595202277E+04  0.76044562329E+03  0.15826936830E+04  0.10100000352E+00 0.  1.
</event>
<event>
 5   0  0.8488469E-07  0.3194478E+04  0.7818609E-02  0.8190277E-01
        2   -1    0    0  501    0  0.00000000000E+00  0.00000000000E+00  0.12700362376E+04  0.12700362376E+04  0.25500000920E-02 0.  1.
       -2   -1    0    0    0  501  0.00000000000E+00  0.00000000000E+00 -0.20087394609E+04  0.20087394609E+04  0.25500000920E-02 0. -1.
    10030    2    1    2    0    0  0.00000000000E+00  0.00000000000E+00 -0.73870322336E+03  0.32787756985E+04  0.31944776770E+04 0.  0.
        3    1    3    3  502    0 -0.18324149961E+03  0.10194795132E+04  0.87856817555E+03  0.13582334020E+04  0.10100000352E+00 0.  1.
       -3    1    3    3    0  502  0.18324149961E+03 -0.10194795132E+04 -0.16172713989E+04  0.19205422966E+04  0.10100000352E+00 0. -1.
</event>
<event>
 5   0  0.2783875E-07  0.3099720E+04  0.7818609E-02  0.8215815E-01
       -1   -1    0    0    0  501  0.00000000000E+00  0.00000000000E+00  0.91201245031E+03  0.91201245033E+03  0.50400001928E-02 0. -1.
        1   -1    0    0  501    0  0.00000000000E+00  0.00000000000E+00 -0.26338085308E+04  0.26338085308E+04  0.50400001928E-02 0.  1.
    10030    2    1    2    0    0  0.00000000000E+00  0.00000000000E+00 -0.17217960805E+04  0.35458209811E+04  0.30997200982E+04 0.  0.
        2    1    3    3  502    0  0.37674528033E+03 -0.81662424451E+03  0.58300102817E+03  0.10717753318E+04  0.25500000920E-02 0. -1.
       -2    1    3    3    0  502 -0.37674528033E+03  0.81662424451E+03 -0.23047971087E+04  0.24740456493E+04  0.25500000920E-02 0.  1.
</event>
<event>
 5   0  0.2783875E-07  0.3197048E+04  0.7818609E-02  0.8189597E-01
        1   -1    0    0  501    0  0.00000000000E+00  0.00000000000E+00  0.18864519873E+04  0.18864519873E+04  0.50400001928E-02 0.  1.
       -1   -1    0    0    0  501  0.00000000000E+00  0.00000000000E+00 -0.13545424168E+04  0.13545424168E+04  0.50400001928E-02 0. -1.
    10030    2    1    2    0    0  0.00000000000E+00  0.00000000000E+00  0.53190957046E+03  0.32409944041E+04  0.31970481598E+04 0.  0.
        2    1    3    3  502    0 -0.98572501333E+03 -0.10095634169E+04  0.10275520087E+04  0.17454899671E+04  0.25500000920E-02 0.  1.
       -2    1    3    3    0  502  0.98572501333E+03  0.10095634169E+04 -0.49564243821E+03  0.14955044370E+04  0.25500000920E-02 0. -1.
</event>
<event>
 5   0  0.8802800E-07  0.3206354E+04  0.7818609E-02  0.8187141E-01
        2   -1    0    0  501    0  0.00000000000E+00  0.00000000000E+00  0.18701721826E+04  0.18701721826E+04  0.25500000920E-02 0. -1.
       -2   -1    0    0    0  501  0.00000000000E+00  0.00000000000E+00 -0.13742992302E+04  0.13742992302E+04  0.25500000920E-02 0.  1.
    10030    2    1    2    0    0  0.00000000000E+00  0.00000000000E+00  0.49587295231E+03  0.32444714128E+04  0.32063538114E+04 0.  0.
        5    1    3    3  502    0  0.80068173653E+03 -0.10704940814E+04 -0.64751608735E+03  0.14853780646E+04  0.46999998093E+01 0.  1.
       -5    1    3    3    0  502 -0.80068173653E+03  0.10704940814E+04  0.11433890397E+04  0.17590933482E+04  0.46999998093E+01 0. -1.
</event>
<event>
 5   0  0.8335929E-07  0.3201979E+04  0.7818609E-02  0.8188295E-01
       -2   -1    0    0    0  501  0.00000000000E+00  0.00000000000E+00  0.16373673972E+04  0.16373673972E+04  0.25500000920E-02 0.  1.
        2   -1    0    0  501    0  0.00000000000E+00  0.00000000000E+00 -0.15654195068E+04  0.15654195068E+04  0.25500000920E-02 0. -1.
    10030    2    1    2    0    0  0.00000000000E+00  0.00000000000E+00  0.71947890428E+02  0.32027869040E+04  0.32019786778E+04 0.  0.
        4    1    3    3  502    0 -0.46036099117E+03  0.58842601830E+03  0.14523072864E+04  0.16332101788E+04  0.12699999809E+01 0.  1.
       -4    1    3    3    0  502  0.46036099117E+03 -0.58842601830E+03 -0.13803593960E+04  0.15695767252E+04  0.12699999809E+01 0. -1.
</event>
<event>
 5   0  0.2783875E-07  0.3195765E+04  0.7818609E-02  0.8189937E-01
       -1   -1    0    0    0  501  0.00000000000E+00  0.00000000000E+00  0.19492946939E+04  0.19492946939E+04  0.50400001928E-02 0. -1.
        1   -1    0    0  501    0  0.00000000000E+00  0.00000000000E+00 -0.13098216479E+04  0.13098216479E+04  0.50400001928E-02 0.  1.
    10030    2    1    2    0    0  0.00000000000E+00  0.00000000000E+00  0.63947304599E+03  0.32591163419E+04  0.31957649402E+04 0.  0.
        2    1    3    3  502    0  0.13224588019E+04  0.22107568614E+02 -0.59460929000E+03  0.14501538660E+04  0.25500000920E-02 0.  1.
       -2    1    3    3    0  502 -0.13224588019E+04 -0.22107568614E+02  0.12340823360E+04  0.18089624759E+04  0.25500000920E-02 0. -1.
</event>
<event>
 5   0  0.3013888E-07  0.3171169E+04  0.7818609E-02  0.8196473E-01
       -1   -1    0    0    0  501  0.00000000000E+00  0.00000000000E+00  0.16731613659E+04  0.16731613659E+04  0.50400001928E-02 0.  1.
        1   -1    0    0  501    0  0.00000000000E+00  0.00000000000E+00 -0.15025916138E+04  0.15025916138E+04  0.50400001928E-02 0. -1.
    10030    2    1    2    0    0  0.00000000000E+00  0.00000000000E+00  0.17056975216E+03  0.31757529797E+04  0.31711690191E+04 0.  0.
        1    1    3    3  502    0 -0.47221322111E+03 -0.88208012914E+03 -0.11465450289E+04  0.15217148825E+04  0.50400001928E-02 0. -1.
       -1    1    3    3    0  502  0.47221322111E+03  0.88208012914E+03  0.13171147810E+04  0.16540380972E+04  0.50400001928E-02 0.  1.
</event>
<event>
 5   0  0.2997105E-07  0.3202968E+04  0.7818609E-02  0.8188034E-01
        1   -1    0    0  501    0  0.00000000000E+00  0.00000000000E+00  0.11683742704E+04  0.11683742704E+04  0.50400001928E-02 0. -1.
       -1   -1    0    0    0  501  0.00000000000E+00  0.00000000000E+00 -0.21951450048E+04  0.21951450048E+04  0.50400001928E-02 0.  1.
    10030    2    1    2    0    0  0.00000000000E+00  0.00000000000E+00 -0.10267707344E+04  0.33635192753E+04  0.32029679633E+04 0.  0.
        3    1    3    3  502    0 -0.73827380315E+03 -0.62888041834E+02 -0.20043228229E+04  0.21368933298E+04  0.10100000352E+00 0.  1.
       -3    1    3    3    0  502  0.73827380315E+03  0.62888041834E+02  0.97755208848E+03  0.12266259455E+04  0.10100000352E+00 0. -1.
</event>
<event>
 5   0  0.8838951E-07  0.3200891E+04  0.7818609E-02  0.8188582E-01
       -2   -1    0    0    0  501  0.00000000000E+00  0.00000000000E+00  0.21133147267E+04  0.21133147267E+04  0.25500000920E-02 0. -1.
        2   -1    0    0  501    0  0.00000000000E+00  0.00000000000E+00 -0.12120416711E+04  0.12120416711E+04  0.25500000920E-02 0.  1.
    10030    2    1    2    0    0  0.00000000000E+00  0.00000000000E+00  0.90127305560E+03  0.33253563977E+04  0.32008908215E+04 0.  0.
        2    1    3    3  502    0  0.39142673213E+03  0.15512903682E+04  0.49358180921E+03  0.16743176806E+04  0.25500000920E-02 0. -1.
       -2    1    3    3    0  502 -0.39142673213E+03 -0.15512903682E+04  0.40769124639E+03  0.16510387172E+04  0.25500000920E-02 0.  1.
</event>
<event>
 5   0  0.3013888E-07  0.3243997E+04  0.7818609E-02  0.8177293E-01
        1   -1    0    0  501    0  0.00000000000E+00  0.00000000000E+00  0.25484937053E+04  0.25484937053E+04  0.50400001928E-02 0. -1.
       -1   -1    0    0    0  501  0.00000000000E+00  0.00000000000E+00 -0.10323272409E+04  0.10323272409E+04  0.50400001928E-02 0.  1.
    10030    2    1    2    0    0  0.00000000000E+00  0.00000000000E+00  0.15161664644E+04  0.35808209461E+04  0.32439972103E+04 0.  0.
        1    1    3    3  502    0  0.57575538733E+02  0.19020638279E+03 -0.10188380653E+04  0.10380387344E+04  0.50400001928E-02 0.  1.
       -1    1    3    3    0  502 -0.57575538733E+02 -0.19020638279E+03  0.25350045297E+04  0.25427822118E+04  0.50400001928E-02 0. -1.
</event>
<event>
 5   0  0.8802800E-07  0.3209563E+04  0.7818609E-02  0.8186296E-01
        2   -1    0    0  501    0  0.00000000000E+00  0.00000000000E+00  0.15045897460E+04  0.15045897460E+04  0.25500000920E-02 0.  1.
       -2   -1    0    0    0  501  0.00000000000E+00  0.00000000000E+00 -0.17116446945E+04  0.17116446945E+04  0.25500000920E-02 0. -1.
    10030    2    1    2    0    0  0.00000000000E+00  0.00000000000E+00 -0.20705494853E+03  0.32162344405E+04  0.32095626220E+04 0.  0.
        5    1    3    3  502    0 -0.14374682846E+04 -0.71343217164E+03 -0.10286771862E+03  0.16080747465E+04  0.46999998093E+01 0. -1.
       -5    1    3    3    0  502  0.14374682846E+04  0.71343217164E+03 -0.10418722992E+03  0.16081596940E+04  0.46999998093E+01 0.  1.
</event>
<event>
 5   0  0.2997105E-07  0.3127377E+04  0.7818609E-02  0.8208264E-01
       -1   -1    0    0    0  501  0.00000000000E+00  0.00000000000E+00  0.11016069137E+04  0.11016069137E+04  0.50400001928E-02 0.  1.
        1   -1    0    0  501    0  0.00000000000E+00  0.00000000000E+00 -0.22195953116E+04  0.22195953116E+04  0.50400001928E-02 0. -1.
    10030    2    1    2    0    0  0.00000000000E+00  0.00000000000E+00 -0.11179883979E+04  0.33212022253E+04  0.31273768823E+04 0.  0.
        3    1    3    3  502    0  0.15040139934E+04 -0.27205286318E+03 -0.90968896442E+03  0.17786525448E+04  0.10100000352E+00 0. -1.
       -3    1    3    3    0  502 -0.15040139934E+04  0.27205286318E+03 -0.20829943344E+03  0.15425496806E+04  0.10100000352E+00 0.  1.
</event>
<event>
 5   0  0.8838951E-07  0.3190456E+04  0.7818609E-02  0.8191342E-01
       -2   -1    0    0    0  501  0.00000000000E+00  0.00000000000E+00  0.11464395011E+04  0.11464395011E+04  0.25500000920E-02 0. -1.
        2   -1    0    0  501    0  0.00000000000E+00  0.00000000000E+00 -0.22197009998E+04  0.22197009998E+04  0.25500000920E-02 0.  1.
    10030    2    1    2    0    0  0.00000000000E+00  0.00000000000E+00 -0.10732614987E+04  0.33661405009E+04  0.31904563353E+04 0.  0.
        2    1    3    3  502    0  0.19738371189E+03  0.21476554149E+03  0.11180633168E+04  0.11554869744E+04  0.25500000920E-02 0. -1.
       -2    1    3    3    0  502 -0.19738371189E+03 -0.21476554149E+03 -0.21913248155E+04  0.22106535265E+04  0.25500000920E-02 0.  1.
</event>
<event>
 5   0  0.2783875E-07  0.3223121E+04  0.7818609E-02  0.8182738E-01
       -3   -1    0    0    0  501  0.00000000000E+00  0.00000000000E+00  0.10493046305E+04  0.10493046354E+04  0.10100000352E+00 0. -1.
        3   -1    0    0  501    0  0.00000000000E+00  0.00000000000E+00 -0.24750935645E+04  0.24750935665E+04  0.10100000352E+00 0.  1.
    10030    2    1    2    0    0  0.00000000000E+00  0.00000000000E+00 -0.14257889339E+04  0.35243982019E+04  0.32231209412E+04 0.  0.
        5    1    3    3  502    0  0.21344641853E+02  0.14548281565E+04 -0.14705735602E+04  0.20687168112E+04  0.46999998093E+01 0.  1.
       -5    1    3    3    0  502 -0.21344641853E+02 -0.14548281565E+04  0.44784626300E+02  0.14556813908E+04  0.46999998093E+01 0. -1.
</event>
<event>
 5   0  0.8802800E-07  0.3192371E+04  0.7818609E-02  0.8190835E-01
        2   -1    0    0  501    0  0.00000000000E+00  0.00000000000E+00  0.25795763035E+04  0.25795763035E+04  0.25500000920E-02 0.  1.
       -2   -1    0    0    0  501  0.00000000000E+00  0.00000000000E+00 -0.98768494221E+03  0.98768494222E+03  0.25500000920E-02 0. -1.
    10030    2    1    2    0    0  0.00000000000E+00  0.00000000000E+00  0.15918913613E+04  0.35672612457E+04  0.31923713269E+04 0.  0.
        5    1    3    3  502    0  0.99468400131E+03  0.19487470945E+03 -0.58190599330E+03  0.11687639154E+04  0.46999998093E+01 0. -1.
       -5    1    3    3    0  502 -0.99468400131E+03 -0.19487470945E+03  0.21737973546E+04  0.23984973303E+04  0.46999998093E+01 0.  1.
</event>
<event>
 5   0  0.3013888E-07  0.3202477E+04  0.7818609E-02  0.8188163E-01
       -1   -1    0    0    0  501  0.00000000000E+00  0.00000000000E+00  0.89478408860E+03  0.89478408861E+03  0.50400001928E-02 0. -1.
        1   -1    0    0  501    0  0.00000000000E+00  0.00000000000E+00 -0.28654557675E+04  0.28654557675E+04  0.50400001928E-02 0.  1.
    10030    2    1    2    0    0  0.00000000000E+00  0.00000000000E+00 -0.19706716789E+04  0.37602398561E+04  0.32024766837E+04 0.  0.
        1    1    3    3  502    0  0.57352773215E+03 -0.10552474708E+04  0.25810723630E+03  0.12284545696E+04  0.50400001928E-02 0. -1.
       -1    1    3    3    0  502 -0.57352773215E+03  0.10552474708E+04 -0.22287789152E+04  0.25317852865E+04  0.50400001928E-02 0.  1.
</event>
<event>
 5   0  0.2783875E-07  0.3206940E+04  0.7818609E-02  0.8186987E-01
       -1   -1    0    0    0  501  0.00000000000E+00  0.00000000000E+00  0.16977367808E+04  0.16977367808E+04  0.50400001928E-02 0.  1.
        1   -1    0    0  501    0  0.00000000000E+00  0.00000000000E+00 -0.15144376608E+04  0.15144376608E+04  0.50400001928E-02 0. -1.
    10030    2    1    2    0    0  0.00000000000E+00  0.00000000000E+00  0.18329911995E+03  0.32121744416E+04  0.32069402982E+04 0.  0.
        2    1    3    3  502    0 -0.74811004953E+03 -0.65225419557E+03 -0.11697757127E+04  0.15341054071E+04  0.25500000920E-02 0. -1.
       -2    1    3    3    0  502  0.74811004953E+03  0.65225419557E+03  0.13530748327E+04  0.16780690345E+04  0.25500000920E-02 0.  1.
</event>
<event>
 5   0  0.8488469E-07  0.3175401E+04  0.7818609E-02  0.8195344E-01
        2   -1    0    0  501    0  0.00000000000E+00  0.00000000000E+00  0.17200288668E+04  0.17200288668E+04  0.25500000920E-02 0.  1.
       -2   -1    0    0    0  501  0.00000000000E+00  0.00000000000E+00 -0.14655524660E+04  0.14655524660E+04  0.25500000920E-02 0. -1.
    10030    2    1    2    0    0  0.00000000000E+00  0.00000000000E+00  0.25447640079E+03  0.31855813328E+04  0.31754007920E+04 0.  0.
        3    1    3    3  502    0  0.11914562492E+03 -0.90221148980E+02 -0.14584802844E+04  0.14661174189E+04  0.10100000352E+00 0. -1.
       -3    1    3    3    0  502 -0.11914562492E+03  0.90221148980E+02  0.17129566852E+04  0.17194639139E+04  0.10100000352E+00 0.  1.
</event>
<event>
 5   0  0.3075756E-07  0.3208775E+04  0.7818609E-02  0.8186503E-01
        1   -1    0    0  501    0  0.00000000000E+00  0.00000000000E+00  0.21469373872E+04  0.21469373872E+04  0.50400001928E-02 0. -1.
       -1   -1    0    0    0  501  0.00000000000E+00  0.00000000000E+00 -0.11989449861E+04  0.11989449861E+04  0.50400001928E-02 0.  1.
    10030    2    1    2    0    0  0.00000000000E+00  0.00000000000E+00  0.94799240107E+03  0.33458823733E+04  0.32087753526E+04 0.  0.
        5    1    3    3  502    0  0.15050247399E+03  0.75850994935E+03 -0.99178873287E+03  0.12576387870E+04  0.46999998093E+01 0.  1.
       -5    1    3    3    0  502 -0.15050247399E+03 -0.75850994935E+03  0.19397811339E+04  0.20882435863E+04  0.46999998093E+01 0. -1.
</event>
<event>
 5   0  0.8195618E-07  0.3199397E+04  0.7818609E-02  0.8188976E-01
        2   -1    0    0  501    0  0.00000000000E+00  0.00000000000E+00  0.16631898722E+04  0.16631898722E+04  0.25500000920E-02 0.  1.
       -2   -1    0    0    0  501  0.00000000000E+00  0.00000000000E+00 -0.15386308694E+04  0.15386308694E+04  0.25500000920E-02 0. -1.
    10030    2    1    2    0    0  0.00000000000E+00  0.00000000000E+00  0.12455900279E+03  0.32018207416E+04  0.31993969926E+04 0.  0.
        1    1    3    3  502    0 -0.14810851672E+04  0.59970452959E+03  0.13834026086E+03  0.16038693286E+04  0.50400001928E-02 0.  1.
       -1    1    3    3    0  502  0.14810851672E+04 -0.59970452959E+03 -0.13781258070E+02  0.15979514130E+04  0.50400001928E-02 0. -1.
</event>
<event>
 5   0  0.3013888E-07  0.3208951E+04  0.7818609E-02  0.8186457E-01
        1   -1    0    0  501    0  0.00000000000E+00  0.00000000000E+00  0.19933840627E+04  0.19933840627E+04  0.50400001928E-02 0. -1.
       -1   -1    0    0    0  501  0.00000000000E+00  0.00000000000E+00 -0.12914432427E+04  0.12914432427E+04  0.50400001928E-02 0.  1.
    10030    2    1    2    0    0  0.00000000000E+00  0.00000000000E+00  0.70194081994E+03  0.32848273054E+04  0.32089514661E+04 0.  0.
        1    1    3    3  502    0 -0.15184720477E+04  0.39380160899E+03  0.69584205222E+03  0.17161099115E+04  0.50400001928E-02 0. -1.
       -1    1    3    3    0  502  0.15184720477E+04 -0.39380160899E+03  0.60987677114E+01  0.15687173939E+04  0.50400001928E-02 0.  1.
</event>
<event>
 5   0  0.8838951E-07  0.3178434E+04  0.7818609E-02  0.8194536E-01
        2   -1    0    0  501    0  0.00000000000E+00  0.00000000000E+00  0.11618566042E+04  0.11618566042E+04  0.25500000920E-02 0.  1.
       -2   -1    0    0    0  501  0.00000000000E+00  0.00000000000E+00 -0.21737710778E+04  0.21737710778E+04  0.25500000920E-02 0. -1.
    10030    2    1    2    0    0  0.00000000000E+00  0.00000000000E+00 -0.10119144736E+04  0.33356276820E+04  0.31784337544E+04 0.  0.
        2    1    3    3  502    0 -0.34984916360E+03  0.54915210911E+03  0.10154461355E+04  0.12062724942E+04  0.25500000920E-02 0.  1.
       -2    1    3    3    0  502  0.34984916360E+03 -0.54915210911E+03 -0.20273606091E+04  0.21293551878E+04  0.25500000920E-02 0. -1.
</event>
<event>
 5   0  0.2997105E-07  0.3203312E+04  0.7818609E-02  0.8187943E-01
       -1   -1    0    0    0  501  0.00000000000E+00  0.00000000000E+00  0.19807793303E+04  0.19807793303E+04  0.50400001928E-02 0. -1.
        1   -1    0    0  501    0  0.00000000000E+00  0.00000000000E+00 -0.12950970889E+04  0.12950970889E+04  0.50400001928E-02 0.  1.
    10030    2    1    2    0    0  0.00000000000E+00  0.00000000000E+00  0.68568224139E+03  0.32758764193E+04  0.32033117517E+04 0.  0.
        3    1    3    3  502    0 -0.29387227609E+03 -0.12022036742E+04  0.13825563746E+04  0.18555637225E+04  0.10100000352E+00 0. -1.
       -3    1    3    3    0  502  0.29387227609E+03  0.12022036742E+04 -0.69687413325E+03  0.14203126968E+04  0.10100000352E+00 0.  1.
</event>
<event>
 5   0  0.8335929E-07  0.3205613E+04  0.7818609E-02  0.8187336E-01
       -2   -1    0    0    0  501  0.00000000000E+00  0.00000000000E+00  0.79065410964E+03  0.79065410964E+03  0.25500000920E-02 0.  1.
        2   -1    0    0  501    0  0.00000000000E+00  0.00000000000E+00 -0.32491949086E+04  0.32491949086E+04  0.25500000920E-02 0. -1.
    10030    2    1    2    0    0  0.00000000000E+00  0.00000000000E+00 -0.24585407990E+04  0.40398490183E+04  0.32056133937E+04 0.  0.
        4    1    3    3  502    0  0.12899067320E+04 -0.95117196611E+03 -0.12040589996E+04  0.20045815458E+04  0.12699999809E+01 0.  1.
       -4    1    3    3    0  502 -0.12899067320E+04  0.95117196611E+03 -0.12544817994E+04  0.20352674724E+04  0.12699999809E+01 0. -1.
</event>
<event>
 5   0  0.8195618E-07  0.3163305E+04  0.7818609E-02  0.8198576E-01
       -2   -1    0    0    0  501  0.00000000000E+00  0.00000000000E+00  0.14759417590E+04  0.14759417590E+04  0.25500000920E-02 0.  1.
        2   -1    0    0  501    0  0.00000000000E+00  0.00000000000E+00 -0.16949347788E+04  0.16949347788E+04  0.25500000920E-02 0. -1.
    10030    2    1    2    0    0  0.00000000000E+00  0.00000000000E+00 -0.21899301979E+03  0.31708765379E+04  0.31633052454E+04 0.  0.
        1    1    3    3  502    0 -0.11290378597E+04  0.10243058327E+04 -0.53204559791E+03  0.16146211462E+04  0.50400001928E-02 0. -1.
       -1    1    3    3    0  502  0.11290378597E+04 -0.10243058327E+04  0.31305257812E+03  0.15562553917E+04  0.50400001928E-02 0.  1.
</event>
<event>
 5   0  0.2997105E-07  0.3193318E+04  0.7818609E-02  0.8190584E-01
        1   -1    0    0  501    0  0.00000000000E+00  0.00000000000E+00  0.15711231657E+04  0.15711231657E+04  0.50400001928E-02 0. -1.
       -1   -1    0    0    0  501  0.00000000000E+00  0.00000000000E+00 -0.16226096550E+04  0.16226096550E+04  0.50400001928E-02 0.  1.
    10030    2    1    2    0    0  0.00000000000E+00  0.00000000000E+00 -0.51486489369E+02  0.31937328207E+04  0.31933177843E+04 0.  0.
        3    1    3    3  502    0 -0.81508735632E+03 -0.96788920676E+03  0.94810950057E+03  0.15811668319E+04  0.10100000352E+00 0. -1.
       -3    1    3    3    0  502  0.81508735632E+03  0.96788920676E+03 -0.99959598994E+03  0.16125659888E+04  0.10100000352E+00 0.  1.
</event>
<event>
 5   0  0.3075756E-07  0.3204518E+04  0.7818609E-02  0.8187625E-01
        1   -1    0    0  501    0  0.00000000000E+00  0.00000000000E+00  0.15780257088E+04  0.15780257088E+04  0.50400001928E-02 0. -1.
       -1   -1    0    0    0  501  0.00000000000E+00  0.00000000000E+00 -0.16268643284E+04  0.16268643284E+04  0.50400001928E-02 0.  1.
    10030    2    1    2    0    0  0.00000000000E+00  0.00000000000E+00 -0.48838619653E+02  0.32048900372E+04  0.32045178951E+04 0.  0.
        5    1    3    3  502    0  0.54532278185E+03  0.11287418672E+04 -0.10224212132E+04  0.16176533517E+04  0.46999998093E+01 0.  1.
       -5    1    3    3    0  502 -0.54532278185E+03 -0.11287418672E+04  0.97358259351E+03  0.15872366855E+04  0.46999998093E+01 0. -1.
</event>
<event>
 5   0  0.2997105E-07  0.3196464E+04  0.7818609E-02  0.8189752E-01
        1   -1    0    0  501    0  0.00000000000E+00  0.00000000000E+00  0.18837619572E+04  0.18837619572E+04  0.50400001928E-02 0. -1.
       -1   -1    0    0    0  501  0.00000000000E+00  0.00000000000E+00 -0.13559806621E+04  0.13559806621E+04  0.50400001928E-02 0.  1.
    10030    2    1    2    0    0  0.00000000000E+00  0.00000000000E+00  0.52778129505E+03  0.32397426193E+04  0.31964635371E+04 0.  0.
        3    1    3    3  502    0 -0.11847044078E+04  0.10266396350E+04 -0.51499875545E+02  0.15684915433E+04  0.10100000352E+00 0.  1.
       -3    1    3    3    0  502  0.11847044078E+04 -0.10266396350E+04  0.57928117059E+03  0.16712510760E+04  0.10100000352E+00 0. -1.
</event>
<event>
 5   0  0.3075756E-07  0.3191193E+04  0.7818609E-02  0.8191147E-01
       -1   -1    0    0    0  501  0.00000000000E+00  0.00000000000E+00  0.17663913896E+04  0.17663913896E+04  0.50400001928E-02 0. -1.
        1   -1    0    0  501    0  0.00000000000E+00  0.00000000000E+00 -0.14413157882E+04  0.14413157882E+04  0.50400001928E-02 0.  1.
    10030    2    1    2    0    0  0.00000000000E+00  0.00000000000E+00  0.32507560142E+03  0.32077071779E+04  0.31911927539E+04 0.  0.
        5    1    3    3  502    0 -0.11933939710E+04 -0.75402937093E+03  0.91013142527E+03  0.16796162548E+04  0.46999998093E+01 0. -1.
       -5    1    3    3    0  502  0.11933939710E+04  0.75402937093E+03 -0.58505582385E+03  0.15280909231E+04  0.46999998093E+01 0.  1.
</event>
<event>
 5   0  0.8838951E-07  0.3188255E+04  0.7818609E-02  0.8191926E-01
        2   -1    0    0  501    0  0.00000000000E+00  0.00000000000E+00  0.17320493166E+04  0.17320493166E+04  0.25500000920E-02 0.  1.
       -2   -1    0    0    0  501  0.00000000000E+00  0.00000000000E+00 -0.14671885306E+04  0.14671885306E+04  0.25500000920E-02 0. -1.
    10030    2    1    2    0    0  0.00000000000E+00  0.00000000000E+00  0.26486078596E+03  0.31992378472E+04  0.31882552544E+04 0.  0.
        2    1    3    3  502    0  0.32813558529E+03 -0.21529897957E+03  0.16828145738E+04  0.17279732356E+04  0.25500000920E-02 0.  1.
       -2    1    3    3    0  502 -0.32813558529E+03  0.21529897957E+03 -0.14179537879E+04  0.14712646116E+04  0.25500000920E-02 0. -1.
</event>
<event>
 5   0  0.2997105E-07  0.3194433E+04  0.7818609E-02  0.8190289E-01
       -1   -1    0    0    0  501  0.00000000000E+00  0.00000000000E+00  0.11469533513E+04  0.11469533513E+04  0.50400001928E-02 0.  1.
        1   -1    0    0  501    0  0.00000000000E+00  0.00000000000E+00 -0.22242413625E+04  0.22242413625E+04  0.50400001928E-02 0. -1.
    10030    2    1    2    0    0  0.00000000000E+00  0.00000000000E+00 -0.10772880112E+04  0.33711947137E+04  0.31944333361E+04 0.  0.
        3    1    3    3  502    0  0.13463440253E+04  0.25967231634E+03 -0.14031354392E+04  0.19618514259E+04  0.10100000352E+00 0. -1.
       -3    1    3    3    0  502 -0.13463440253E+04 -0.25967231634E+03  0.32584742800E+03  0.14093432878E+04  0.10100000352E+00 0.  1.
</event>
<event>
 5   0  0.8195618E-07  0.3182058E+04  0.7818609E-02  0.8193572E-01
       -2   -1    0    0    0  501  0.00000000000E+00  0.00000000000E+00  0.23492608234E+04  0.23492608234E+04  0.25500000920E-02 0. -1.
        2   -1    0    0  501    0  0.00000000000E+00  0.00000000000E+00 -0.10775193293E+04  0.10775193293E+04  0.25500000920E-02 0.  1.
    10030    2    1    2    0    0  0.00000000000E+00  0.00000000000E+00  0.12717414941E+04  0.34267801528E+04  0.31820584199E+04 0.  0.
        1    1    3    3  502    0 -0.12615709673E+04  0.68753452044E+03 -0.10014511951E+03  0.14402409755E+04  0.50400001928E-02 0.  1.
       -1    1    3    3    0  502  0.12615709673E+04 -0.68753452044E+03  0.13718866136E+04  0.19865391773E+04  0.50400001928E-02 0. -1.
</event>
<event>
 5   0  0.8335929E-07  0.3204791E+04  0.7818609E-02  0.8187553E-01
       -2   -1    0    0    0  501  0.00000000000E+00  0.00000000000E+00  0.15172087973E+04  0.15172087973E+04  0.25500000920E-02 0. -1.
        2   -1    0    0  501    0  0.00000000000E+00  0.00000000000E+00 -0.16923654982E+04  0.16923654982E+04  0.25500000920E-02 0.  1.
    10030    2    1    2    0    0  0.00000000000E+00  0.00000000000E+00 -0.17515670085E+03  0.32095742955E+04  0.32047913019E+04 0.  0.
        4    1    3    3  502    0  0.18382342669E+03  0.10821010660E+04  0.10816126978E+04  0.15409806651E+04  0.12699999809E+01 0. -1.
       -4    1    3    3    0  502 -0.18382342669E+03 -0.10821010660E+04 -0.12567693987E+04  0.16685936304E+04  0.12699999809E+01 0.  1.
</event>
<event>
 5   0  0.2997105E-07  0.3190180E+04  0.7818609E-02  0.8191415E-01
       -1   -1    0    0    0  501  0.00000000000E+00  0.00000000000E+00  0.10236403168E+04  0.10236403169E+04  0.50400001928E-02 0.  1.
        1   -1    0    0  501    0  0.00000000000E+00  0.00000000000E+00 -0.24855529836E+04  0.24855529836E+04  0.50400001928E-02 0. -1.
    10030    2    1    2    0    0  0.00000000000E+00  0.00000000000E+00 -0.14619126668E+04  0.35091933005E+04  0.31901800850E+04 0.  0.
        3    1    3    3  502    0  0.23989772180E+03 -0.15253495138E+04 -0.11710522155E+04  0.19379384299E+04  0.10100000352E+00 0. -1.
       -3    1    3    3    0  502 -0.23989772180E+03  0.15253495138E+04 -0.29086045126E+03  0.15712548706E+04  0.10100000352E+00 0.  1.
</event>
<event>
 5   0  0.8488469E-07  0.3185689E+04  0.7818609E-02  0.8192607E-01
       -2   -1    0    0    0  501  0.00000000000E+00  0.00000000000E+00  0.10920731044E+04  0.10920731044E+04  0.25500000920E-02 0.  1.
        2   -1    0    0  501    0  0.00000000000E+00  0.00000000000E+00 -0.23232447357E+04  0.23232447357E+04  0.25500000920E-02 0. -1.
    10030    2    1    2    0    0  0.00000000000E+00  0.00000000000E+00 -0.12311716314E+04  0.34153178401E+04  0.31856886796E+04 0.  0.
        3    1    3    3  502    0 -0.42368995876E+02 -0.13865540734E+04 -0.14548453761E+04  0.20101995943E+04  0.10100000352E+00 0. -1.
       -3    1    3    3    0  502  0.42368995876E+02  0.13865540734E+04  0.22367374476E+03  0.14051182458E+04  0.10100000352E+00 0.  1.
</event>
<event>
 5   0  0.8195618E-07  0.3202103E+04  0.7818609E-02  0.8188262E-01
       -2   -1    0    0    0  501  0.00000000000E+00  0.00000000000E+00  0.13777140892E+04  0.13777140892E+04  0.25500000920E-02 0.  1.
        2   -1    0    0  501    0  0.00000000000E+00  0.00000000000E+00 -0.18605934247E+04  0.18605934247E+04  0.25500000920E-02 0. -1.
    10030    2    1    2    0    0  0.00000000000E+00  0.00000000000E+00 -0.48287933554E+03  0.32383075139E+04  0.32021029187E+04 0.  0.
        1    1    3    3  502    0 -0.83635079207E+02  0.15916469191E+04 -0.87964005162E+02  0.15962682757E+04  0.50400001928E-02 0.  1.
       -1    1    3    3    0  502  0.83635079207E+02 -0.15916469191E+04 -0.39491533038E+03  0.16420392382E+04  0.50400001928E-02 0. -1.
</event>
<event>
 5   0  0.2783875E-07  0.3205012E+04  0.7818609E-02  0.8187495E-01
       -1   -1    0    0    0  501  0.00000000000E+00  0.00000000000E+00  0.11807481314E+04  0.11807481314E+04  0.50400001928E-02 0.  1.
        1   -1    0    0  501    0  0.00000000000E+00  0.00000000000E+00 -0.21749133331E+04  0.21749133331E+04  0.50400001928E-02 0. -1.
    10030    2    1    2    0    0  0.00000000000E+00  0.00000000000E+00 -0.99416520166E+03  0.33556614645E+04  0.32050116094E+04 0.  0.
        2    1    3    3  502    0  0.13698191931E+04 -0.51577701809E+03 -0.11801230688E+04  0.18801917486E+04  0.25500000920E-02 0. -1.
       -2    1    3    3    0  502 -0.13698191931E+04  0.51577701809E+03  0.18595786711E+03  0.14754697159E+04  0.25500000920E-02 0.  1.
</event>
<event>
 5   0  0.3075756E-07  0.3163423E+04  0.7818609E-02  0.8198544E-01
       -1   -1    0    0    0  501  0.00000000000E+00  0.00000000000E+00  0.13704897300E+04  0.13704897300E+04  0.50400001928E-02 0.  1.
        1   -1    0    0  501    0  0.00000000000E+00  0.00000000000E+00 -0.18254871861E+04  0.18254871862E+04  0.50400001928E-02 0. -1.
    10030    2    1    2    0    0  0.00000000000E+00  0.00000000000E+00 -0.45499745612E+03  0.31959769162E+04  0.31634231086E+04 0.  0.
        5    1    3    3  502    0 -0.13452418465E+04  0.22203617551E+03 -0.10375059673E+04  0.17133056969E+04  0.46999998093E+01 0. -1.
       -5    1    3    3    0  502  0.13452418465E+04 -0.22203617551E+03  0.58250851115E+03  0.14826712193E+04  0.46999998093E+01 0.  1.
</event>
<event>
 5   0  0.3013888E-07  0.3237530E+04  0.7818609E-02  0.8178975E-01
        1   -1    0    0  501    0  0.00000000000E+00  0.00000000000E+00  0.22455109861E+04  0.22455109861E+04  0.50400001928E-02 0.  1.
       -1   -1    0    0    0  501  0.00000000000E+00  0.00000000000E+00 -0.11669506619E+04  0.11669506619E+04  0.50400001928E-02 0. -1.
    10030    2    1    2    0    0  0.00000000000E+00  0.00000000000E+00  0.10785603242E+04  0.34124616480E+04  0.32375302510E+04 0.  0.
        1    1    3    3  502    0  0.85781716880E+03 -0.92578841095E+03 -0.52912920092E+03  0.13685438204E+04  0.50400001928E-02 0. -1.
       -1    1    3    3    0  502 -0.85781716880E+03  0.92578841095E+03  0.16076895251E+04  0.20439178276E+04  0.50400001928E-02 0.  1.
</event>
<event>
 5   0  0.8802800E-07  0.3183314E+04  0.7818609E-02  0.8193238E-01
        2   -1    0    0  501    0  0.00000000000E+00  0.00000000000E+00  0.25333406825E+04  0.25333406825E+04  0.25500000920E-02 0.  1.
       -2   -1    0    0    0  501  0.00000000000E+00  0.00000000000E+00 -0.10000124656E+04  0.10000124656E+04  0.25500000920E-02 0. -1.
    10030    2    1    2    0    0  0.00000000000E+00  0.00000000000E+00  0.15333282168E+04  0.35333531481E+04  0.31833141612E+04 0.  0.
        5    1    3    3  502    0  0.15179152207E+04 -0.47875172341E+03  0.77661311339E+03  0.17709940282E+04  0.46999998093E+01 0.  1.
       -5    1    3    3    0  502 -0.15179152207E+04  0.47875172341E+03  0.75671510345E+03  0.17623591200E+04  0.46999998093E+01 0. -1.
</event>
<event>
 5   0  0.8488469E-07  0.3248150E+04  0.7818609E-02  0.8176215E-01
        2   -1    0    0  501    0  0.00000000000E+00  0.00000000000E+00  0.19586421806E+04  0.19586421806E+04  0.25500000920E-02 0. -1.
       -2   -1    0    0    0  501  0.00000000000E+00  0.00000000000E+00 -0.13466574432E+04  0.13466574432E+04  0.25500000920E-02 0.  1.
    10030    2    1    2    0    0  0.00000000000E+00  0.00000000000E+00  0.61198473742E+03  0.33052996238E+04  0.32481502866E+04 0.  0.
        3    1    3    3  502    0  0.10263571137E+04  0.12585460616E+04  0.32280414630E+03  0.16557625558E+04  0.10100000352E+00 0.  1.
       -3    1    3    3    0  502 -0.10263571137E+04 -0.12585460616E+04  0.28918059112E+03  0.16495370680E+04  0.10100000352E+00 0. -1.
</event>
<event>
 5   0  0.8335929E-07  0.3185555E+04  0.7818609E-02  0.8192642E-01
        2   -1    0    0  501    0  0.00000000000E+00  0.00000000000E+00  0.18652475660E+04  0.18652475660E+04  0.25500000920E-02 0. -1.
       -2   -1    0    0    0  501  0.00000000000E+00  0.00000000000E+00 -0.13601094083E+04  0.13601094083E+04  0.25500000920E-02 0.  1.
    10030    2    1    2    0    0  0.00000000000E+00  0.00000000000E+00  0.50513815763E+03  0.32253569743E+04  0.31855553760E+04 0.  0.
        4    1    3    3  502    0 -0.12474864853E+04  0.37736514837E+03  0.11796027597E+04  0.17578655438E+04  0.12699999809E+01 0. -1.
       -4    1    3    3    0  502  0.12474864853E+04 -0.37736514837E+03 -0.67446460211E+03  0.14674914305E+04  0.12699999809E+01 0.  1.
</event>
<event>
 5   0  0.8488469E-07  0.3205918E+04  0.7818609E-02  0.8187256E-01
        2   -1    0    0  501    0  0.00000000000E+00  0.00000000000E+00  0.14778614274E+04  0.14778614274E+04  0.25500000920E-02 0.  1.
       -2   -1    0    0    0  501  0.00000000000E+00  0.00000000000E+00 -0.17386460198E+04  0.17386460198E+04  0.25500000920E-02 0. -1.
    10030    2    1    2    0    0  0.00000000000E+00  0.00000000000E+00 -0.26078459240E+03  0.32165074473E+04  0.32059182078E+04 0.  0.
        3    1    3    3  502    0  0.11681940849E+04 -0.81659724882E+03 -0.86627891627E+03  0.16679171615E+04  0.10100000352E+00 0. -1.
       -3    1    3    3    0  502 -0.11681940849E+04  0.81659724882E+03  0.60549432387E+03  0.15485902858E+04  0.10100000352E+00 0.  1.
</event>
<event>
 5   0  0.3075756E-07  0.3194469E+04  0.7818609E-02  0.8190280E-01
       -1   -1    0    0    0  501  0.00000000000E+00  0.00000000000E+00  0.17149094711E+04  0.17149094711E+04  0.50400001928E-02 0.  1.
        1   -1    0    0  501    0  0.00000000000E+00  0.00000000000E+00 -0.14876338242E+04  0.14876338242E+04  0.50400001928E-02 0. -1.
    10030    2    1    2    0    0  0.00000000000E+00  0.00000000000E+00  0.22727564695E+03  0.32025432953E+04  0.31944685534E+04 0.  0.
        5    1    3    3  502    0 -0.85371043373E+03  0.13447180105E+04  0.23245834765E+03  0.16097040119E+04  0.46999998093E+01 0.  1.
       -5    1    3    3    0  502  0.85371043373E+03 -0.13447180105E+04 -0.51827007025E+01  0.15928392834E+04  0.46999998093E+01 0. -1.
</event>
<event>
 5   0  0.2891204E-07  0.3205698E+04  0.7818609E-02  0.8187314E-01
        1   -1    0    0  501    0  0.00000000000E+00  0.00000000000E+00  0.11423720092E+04  0.11423720092E+04  0.50400001928E-02 0. -1.
       -1   -1    0    0    0  501  0.00000000000E+00  0.00000000000E+00 -0.22489385563E+04  0.22489385563E+04  0.50400001928E-02 0.  1.
    10030    2    1    2    0    0  0.00000000000E+00  0.00000000000E+00 -0.11065665471E+04  0.33913105655E+04  0.32056977132E+04 0.  0.
        4    1    3    3  502    0  0.35412564065E+03  0.13331211645E+04 -0.14169515616E+04  0.19774656380E+04  0.12699999809E+01 0.  1.
       -4    1    3    3    0  502 -0.35412564065E+03 -0.13331211645E+04  0.31038501449E+03  0.14138449274E+04  0.12699999809E+01 0. -1.
</event>
<event>
 5   0  0.3075756E-07  0.3206989E+04  0.7818609E-02  0.8186974E-01
        1   -1    0    0  501    0  0.00000000000E+00  0.00000000000E+00  0.11791469003E+04  0.11791469003E+04  0.50400001928E-02 0.  1.
       -1   -1    0    0    0  501  0.00000000000E+00  0.00000000000E+00 -0.21805546891E+04  0.21805546891E+04  0.50400001928E-02 0. -1.
    10030    2    1    2    0    0  0.00000000000E+00  0.00000000000E+00 -0.10014077888E+04  0.33597015894E+04  0.32069888073E+04 0.  0.
        5    1    3    3  502    0 -0.54592952617E+03  0.94034463405E+02  0.10757067204E+04  0.12099787462E+04  0.46999998093E+01 0.  1.
       -5    1    3    3    0  502  0.54592952617E+03 -0.94034463405E+02 -0.20771145093E+04  0.21497228432E+04  0.46999998093E+01 0. -1.
</event>
<event>
 5   0  0.2891204E-07  0.3208757E+04  0.7818609E-02  0.8186508E-01
       -1   -1    0    0    0  501  0.00000000000E+00  0.00000000000E+00  0.95397847722E+03  0.95397847723E+03  0.50400001928E-02 0.  1.
        1   -1    0    0  501    0  0.00000000000E+00  0.00000000000E+00 -0.26982051308E+04  0.26982051308E+04  0.50400001928E-02 0. -1.
    10030    2    1    2    0    0  0.00000000000E+00  0.00000000000E+00 -0.17442266535E+04  0.36521836080E+04  0.32087565329E+04 0.  0.
        4    1    3    3  502    0 -0.96679898746E+03 -0.10910345101E+04 -0.16347631735E+04  0.21903216273E+04  0.12699999809E+01 0. -1.
       -4    1    3    3    0  502  0.96679898746E+03  0.10910345101E+04 -0.10946347999E+03  0.14618619807E+04  0.12699999809E+01 0.  1.
</event>
<event>
 5   0  0.8488469E-07  0.3155139E+04  0.7818609E-02  0.8200766E-01
       -2   -1    0    0    0  501  0.00000000000E+00  0.00000000000E+00  0.22119864624E+04  0.22119864625E+04  0.25500000920E-02 0. -1.
        2   -1    0    0  501    0  0.00000000000E+00  0.00000000000E+00 -0.11251087443E+04  0.11251087443E+04  0.25500000920E-02 0.  1.
    10030    2    1    2    0    0  0.00000000000E+00  0.00000000000E+00  0.10868777182E+04  0.33370952067E+04  0.31551388630E+04 0.  0.
        3    1    3    3  502    0 -0.10047962592E+04 -0.19700531734E+03 -0.72589656693E+03  0.12551304528E+04  0.10100000352E+00 0.  1.
       -3    1    3    3    0  502  0.10047962592E+04  0.19700531734E+03  0.18127742851E+04  0.20819647539E+04  0.10100000352E+00 0. -1.
</event>
<event>
 5   0  0.2997105E-07  0.3197756E+04  0.7818609E-02  0.8189410E-01
        1   -1    0    0  501    0  0.00000000000E+00  0.00000000000E+00  0.23416046431E+04  0.23416046431E+04  0.50400001928E-02 0.  1.
       -1   -1    0    0    0  501  0.00000000000E+00  0.00000000000E+00 -0.10917343439E+04  0.10917343439E+04  0.50400001928E-02 0. -1.
    10030    2    1    2    0    0  0.00000000000E+00  0.00000000000E+00  0.12498702991E+04  0.34333389870E+04  0.31977555934E+04 0.  0.
        3    1    3    3  502    0  0.64310931417E+03 -0.10811409921E+04  0.16845323713E+04  0.21024045175E+04  0.10100000352E+00 0.  1.
       -3    1    3    3    0  502 -0.64310931417E+03  0.10811409921E+04 -0.43466207220E+03  0.13309344695E+04  0.10100000352E+00 0. -1.
</event>
<event>
 5   0  0.8802800E-07  0.3214626E+04  0.7818609E-02  0.8184965E-01
        2   -1    0    0  501    0  0.00000000000E+00  0.00000000000E+00  0.12001929044E+04  0.12001929044E+04  0.25500000920E-02 0.  1.
       -2   -1    0    0    0  501  0.00000000000E+00  0.00000000000E+00 -0.21525330212E+04  0.21525330212E+04  0.25500000920E-02 0. -1.
    10030    2    1    2    0    0  0.00000000000E+00  0.00000000000E+00 -0.95234011677E+03  0.33527259256E+04  0.32146258623E+04 0.  0.
        5    1    3    3  502    0  0.36749103818E+03 -0.11588983515E+04 -0.15726864115E+04  0.19878278827E+04  0.46999998093E+01 0. -1.
       -5    1    3    3    0  502 -0.36749103818E+03  0.11588983515E+04  0.62034629475E+03  0.13648980429E+04  0.46999998093E+01 0.  1.
</event>
<event>
 5   0  0.8488469E-07  0.3195863E+04  0.7818609E-02  0.8189910E-01
        2   -1    0    0  501    0  0.00000000000E+00  0.00000000000E+00  0.21733713926E+04  0.21733713926E+04  0.25500000920E-02 0. -1.
       -2   -1    0    0    0  501  0.00000000000E+00  0.00000000000E+00 -0.11748502187E+04  0.11748502187E+04  0.25500000920E-02 0.  1.
    10030    2    1    2    0    0  0.00000000000E+00  0.00000000000E+00  0.99852117385E+03  0.33482216113E+04  0.31958634864E+04 0.  0.
        3    1    3    3  502    0 -0.23247508720E+03 -0.85031879713E+03  0.18955775887E+04  0.20905265193E+04  0.10100000352E+00 0. -1.
       -3    1    3    3    0  502  0.23247508720E+03  0.85031879713E+03 -0.89705641485E+03  0.12576950920E+04  0.10100000352E+00 0.  1.
</event>
<event>
 5   0  0.2997105E-07  0.3200226E+04  0.7818609E-02  0.8188757E-01
       -1   -1    0    0    0  501  0.00000000000E+00  0.00000000000E+00  0.15176322330E+04  0.15176322330E+04  0.50400001928E-02 0. -1.
        1   -1    0    0  501    0  0.00000000000E+00  0.00000000000E+00 -0.16870768976E+04  0.16870768976E+04  0.50400001928E-02 0.  1.
    10030    2    1    2    0    0  0.00000000000E+00  0.00000000000E+00 -0.16944466463E+03  0.32047091307E+04  0.32002264167E+04 0.  0.
        3    1    3    3  502    0 -0.12172566545E+04  0.98168523320E+03  0.25478443679E+03  0.15844036037E+04  0.10100000352E+00 0. -1.
       -3    1    3    3    0  502  0.12172566545E+04 -0.98168523320E+03 -0.42422910142E+03  0.16203055270E+04  0.10100000352E+00 0.  1.
</event>
<event>
 5   0  0.8335929E-07  0.3161020E+04  0.7818609E-02  0.8199188E-01
       -2   -1    0    0    0  501  0.00000000000E+00  0.00000000000E+00  0.19475597439E+04  0.19475597439E+04  0.25500000920E-02 0.  1.
        2   -1    0    0  501    0  0.00000000000E+00  0.00000000000E+00 -0.12826370929E+04  0.12826370929E+04  0.25500000920E-02 0. -1.
    10030    2    1    2    0    0  0.00000000000E+00  0.00000000000E+00  0.66492265098E+03  0.32301968368E+04  0.31610203215E+04 0.  0.
        4    1    3    3  502    0  0.15349039737E+04 -0.55095844984E+02  0.71350905628E+03  0.16935355169E+04  0.12699999809E+01 0.  1.
       -4    1    3    3    0  502 -0.15349039737E+04  0.55095844984E+02 -0.48586405308E+02  0.15366613200E+04  0.12699999809E+01 0. -1.
</event>
<event>
 5   0  0.8802800E-07  0.3189989E+04  0.7818609E-02  0.8191466E-01
        2   -1    0    0  501    0  0.00000000000E+00  0.00000000000E+00  0.19658245784E+04  0.19658245784E+04  0.25500000920E-02 0. -1.
       -2   -1    0    0    0  501  0.00000000000E+00  0.00000000000E+00 -0.12941169293E+04  0.12941169293E+04  0.25500000920E-02 0.  1.
    10030    2    1    2    0    0  0.00000000000E+00  0.00000000000E+00  0.67170764910E+03  0.32599415077E+04  0.31899886313E+04 0.  0.
        5    1    3    3  502    0  0.64548139517E+03  0.42511219290E+03  0.17616618625E+04  0.19237570574E+04  0.46999998093E+01 0. -1.
       -5    1    3    3    0  502 -0.64548139517E+03 -0.42511219290E+03 -0.10899542134E+04  0.13361844503E+04  0.46999998093E+01 0.  1.
</event>
<event>
 5   0  0.2783875E-07  0.3201835E+04  0.7818609E-02  0.8188333E-01
       -1   -1    0    0    0  501  0.00000000000E+00  0.00000000000E+00  0.91596931142E+03  0.91596931143E+03  0.50400001928E-02 0. -1.
        1   -1    0    0  501    0  0.00000000000E+00  0.00000000000E+00 -0.27980589335E+04  0.27980589335E+04  0.50400001928E-02 0.  1.
    10030    2    1    2    0    0  0.00000000000E+00  0.00000000000E+00 -0.18820896221E+04  0.37140282450E+04  0.32018345458E+04 0.  0.
        2    1    3    3  502    0  0.13074348047E+04 -0.51888600780E+03 -0.54364418451E+02  0.14076874467E+04  0.25500000920E-02 0. -1.
       -2    1    3    3    0  502 -0.13074348047E+04  0.51888600780E+03 -0.18277252037E+04  0.23063407983E+04  0.25500000920E-02 0.  1.
</event>
<event>
 5   0  0.2891204E-07  0.3135761E+04  0.7818609E-02  0.8205992E-01
       -1   -1    0    0    0  501  0.00000000000E+00  0.00000000000E+00  0.12743345708E+04  0.12743345708E+04  0.50400001928E-02 0. -1.
        1   -1    0    0  501    0  0.00000000000E+00  0.00000000000E+00 -0.19290458172E+04  0.19290458172E+04  0.50400001928E-02 0.  1.
    10030    2    1    2    0    0  0.00000000000E+00  0.00000000000E+00 -0.65471124644E+03  0.32033803880E+04  0.31357613261E+04 0.  0.
        4    1    3    3  502    0 -0.32921326778E+03 -0.51869080065E+03  0.11462574383E+04  0.13005111496E+04  0.12699999809E+01 0. -1.
       -4    1    3    3    0  502  0.32921326778E+03  0.51869080065E+03 -0.18009686847E+04  0.19028692385E+04  0.12699999809E+01 0.  1.
</event>
<event>
 5   0  0.2997105E-07  0.3182890E+04  0.7818609E-02  0.8193351E-01
        1   -1    0    0  501    0  0.00000000000E+00  0.00000000000E+00  0.16606005267E+04  0.16606005267E+04  0.50400001928E-02 0.  1.
       -1   -1    0    0    0  501  0.00000000000E+00  0.00000000000E+00 -0.15251695403E+04  0.15251695403E+04  0.50400001928E-02 0. -1.
    10030    2    1    2    0    0  0.00000000000E+00  0.00000000000E+00  0.13543098640E+03  0.31857700670E+04  0.31828900967E+04 0.  0.
        3    1    3    3  502    0 -0.12521890448E+04  0.81553052437E+03 -0.48016438821E+03  0.15695939889E+04  0.10100000352E+00 0. -1.
       -3    1    3    3    0  502  0.12521890448E+04 -0.81553052437E+03  0.61559537461E+03  0.16161760781E+04  0.10100000352E+00 0.  1.
</event>
<event>
 5   0  0.3075756E-07  0.3200541E+04  0.7818609E-02  0.8188674E-01
       -1   -1    0    0    0  501  0.00000000000E+00  0.00000000000E+00  0.12291536190E+04  0.12291536190E+04  0.50400001928E-02 0.  1.
        1   -1    0    0  501    0  0.00000000000E+00  0.00000000000E+00 -0.20834379917E+04  0.20834379917E+04  0.50400001928E-02 0. -1.
    10030    2    1    2    0    0  0.00000000000E+00  0.00000000000E+00 -0.85428437278E+03  0.33125916107E+04  0.32005407965E+04 0.  0.
        5    1    3    3  502    0 -0.32971007369E+03  0.33101231351E+03 -0.20112706227E+04  0.20648267463E+04  0.46999998093E+01 0. -1.
       -5    1    3    3    0  502  0.32971007369E+03 -0.33101231351E+03  0.11569862499E+04  0.12477648644E+04  0.46999998093E+01 0.  1.
</event>
<event>
 5   0  0.8195618E-07  0.3187590E+04  0.7818609E-02  0.8192102E-01
        2   -1    0    0  501    0  0.00000000000E+00  0.00000000000E+00  0.23063825618E+04  0.23063825618E+04  0.25500000920E-02 0.  1.
       -2   -1    0    0    0  501  0.00000000000E+00  0.00000000000E+00 -0.11013707367E+04  0.11013707367E+04  0.25500000920E-02 0. -1.
    10030    2    1    2    0    0  0.00000000000E+00  0.00000000000E+00  0.12050118250E+04  0.34077532985E+04  0.31875898489E+04 0.  0.
        1    1    3    3  502    0  0.45609295868E+03 -0.90573695938E+03 -0.71197164137E+03  0.12390657144E+04  0.50400001928E-02 0. -1.
       -1    1    3    3    0  502 -0.45609295868E+03  0.90573695938E+03  0.19169834664E+04  0.21686875840E+04  0.50400001928E-02 0.  1.
</event>
<event>
 5   0  0.3013888E-07  0.3192833E+04  0.7818609E-02  0.8190712E-01
       -1   -1    0    0    0  501  0.00000000000E+00  0.00000000000E+00  0.13604899547E+04  0.13604899548E+04  0.50400001928E-02 0. -1.
        1   -1    0    0  501    0  0.00000000000E+00  0.00000000000E+00 -0.18732560667E+04  0.18732560667E+04  0.50400001928E-02 0.  1.
    10030    2    1    2    0    0  0.00000000000E+00  0.00000000000E+00 -0.51276611191E+03  0.32337460214E+04  0.31928332630E+04 0.  0.
        1    1    3    3  502    0 -0.70054107350E+03  0.95035987682E+03 -0.13446771356E+04  0.17894407758E+04  0.50400001928E-02 0.  1.
       -1    1    3    3    0  502  0.70054107350E+03 -0.95035987682E+03  0.83191102369E+03  0.14443052456E+04  0.50400001928E-02 0. -1.
</event>
<event>
 5   0  0.8195618E-07  0.3207015E+04  0.7818609E-02  0.8186967E-01
        2   -1    0    0  501    0  0.00000000000E+00  0.00000000000E+00  0.17713615626E+04  0.17713615626E+04  0.25500000920E-02 0. -1.
       -2   -1    0    0    0  501  0.00000000000E+00  0.00000000000E+00 -0.14515588930E+04  0.14515588930E+04  0.25500000920E-02 0.  1.
    10030    2    1    2    0    0  0.00000000000E+00  0.00000000000E+00  0.31980266960E+03  0.32229204556E+04  0.32070145799E+04 0.  0.
        1    1    3    3  502    0  0.49810042081E+03  0.13449184688E+04 -0.56082079118E+03  0.15399446992E+04  0.50400001928E-02 0. -1.
       -1    1    3    3    0  502 -0.49810042081E+03 -0.13449184688E+04  0.88062346077E+03  0.16829757564E+04  0.50400001928E-02 0.  1.
</event>
<event>
 5   0  0.2997105E-07  0.3196752E+04  0.7818609E-02  0.8189675E-01
       -1   -1    0    0    0  501  0.00000000000E+00  0.00000000000E+00  0.12926722296E+04  0.12926722296E+04  0.50400001928E-02 0.  1.
        1   -1    0    0  501    0  0.00000000000E+00  0.00000000000E+00 -0.19763756140E+04  0.19763756140E+04  0.50400001928E-02 0. -1.
    10030    2    1    2    0    0  0.00000000000E+00  0.00000000000E+00 -0.68370338440E+03  0.32690478436E+04  0.31967520213E+04 0.  0.
        3    1    3    3  502    0  0.90978604677E+03 -0.10591642168E+04 -0.11374348874E+04  0.18009157732E+04  0.10100000352E+00 0. -1.
       -3    1    3    3    0  502 -0.90978604677E+03  0.10591642168E+04  0.45373150299E+03  0.14681320704E+04  0.10100000352E+00 0.  1.
</event>
<event>
 5   0  0.2783875E-07  0.3201267E+04  0.7818609E-02  0.8188483E-01
        1   -1    0    0  501    0  0.00000000000E+00  0.00000000000E+00  0.14565547646E+04  0.14565547646E+04  0.50400001928E-02 0. -1.
       -1   -1    0    0    0  501  0.00000000000E+00  0.00000000000E+00 -0.17589646258E+04  0.17589646258E+04  0.50400001928E-02 0.  1.
    10030    2    1    2    0    0  0.00000000000E+00  0.00000000000E+00 -0.30240986115E+03  0.32155193904E+04  0.32012674406E+04 0.  0.
        2    1    3    3  502    0 -0.49510842826E+03  0.10558851612E+03 -0.16764337507E+04  0.17512028469E+04  0.25500000920E-02 0.  1.
       -2    1    3    3    0  502  0.49510842826E+03 -0.10558851612E+03  0.13740238896E+04  0.14643165435E+04  0.25500000920E-02 0. -1.
</event>
<event>
 5   0  0.3075756E-07  0.3219760E+04  0.7818609E-02  0.8183618E-01
       -1   -1    0    0    0  501  0.00000000000E+00  0.00000000000E+00  0.19586629019E+04  0.19586629019E+04  0.50400001928E-02 0.  1.
        1   -1    0    0  501    0  0.00000000000E+00  0.00000000000E+00 -0.13232053901E+04  0.13232053901E+04  0.50400001928E-02 0. -1.
    10030    2    1    2    0    0  0.00000000000E+00  0.00000000000E+00  0.63545751185E+03  0.32818682920E+04  0.32197598104E+04 0.  0.
        5    1    3    3  502    0  0.15949909536E+04  0.89448347424E+02  0.52080563926E+03  0.16802552642E+04  0.46999998093E+01 0. -1.
       -5    1    3    3    0  502 -0.15949909536E+04 -0.89448347424E+02  0.11465187259E+03  0.16016130278E+04  0.46999998093E+01 0.  1.
</event>
<event>
 5   0  0.8802800E-07  0.3200254E+04  0.7818609E-02  0.8188750E-01
        2   -1    0    0  501    0  0.00000000000E+00  0.00000000000E+00  0.17461097838E+04  0.17461097838E+04  0.25500000920E-02 0.  1.
       -2   -1    0    0    0  501  0.00000000000E+00  0.00000000000E+00 -0.14663491707E+04  0.14663491707E+04  0.25500000920E-02 0. -1.
    10030    2    1    2    0    0  0.00000000000E+00  0.00000000000E+00  0.27976061310E+03  0.32124589546E+04  0.32002541359E+04 0.  0.
        5    1    3    3  502    0  0.25803063436E+03  0.36763346049E+03  0.16815271737E+04  0.17404855344E+04  0.46999998093E+01 0.  1.
       -5    1    3    3    0  502 -0.25803063436E+03 -0.36763346049E+03 -0.14017665606E+04  0.14719734202E+04  0.46999998093E+01 0. -1.
</event>
<event>
 5   0  0.8802800E-07  0.3188249E+04  0.7818609E-02  0.8191928E-01
       -2   -1    0    0    0  501  0.00000000000E+00  0.00000000000E+00  0.93124829179E+03  0.93124829180E+03  0.25500000920E-02 0. -1.
        2   -1    0    0  501    0  0.00000000000E+00  0.00000000000E+00 -0.27288454956E+04  0.27288454956E+04  0.25500000920E-02 0.  1.
    10030    2    1    2    0    0  0.00000000000E+00  0.00000000000E+00 -0.17975972038E+04  0.36600937874E+04  0.31882488651E+04 0.  0.
        5    1    3    3  502    0  0.94462827967E+03 -0.12094421020E+04 -0.40351114983E+03  0.15867942913E+04  0.46999998093E+01 0. -1.
       -5    1    3    3    0  502 -0.94462827967E+03  0.12094421020E+04 -0.13940860540E+04  0.20732994962E+04  0.46999998093E+01 0.  1.
</event>
<event>
 5   0  0.8802800E-07  0.3221584E+04  0.7818609E-02  0.8183140E-01
       -2   -1    0    0    0  501  0.00000000000E+00  0.00000000000E+00  0.11959706275E+04  0.11959706275E+04  0.25500000920E-02 0. -1.
        2   -1    0    0  501    0  0.00000000000E+00  0.00000000000E+00 -0.21694943086E+04  0.21694943086E+04  0.25500000920E-02 0.  1.
    10030    2    1    2    0    0  0.00000000000E+00  0.00000000000E+00 -0.97352368108E+03  0.33654649361E+04  0.32215843739E+04 0.  0.
        5    1    3    3  502    0 -0.76162038496E+03 -0.84993395079E+03  0.70074577470E+03  0.13392236789E+04  0.46999998093E+01 0. -1.
       -5    1    3    3    0  502  0.76162038496E+03  0.84993395079E+03 -0.16742694558E+04  0.20262412571E+04  0.46999998093E+01 0.  1.
</event>
<event>
 5   0  0.2891204E-07  0.3180709E+04  0.7818609E-02  0.8193930E-01
        1   -1    0    0  501    0  0.00000000000E+00  0.00000000000E+00  0.16672937541E+04  0.16672937541E+04  0.50400001928E-02 0.  1.
       -1   -1    0    0    0  501  0.00000000000E+00  0.00000000000E+00 -0.15169658321E+04  0.15169658321E+04  0.50400001928E-02 0. -1.
    10030    2    1    2    0    0  0.00000000000E+00  0.00000000000E+00  0.15032792196E+03  0.31842595862E+04  0.31807091392E+04 0.  0.
        4    1    3    3  502    0 -0.70072953577E+03  0.70014293224E+03 -0.11704129596E+04  0.15333264873E+04  0.12699999809E+01 0. -1.
       -4    1    3    3    0  502  0.70072953577E+03 -0.70014293224E+03  0.13207408816E+04  0.16509330989E+04  0.12699999809E+01 0.  1.
</event>
<event>
 5   0  0.8838951E-07  0.3206287E+04  0.7818609E-02  0.8187159E-01
        2   -1    0    0  501    0  0.00000000000E+00  0.00000000000E+00  0.22268399711E+04  0.22268399711E+04  0.25500000920E-02 0. -1.
       -2   -1    0    0    0  501  0.00000000000E+00  0.00000000000E+00 -0.11541327386E+04  0.11541327386E+04  0.25500000920E-02 0.  1.
    10030    2    1    2    0    0  0.00000000000E+00  0.00000000000E+00  0.10727072325E+04  0.33809727098E+04  0.32062868957E+04 0.  0.
        2    1    3    3  502    0 -0.49298958999E+03 -0.12595711726E+01  0.21449242836E+04  0.22008499505E+04  0.25500000920E-02 0. -1.
       -2    1    3    3    0  502  0.49298958999E+03  0.12595711726E+01 -0.10722170511E+04  0.11801227593E+04  0.25500000920E-02 0.  1.
</event>
<event>
 5   0  0.8488469E-07  0.3197917E+04  0.7818609E-02  0.8189367E-01
       -2   -1    0    0    0  501  0.00000000000E+00  0.00000000000E+00  0.15675198563E+04  0.15675198563E+04  0.25500000920E-02 0.  1.
        2   -1    0    0  501    0  0.00000000000E+00  0.00000000000E+00 -0.16310279271E+04  0.16310279271E+04  0.25500000920E-02 0. -1.
    10030    2    1    2    0    0  0.00000000000E+00  0.00000000000E+00 -0.63508070785E+02  0.31985477834E+04  0.31979172359E+04 0.  0.
        3    1    3    3  502    0  0.15783710035E+04 -0.25567326093E+03 -0.25058646040E+02  0.15991409528E+04  0.10100000352E+00 0.  1.
       -3    1    3    3    0  502 -0.15783710035E+04  0.25567326093E+03 -0.38449424745E+02  0.15994068305E+04  0.10100000352E+00 0. -1.
</event>
<event>
 5   0  0.3013888E-07  0.3195697E+04  0.7818609E-02  0.8189955E-01
       -1   -1    0    0    0  501  0.00000000000E+00  0.00000000000E+00  0.93578146171E+03  0.93578146172E+03  0.50400001928E-02 0.  1.
        1   -1    0    0  501    0  0.00000000000E+00  0.00000000000E+00 -0.27283291381E+04  0.27283291381E+04  0.50400001928E-02 0. -1.
    10030    2    1    2    0    0  0.00000000000E+00  0.00000000000E+00 -0.17925476764E+04  0.36641105999E+04  0.31956970000E+04 0.  0.
        1    1    3    3  502    0 -0.26251776645E+03 -0.39914536327E+03 -0.26445254016E+04  0.26873308688E+04  0.50400001928E-02 0. -1.
       -1    1    3    3    0  502  0.26251776645E+03  0.39914536327E+03  0.85197772519E+03  0.97677973104E+03  0.50400001928E-02 0.  1.
</event>
<event>
 5   0  0.8488469E-07  0.3165535E+04  0.7818609E-02  0.8197979E-01
        2   -1    0    0  501    0  0.00000000000E+00  0.00000000000E+00  0.18600924755E+04  0.18600924755E+04  0.25500000920E-02 0. -1.
       -2   -1    0    0    0  501  0.00000000000E+00  0.00000000000E+00 -0.13467892353E+04  0.13467892353E+04  0.25500000920E-02 0.  1.
    10030    2    1    2    0    0  0.00000000000E+00  0.00000000000E+00  0.51330324027E+03  0.32068817108E+04  0.31655347243E+04 0.  0.
        3    1    3    3  502    0  0.34163714064E+03  0.12676644911E+04  0.11522022764E+04  0.17467854172E+04  0.10100000352E+00 0. -1.
       -3    1    3    3    0  502 -0.34163714064E+03 -0.12676644911E+04 -0.63889903618E+03  0.14600962936E+04  0.10100000352E+00 0.  1.
</event>
<event>
 5   0  0.2891204E-07  0.3203763E+04  0.7818609E-02  0.8187824E-01
       -1   -1    0    0    0  501  0.00000000000E+00  0.00000000000E+00  0.25388226333E+04  0.25388226333E+04  0.50400001928E-02 0. -1.
        1   -1    0    0  501    0  0.00000000000E+00  0.00000000000E+00 -0.10107140900E+04  0.10107140900E+04  0.50400001928E-02 0.  1.
    10030    2    1    2    0    0  0.00000000000E+00  0.00000000000E+00  0.15281085433E+04  0.35495367233E+04  0.32037626675E+04 0.  0.
        4    1    3    3  502    0  0.57706953225E+02  0.11077962904E+04  0.20444079314E+04  0.23259725098E+04  0.12699999809E+01 0. -1.
       -4    1    3    3    0  502 -0.57706953225E+02 -0.11077962904E+04 -0.51629938806E+03  0.12235642135E+04  0.12699999809E+01 0.  1.
</event>
<event>
 5   0  0.8802800E-07  0.3192818E+04  0.7818609E-02  0.8190716E-01
        2   -1    0    0  501    0  0.00000000000E+00  0.00000000000E+00  0.19575201409E+04  0.19575201409E+04  0.25500000920E-02 0. -1.
       -2   -1    0    0    0  501  0.00000000000E+00  0.00000000000E+00 -0.13019135502E+04  0.13019135502E+04  0.25500000920E-02 0.  1.
    10030    2    1    2    0    0  0.00000000000E+00  0.00000000000E+00  0.65560659072E+03  0.32594336911E+04  0.31928181885E+04 0.  0.
        5    1    3    3  502    0 -0.31020440853E+03 -0.12453422298E+04 -0.64142423492E+03  0.14347652015E+04  0.46999998093E+01 0.  1.
       -5    1    3    3    0  502  0.31020440853E+03  0.12453422298E+04  0.12970308256E+04  0.18246684896E+04  0.46999998093E+01 0. -1.
</event>
<event>
 5   0  0.2997105E-07  0.3240422E+04  0.7818609E-02  0.8178223E-01
       -1   -1    0    0    0  501  0.00000000000E+00  0.00000000000E+00  0.12613797626E+04  0.12613797626E+04  0.50400001928E-02 0.  1.
        1   -1    0    0  501    0  0.00000000000E+00  0.00000000000E+00 -0.20811211711E+04  0.20811211711E+04  0.50400001928E-02 0. -1.
    10030    2    1    2    0    0  0.00000000000E+00  0.00000000000E+00 -0.81974140852E+03  0.33425009337E+04  0.32404222741E+04 0.  0.
        3    1    3    3  502    0 -0.47266033426E+03 -0.94219390172E+03 -0.16790566702E+04  0.19825156877E+04  0.10100000352E+00 0. -1.
       -3    1    3    3    0  502  0.47266033426E+03  0.94219390172E+03  0.85931526171E+03  0.13599852460E+04  0.10100000352E+00 0.  1.
</event>
<event>
 5   0  0.8838951E-07  0.3193236E+04  0.7818609E-02  0.8190606E-01
        2   -1    0    0  501    0  0.00000000000E+00  0.00000000000E+00  0.22890547268E+04  0.22890547268E+04  0.25500000920E-02 0.  1.
       -2   -1    0    0    0  501  0.00000000000E+00  0.00000000000E+00 -0.11136426708E+04  0.11136426708E+04  0.25500000920E-02 0. -1.
    10030    2    1    2    0    0  0.00000000000E+00  0.00000000000E+00  0.11754120561E+04  0.34026973976E+04  0.31932359885E+04 0.  0.
        2    1    3    3  502    0  0.10798120366E+04 -0.78472314237E+03  0.15211849280E+04  0.20238053339E+04  0.25500000920E-02 0.  1.
       -2    1    3    3    0  502 -0.10798120366E+04  0.78472314237E+03 -0.34577287190E+03  0.13788920637E+04  0.25500000920E-02 0. -1.
</event>
<event>
 5   0  0.3075756E-07  0.3205849E+04  0.7818609E-02  0.8187274E-01
        1   -1    0    0  501    0  0.00000000000E+00  0.00000000000E+00  0.17018559946E+04  0.17018559946E+04  0.50400001928E-02 0. -1.
       -1   -1    0    0    0  501  0.00000000000E+00  0.00000000000E+00 -0.15097439920E+04  0.15097439920E+04  0.50400001928E-02 0.  1.
    10030    2    1    2    0    0  0.00000000000E+00  0.00000000000E+00  0.19211200255E+03  0.32115999866E+04  0.32058489441E+04 0.  0.
        5    1    3    3  502    0 -0.12722004183E+04  0.74412981106E+03 -0.53525040733E+03  0.15680364054E+04  0.46999998093E+01 0.  1.
       -5    1    3    3    0  502  0.12722004183E+04 -0.74412981106E+03  0.72736240987E+03  0.16435635812E+04  0.46999998093E+01 0. -1.
</event>
<event>
 5   0  0.2783875E-07  0.3198906E+04  0.7818609E-02  0.8189106E-01
        1   -1    0    0  501    0  0.00000000000E+00  0.00000000000E+00  0.20792073975E+04  0.20792073975E+04  0.50400001928E-02 0. -1.
       -1   -1    0    0    0  501  0.00000000000E+00  0.00000000000E+00 -0.12303970463E+04  0.12303970463E+04  0.50400001928E-02 0.  1.
    10030    2    1    2    0    0  0.00000000000E+00  0.00000000000E+00  0.84881035118E+03  0.33096044437E+04  0.31989064634E+04 0.  0.
        2    1    3    3  502    0  0.58850515430E+03  0.63670727836E+03  0.18149835644E+04  0.20114422224E+04  0.25500000920E-02 0. -1.
       -2    1    3    3    0  502 -0.58850515430E+03 -0.63670727836E+03 -0.96617321323E+03  0.12981622213E+04  0.25500000920E-02 0.  1.
</event>
<event>
 5   0  0.3075756E-07  0.3201011E+04  0.7818609E-02  0.8188550E-01
        1   -1    0    0  501    0  0.00000000000E+00  0.00000000000E+00  0.28263774822E+04  0.28263774822E+04  0.50400001928E-02 0.  1.
       -1   -1    0    0    0  501  0.00000000000E+00  0.00000000000E+00 -0.90632531969E+03  0.90632531970E+03  0.50400001928E-02 0. -1.
    10030    2    1    2    0    0  0.00000000000E+00  0.00000000000E+00  0.19200521625E+04  0.37327028019E+04  0.32010107623E+04 0.  0.
        5    1    3    3  502    0  0.78658977511E+02 -0.10404573243E+04 -0.45516970489E+03  0.11383937055E+04  0.46999998093E+01 0. -1.
       -5    1    3    3    0  502 -0.78658977511E+02  0.10404573243E+04  0.23752218674E+04  0.25943090964E+04  0.46999998093E+01 0.  1.
</event>
<event>
 5   0  0.8488469E-07  0.3185757E+04  0.7818609E-02  0.8192589E-01
       -2   -1    0    0    0  501  0.00000000000E+00  0.00000000000E+00  0.16736345192E+04  0.16736345192E+04  0.25500000920E-02 0. -1.
        2   -1    0    0  501    0  0.00000000000E+00  0.00000000000E+00 -0.15160195013E+04  0.15160195013E+04  0.25500000920E-02 0.  1.
    10030    2    1    2    0    0  0.00000000000E+00  0.00000000000E+00  0.15761501790E+03  0.31896540204E+04  0.31857574101E+04 0.  0.
        3    1    3    3  502    0  0.44013317506E+03 -0.14476026713E+04  0.57740441916E+03  0.16194649052E+04  0.10100000352E+00 0. -1.
       -3    1    3    3    0  502 -0.44013317506E+03  0.14476026713E+04 -0.41978940126E+03  0.15701891152E+04  0.10100000352E+00 0.  1.
</event>
<event>
 5   0  0.3075756E-07  0.3202419E+04  0.7818609E-02  0.8188179E-01
        1   -1    0    0  501    0  0.00000000000E+00  0.00000000000E+00  0.14979572007E+04  0.14979572007E+04  0.50400001928E-02 0. -1.
       -1   -1    0    0    0  501  0.00000000000E+00  0.00000000000E+00 -0.17115783981E+04  0.17115783981E+04  0.50400001928E-02 0.  1.
    10030    2    1    2    0    0  0.00000000000E+00  0.00000000000E+00 -0.21362119735E+03  0.32095355988E+04  0.32024185773E+04 0.  0.
        5    1    3    3  502    0  0.45090026077E+03 -0.39296725683E+03  0.13817898765E+04  0.15056890991E+04  0.46999998093E+01 0. -1.
       -5    1    3    3    0  502 -0.45090026077E+03  0.39296725683E+03 -0.15954110739E+04  0.17038464998E+04  0.46999998093E+01 0.  1.
</event>
<event>
 5   0  0.8195618E-07  0.3216121E+04  0.7818609E-02  0.8184573E-01
       -2   -1    0    0    0  501  0.00000000000E+00  0.00000000000E+00  0.10995388783E+04  0.10995388783E+04  0.25500000920E-02 0.  1.
        2   -1    0    0  501    0  0.00000000000E+00  0.00000000000E+00 -0.23517659247E+04  0.23517659247E+04  0.25500000920E-02 0. -1.
    10030    2    1    2    0    0  0.00000000000E+00  0.00000000000E+00 -0.12522270465E+04  0.34513048030E+04  0.32161206860E+04 0.  0.
        1    1    3    3  502    0  0.13044322138E+04  0.14206103542E+02  0.38291822358E+03  0.13595482999E+04  0.50400001928E-02 0.  1.
       -1    1    3    3    0  502 -0.13044322138E+04 -0.14206103542E+02 -0.16351452700E+04  0.20917565030E+04  0.50400001928E-02 0. -1.
</event>
<event>
 5   0  0.8802800E-07  0.3213355E+04  0.7818609E-02  0.8185299E-01
       -2   -1    0    0    0  501  0.00000000000E+00  0.00000000000E+00  0.10883785263E+04  0.10883785263E+04  0.25500000920E-02 0. -1.
        2   -1    0    0  501    0  0.00000000000E+00  0.00000000000E+00 -0.23717963766E+04  0.23717963766E+04  0.25500000920E-02 0.  1.
    10030    2    1    2    0    0  0.00000000000E+00  0.00000000000E+00 -0.12834178503E+04  0.34601749029E+04  0.32133547859E+04 0.  0.
        5    1    3    3  502    0 -0.14540003749E+04  0.56570022367E+03 -0.22849366922E+03  0.15768212582E+04  0.46999998093E+01 0. -1.
       -5    1    3    3    0  502  0.14540003749E+04 -0.56570022367E+03 -0.10549241811E+04  0.18833536447E+04  0.46999998093E+01 0.  1.
</event>
<event>
 5   0  0.8802800E-07  0.3203534E+04  0.7818609E-02  0.8187885E-01
        2   -1    0    0  501    0  0.00000000000E+00  0.00000000000E+00  0.13214140426E+04  0.13214140426E+04  0.25500000920E-02 0. -1.
       -2   -1    0    0    0  501  0.00000000000E+00  0.00000000000E+00 -0.19415998936E+04  0.19415998936E+04  0.25500000920E-02 0.  1.
    10030    2    1    2    0    0  0.00000000000E+00  0.00000000000E+00 -0.62018585100E+03  0.32630139362E+04  0.32035339015E+04 0.  0.
        5    1    3    3  502    0 -0.26638746297E+03 -0.97341562231E+03 -0.15770261131E+04  0.18723070543E+04  0.46999998093E+01 0.  1.
       -5    1    3    3    0  502  0.26638746297E+03  0.97341562231E+03  0.95684026209E+03  0.13907068819E+04  0.46999998093E+01 0. -1.
</event>
<event>
 5   0  0.3075756E-07  0.3179728E+04  0.7818609E-02  0.8194191E-01
        1   -1    0    0  501    0  0.00000000000E+00  0.00000000000E+00  0.23041314362E+04  0.23041314362E+04  0.50400001928E-02 0. -1.
       -1   -1    0    0    0  501  0.00000000000E+00  0.00000000000E+00 -0.10970156531E+04  0.10970156531E+04  0.50400001928E-02 0.  1.
    10030    2    1    2    0    0  0.00000000000E+00  0.00000000000E+00  0.12071157831E+04  0.34011470893E+04  0.31797284489E+04 0.  0.
        5    1    3    3  502    0  0.76255019187E+03 -0.76865648211E+03  0.18488120490E+04  0.21425320686E+04  0.46999998093E+01 0. -1.
       -5    1    3    3    0  502 -0.76255019187E+03  0.76865648211E+03 -0.64169626585E+03  0.12586150207E+04  0.46999998093E+01 0.  1.
</event>
<event>
 5   0  0.3075756E-07  0.3201958E+04  0.7818609E-02  0.8188300E-01
        1   -1    0    0  501    0  0.00000000000E+00  0.00000000000E+00  0.10003033405E+04  0.10003033405E+04  0.50400001928E-02 0.  1.
       -1   -1    0    0    0  501  0.00000000000E+00  0.00000000000E+00 -0.25623556976E+04  0.25623556976E+04  0.50400001928E-02 0. -1.
    10030    2    1    2    0    0  0.00000000000E+00  0.00000000000E+00 -0.15620523570E+04  0.35626590381E+04  0.32019575037E+04 0.  0.
        5    1    3    3  502    0  0.10030270142E+04 -0.21747087576E+03  0.58611009314E+03  0.11819068932E+04  0.46999998093E+01 0.  1.
       -5    1    3    3    0  502 -0.10030270142E+04  0.21747087576E+03 -0.21481624502E+04  0.23807521449E+04  0.46999998093E+01 0. -1.
</event>
<event>
 5   0  0.8802800E-07  0.3168666E+04  0.7818609E-02  0.8197142E-01
       -2   -1    0    0    0  501  0.00000000000E+00  0.00000000000E+00  0.11967197858E+04  0.11967197858E+04  0.25500000920E-02 0. -1.
        2   -1    0    0  501    0  0.00000000000E+00  0.00000000000E+00 -0.20974929052E+04  0.20974929052E+04  0.25500000920E-02 0.  1.
    10030    2    1    2    0    0  0.00000000000E+00  0.00000000000E+00 -0.90077311943E+03  0.32942126910E+04  0.31686661296E+04 0.  0.
        5    1    3    3  502    0  0.95204008448E+03  0.10031465123E+04  0.35315790964E+03  0.14273842674E+04  0.46999998093E+01 0. -1.
       -5    1    3    3    0  502 -0.95204008448E+03 -0.10031465123E+04 -0.12539310291E+04  0.18668284236E+04  0.46999998093E+01 0.  1.
</event>
<event>
 5   0  0.2891204E-07  0.3242779E+04  0.7818609E-02  0.8177610E-01
       -1   -1    0    0    0  501  0.00000000000E+00  0.00000000000E+00  0.13539865771E+04  0.13539865771E+04  0.50400001928E-02 0. -1.
        1   -1    0    0  501    0  0.00000000000E+00  0.00000000000E+00 -0.19416029784E+04  0.19416029784E+04  0.50400001928E-02 0.  1.
    10030    2    1    2    0    0  0.00000000000E+00  0.00000000000E+00 -0.58761640128E+03  0.32955895556E+04  0.32427792838E+04 0.  0.
        4    1    3    3  502    0  0.16703474707E+03  0.61513822437E+03  0.12213119638E+04  0.13776429753E+04  0.12699999809E+01 0. -1.
       -4    1    3    3    0  502 -0.16703474707E+03 -0.61513822437E+03 -0.18089283650E+04  0.19179465802E+04  0.12699999809E+01 0.  1.
</event>
<event>
 5   0  0.8195618E-07  0.3195010E+04  0.7818609E-02  0.8190136E-01
        2   -1    0    0  501    0  0.00000000000E+00  0.00000000000E+00  0.18371192872E+04  0.18371192872E+04  0.25500000920E-02 0. -1.
       -2   -1    0    0    0  501  0.00000000000E+00  0.00000000000E+00 -0.13891432205E+04  0.13891432205E+04  0.25500000920E-02 0.  1.
    10030    2    1    2    0    0  0.00000000000E+00  0.00000000000E+00  0.44797606676E+03  0.32262625077E+04  0.31950097358E+04 0.  0.
        1    1    3    3  502    0 -0.97083470402E+03  0.16537002464E+03  0.14941291223E+04  0.17894940910E+04  0.50400001928E-02 0. -1.
       -1    1    3    3    0  502  0.97083470402E+03 -0.16537002464E+03 -0.10461530555E+04  0.14367684167E+04  0.50400001928E-02 0.  1.
</event>
<event>
 5   0  0.3075756E-07  0.3206187E+04  0.7818609E-02  0.8187185E-01
       -1   -1    0    0    0  501  0.00000000000E+00  0.00000000000E+00  0.10854550745E+04  0.10854550745E+04  0.50400001928E-02 0.  1.
        1   -1    0    0  501    0  0.00000000000E+00  0.00000000000E+00 -0.23675863538E+04  0.23675863538E+04  0.50400001928E-02 0. -1.
    10030    2    1    2    0    0  0.00000000000E+00  0.00000000000E+00 -0.12821312793E+04  0.34530414284E+04  0.32061869079E+04 0.  0.
        5    1    3    3  502    0 -0.12397357947E+04  0.93946487419E+03 -0.10586661049E+04  0.18815778225E+04  0.46999998093E+01 0. -1.
       -5    1    3    3    0  502  0.12397357947E+04 -0.93946487419E+03 -0.22346517442E+03  0.15714636059E+04  0.46999998093E+01 0.  1.
</event>
<event>
 5   0  0.3013888E-07  0.3142297E+04  0.7818609E-02  0.8204225E-01
        1   -1    0    0  501    0  0.00000000000E+00  0.00000000000E+00  0.12940729512E+04  0.12940729512E+04  0.50400001928E-02 0.  1.
       -1   -1    0    0    0  501  0.00000000000E+00  0.00000000000E+00 -0.19075494148E+04  0.19075494148E+04  0.50400001928E-02 0. -1.
    10030    2    1    2    0    0  0.00000000000E+00  0.00000000000E+00 -0.61347646363E+03  0.32016223660E+04  0.31422973130E+04 0.  0.
        1    1    3    3  502    0  0.14084748101E+04 -0.40355885636E+03  0.27128807461E+03  0.14900531067E+04  0.50400001928E-02 0.  1.
       -1    1    3    3    0  502 -0.14084748101E+04  0.40355885636E+03 -0.88476453824E+03  0.17115692593E+04  0.50400001928E-02 0. -1.
</event>
<event>
 5   0  0.3013888E-07  0.3239216E+04  0.7818609E-02  0.8178536E-01
        1   -1    0    0  501    0  0.00000000000E+00  0.00000000000E+00  0.15230550911E+04  0.15230550911E+04  0.50400001928E-02 0.  1.
       -1   -1    0    0    0  501  0.00000000000E+00  0.00000000000E+00 -0.17222818201E+04  0.17222818201E+04  0.50400001928E-02 0. -1.
    10030    2    1    2    0    0  0.00000000000E+00  0.00000000000E+00 -0.19922672903E+03  0.32453369112E+04  0.32392160128E+04 0.  0.
        1    1    3    3  502    0 -0.12582982307E+04 -0.79981445741E+03 -0.73335309276E+03  0.16615728580E+04  0.50400001928E-02 0. -1.
       -1    1    3    3    0  502  0.12582982307E+04  0.79981445741E+03  0.53412636373E+03  0.15837640532E+04  0.50400001928E-02 0.  1.
</event>
<event>
 5   0  0.2891204E-07  0.3229196E+04  0.7818609E-02  0.8181149E-01
        1   -1    0    0  501    0  0.00000000000E+00  0.00000000000E+00  0.99725484905E+03  0.99725484906E+03  0.50400001928E-02 0. -1.
       -1   -1    0    0    0  501  0.00000000000E+00  0.00000000000E+00 -0.26141026518E+04  0.26141026518E+04  0.50400001928E-02 0.  1.
    10030    2    1    2    0    0  0.00000000000E+00  0.00000000000E+00 -0.16168478027E+04  0.36113575009E+04  0.32291959033E+04 0.  0.
        4    1    3    3  502    0 -0.30174546893E+03 -0.17533802939E+03  0.95456975327E+03  0.10163654753E+04  0.12699999809E+01 0. -1.
       -4    1    3    3    0  502  0.30174546893E+03  0.17533802939E+03 -0.25714175560E+04  0.25949920256E+04  0.12699999809E+01 0.  1.
</event>
<event>
 5   0  0.8335929E-07  0.3200993E+04  0.7818609E-02  0.8188555E-01
       -2   -1    0    0    0  501  0.00000000000E+00  0.00000000000E+00  0.13096151638E+04  0.13096151639E+04  0.25500000920E-02 0. -1.
        2   -1    0    0  501    0  0.00000000000E+00  0.00000000000E+00 -0.19559859413E+04  0.19559859413E+04  0.25500000920E-02 0.  1.
    10030    2    1    2    0    0  0.00000000000E+00  0.00000000000E+00 -0.64637077742E+03  0.32656011051E+04  0.32009928766E+04 0.  0.
        4    1    3    3  502    0 -0.13843114329E+04  0.55244723855E+03  0.27174111406E+03  0.15150448642E+04  0.12699999809E+01 0. -1.
       -4    1    3    3    0  502  0.13843114329E+04 -0.55244723855E+03 -0.91811189147E+03  0.17505562409E+04  0.12699999809E+01 0.  1.
</event>
<event>
 5   0  0.8195618E-07  0.3203466E+04  0.7818609E-02  0.8187902E-01
        2   -1    0    0  501    0  0.00000000000E+00  0.00000000000E+00  0.31938774093E+04  0.31938774093E+04  0.25500000920E-02 0.  1.
       -2   -1    0    0    0  501  0.00000000000E+00  0.00000000000E+00 -0.80327073941E+03  0.80327073942E+03  0.25500000920E-02 0. -1.
    10030    2    1    2    0    0  0.00000000000E+00  0.00000000000E+00  0.23906066699E+04  0.39971481487E+04  0.32034657908E+04 0.  0.
        1    1    3    3  502    0  0.27560438182E+02  0.13245578940E+04  0.72089424204E+02  0.13268044609E+04  0.50400001928E-02 0. -1.
       -1    1    3    3    0  502 -0.27560438182E+02 -0.13245578940E+04  0.23185172457E+04  0.26703436878E+04  0.50400001928E-02 0.  1.
</event>
<event>
 5   0  0.2891204E-07  0.3196825E+04  0.7818609E-02  0.8189656E-01
        1   -1    0    0  501    0  0.00000000000E+00  0.00000000000E+00  0.19941075063E+04  0.19941075063E+04  0.50400001928E-02 0.  1.
       -1   -1    0    0    0  501  0.00000000000E+00  0.00000000000E+00 -0.12812361113E+04  0.12812361113E+04  0.50400001928E-02 0. -1.
    10030    2    1    2    0    0  0.00000000000E+00  0.00000000000E+00  0.71287139502E+03  0.32753436177E+04  0.31968250168E+04 0.  0.
        4    1    3    3  502    0 -0.93805553764E+02  0.13602570892E+04  0.12110833691E+04  0.18236840106E+04  0.12699999809E+01 0.  1.
       -4    1    3    3    0  502  0.93805553764E+02 -0.13602570892E+04 -0.49821197408E+03  0.14516596071E+04  0.12699999809E+01 0. -1.
</event>
<event>
 5   0  0.8802800E-07  0.3198393E+04  0.7818609E-02  0.8189242E-01
        2   -1    0    0  501    0  0.00000000000E+00  0.00000000000E+00  0.86636575019E+03  0.86636575020E+03  0.25500000920E-02 0. -1.
       -2   -1    0    0    0  501  0.00000000000E+00  0.00000000000E+00 -0.29519058767E+04  0.29519058767E+04  0.25500000920E-02 0.  1.
    10030    2    1    2    0    0  0.00000000000E+00  0.00000000000E+00 -0.20855401265E+04  0.38182716269E+04  0.31983934401E+04 0.  0.
        5    1    3    3  502    0  0.98021968892E+03 -0.10088679293E+03  0.46086064198E+03  0.10878526577E+04  0.46999998093E+01 0. -1.
       -5    1    3    3    0  502 -0.98021968892E+03  0.10088679293E+03 -0.25464007685E+04  0.27304189692E+04  0.46999998093E+01 0.  1.
</event>
<event>
 5   0  0.8488469E-07  0.3199505E+04  0.7818609E-02  0.8188948E-01
       -2   -1    0    0    0  501  0.00000000000E+00  0.00000000000E+00  0.13940499812E+04  0.13940499812E+04  0.25500000920E-02 0. -1.
        2   -1    0    0  501    0  0.00000000000E+00  0.00000000000E+00 -0.18358075385E+04  0.18358075385E+04  0.25500000920E-02 0.  1.
    10030    2    1    2    0    0  0.00000000000E+00  0.00000000000E+00 -0.44175755731E+03  0.32298575197E+04  0.31995046270E+04 0.  0.
        3    1    3    3  502    0 -0.26911907084E+03  0.80126500610E+03  0.11502245285E+04  0.14273987391E+04  0.10100000352E+00 0. -1.
       -3    1    3    3    0  502  0.26911907084E+03 -0.80126500610E+03 -0.15919820858E+04  0.18024587806E+04  0.10100000352E+00 0.  1.
</event>
<event>
 5   0  0.8335929E-07  0.3198317E+04  0.7818609E-02  0.8189262E-01
        2   -1    0    0  501    0  0.00000000000E+00  0.00000000000E+00  0.24997199741E+04  0.24997199741E+04  0.25500000920E-02 0.  1.
       -2   -1    0    0    0  501  0.00000000000E+00  0.00000000000E+00 -0.10230374551E+04  0.10230374551E+04  0.25500000920E-02 0. -1.
    10030    2    1    2    0    0  0.00000000000E+00  0.00000000000E+00  0.14766825189E+04  0.35227574292E+04  0.31983165327E+04 0.  0.
        4    1    3    3  502    0 -0.62172980243E+03  0.10827767527E+04 -0.36219198305E+03  0.13000531101E+04  0.12699999809E+01 0. -1.
       -4    1    3    3    0  502  0.62172980243E+03 -0.10827767527E+04  0.18388745020E+04  0.22227043192E+04  0.12699999809E+01 0.  1.
</event>
<event>
 5   0  0.8838951E-07  0.3199546E+04  0.7818609E-02  0.8188937E-01
       -2   -1    0    0    0  501  0.00000000000E+00  0.00000000000E+00  0.16505844857E+04  0.16505844857E+04  0.25500000920E-02 0. -1.
        2   -1    0    0  501    0  0.00000000000E+00  0.00000000000E+00 -0.15505261240E+04  0.15505261240E+04  0.25500000920E-02 0.  1.
    10030    2    1    2    0    0  0.00000000000E+00  0.00000000000E+00  0.10005836162E+03  0.32011106097E+04  0.31995464459E+04 0.  0.
        2    1    3    3  502    0  0.76839966850E+03  0.20988718301E+03  0.14380731587E+04  0.16439419363E+04  0.25500000920E-02 0. -1.
       -2    1    3    3    0  502 -0.76839966850E+03 -0.20988718301E+03 -0.13380147971E+04  0.15571686734E+04  0.25500000920E-02 0.  1.
</event>
<event>
 5   0  0.8838951E-07  0.3219777E+04  0.7818609E-02  0.8183613E-01
       -2   -1    0    0    0  501  0.00000000000E+00  0.00000000000E+00  0.12760876593E+04  0.12760876593E+04  0.25500000920E-02 0. -1.
        2   -1    0    0  501    0  0.00000000000E+00  0.00000000000E+00 -0.20310059841E+04  0.20310059841E+04  0.25500000920E-02 0.  1.
    10030    2    1    2    0    0  0.00000000000E+00  0.00000000000E+00 -0.75491832484E+03  0.33070936434E+04  0.32197774285E+04 0.  0.
        2    1    3    3  502    0  0.10983808595E+04 -0.95073540017E+03  0.33518904816E+03  0.14908688781E+04  0.25500000920E-02 0. -1.
       -2    1    3    3    0  502 -0.10983808595E+04  0.95073540017E+03 -0.10901073730E+04  0.18162247653E+04  0.25500000920E-02 0.  1.
</event>
<event>
 5   0  0.8838951E-07  0.3186805E+04  0.7818609E-02  0.8192311E-01
       -2   -1    0    0    0  501  0.00000000000E+00  0.00000000000E+00  0.14639690390E+04  0.14639690390E+04  0.25500000920E-02 0.  1.
        2   -1    0    0  501    0  0.00000000000E+00  0.00000000000E+00 -0.17342795664E+04  0.17342795664E+04  0.25500000920E-02 0. -1.
    10030    2    1    2    0    0  0.00000000000E+00  0.00000000000E+00 -0.27031052740E+03  0.31982486053E+04  0.31868050396E+04 0.  0.
        2    1    3    3  502    0  0.87585297782E+03 -0.97246231891E+03  0.77702562798E+03  0.15220283266E+04  0.25500000920E-02 0.  1.
       -2    1    3    3    0  502 -0.87585297782E+03  0.97246231891E+03 -0.10473361554E+04  0.16762202787E+04  0.25500000920E-02 0. -1.
</event>
<event>
 5   0  0.8488469E-07  0.3205420E+04  0.7818609E-02  0.8187387E-01
       -2   -1    0    0    0  501  0.00000000000E+00  0.00000000000E+00  0.14023691072E+04  0.14023691072E+04  0.25500000920E-02 0. -1.
        2   -1    0    0  501    0  0.00000000000E+00  0.00000000000E+00 -0.18316712031E+04  0.18316712031E+04  0.25500000920E-02 0.  1.
    10030    2    1    2    0    0  0.00000000000E+00  0.00000000000E+00 -0.42930209592E+03  0.32340403103E+04  0.32054198538E+04 0.  0.
        3    1    3    3  502    0 -0.15660230435E+04  0.31342562448E+03 -0.79231515307E+02  0.15990439138E+04  0.10100000352E+00 0. -1.
       -3    1    3    3    0  502  0.15660230435E+04 -0.31342562448E+03 -0.35007058061E+03  0.16349963965E+04  0.10100000352E+00 0.  1.
</event>
<event>
 5   0  0.8335929E-07  0.3201799E+04  0.7818609E-02  0.8188342E-01
        2   -1    0    0  501    0  0.00000000000E+00  0.00000000000E+00  0.14452939843E+04  0.14452939843E+04  0.25500000920E-02 0. -1.
       -2   -1    0    0    0  501  0.00000000000E+00  0.00000000000E+00 -0.17732577177E+04  0.17732577177E+04  0.25500000920E-02 0.  1.
    10030    2    1    2    0    0  0.00000000000E+00  0.00000000000E+00 -0.32796373342E+03  0.32185517020E+04  0.32017986895E+04 0.  0.
        4    1    3    3  502    0  0.59240434738E+03  0.93800001218E+03 -0.13241829814E+04  0.17274979348E+04  0.12699999809E+01 0.  1.
       -4    1    3    3    0  502 -0.59240434738E+03 -0.93800001218E+03  0.99621924801E+03  0.14910537672E+04  0.12699999809E+01 0. -1.
</event>
<event>
 5   0  0.8195618E-07  0.3203460E+04  0.7818609E-02  0.8187904E-01
       -2   -1    0    0    0  501  0.00000000000E+00  0.00000000000E+00  0.17495898174E+04  0.17495898174E+04  0.25500000920E-02 0.  1.
        2   -1    0    0  501    0  0.00000000000E+00  0.00000000000E+00 -0.14663661789E+04  0.14663661789E+04  0.25500000920E-02 0. -1.
    10030    2    1    2    0    0  0.00000000000E+00  0.00000000000E+00  0.28322363845E+03  0.32159559963E+04  0.32034602137E+04 0.  0.
        1    1    3    3  502    0  0.13887004120E+04 -0.79535381251E+03  0.20867669890E+03  0.16138842852E+04  0.50400001928E-02 0. -1.
       -1    1    3    3    0  502 -0.13887004120E+04  0.79535381251E+03  0.74546939551E+02  0.16020717111E+04  0.50400001928E-02 0.  1.
</event>
<event>
 5   0  0.3013888E-07  0.3203530E+04  0.7818609E-02  0.8187885E-01
       -1   -1    0    0    0  501  0.00000000000E+00  0.00000000000E+00  0.25128706683E+04  0.25128706683E+04  0.50400001928E-02 0. -1.
        1   -1    0    0  501    0  0.00000000000E+00  0.00000000000E+00 -0.10210042681E+04  0.10210042681E+04  0.50400001928E-02 0.  1.
    10030    2    1    2    0    0  0.00000000000E+00  0.00000000000E+00  0.14918664002E+04  0.35338749364E+04  0.32035303511E+04 0.  0.
        1    1    3    3  502    0 -0.26532333109E+03  0.14447809839E+04  0.14504308509E+04  0.20643493442E+04  0.50400001928E-02 0. -1.
       -1    1    3    3    0  502  0.26532333109E+03 -0.14447809839E+04  0.41435549261E+02  0.14695255922E+04  0.50400001928E-02 0.  1.
</event>
<event>
 5   0  0.2997105E-07  0.3191379E+04  0.7818609E-02  0.8191098E-01
       -1   -1    0    0    0  501  0.00000000000E+00  0.00000000000E+00  0.15537931183E+04  0.15537931183E+04  0.50400001928E-02 0.  1.
        1   -1    0    0  501    0  0.00000000000E+00  0.00000000000E+00 -0.16387159134E+04  0.16387159134E+04  0.50400001928E-02 0. -1.
    10030    2    1    2    0    0  0.00000000000E+00  0.00000000000E+00 -0.84922795104E+02  0.31925090316E+04  0.31913793313E+04 0.  0.
        3    1    3    3  502    0  0.13032574991E+03  0.12299214952E+04  0.96612851726E+03  0.15694253749E+04  0.10100000352E+00 0.  1.
       -3    1    3    3    0  502 -0.13032574991E+03 -0.12299214952E+04 -0.10510513124E+04  0.16230836567E+04  0.10100000352E+00 0. -1.
</event>
<event>
 5   0  0.3013888E-07  0.3196728E+04  0.7818609E-02  0.8189682E-01
       -1   -1    0    0    0  501  0.00000000000E+00  0.00000000000E+00  0.10743404494E+04  0.10743404495E+04  0.50400001928E-02 0. -1.
        1   -1    0    0  501    0  0.00000000000E+00  0.00000000000E+00 -0.23779871774E+04  0.23779871774E+04  0.50400001928E-02 0.  1.
    10030    2    1    2    0    0  0.00000000000E+00  0.00000000000E+00 -0.13036467280E+04  0.34523276269E+04  0.31967282105E+04 0.  0.
        1    1    3    3  502    0  0.83145574301E+03 -0.12178870063E+04 -0.13177288225E+04  0.19776189376E+04  0.50400001928E-02 0.  1.
       -1    1    3    3    0  502 -0.83145574301E+03  0.12178870063E+04  0.14082094489E+02  0.14747086893E+04  0.50400001928E-02 0. -1.
</event>
<event>
 5   0  0.8335929E-07  0.3159644E+04  0.7818609E-02  0.8199557E-01
       -2   -1    0    0    0  501  0.00000000000E+00  0.00000000000E+00  0.16111757652E+04  0.16111757652E+04  0.25500000920E-02 0. -1.
        2   -1    0    0  501    0  0.00000000000E+00  0.00000000000E+00 -0.15490787551E+04  0.15490787551E+04  0.25500000920E-02 0.  1.
    10030    2    1    2    0    0  0.00000000000E+00  0.00000000000E+00  0.62097010010E+02  0.31602545203E+04  0.31596443778E+04 0.  0.
        4    1    3    3  502    0  0.21970661192E+03  0.14972726737E+04  0.48472189791E+03  0.15890416565E+04  0.12699999809E+01 0. -1.
       -4    1    3    3    0  502 -0.21970661192E+03 -0.14972726737E+04 -0.42262488790E+03  0.15712128638E+04  0.12699999809E+01 0.  1.
</event>
<event>
 5   0  0.8838951E-07  0.3238960E+04  0.7818609E-02  0.8178603E-01
        2   -1    0    0  501    0  0.00000000000E+00  0.00000000000E+00  0.23477583333E+04  0.23477583333E+04  0.25500000920E-02 0. -1.
       -2   -1    0    0    0  501  0.00000000000E+00  0.00000000000E+00 -0.11171146695E+04  0.11171146695E+04  0.25500000920E-02 0.  1.
    10030    2    1    2    0    0  0.00000000000E+00  0.00000000000E+00  0.12306436638E+04  0.34648730028E+04  0.32389598791E+04 0.  0.
        2    1    3    3  502    0  0.53366537408E+02 -0.14328452360E+04 -0.19006594020E+03  0.14463811805E+04  0.25500000920E-02 0.  1.
       -2    1    3    3    0  502 -0.53366537408E+02  0.14328452360E+04  0.14207096040E+04  0.20184918223E+04  0.25500000920E-02 0. -1.
</event>
<event>
 5   0  0.8838951E-07  0.3201376E+04  0.7818609E-02  0.8188454E-01
        2   -1    0    0  501    0  0.00000000000E+00  0.00000000000E+00  0.29897906658E+04  0.29897906658E+04  0.25500000920E-02 0. -1.
       -2   -1    0    0    0  501  0.00000000000E+00  0.00000000000E+00 -0.85698361890E+03  0.85698361890E+03  0.25500000920E-02 0.  1.
    10030    2    1    2    0    0  0.00000000000E+00  0.00000000000E+00  0.21328070469E+04  0.38467742847E+04  0.32013757196E+04 0.  0.
        2    1    3    3  502    0 -0.48533175878E+03 -0.16705804905E+03 -0.75541695946E+03  0.91329627749E+03  0.25500000920E-02 0.  1.
       -2    1    3    3    0  502  0.48533175878E+03  0.16705804905E+03  0.28882240063E+04  0.29334780072E+04  0.25500000920E-02 0. -1.
</event>
<event>
 5   0  0.8195618E-07  0.3202223E+04  0.7818609E-02  0.8188230E-01
       -2   -1    0    0    0  501  0.00000000000E+00  0.00000000000E+00  0.18956534453E+04  0.18956534453E+04  0.25500000920E-02 0. -1.
        2   -1    0    0  501    0  0.00000000000E+00  0.00000000000E+00 -0.13523347461E+04  0.13523347461E+04  0.25500000920E-02 0.  1.
    10030    2    1    2    0    0  0.00000000000E+00  0.00000000000E+00  0.54331869915E+03  0.32479881914E+04  0.32022229908E+04 0.  0.
        1    1    3    3  502    0 -0.47174062843E+03 -0.25679900141E+03  0.18015505459E+04  0.18799120504E+04  0.50400001928E-02 0. -1.
       -1    1    3    3    0  502  0.47174062843E+03  0.25679900141E+03 -0.12582318467E+04  0.13680761411E+04  0.50400001928E-02 0.  1.
</event>
<event>
 5   0  0.8802800E-07  0.3197283E+04  0.7818609E-02  0.8189535E-01
        2   -1    0    0  501    0  0.00000000000E+00  0.00000000000E+00  0.17253719789E+04  0.17253719789E+04  0.25500000920E-02 0.  1.
       -2   -1    0    0    0  501  0.00000000000E+00  0.00000000000E+00 -0.14812198000E+04  0.14812198000E+04  0.25500000920E-02 0. -1.
    10030    2    1    2    0    0  0.00000000000E+00  0.00000000000E+00  0.24415217885E+03  0.32065917789E+04  0.31972833078E+04 0.  0.
        5    1    3    3  502    0 -0.15757286192E+04 -0.15804859835E+03  0.34119100918E+03  0.16199794553E+04  0.46999998093E+01 0.  1.
       -5    1    3    3    0  502  0.15757286192E+04  0.15804859835E+03 -0.97038830323E+02  0.15866123236E+04  0.46999998093E+01 0. -1.
</event>
<event>
 5   0  0.2783875E-07  0.3197746E+04  0.7818609E-02  0.8189413E-01
        1   -1    0    0  501    0  0.00000000000E+00  0.00000000000E+00  0.23303555000E+04  0.23303555000E+04  0.50400001928E-02 0. -1.
       -1   -1    0    0    0  501  0.00000000000E+00  0.00000000000E+00 -0.10969975513E+04  0.10969975514E+04  0.50400001928E-02 0.  1.
    10030    2    1    2    0    0  0.00000000000E+00  0.00000000000E+00  0.12333579487E+04  0.34273530514E+04  0.31977456292E+04 0.  0.
        2    1    3    3  502    0 -0.10099629837E+04 -0.72513788317E+03 -0.46075971056E+03  0.13259523706E+04  0.25500000920E-02 0.  1.
       -2    1    3    3    0  502  0.10099629837E+04  0.72513788317E+03  0.16941176593E+04  0.21014006809E+04  0.25500000920E-02 0. -1.
</event>
<event>
 5   0  0.2997105E-07  0.3200440E+04  0.7818609E-02  0.8188701E-01
        1   -1    0    0  501    0  0.00000000000E+00  0.00000000000E+00  0.24732042150E+04  0.24732042150E+04  0.50400001928E-02 0. -1.
       -1   -1    0    0    0  501  0.00000000000E+00  0.00000000000E+00 -0.10353793363E+04  0.10353793363E+04  0.50400001928E-02 0.  1.
    10030    2    1    2    0    0  0.00000000000E+00  0.00000000000E+00  0.14378248787E+04  0.35085835514E+04  0.32004403064E+04 0.  0.
        3    1    3    3  502    0  0.14267528378E+03 -0.15938302393E+04  0.72692806811E+03  0.17575765971E+04  0.10100000352E+00 0. -1.
       -3    1    3    3    0  502 -0.14267528378E+03  0.15938302393E+04  0.71089681062E+03  0.17510069542E+04  0.10100000352E+00 0.  1.
</event>
<event>
 5   0  0.3013888E-07  0.3200006E+04  0.7818609E-02  0.8188816E-01
        1   -1    0    0  501    0  0.00000000000E+00  0.00000000000E+00  0.90917449014E+03  0.90917449016E+03  0.50400001928E-02 0. -1.
       -1   -1    0    0    0  501  0.00000000000E+00  0.00000000000E+00 -0.28157517232E+04  0.28157517232E+04  0.50400001928E-02 0.  1.
    10030    2    1    2    0    0  0.00000000000E+00  0.00000000000E+00 -0.19065772331E+04  0.37249262134E+04  0.32000060234E+04 0.  0.
        1    1    3    3  502    0 -0.71546135023E+03 -0.59643459000E+03  0.56102966193E+03  0.10873699671E+04  0.50400001928E-02 0. -1.
       -1    1    3    3    0  502  0.71546135023E+03  0.59643459000E+03 -0.24676068950E+04  0.26375562463E+04  0.50400001928E-02 0.  1.
</event>
<event>
 5   0  0.2783875E-07  0.3212167E+04  0.7818609E-02  0.8185611E-01
        1   -1    0    0  501    0  0.00000000000E+00  0.00000000000E+00  0.13185503514E+04  0.13185503515E+04  0.50400001928E-02 0.  1.
       -1   -1    0    0    0  501  0.00000000000E+00  0.00000000000E+00 -0.19563179194E+04  0.19563179194E+04  0.50400001928E-02 0. -1.
    10030    2    1    2    0    0  0.00000000000E+00  0.00000000000E+00 -0.63776756798E+03  0.32748682709E+04  0.32121666708E+04 0.  0.
        2    1    3    3  502    0  0.22163756500E+03 -0.42632572547E+03 -0.18813217172E+04  0.19417127074E+04  0.25500000920E-02 0. -1.
       -2    1    3    3    0  502 -0.22163756500E+03  0.42632572547E+03  0.12435541492E+04  0.13331555635E+04  0.25500000920E-02 0.  1.
</event>
<event>
 5   0  0.8488469E-07  0.3204168E+04  0.7818609E-02  0.8187717E-01
       -2   -1    0    0    0  501  0.00000000000E+00  0.00000000000E+00  0.13550363122E+04  0.13550363122E+04  0.25500000920E-02 0.  1.
        2   -1    0    0  501    0  0.00000000000E+00  0.00000000000E+00 -0.18941734904E+04  0.18941734904E+04  0.25500000920E-02 0. -1.
    10030    2    1    2    0    0  0.00000000000E+00  0.00000000000E+00 -0.53913717814E+03  0.32492098026E+04  0.32041684482E+04 0.  0.
        3    1    3    3  502    0 -0.41290225475E+03 -0.51296238848E+03  0.12114600582E+04  0.13788597343E+04  0.10100000352E+00 0.  1.
       -3    1    3    3    0  502  0.41290225475E+03  0.51296238848E+03 -0.17505972363E+04  0.18703500683E+04  0.10100000352E+00 0. -1.
</event>
<event>
 5   0  0.2783875E-07  0.3199096E+04  0.7818609E-02  0.8189056E-01
       -1   -1    0    0    0  501  0.00000000000E+00  0.00000000000E+00  0.30682003369E+04  0.30682003369E+04  0.50400001928E-02 0. -1.
        1   -1    0    0  501    0  0.00000000000E+00  0.00000000000E+00 -0.83389422429E+03  0.83389422430E+03  0.50400001928E-02 0.  1.
    10030    2    1    2    0    0  0.00000000000E+00  0.00000000000E+00  0.22343061126E+04  0.39020945612E+04  0.31990964599E+04 0.  0.
        2    1    3    3  502    0 -0.78636409433E+03 -0.13757884334E+04  0.13826894556E+04  0.21030911614E+04  0.25500000920E-02 0. -1.
       -2    1    3    3    0  502  0.78636409433E+03  0.13757884334E+04  0.85161665700E+03  0.17990033999E+04  0.25500000920E-02 0.  1.
</event>
<event>
 5   0  0.8802800E-07  0.3198315E+04  0.7818609E-02  0.8189262E-01
       -2   -1    0    0    0  501  0.00000000000E+00  0.00000000000E+00  0.14668972355E+04  0.14668972355E+04  0.25500000920E-02 0.  1.
        2   -1    0    0  501    0  0.00000000000E+00  0.00000000000E+00 -0.17433430577E+04  0.17433430577E+04  0.25500000920E-02 0. -1.
    10030    2    1    2    0    0  0.00000000000E+00  0.00000000000E+00 -0.27644582219E+03  0.32102402932E+04  0.31983152515E+04 0.  0.
        5    1    3    3  502    0  0.76102544382E+03  0.93908717729E+03 -0.11891408645E+04  0.16956186299E+04  0.46999998093E+01 0. -1.
       -5    1    3    3    0  502 -0.76102544382E+03 -0.93908717729E+03  0.91269504227E+03  0.15146216633E+04  0.46999998093E+01 0.  1.
</event>
<event>
 5   0  0.8195618E-07  0.3214196E+04  0.7818609E-02  0.8185078E-01
        2   -1    0    0  501    0  0.00000000000E+00  0.00000000000E+00  0.18729983094E+04  0.18729983094E+04  0.25500000920E-02 0.  1.
       -2   -1    0    0    0  501  0.00000000000E+00  0.00000000000E+00 -0.13789459055E+04  0.13789459055E+04  0.25500000920E-02 0. -1.
    10030    2    1    2    0    0  0.00000000000E+00  0.00000000000E+00  0.49405240396E+03  0.32519442149E+04  0.32141956068E+04 0.  0.
        1    1    3    3  502    0 -0.69642635721E+03  0.14311570388E+04  0.21829072606E+02  0.15917589796E+04  0.50400001928E-02 0. -1.
       -1    1    3    3    0  502  0.69642635721E+03 -0.14311570388E+04  0.47222333136E+03  0.16601852353E+04  0.50400001928E-02 0.  1.
</event>
<event>
 5   0  0.3075756E-07  0.3189157E+04  0.7818609E-02  0.8191687E-01
        1   -1    0    0  501    0  0.00000000000E+00  0.00000000000E+00  0.22524630412E+04  0.22524630412E+04  0.50400001928E-02 0. -1.
       -1   -1    0    0    0  501  0.00000000000E+00  0.00000000000E+00 -0.11288443809E+04  0.11288443809E+04  0.50400001928E-02 0.  1.
    10030    2    1    2    0    0  0.00000000000E+00  0.00000000000E+00  0.11236186603E+04  0.33813074221E+04  0.31891567834E+04 0.  0.
        5    1    3    3  502    0 -0.89762490517E+03 -0.12987928278E+04  0.79904247465E+03  0.17694870009E+04  0.46999998093E+01 0. -1.
       -5    1    3    3    0  502  0.89762490517E+03  0.12987928278E+04  0.32457618560E+03  0.16118204212E+04  0.46999998093E+01 0.  1.
</event>
<event>
 5   0  0.2997105E-07  0.3222191E+04  0.7818609E-02  0.8182981E-01
       -1   -1    0    0    0  501  0.00000000000E+00  0.00000000000E+00  0.15845864185E+04  0.15845864185E+04  0.50400001928E-02 0. -1.
        1   -1    0    0  501    0  0.00000000000E+00  0.00000000000E+00 -0.16380481490E+04  0.16380481490E+04  0.50400001928E-02 0.  1.
    10030    2    1    2    0    0  0.00000000000E+00  0.00000000000E+00 -0.53461730505E+02  0.32226345674E+04  0.32221910866E+04 0.  0.
        3    1    3    3  502    0 -0.37492287911E+03 -0.39506328949E+03  0.14897187875E+04  0.15861602202E+04  0.10100000352E+00 0. -1.
       -3    1    3    3    0  502  0.37492287911E+03  0.39506328949E+03 -0.15431805180E+04  0.16364743473E+04  0.10100000352E+00 0.  1.
</event>
<event>
 5   0  0.2891204E-07  0.3210392E+04  0.7818609E-02  0.8186078E-01
        1   -1    0    0  501    0  0.00000000000E+00  0.00000000000E+00  0.18971840415E+04  0.18971840415E+04  0.50400001928E-02 0. -1.
       -1   -1    0    0    0  501  0.00000000000E+00  0.00000000000E+00 -0.13581465441E+04  0.13581465441E+04  0.50400001928E-02 0.  1.
    10030    2    1    2    0    0  0.00000000000E+00  0.00000000000E+00  0.53903749743E+03  0.32553305856E+04  0.32103918449E+04 0.  0.
        4    1    3    3  502    0 -0.10204785707E+04  0.10542584002E+04  0.92964232222E+03  0.17369725812E+04  0.12699999809E+01 0. -1.
       -4    1    3    3    0  502  0.10204785707E+04 -0.10542584002E+04 -0.39060482479E+03  0.15183580044E+04  0.12699999809E+01 0.  1.
</event>
<event>
 5   0  0.3075756E-07  0.3207344E+04  0.7818609E-02  0.8186880E-01
       -1   -1    0    0    0  501  0.00000000000E+00  0.00000000000E+00  0.15789796628E+04  0.15789796628E+04  0.50400001928E-02 0. -1.
        1   -1    0    0  501    0  0.00000000000E+00  0.00000000000E+00 -0.16287505511E+04  0.16287505511E+04  0.50400001928E-02 0.  1.
    10030    2    1    2    0    0  0.00000000000E+00  0.00000000000E+00 -0.49770888290E+02  0.32077302138E+04  0.32073440700E+04 0.  0.
        5    1    3    3  502    0  0.24264905208E+03 -0.10999619641E+04 -0.11664899172E+04  0.16215781516E+04  0.46999998093E+01 0.  1.
       -5    1    3    3    0  502 -0.24264905208E+03  0.10999619641E+04  0.11167190289E+04  0.15861520622E+04  0.46999998093E+01 0. -1.
</event>
<event>
 5   0  0.8838951E-07  0.3204421E+04  0.7818609E-02  0.8187651E-01
       -2   -1    0    0    0  501  0.00000000000E+00  0.00000000000E+00  0.13322559714E+04  0.13322559714E+04  0.25500000920E-02 0. -1.
        2   -1    0    0  501    0  0.00000000000E+00  0.00000000000E+00 -0.19268657341E+04  0.19268657341E+04  0.25500000920E-02 0.  1.
    10030    2    1    2    0    0  0.00000000000E+00  0.00000000000E+00 -0.59460976269E+03  0.32591217055E+04  0.32044209339E+04 0.  0.
        2    1    3    3  502    0  0.54265780298E+03  0.14781436844E+04 -0.59848849963E+03  0.16845102336E+04  0.25500000920E-02 0. -1.
       -2    1    3    3    0  502 -0.54265780298E+03 -0.14781436844E+04  0.38787369393E+01  0.15746114719E+04  0.25500000920E-02 0.  1.
</event>
<event>
 5   0  0.2783875E-07  0.3369019E+04  0.7818609E-02  0.8145552E-01
       -1   -1    0    0    0  501  0.00000000000E+00  0.00000000000E+00  0.10958697346E+04  0.10958697346E+04  0.50400001928E-02 0.  1.
        1   -1    0    0  501    0  0.00000000000E+00  0.00000000000E+00 -0.25893337539E+04  0.25893337539E+04  0.50400001928E-02 0. -1.
    10030    2    1    2    0    0  0.00000000000E+00  0.00000000000E+00 -0.14934640193E+04  0.36852034885E+04  0.33690191413E+04 0.  0.
        2    1    3    3  502    0  0.16118270586E+04  0.48343106472E+02 -0.21393698119E+03  0.16266814546E+04  0.25500000920E-02 0. -1.
       -2    1    3    3    0  502 -0.16118270586E+04 -0.48343106472E+02 -0.12795270381E+04  0.20585220339E+04  0.25500000920E-02 0.  1.
</event>
<event>
 5   0  0.8802800E-07  0.3176449E+04  0.7818609E-02  0.8195065E-01
        2   -1    0    0  501    0  0.00000000000E+00  0.00000000000E+00  0.22474945913E+04  0.22474945913E+04  0.25500000920E-02 0. -1.
       -2   -1    0    0    0  501  0.00000000000E+00  0.00000000000E+00 -0.11223415347E+04  0.11223415347E+04  0.25500000920E-02 0.  1.
    10030    2    1    2    0    0  0.00000000000E+00  0.00000000000E+00  0.11251530566E+04  0.33698361260E+04  0.31764486640E+04 0.  0.
        5    1    3    3  502    0  0.81139674612E+03 -0.13178203714E+04  0.94126704135E+03  0.18113588667E+04  0.46999998093E+01 0. -1.
       -5    1    3    3    0  502 -0.81139674612E+03  0.13178203714E+04  0.18388601524E+03  0.15584772593E+04  0.46999998093E+01 0.  1.
</event>
<event>
 5   0  0.3013888E-07  0.3203406E+04  0.7818609E-02  0.8187918E-01
       -1   -1    0    0    0  501  0.00000000000E+00  0.00000000000E+00  0.13429202417E+04  0.13429202417E+04  0.50400001928E-02 0. -1.
        1   -1    0    0  501    0  0.00000000000E+00  0.00000000000E+00 -0.19103538483E+04  0.19103538483E+04  0.50400001928E-02 0.  1.
    10030    2    1    2    0    0  0.00000000000E+00  0.00000000000E+00 -0.56743360664E+03  0.32532740900E+04  0.32034062195E+04 0.  0.
        1    1    3    3  502    0 -0.98866771520E+03  0.14961375639E+03  0.98700271727E+03  0.14049991072E+04  0.50400001928E-02 0. -1.
       -1    1    3    3    0  502  0.98866771520E+03 -0.14961375639E+03 -0.15544363239E+04  0.18482749829E+04  0.50400001928E-02 0.  1.
</event>
<event>
 5   0  0.8488469E-07  0.3198515E+04  0.7818609E-02  0.8189210E-01
       -2   -1    0    0    0  501  0.00000000000E+00  0.00000000000E+00  0.20272462753E+04  0.20272462753E+04  0.25500000920E-02 0. -1.
        2   -1    0    0  501    0  0.00000000000E+00  0.00000000000E+00 -0.12616245944E+04  0.12616245944E+04  0.25500000920E-02 0.  1.
    10030    2    1    2    0    0  0.00000000000E+00  0.00000000000E+00  0.76562168096E+03  0.32888708697E+04  0.31985145051E+04 0.  0.
        3    1    3    3  502    0  0.64141506920E+03  0.14186020609E+04  0.67207379310E+01  0.15568847988E+04  0.10100000352E+00 0.  1.
       -3    1    3    3    0  502 -0.64141506920E+03 -0.14186020609E+04  0.75890094303E+03  0.17319860709E+04  0.10100000352E+00 0. -1.
</event>
<event>
 5   0  0.8802800E-07  0.3199772E+04  0.7818609E-02  0.8188877E-01
       -2   -1    0    0    0  501  0.00000000000E+00  0.00000000000E+00  0.11040617273E+04  0.11040617273E+04  0.25500000920E-02 0.  1.
        2   -1    0    0  501    0  0.00000000000E+00  0.00000000000E+00 -0.23183809573E+04  0.23183809573E+04  0.25500000920E-02 0. -1.
    10030    2    1    2    0    0  0.00000000000E+00  0.00000000000E+00 -0.12143192300E+04  0.34224426846E+04  0.31997722945E+04 0.  0.
        5    1    3    3  502    0  0.11559759943E+04  0.52545747085E+03 -0.16481441282E+04  0.20805737695E+04  0.46999998093E+01 0. -1.
       -5    1    3    3    0  502 -0.11559759943E+04 -0.52545747085E+03  0.43382489819E+03  0.13418689151E+04  0.46999998093E+01 0.  1.
</event>
<event>
 5   0  0.8802800E-07  0.3202640E+04  0.7818609E-02  0.8188120E-01
       -2   -1    0    0    0  501  0.00000000000E+00  0.00000000000E+00  0.12084347517E+04  0.12084347517E+04  0.25500000920E-02 0. -1.
        2   -1    0    0  501    0  0.00000000000E+00  0.00000000000E+00 -0.21219395836E+04  0.21219395836E+04  0.25500000920E-02 0.  1.
    10030    2    1    2    0    0  0.00000000000E+00  0.00000000000E+00 -0.91350483195E+03  0.33303743353E+04  0.32026398697E+04 0.  0.
        5    1    3    3  502    0  0.15710672896E+04 -0.29144948914E+03 -0.56585707817E+03  0.16951140245E+04  0.46999998093E+01 0. -1.
       -5    1    3    3    0  502 -0.15710672896E+04  0.29144948914E+03 -0.34764775378E+03  0.16352603108E+04  0.46999998093E+01 0.  1.
</event>
<event>
 5   0  0.8488469E-07  0.3194015E+04  0.7818609E-02  0.8190400E-01
       -2   -1    0    0    0  501  0.00000000000E+00  0.00000000000E+00  0.15067524194E+04  0.15067524194E+04  0.25500000920E-02 0.  1.
        2   -1    0    0  501    0  0.00000000000E+00  0.00000000000E+00 -0.16926689281E+04  0.16926689281E+04  0.25500000920E-02 0. -1.
    10030    2    1    2    0    0  0.00000000000E+00  0.00000000000E+00 -0.18591650874E+03  0.31994213475E+04  0.31940150298E+04 0.  0.
        3    1    3    3  502    0 -0.11192255431E+03 -0.86209074097E+03  0.12489756533E+04  0.15217316770E+04  0.10100000352E+00 0.  1.
       -3    1    3    3    0  502  0.11192255431E+03  0.86209074097E+03 -0.14348921621E+04  0.16776896706E+04  0.10100000352E+00 0. -1.
</event>
<event>
 5   0  0.3013888E-07  0.3207470E+04  0.7818609E-02  0.8186847E-01
       -1   -1    0    0    0  501  0.00000000000E+00  0.00000000000E+00  0.10853699823E+04  0.10853699823E+04  0.50400001928E-02 0. -1.
        1   -1    0    0  501    0  0.00000000000E+00  0.00000000000E+00 -0.23696674035E+04  0.23696674035E+04  0.50400001928E-02 0.  1.
    10030    2    1    2    0    0  0.00000000000E+00  0.00000000000E+00 -0.12842974212E+04  0.34550373858E+04  0.32074699486E+04 0.  0.
        1    1    3    3  502    0  0.91164175034E+03 -0.12742128954E+04 -0.27329092136E+03  0.15904078444E+04  0.50400001928E-02 0.  1.
       -1    1    3    3    0  502 -0.91164175034E+03  0.12742128954E+04 -0.10110064999E+04  0.18646295414E+04  0.50400001928E-02 0. -1.
</event>
<event>
 5   0  0.2783875E-07  0.3204118E+04  0.7818609E-02  0.8187731E-01
        1   -1    0    0  501    0  0.00000000000E+00  0.00000000000E+00  0.10171939687E+04  0.10171939687E+04  0.50400001928E-02 0. -1.
       -1   -1    0    0    0  501  0.00000000000E+00  0.00000000000E+00 -0.25232087999E+04  0.25232087999E+04  0.50400001928E-02 0.  1.
    10030    2    1    2    0    0  0.00000000000E+00  0.00000000000E+00 -0.15060148312E+04  0.35404027687E+04  0.32041178337E+04 0.  0.
        2    1    3    3  502    0 -0.94795195226E+03  0.27861948370E+03 -0.21464551791E+04  0.23629455254E+04  0.25500000920E-02 0.  1.
       -2    1    3    3    0  502  0.94795195226E+03 -0.27861948370E+03  0.64044034783E+03  0.11774572432E+04  0.25500000920E-02 0. -1.
</event>
<event>
 5   0  0.3075756E-07  0.3197351E+04  0.7818609E-02  0.8189517E-01
       -1   -1    0    0    0  501  0.00000000000E+00  0.00000000000E+00  0.11862863430E+04  0.11862863431E+04  0.50400001928E-02 0.  1.
        1   -1    0    0  501    0  0.00000000000E+00  0.00000000000E+00 -0.21544229972E+04  0.21544229972E+04  0.50400001928E-02 0. -1.
    10030    2    1    2    0    0  0.00000000000E+00  0.00000000000E+00 -0.96813665418E+03  0.33407093403E+04  0.31973505149E+04 0.  0.
        5    1    3    3  502    0  0.11242865962E+04 -0.54284616458E+03  0.55921997242E+03  0.13680100060E+04  0.46999998093E+01 0.  1.
       -5    1    3    3    0  502 -0.11242865962E+04  0.54284616458E+03 -0.15273566266E+04  0.19726993343E+04  0.46999998093E+01 0. -1.
</event>
<event>
 5   0  0.8838951E-07  0.3207400E+04  0.7818609E-02  0.8186866E-01
        2   -1    0    0  501    0  0.00000000000E+00  0.00000000000E+00  0.14032094896E+04  0.14032094896E+04  0.25500000920E-02 0. -1.
       -2   -1    0    0    0  501  0.00000000000E+00  0.00000000000E+00 -0.18328367989E+04  0.18328367989E+04  0.25500000920E-02 0.  1.
    10030    2    1    2    0    0  0.00000000000E+00  0.00000000000E+00 -0.42962730923E+03  0.32360462885E+04  0.32074001865E+04 0.  0.
        2    1    3    3  502    0 -0.12058002098E+04  0.64232180762E+03  0.63252195078E+03  0.15055283022E+04  0.25500000920E-02 0. -1.
       -2    1    3    3    0  502  0.12058002098E+04 -0.64232180762E+03 -0.10621492600E+04  0.17305179863E+04  0.25500000920E-02 0.  1.
</event>
<event>
 5   0  0.2997105E-07  0.3186384E+04  0.7818609E-02  0.8192422E-01
       -1   -1    0    0    0  501  0.00000000000E+00  0.00000000000E+00  0.16868985900E+04  0.16868985900E+04  0.50400001928E-02 0. -1.
        1   -1    0    0  501    0  0.00000000000E+00  0.00000000000E+00 -0.15046907172E+04  0.15046907172E+04  0.50400001928E-02 0.  1.
    10030    2    1    2    0    0  0.00000000000E+00  0.00000000000E+00  0.18220787277E+03  0.31915893072E+04  0.31863839375E+04 0.  0.
        3    1    3    3  502    0 -0.74477921894E+03 -0.12914558981E+04 -0.47169136712E+03  0.15636646628E+04  0.10100000352E+00 0. -1.
       -3    1    3    3    0  502  0.74477921894E+03  0.12914558981E+04  0.65389923989E+03  0.16279246444E+04  0.10100000352E+00 0.  1.
</event>
<event>
 5   0  0.2891204E-07  0.3184672E+04  0.7818609E-02  0.8192877E-01
        1   -1    0    0  501    0  0.00000000000E+00  0.00000000000E+00  0.22251253370E+04  0.22251253370E+04  0.50400001928E-02 0. -1.
       -1   -1    0    0    0  501  0.00000000000E+00  0.00000000000E+00 -0.11395018531E+04  0.11395018531E+04  0.50400001928E-02 0.  1.
    10030    2    1    2    0    0  0.00000000000E+00  0.00000000000E+00  0.10856234839E+04  0.33646271902E+04  0.31846723191E+04 0.  0.
        4    1    3    3  502    0 -0.41059857072E+03 -0.31222917127E+03 -0.10487846496E+04  0.11687724739E+04  0.12699999809E+01 0.  1.
       -4    1    3    3    0  502  0.41059857072E+03  0.31222917127E+03  0.21344081335E+04  0.21958547162E+04  0.12699999809E+01 0. -1.
</event>
<event>
 5   0  0.8335929E-07  0.3190626E+04  0.7818609E-02  0.8191297E-01
       -2   -1    0    0    0  501  0.00000000000E+00  0.00000000000E+00  0.12799704792E+04  0.12799704792E+04  0.25500000920E-02 0.  1.
        2   -1    0    0  501    0  0.00000000000E+00  0.00000000000E+00 -0.19883451030E+04  0.19883451030E+04  0.25500000920E-02 0. -1.
    10030    2    1    2    0    0  0.00000000000E+00  0.00000000000E+00 -0.70837462383E+03  0.32683155822E+04  0.31906256655E+04 0.  0.
        4    1    3    3  502    0  0.24936509787E+03 -0.10080927787E+04 -0.15947025624E+04  0.19030270303E+04  0.12699999809E+01 0. -1.
       -4    1    3    3    0  502 -0.24936509787E+03  0.10080927787E+04  0.88632793859E+03  0.13652885520E+04  0.12699999809E+01 0.  1.
</event>
<event>
 5   0  0.2891204E-07  0.3217014E+04  0.7818609E-02  0.8184338E-01
        1   -1    0    0  501    0  0.00000000000E+00  0.00000000000E+00  0.13468711158E+04  0.13468711159E+04  0.50400001928E-02 0. -1.
       -1   -1    0    0    0  501  0.00000000000E+00  0.00000000000E+00 -0.19209668817E+04  0.19209668817E+04  0.50400001928E-02 0.  1.
    10030    2    1    2    0    0  0.00000000000E+00  0.00000000000E+00 -0.57409576583E+03  0.32678379975E+04  0.32170140239E+04 0.  0.
        4    1    3    3  502    0  0.14987248940E+04  0.37956139384E+03 -0.73796406608E+03  0.17131362279E+04  0.12699999809E+01 0. -1.
       -4    1    3    3    0  502 -0.14987248940E+04 -0.37956139384E+03  0.16386830025E+03  0.15547017696E+04  0.12699999809E+01 0.  1.
</event>
<event>
 5   0  0.2891204E-07  0.3206474E+04  0.7818609E-02  0.8187110E-01
        1   -1    0    0  501    0  0.00000000000E+00  0.00000000000E+00  0.18434193984E+04  0.18434193984E+04  0.50400001928E-02 0.  1.
       -1   -1    0    0    0  501  0.00000000000E+00  0.00000000000E+00 -0.13943480161E+04  0.13943480161E+04  0.50400001928E-02 0. -1.
    10030    2    1    2    0    0  0.00000000000E+00  0.00000000000E+00  0.44907138227E+03  0.32377674145E+04  0.32064735651E+04 0.  0.
        4    1    3    3  502    0  0.67413945643E+03 -0.16423036210E+03  0.16839547930E+04  0.18213020003E+04  0.12699999809E+01 0.  1.
       -4    1    3    3    0  502 -0.67413945643E+03  0.16423036210E+03 -0.12348834107E+04  0.14164654142E+04  0.12699999809E+01 0. -1.
</event>
<event>
 5   0  0.3013888E-07  0.3182813E+04  0.7818609E-02  0.8193371E-01
        1   -1    0    0  501    0  0.00000000000E+00  0.00000000000E+00  0.16508484087E+04  0.16508484087E+04  0.50400001928E-02 0.  1.
       -1   -1    0    0    0  501  0.00000000000E+00  0.00000000000E+00 -0.15341046354E+04  0.15341046354E+04  0.50400001928E-02 0. -1.
    10030    2    1    2    0    0  0.00000000000E+00  0.00000000000E+00  0.11674377334E+03  0.31849530441E+04  0.31828127159E+04 0.  0.
        1    1    3    3  502    0  0.38911879189E+03 -0.14382617057E+03 -0.14790449509E+04  0.15361228363E+04  0.50400001928E-02 0. -1.
       -1    1    3    3    0  502 -0.38911879189E+03  0.14382617057E+03  0.15957887242E+04  0.16488302077E+04  0.50400001928E-02 0.  1.
</event>
<event>
 5   0  0.8195618E-07  0.3198128E+04  0.7818609E-02  0.8189312E-01
        2   -1    0    0  501    0  0.00000000000E+00  0.00000000000E+00  0.16595215758E+04  0.16595215758E+04  0.25500000920E-02 0.  1.
       -2   -1    0    0    0  501  0.00000000000E+00  0.00000000000E+00 -0.15408089581E+04  0.15408089581E+04  0.25500000920E-02 0. -1.
    10030    2    1    2    0    0  0.00000000000E+00  0.00000000000E+00  0.11871261768E+03  0.32003305339E+04  0.31981280213E+04 0.  0.
        1    1    3    3  502    0  0.37787696893E+03 -0.55975766570E+03  0.15097978861E+04  0.16539677460E+04  0.50400001928E-02 0.  1.
       -1    1    3    3    0  502 -0.37787696893E+03  0.55975766570E+03 -0.13910852684E+04  0.15463627879E+04  0.50400001928E-02 0. -1.
</event>
<event>
 5   0  0.2997105E-07  0.3205419E+04  0.7818609E-02  0.8187388E-01
        1   -1    0    0  501    0  0.00000000000E+00  0.00000000000E+00  0.14094484933E+04  0.14094484934E+04  0.50400001928E-02 0. -1.
       -1   -1    0    0    0  501  0.00000000000E+00  0.00000000000E+00 -0.18224696889E+04  0.18224696889E+04  0.50400001928E-02 0.  1.
    10030    2    1    2    0    0  0.00000000000E+00  0.00000000000E+00 -0.41302119551E+03  0.32319181822E+04  0.32054186355E+04 0.  0.
        3    1    3    3  502    0  0.13392033176E+04 -0.57327146840E+03 -0.88029518919E+03  0.17020650201E+04  0.10100000352E+00 0.  1.
       -3    1    3    3    0  502 -0.13392033176E+04  0.57327146840E+03  0.46727399368E+03  0.15298531621E+04  0.10100000352E+00 0. -1.
</event>
<event>
 5   0  0.8838951E-07  0.3209467E+04  0.7818609E-02  0.8186322E-01
        2   -1    0    0  501    0  0.00000000000E+00  0.00000000000E+00  0.34655119032E+04  0.34655119032E+04  0.25500000920E-02 0. -1.
       -2   -1    0    0    0  501  0.00000000000E+00  0.00000000000E+00 -0.74308468510E+03  0.74308468510E+03  0.25500000920E-02 0.  1.
    10030    2    1    2    0    0  0.00000000000E+00  0.00000000000E+00  0.27224272181E+04  0.42085965883E+04  0.32094665110E+04 0.  0.
        2    1    3    3  502    0  0.17300845046E+02  0.12362740845E+04  0.27026596679E+04  0.29720434405E+04  0.25500000920E-02 0. -1.
       -2    1    3    3    0  502 -0.17300845046E+02 -0.12362740845E+04  0.19767550160E+02  0.12365531478E+04  0.25500000920E-02 0.  1.
</event>
<event>
 5   0  0.8488469E-07  0.3197519E+04  0.7818609E-02  0.8189473E-01
       -2   -1    0    0    0  501  0.00000000000E+00  0.00000000000E+00  0.14884993200E+04  0.14884993200E+04  0.25500000920E-02 0.  1.
        2   -1    0    0  501    0  0.00000000000E+00  0.00000000000E+00 -0.17171873441E+04  0.17171873441E+04  0.25500000920E-02 0. -1.
    10030    2    1    2    0    0  0.00000000000E+00  0.00000000000E+00 -0.22868802400E+03  0.32056866641E+04  0.31975191596E+04 0.  0.
        3    1    3    3  502    0 -0.12291426316E+03 -0.29212710332E+03  0.14566896530E+04  0.14907685655E+04  0.10100000352E+00 0.  1.
       -3    1    3    3    0  502  0.12291426316E+03  0.29212710332E+03 -0.16853776770E+04  0.17149180986E+04  0.10100000352E+00 0. -1.
</event>
<event>
 5   0  0.3075756E-07  0.3197157E+04  0.7818609E-02  0.8189568E-01
       -1   -1    0    0    0  501  0.00000000000E+00  0.00000000000E+00  0.15828485835E+04  0.15828485835E+04  0.50400001928E-02 0. -1.
        1   -1    0    0  501    0  0.00000000000E+00  0.00000000000E+00 -0.16144649648E+04  0.16144649648E+04  0.50400001928E-02 0.  1.
    10030    2    1    2    0    0  0.00000000000E+00  0.00000000000E+00 -0.31616381338E+02  0.31973135483E+04  0.31971572264E+04 0.  0.
        5    1    3    3  502    0  0.13761752944E+04 -0.35074174091E+03 -0.74970596847E+03  0.16059138641E+04  0.46999998093E+01 0. -1.
       -5    1    3    3    0  502 -0.13761752944E+04  0.35074174091E+03  0.71808958714E+03  0.15913996842E+04  0.46999998093E+01 0.  1.
</event>
<event>
 5   0  0.8335929E-07  0.3198027E+04  0.7818609E-02  0.8189338E-01
        2   -1    0    0  501    0  0.00000000000E+00  0.00000000000E+00  0.18608651173E+04  0.18608651173E+04  0.25500000920E-02 0. -1.
       -2   -1    0    0    0  501  0.00000000000E+00  0.00000000000E+00 -0.13740083464E+04  0.13740083464E+04  0.25500000920E-02 0.  1.
    10030    2    1    2    0    0  0.00000000000E+00  0.00000000000E+00  0.48685677095E+03  0.32348734637E+04  0.31980270185E+04 0.  0.
        4    1    3    3  502    0  0.10447438731E+04  0.92434803351E+03  0.10340563182E+04  0.17364282679E+04  0.12699999809E+01 0. -1.
       -4    1    3    3    0  502 -0.10447438731E+04 -0.92434803351E+03 -0.54719954725E+03  0.14984451958E+04  0.12699999809E+01 0.  1.
</event>
<event>
 5   0  0.8335929E-07  0.3212032E+04  0.7818609E-02  0.8185647E-01
        2   -1    0    0  501    0  0.00000000000E+00  0.00000000000E+00  0.11184229116E+04  0.11184229116E+04  0.25500000920E-02 0.  1.
       -2   -1    0    0    0  501  0.00000000000E+00  0.00000000000E+00 -0.23061823952E+04  0.23061823952E+04  0.25500000920E-02 0. -1.
    10030    2    1    2    0    0  0.00000000000E+00  0.00000000000E+00 -0.11877594836E+04  0.34246053068E+04  0.32120318985E+04 0.  0.
        4    1    3    3  502    0  0.14521754155E+04  0.32281775718E+03  0.51367177713E+02  0.14885109813E+04  0.12699999809E+01 0.  1.
       -4    1    3    3    0  502 -0.14521754155E+04 -0.32281775718E+03 -0.12391266613E+04  0.19360943255E+04  0.12699999809E+01 0. -1.
</event>
<event>
 5   0  0.8838951E-07  0.3277194E+04  0.7818609E-02  0.8168723E-01
        2   -1    0    0  501    0  0.00000000000E+00  0.00000000000E+00  0.34031916864E+04  0.34031916864E+04  0.25500000920E-02 0. -1.
       -2   -1    0    0    0  501  0.00000000000E+00  0.00000000000E+00 -0.78896532480E+03  0.78896532480E+03  0.25500000920E-02 0.  1.
    10030    2    1    2    0    0  0.00000000000E+00  0.00000000000E+00  0.26142263616E+04  0.41921570112E+04  0.32771940646E+04 0.  0.
        2    1    3    3  502    0 -0.73725326422E+03  0.58420627044E+03  0.30234046420E+04  0.31663567347E+04  0.25500000920E-02 0. -1.
       -2    1    3    3    0  502  0.73725326422E+03 -0.58420627044E+03 -0.40917828044E+03  0.10258002765E+04  0.25500000920E-02 0.  1.
</event>
<event>
 5   0  0.3075756E-07  0.3197511E+04  0.7818609E-02  0.8189475E-01
       -1   -1    0    0    0  501  0.00000000000E+00  0.00000000000E+00  0.15499815270E+04  0.15499815271E+04  0.50400001928E-02 0.  1.
        1   -1    0    0  501    0  0.00000000000E+00  0.00000000000E+00 -0.16490639474E+04  0.16490639474E+04  0.50400001928E-02 0. -1.
    10030    2    1    2    0    0  0.00000000000E+00  0.00000000000E+00 -0.99082420356E+02  0.31990454745E+04  0.31975106914E+04 0.  0.
        5    1    3    3  502    0  0.14842800764E+04  0.35783536971E+03  0.42488368971E+03  0.15848286143E+04  0.46999998093E+01 0.  1.
       -5    1    3    3    0  502 -0.14842800764E+04 -0.35783536971E+03 -0.52396611006E+03  0.16142168601E+04  0.46999998093E+01 0. -1.
</event>
<event>
 5   0  0.8488469E-07  0.3199512E+04  0.7818609E-02  0.8188946E-01
       -2   -1    0    0    0  501  0.00000000000E+00  0.00000000000E+00  0.82748204924E+03  0.82748204925E+03  0.25500000920E-02 0.  1.
        2   -1    0    0  501    0  0.00000000000E+00  0.00000000000E+00 -0.30927784177E+04  0.30927784177E+04  0.25500000920E-02 0. -1.
    10030    2    1    2    0    0  0.00000000000E+00  0.00000000000E+00 -0.22652963684E+04  0.39202604669E+04  0.31995116021E+04 0.  0.
        3    1    3    3  502    0 -0.15492406440E+04 -0.37262887287E+03 -0.95841965891E+03  0.18594534420E+04  0.10100000352E+00 0.  1.
       -3    1    3    3    0  502  0.15492406440E+04  0.37262887287E+03 -0.13068767095E+04  0.20608070250E+04  0.10100000352E+00 0. -1.
</event>
<event>
 5   0  0.2783875E-07  0.3199102E+04  0.7818609E-02  0.8189054E-01
        3   -1    0    0  501    0  0.00000000000E+00  0.00000000000E+00  0.20688229224E+04  0.20688229248E+04  0.10100000352E+00 0.  1.
       -3   -1    0    0    0  501  0.00000000000E+00  0.00000000000E+00 -0.12367239913E+04  0.12367239954E+04  0.10100000352E+00 0. -1.
    10030    2    1    2    0    0  0.00000000000E+00  0.00000000000E+00  0.83209893107E+03  0.33055469202E+04  0.31991017193E+04 0.  0.
        4    1    3    3  502    0  0.26793383463E+03  0.15699039698E+04  0.26218423612E+03  0.16140412636E+04  0.12699999809E+01 0.  1.
       -4    1    3    3    0  502 -0.26793383463E+03 -0.15699039698E+04  0.56991469495E+03  0.16915056566E+04  0.12699999809E+01 0. -1.
</event>
<event>
 5   0  0.2997105E-07  0.3233299E+04  0.7818609E-02  0.8180078E-01
        1   -1    0    0  501    0  0.00000000000E+00  0.00000000000E+00  0.15555541845E+04  0.15555541845E+04  0.50400001928E-02 0. -1.
       -1   -1    0    0    0  501  0.00000000000E+00  0.00000000000E+00 -0.16801446216E+04  0.16801446216E+04  0.50400001928E-02 0.  1.
    10030    2    1    2    0    0  0.00000000000E+00  0.00000000000E+00 -0.12459043710E+03  0.32356988060E+04  0.32332992417E+04 0.  0.
        3    1    3    3  502    0  0.35524946928E+03  0.13932209863E+04 -0.80195746062E+03  0.16463300644E+04  0.10100000352E+00 0. -1.
       -3    1    3    3    0  502 -0.35524946928E+03 -0.13932209863E+04  0.67736702352E+03  0.15893687416E+04  0.10100000352E+00 0.  1.
</event>
<event>
 5   0  0.2783875E-07  0.3048051E+04  0.7818609E-02  0.8230141E-01
        3   -1    0    0  501    0  0.00000000000E+00  0.00000000000E+00  0.14877508626E+04  0.14877508661E+04  0.10100000352E+00 0.  1.
       -3   -1    0    0    0  501  0.00000000000E+00  0.00000000000E+00 -0.15611843503E+04  0.15611843536E+04  0.10100000352E+00 0. -1.
    10030    2    1    2    0    0  0.00000000000E+00  0.00000000000E+00 -0.73433487720E+02  0.30489352197E+04  0.30480507700E+04 0.  0.
        3    1    3    3  502    0  0.70628989928E+03 -0.86465712143E+03  0.10009733066E+04  0.14994748848E+04  0.10100000352E+00 0.  1.
       -3    1    3    3    0  502 -0.70628989928E+03  0.86465712143E+03 -0.10744067943E+04  0.15494603349E+04  0.10100000352E+00 0. -1.
</event>
<event>
 5   0  0.8335929E-07  0.3198795E+04  0.7818609E-02  0.8189135E-01
       -2   -1    0    0    0  501  0.00000000000E+00  0.00000000000E+00  0.16937058201E+04  0.16937058201E+04  0.25500000920E-02 0. -1.
        2   -1    0    0  501    0  0.00000000000E+00  0.00000000000E+00 -0.15103408324E+04  0.15103408324E+04  0.25500000920E-02 0.  1.
    10030    2    1    2    0    0  0.00000000000E+00  0.00000000000E+00  0.18336498775E+03  0.32040466525E+04  0.31987954346E+04 0.  0.
        4    1    3    3  502    0 -0.15963825979E+04 -0.97975482707E+02  0.97595661038E+02  0.16023617320E+04  0.12699999809E+01 0.  1.
       -4    1    3    3    0  502  0.15963825979E+04  0.97975482707E+02  0.85769326715E+02  0.16016849205E+04  0.12699999809E+01 0. -1.
</event>
<event>
 5   0  0.2891204E-07  0.3199002E+04  0.7818609E-02  0.8189081E-01
        1   -1    0    0  501    0  0.00000000000E+00  0.00000000000E+00  0.28719542622E+04  0.28719542622E+04  0.50400001928E-02 0.  1.
       -1   -1    0    0    0  501  0.00000000000E+00  0.00000000000E+00 -0.89082299351E+03  0.89082299352E+03  0.50400001928E-02 0. -1.
    10030    2    1    2    0    0  0.00000000000E+00  0.00000000000E+00  0.19811312686E+04  0.37627772557E+04  0.31990016524E+04 0.  0.
        4    1    3    3  502    0  0.22228280047E+03 -0.16337569176E+03  0.28437608965E+04  0.28571102375E+04  0.12699999809E+01 0.  1.
       -4    1    3    3    0  502 -0.22228280047E+03  0.16337569176E+03 -0.86262962785E+03  0.90566701816E+03  0.12699999809E+01 0. -1.
</event>
<event>
 5   0  0.2997105E-07  0.3196719E+04  0.7818609E-02  0.8189684E-01
        1   -1    0    0  501    0  0.00000000000E+00  0.00000000000E+00  0.16917848581E+04  0.16917848581E+04  0.50400001928E-02 0.  1.
       -1   -1    0    0    0  501  0.00000000000E+00  0.00000000000E+00 -0.15100931536E+04  0.15100931536E+04  0.50400001928E-02 0. -1.
    10030    2    1    2    0    0  0.00000000000E+00  0.00000000000E+00  0.18169170452E+03  0.32018780117E+04  0.31967187750E+04 0.  0.
        3    1    3    3  502    0  0.75868661442E+03 -0.13790846846E+04  0.36927429922E+03  0.16167385269E+04  0.10100000352E+00 0.  1.
       -3    1    3    3    0  502 -0.75868661442E+03  0.13790846846E+04 -0.18758259469E+03  0.15851394848E+04  0.10100000352E+00 0. -1.
</event>
<event>
 5   0  0.8838951E-07  0.3183876E+04  0.7818609E-02  0.8193088E-01
        2   -1    0    0  501    0  0.00000000000E+00  0.00000000000E+00  0.11012683876E+04  0.11012683876E+04  0.25500000920E-02 0. -1.
       -2   -1    0    0    0  501  0.00000000000E+00  0.00000000000E+00 -0.23012255448E+04  0.23012255448E+04  0.25500000920E-02 0.  1.
    10030    2    1    2    0    0  0.00000000000E+00  0.00000000000E+00 -0.11999571572E+04  0.34024939324E+04  0.31838762195E+04 0.  0.
        2    1    3    3  502    0  0.13060950649E+04 -0.87743703287E+03 -0.34153222363E+03  0.16101007189E+04  0.25500000920E-02 0. -1.
       -2    1    3    3    0  502 -0.13060950649E+04  0.87743703287E+03 -0.85842493356E+03  0.17923932135E+04  0.25500000920E-02 0.  1.
</event>
<event>
 5   0  0.2997105E-07  0.3240320E+04  0.7818609E-02  0.8178249E-01
        1   -1    0    0  501    0  0.00000000000E+00  0.00000000000E+00  0.18908529604E+04  0.18908529604E+04  0.50400001928E-02 0.  1.
       -1   -1    0    0    0  501  0.00000000000E+00  0.00000000000E+00 -0.13882195241E+04  0.13882195241E+04  0.50400001928E-02 0. -1.
    10030    2    1    2    0    0  0.00000000000E+00  0.00000000000E+00  0.50263343635E+03  0.32790724845E+04  0.32403203526E+04 0.  0.
        3    1    3    3  502    0 -0.14946254290E+04  0.62418326631E+03  0.21333029769E+03  0.16337134844E+04  0.10100000352E+00 0. -1.
       -3    1    3    3    0  502  0.14946254290E+04 -0.62418326631E+03  0.28930313866E+03  0.16453590001E+04  0.10100000352E+00 0.  1.
</event>
<event>
 5   0  0.8335929E-07  0.3187758E+04  0.7818609E-02  0.8192058E-01
        2   -1    0    0  501    0  0.00000000000E+00  0.00000000000E+00  0.19546083388E+04  0.19546083388E+04  0.25500000920E-02 0. -1.
       -2   -1    0    0    0  501  0.00000000000E+00  0.00000000000E+00 -0.12997231233E+04  0.12997231233E+04  0.25500000920E-02 0.  1.
    10030    2    1    2    0    0  0.00000000000E+00  0.00000000000E+00  0.65488521548E+03  0.32543314621E+04  0.31877576162E+04 0.  0.
        4    1    3    3  502    0  0.97867756115E+03  0.89963142772E+03  0.12251833558E+04  0.18078225418E+04  0.12699999809E+01 0. -1.
       -4    1    3    3    0  502 -0.97867756115E+03 -0.89963142772E+03 -0.57029814037E+03  0.14465089202E+04  0.12699999809E+01 0.  1.
</event>
<event>
 5   0  0.8195618E-07  0.3216285E+04  0.7818609E-02  0.8184529E-01
       -2   -1    0    0    0  501  0.00000000000E+00  0.00000000000E+00  0.22121205480E+04  0.22121205480E+04  0.25500000920E-02 0. -1.
        2   -1    0    0  501    0  0.00000000000E+00  0.00000000000E+00 -0.11690696495E+04  0.11690696495E+04  0.25500000920E-02 0.  1.
    10030    2    1    2    0    0  0.00000000000E+00  0.00000000000E+00  0.10430508985E+04  0.33811901975E+04  0.32162854312E+04 0.  0.
        1    1    3    3  502    0  0.13225978164E+03  0.57819078386E+02 -0.11622455423E+04  0.11711747932E+04  0.50400001928E-02 0.  1.
       -1    1    3    3    0  502 -0.13225978164E+03 -0.57819078386E+02  0.22052964408E+04  0.22100154043E+04  0.50400001928E-02 0. -1.
</event>
<event>
 5   0  0.8195618E-07  0.3215383E+04  0.7818609E-02  0.8184766E-01
        2   -1    0    0  501    0  0.00000000000E+00  0.00000000000E+00  0.17775939043E+04  0.17775939044E+04  0.25500000920E-02 0. -1.
       -2   -1    0    0    0  501  0.00000000000E+00  0.00000000000E+00 -0.14540284748E+04  0.14540284748E+04  0.25500000920E-02 0.  1.
    10030    2    1    2    0    0  0.00000000000E+00  0.00000000000E+00  0.32356542957E+03  0.32316223791E+04  0.32153831209E+04 0.  0.
        1    1    3    3  502    0  0.12910311512E+04  0.99276493922E+02 -0.79594913872E+03  0.15199185133E+04  0.50400001928E-02 0.  1.
       -1    1    3    3    0  502 -0.12910311512E+04 -0.99276493922E+02  0.11195145683E+04  0.17117038658E+04  0.50400001928E-02 0. -1.
</event>
<event>
 5   0  0.8488469E-07  0.3202488E+04  0.7818609E-02  0.8188161E-01
        2   -1    0    0  501    0  0.00000000000E+00  0.00000000000E+00  0.21882312285E+04  0.21882312285E+04  0.25500000920E-02 0.  1.
       -2   -1    0    0    0  501  0.00000000000E+00  0.00000000000E+00 -0.11717142239E+04  0.11717142239E+04  0.25500000920E-02 0. -1.
    10030    2    1    2    0    0  0.00000000000E+00  0.00000000000E+00  0.10165170046E+04  0.33599454524E+04  0.32024875679E+04 0.  0.
        3    1    3    3  502    0  0.14027133574E+04  0.42444494867E+03  0.11851327697E+04  0.18847540873E+04  0.10100000352E+00 0.  1.
       -3    1    3    3    0  502 -0.14027133574E+04 -0.42444494867E+03 -0.16861576512E+03  0.14751913652E+04  0.10100000352E+00 0. -1.
</event>
<event>
 5   0  0.8802800E-07  0.3096858E+04  0.7818609E-02  0.8216601E-01
        2   -1    0    0  501    0  0.00000000000E+00  0.00000000000E+00  0.15496037086E+04  0.15496037086E+04  0.25500000920E-02 0.  1.
       -2   -1    0    0    0  501  0.00000000000E+00  0.00000000000E+00 -0.15472553735E+04  0.15472553735E+04  0.25500000920E-02 0. -1.
    10030    2    1    2    0    0  0.00000000000E+00  0.00000000000E+00  0.23483350710E+01  0.30968590822E+04  0.30968581918E+04 0.  0.
        5    1    3    3  502    0 -0.91277625060E+03  0.11610053083E+04  0.46648792193E+03  0.15487823865E+04  0.46999998093E+01 0.  1.
       -5    1    3    3    0  502  0.91277625060E+03 -0.11610053083E+04 -0.46413958686E+03  0.15480766956E+04  0.46999998093E+01 0. -1.
</event>
<event>
 5   0  0.2997105E-07  0.3149670E+04  0.7818609E-02  0.8202237E-01
        1   -1    0    0  501    0  0.00000000000E+00  0.00000000000E+00  0.12539969653E+04  0.12539969653E+04  0.50400001928E-02 0. -1.
       -1   -1    0    0    0  501  0.00000000000E+00  0.00000000000E+00 -0.19777600045E+04  0.19777600045E+04  0.50400001928E-02 0.  1.
    10030    2    1    2    0    0  0.00000000000E+00  0.00000000000E+00 -0.72376303923E+03  0.32317569698E+04  0.31496698518E+04 0.  0.
        3    1    3    3  502    0  0.11982429581E+04 -0.24990098648E+03 -0.13785989985E+04  0.18435758457E+04  0.10100000352E+00 0.  1.
       -3    1    3    3    0  502 -0.11982429581E+04  0.24990098648E+03  0.65483595930E+03  0.13881811242E+04  0.10100000352E+00 0. -1.
</event>
<event>
 5   0  0.2891204E-07  0.3194592E+04  0.7818609E-02  0.8190247E-01
        1   -1    0    0  501    0  0.00000000000E+00  0.00000000000E+00  0.12381099135E+04  0.12381099135E+04  0.50400001928E-02 0. -1.
       -1   -1    0    0    0  501  0.00000000000E+00  0.00000000000E+00 -0.20606846009E+04  0.20606846009E+04  0.50400001928E-02 0.  1.
    10030    2    1    2    0    0  0.00000000000E+00  0.00000000000E+00 -0.82257468740E+03  0.32987945144E+04  0.31945917003E+04 0.  0.
        4    1    3    3  502    0  0.81147149888E+03  0.13189852557E+04 -0.81538874285E+03  0.17501624248E+04  0.12699999809E+01 0.  1.
       -4    1    3    3    0  502 -0.81147149888E+03 -0.13189852557E+04 -0.71859445529E+01  0.15486320896E+04  0.12699999809E+01 0. -1.
</event>
<event>
 5   0  0.8335929E-07  0.3202337E+04  0.7818609E-02  0.8188200E-01
       -2   -1    0    0    0  501  0.00000000000E+00  0.00000000000E+00  0.14249264269E+04  0.14249264269E+04  0.25500000920E-02 0. -1.
        2   -1    0    0  501    0  0.00000000000E+00  0.00000000000E+00 -0.17992094532E+04  0.17992094532E+04  0.25500000920E-02 0.  1.
    10030    2    1    2    0    0  0.00000000000E+00  0.00000000000E+00 -0.37428302624E+03  0.32241358801E+04  0.32023373323E+04 0.  0.
        4    1    3    3  502    0  0.94727483748E+03  0.78618261769E+03  0.84370639517E+03  0.14923990151E+04  0.12699999809E+01 0. -1.
       -4    1    3    3    0  502 -0.94727483748E+03 -0.78618261769E+03 -0.12179894214E+04  0.17317368650E+04  0.12699999809E+01 0.  1.
</event>
<event>
 5   0  0.2997105E-07  0.3204658E+04  0.7818609E-02  0.8187588E-01
        1   -1    0    0  501    0  0.00000000000E+00  0.00000000000E+00  0.15608412827E+04  0.15608412827E+04  0.50400001928E-02 0. -1.
       -1   -1    0    0    0  501  0.00000000000E+00  0.00000000000E+00 -0.16449197147E+04  0.16449197147E+04  0.50400001928E-02 0.  1.
    10030    2    1    2    0    0  0.00000000000E+00  0.00000000000E+00 -0.84078431938E+02  0.32057609974E+04  0.32046582329E+04 0.  0.
        3    1    3    3  502    0 -0.12922152311E+04 -0.59160535016E+03  0.69824347285E+03  0.15834648880E+04  0.10100000352E+00 0. -1.
       -3    1    3    3    0  502  0.12922152311E+04  0.59160535016E+03 -0.78232190479E+03  0.16222961094E+04  0.10100000352E+00 0.  1.
</event>
<event>
 5   0  0.2783875E-07  0.3199230E+04  0.7818609E-02  0.8189021E-01
        1   -1    0    0  501    0  0.00000000000E+00  0.00000000000E+00  0.25502380175E+04  0.25502380175E+04  0.50400001928E-02 0. -1.
       -1   -1    0    0    0  501  0.00000000000E+00  0.00000000000E+00 -0.10033447242E+04  0.10033447242E+04  0.50400001928E-02 0.  1.
    10030    2    1    2    0    0  0.00000000000E+00  0.00000000000E+00  0.15468932933E+04  0.35535827417E+04  0.31992298200E+04 0.  0.
        2    1    3    3  502    0  0.11367938248E+04 -0.64520303277E+03 -0.25073411896E+03  0.13309600866E+04  0.25500000920E-02 0.  1.
       -2    1    3    3    0  502 -0.11367938248E+04  0.64520303277E+03  0.17976274123E+04  0.22226226551E+04  0.25500000920E-02 0. -1.
</event>
<event>
 5   0  0.2997105E-07  0.3214852E+04  0.7818609E-02  0.8184906E-01
        1   -1    0    0  501    0  0.00000000000E+00  0.00000000000E+00  0.23049057312E+04  0.23049057312E+04  0.50400001928E-02 0.  1.
       -1   -1    0    0    0  501  0.00000000000E+00  0.00000000000E+00 -0.11210080911E+04  0.11210080911E+04  0.50400001928E-02 0. -1.
    10030    2    1    2    0    0  0.00000000000E+00  0.00000000000E+00  0.11838976401E+04  0.34259138223E+04  0.32148517689E+04 0.  0.
        3    1    3    3  502    0  0.14470332928E+04  0.13063316574E+03 -0.14083533608E+03  0.14597277063E+04  0.10100000352E+00 0. -1.
       -3    1    3    3    0  502 -0.14470332928E+04 -0.13063316574E+03  0.13247329762E+04  0.19661861160E+04  0.10100000352E+00 0.  1.
</event>
<event>
 5   0  0.2997105E-07  0.3195511E+04  0.7818609E-02  0.8190004E-01
       -1   -1    0    0    0  501  0.00000000000E+00  0.00000000000E+00  0.17087422096E+04  0.17087422096E+04  0.50400001928E-02 0.  1.
        1   -1    0    0  501    0  0.00000000000E+00  0.00000000000E+00 -0.14939780914E+04  0.14939780914E+04  0.50400001928E-02 0. -1.
    10030    2    1    2    0    0  0.00000000000E+00  0.00000000000E+00  0.21476411821E+03  0.32027203010E+04  0.31955114927E+04 0.  0.
        3    1    3    3  502    0 -0.10633462708E+04  0.11353055792E+04  0.47317027159E+03  0.16258887311E+04  0.10100000352E+00 0.  1.
       -3    1    3    3    0  502  0.10633462708E+04 -0.11353055792E+04 -0.25840615338E+03  0.15768315699E+04  0.10100000352E+00 0. -1.
</event>
<event>
 5   0  0.3075756E-07  0.3188730E+04  0.7818609E-02  0.8191800E-01
       -1   -1    0    0    0  501  0.00000000000E+00  0.00000000000E+00  0.99103914610E+03  0.99103914611E+03  0.50400001928E-02 0.  1.
        1   -1    0    0  501    0  0.00000000000E+00  0.00000000000E+00 -0.25649847713E+04  0.25649847713E+04  0.50400001928E-02 0. -1.
    10030    2    1    2    0    0  0.00000000000E+00  0.00000000000E+00 -0.15739456252E+04  0.35560239174E+04  0.31887303539E+04 0.  0.
        5    1    3    3  502    0 -0.13179468431E+04  0.34234829341E+03 -0.17118316164E+04  0.21873673236E+04  0.46999998093E+01 0. -1.
       -5    1    3    3    0  502  0.13179468431E+04 -0.34234829341E+03  0.13788599128E+03  0.13686565938E+04  0.46999998093E+01 0.  1.
</event>
<event>
 5   0  0.2783875E-07  0.3185060E+04  0.7818609E-02  0.8192774E-01
       -1   -1    0    0    0  501  0.00000000000E+00  0.00000000000E+00  0.13323946012E+04  0.13323946012E+04  0.50400001928E-02 0.  1.
        1   -1    0    0  501    0  0.00000000000E+00  0.00000000000E+00 -0.19034538257E+04  0.19034538257E+04  0.50400001928E-02 0. -1.
    10030    2    1    2    0    0  0.00000000000E+00  0.00000000000E+00 -0.57105922454E+03  0.32358484269E+04  0.31850598745E+04 0.  0.
        2    1    3    3  502    0 -0.15189979483E+04 -0.31768918522E+03  0.77762198395E+02  0.15538108459E+04  0.25500000920E-02 0.  1.
       -2    1    3    3    0  502  0.15189979483E+04  0.31768918522E+03 -0.64882142293E+03  0.16820375811E+04  0.25500000920E-02 0. -1.
</event>
<event>
 5   0  0.2783875E-07  0.3202452E+04  0.7818609E-02  0.8188170E-01
        1   -1    0    0  501    0  0.00000000000E+00  0.00000000000E+00  0.16153774606E+04  0.16153774606E+04  0.50400001928E-02 0. -1.
       -1   -1    0    0    0  501  0.00000000000E+00  0.00000000000E+00 -0.15871986268E+04  0.15871986268E+04  0.50400001928E-02 0.  1.
    10030    2    1    2    0    0  0.00000000000E+00  0.00000000000E+00  0.28178833806E+02  0.32025760874E+04  0.32024521150E+04 0.  0.
        2    1    3    3  502    0  0.14820039844E+04  0.29461413207E+03 -0.51582881351E+03  0.15966253980E+04  0.25500000920E-02 0. -1.
       -2    1    3    3    0  502 -0.14820039844E+04 -0.29461413207E+03  0.54400764732E+03  0.16059506895E+04  0.25500000920E-02 0.  1.
</event>
<event>
 5   0  0.8802800E-07  0.3191272E+04  0.7818609E-02  0.8191126E-01
       -2   -1    0    0    0  501  0.00000000000E+00  0.00000000000E+00  0.25088173560E+04  0.25088173560E+04  0.25500000920E-02 0.  1.
        2   -1    0    0  501    0  0.00000000000E+00  0.00000000000E+00 -0.10148424845E+04  0.10148424845E+04  0.25500000920E-02 0. -1.
    10030    2    1    2    0    0  0.00000000000E+00  0.00000000000E+00  0.14939748715E+04  0.35236598405E+04  0.31912721218E+04 0.  0.
        5    1    3    3  502    0 -0.70888508408E+03 -0.13617687821E+04  0.12271363861E+04  0.19654053216E+04  0.46999998093E+01 0. -1.
       -5    1    3    3    0  502  0.70888508408E+03  0.13617687821E+04  0.26683848539E+03  0.15582545189E+04  0.46999998093E+01 0.  1.
</event>
<event>
 5   0  0.2997105E-07  0.3174961E+04  0.7818609E-02  0.8195461E-01
        1   -1    0    0  501    0  0.00000000000E+00  0.00000000000E+00  0.21594679670E+04  0.21594679670E+04  0.50400001928E-02 0.  1.
       -1   -1    0    0    0  501  0.00000000000E+00  0.00000000000E+00 -0.11669979639E+04  0.11669979639E+04  0.50400001928E-02 0. -1.
    10030    2    1    2    0    0  0.00000000000E+00  0.00000000000E+00  0.99247000317E+03  0.33264659309E+04  0.31749612411E+04 0.  0.
        3    1    3    3  502    0  0.87425722767E+03  0.22977344599E+03  0.18634869637E+04  0.20711603537E+04  0.10100000352E+00 0.  1.
       -3    1    3    3    0  502 -0.87425722767E+03 -0.22977344599E+03 -0.87101696051E+03  0.12553055773E+04  0.10100000352E+00 0. -1.
</event>
<event>
 5   0  0.8802800E-07  0.3171652E+04  0.7818609E-02  0.8196344E-01
        2   -1    0    0  501    0  0.00000000000E+00  0.00000000000E+00  0.16950071811E+04  0.16950071811E+04  0.25500000920E-02 0.  1.
       -2   -1    0    0    0  501  0.00000000000E+00  0.00000000000E+00 -0.14836771110E+04  0.14836771110E+04  0.25500000920E-02 0. -1.
    10030    2    1    2    0    0  0.00000000000E+00  0.00000000000E+00  0.21133007010E+03  0.31786842921E+04  0.31716515304E+04 0.  0.
        5    1    3    3  502    0  0.14281350076E+03  0.14702382201E+04 -0.47252419415E+03  0.15509021001E+04  0.46999998093E+01 0. -1.
       -5    1    3    3    0  502 -0.14281350076E+03 -0.14702382201E+04  0.68385426425E+03  0.16277821920E+04  0.46999998093E+01 0.  1.
</event>
<event>
 5   0  0.2997105E-07  0.3201488E+04  0.7818609E-02  0.8188424E-01
        1   -1    0    0  501    0  0.00000000000E+00  0.00000000000E+00  0.16271313303E+04  0.16271313303E+04  0.50400001928E-02 0.  1.
       -1   -1    0    0    0  501  0.00000000000E+00  0.00000000000E+00 -0.15747848657E+04  0.15747848657E+04  0.50400001928E-02 0. -1.
    10030    2    1    2    0    0  0.00000000000E+00  0.00000000000E+00  0.52346464613E+02  0.32019161961E+04  0.32014882749E+04 0.  0.
        3    1    3    3  502    0  0.12696910678E+04  0.23082977803E+03  0.97339221056E+03  0.16164436891E+04  0.10100000352E+00 0.  1.
       -3    1    3    3    0  502 -0.12696910678E+04 -0.23082977803E+03 -0.92104574595E+03  0.15854725070E+04  0.10100000352E+00 0. -1.
</event>
<event>
 5   0  0.8335929E-07  0.3170439E+04  0.7818609E-02  0.8196668E-01
        2   -1    0    0  501    0  0.00000000000E+00  0.00000000000E+00  0.24815298450E+04  0.24815298450E+04  0.25500000920E-02 0. -1.
       -2   -1    0    0    0  501  0.00000000000E+00  0.00000000000E+00 -0.10126500890E+04  0.10126500890E+04  0.25500000920E-02 0.  1.
    10030    2    1    2    0    0  0.00000000000E+00  0.00000000000E+00  0.14688797560E+04  0.34941799339E+04  0.31704393502E+04 0.  0.
        4    1    3    3  502    0  0.94105661271E+03 -0.35659383382E+03  0.20843240399E+04  0.23145528784E+04  0.12699999809E+01 0. -1.
       -4    1    3    3    0  502 -0.94105661271E+03  0.35659383382E+03 -0.61544428393E+03  0.11796270555E+04  0.12699999809E+01 0.  1.
</event>
<event>
 5   0  0.2891204E-07  0.3211568E+04  0.7818609E-02  0.8185769E-01
        1   -1    0    0  501    0  0.00000000000E+00  0.00000000000E+00  0.18854812006E+04  0.18854812006E+04  0.50400001928E-02 0. -1.
       -1   -1    0    0    0  501  0.00000000000E+00  0.00000000000E+00 -0.13675781808E+04  0.13675781808E+04  0.50400001928E-02 0.  1.
    10030    2    1    2    0    0  0.00000000000E+00  0.00000000000E+00  0.51790301973E+03  0.32530593814E+04  0.32115684332E+04 0.  0.
        4    1    3    3  502    0 -0.10143031127E+04 -0.50403567127E+03 -0.89403293759E+03  0.14429689078E+04  0.12699999809E+01 0.  1.
       -4    1    3    3    0  502  0.10143031127E+04  0.50403567127E+03  0.14119359573E+04  0.18100904737E+04  0.12699999809E+01 0. -1.
</event>
<event>
 5   0  0.8335929E-07  0.3188998E+04  0.7818609E-02  0.8191729E-01
       -2   -1    0    0    0  501  0.00000000000E+00  0.00000000000E+00  0.13576575103E+04  0.13576575103E+04  0.25500000920E-02 0. -1.
        2   -1    0    0  501    0  0.00000000000E+00  0.00000000000E+00 -0.18726570188E+04  0.18726570188E+04  0.25500000920E-02 0.  1.
    10030    2    1    2    0    0  0.00000000000E+00  0.00000000000E+00 -0.51499950850E+03  0.32303145290E+04  0.31889978775E+04 0.  0.
        4    1    3    3  502    0  0.12385935565E+04  0.66255427821E+03 -0.10218172322E+04  0.17370101435E+04  0.12699999809E+01 0.  1.
       -4    1    3    3    0  502 -0.12385935565E+04 -0.66255427821E+03  0.50681772369E+03  0.14933043855E+04  0.12699999809E+01 0. -1.
</event>
<event>
 5   0  0.8838951E-07  0.3215766E+04  0.7818609E-02  0.8184666E-01
        2   -1    0    0  501    0  0.00000000000E+00  0.00000000000E+00  0.20763236939E+04  0.20763236939E+04  0.25500000920E-02 0. -1.
       -2   -1    0    0    0  501  0.00000000000E+00  0.00000000000E+00 -0.12451273806E+04  0.12451273806E+04  0.25500000920E-02 0.  1.
    10030    2    1    2    0    0  0.00000000000E+00  0.00000000000E+00  0.83119631337E+03  0.33214510745E+04  0.32157658387E+04 0.  0.
        2    1    3    3  502    0 -0.12347255578E+03 -0.13873237858E+04  0.12453522781E+04  0.18683723011E+04  0.25500000920E-02 0. -1.
       -2    1    3    3    0  502  0.12347255578E+03  0.13873237858E+04 -0.41415596474E+03  0.14530787735E+04  0.25500000920E-02 0.  1.
</event>
<event>
 5   0  0.3013888E-07  0.3212799E+04  0.7818609E-02  0.8185445E-01
       -1   -1    0    0    0  501  0.00000000000E+00  0.00000000000E+00  0.14927323539E+04  0.14927323540E+04  0.50400001928E-02 0. -1.
        1   -1    0    0  501    0  0.00000000000E+00  0.00000000000E+00 -0.17287221550E+04  0.17287221550E+04  0.50400001928E-02 0.  1.
    10030    2    1    2    0    0  0.00000000000E+00  0.00000000000E+00 -0.23598980104E+03  0.32214545089E+04  0.32127990860E+04 0.  0.
        1    1    3    3  502    0 -0.69986409215E+03 -0.57554648048E+03  0.12120234706E+04  0.15132958706E+04  0.50400001928E-02 0. -1.
       -1    1    3    3    0  502  0.69986409215E+03  0.57554648048E+03 -0.14480132717E+04  0.17081586383E+04  0.50400001928E-02 0.  1.
</event>
<event>
 5   0  0.2783875E-07  0.3187902E+04  0.7818609E-02  0.8192020E-01
        3   -1    0    0  501    0  0.00000000000E+00  0.00000000000E+00  0.14793223619E+04  0.14793223653E+04  0.10100000352E+00 0.  1.
       -3   -1    0    0    0  501  0.00000000000E+00  0.00000000000E+00 -0.17174616394E+04  0.17174616424E+04  0.10100000352E+00 0. -1.
    10030    2    1    2    0    0  0.00000000000E+00  0.00000000000E+00 -0.23813927756E+03  0.31967840077E+04  0.31879017671E+04 0.  0.
        3    1    3    3  502    0 -0.12374643071E+04 -0.16213692546E+02 -0.11264075253E+04  0.16734320178E+04  0.10100000352E+00 0. -1.
       -3    1    3    3    0  502  0.12374643071E+04  0.16213692546E+02  0.88826824771E+03  0.15233519899E+04  0.10100000352E+00 0.  1.
</event>
<event>
 5   0  0.3013888E-07  0.3190132E+04  0.7818609E-02  0.8191428E-01
        1   -1    0    0  501    0  0.00000000000E+00  0.00000000000E+00  0.17296856290E+04  0.17296856290E+04  0.50400001928E-02 0. -1.
       -1   -1    0    0    0  501  0.00000000000E+00  0.00000000000E+00 -0.14709234269E+04  0.14709234269E+04  0.50400001928E-02 0.  1.
    10030    2    1    2    0    0  0.00000000000E+00  0.00000000000E+00  0.25876220210E+03  0.32006090559E+04  0.31901317294E+04 0.  0.
        1    1    3    3  502    0 -0.78557126012E+03  0.46658415303E+03 -0.11823578191E+04  0.14942533215E+04  0.50400001928E-02 0.  1.
       -1    1    3    3    0  502  0.78557126012E+03 -0.46658415303E+03  0.14411200212E+04  0.17063557343E+04  0.50400001928E-02 0. -1.
</event>
<event>
 5   0  0.8802800E-07  0.3196968E+04  0.7818609E-02  0.8189618E-01
       -2   -1    0    0    0  501  0.00000000000E+00  0.00000000000E+00  0.90969712697E+03  0.90969712698E+03  0.25500000920E-02 0.  1.
        2   -1    0    0  501    0  0.00000000000E+00  0.00000000000E+00 -0.28087939550E+04  0.28087939550E+04  0.25500000920E-02 0. -1.
    10030    2    1    2    0    0  0.00000000000E+00  0.00000000000E+00 -0.18990968281E+04  0.37184910820E+04  0.31969684335E+04 0.  0.
        5    1    3    3  502    0  0.13183289983E+04  0.61226678947E+03 -0.17230674808E+04  0.22542949236E+04  0.46999998093E+01 0. -1.
       -5    1    3    3    0  502 -0.13183289983E+04 -0.61226678947E+03 -0.17602934726E+03  0.14641961584E+04  0.46999998093E+01 0.  1.
</event>
<event>
 5   0  0.8488469E-07  0.3232780E+04  0.7818609E-02  0.8180213E-01
       -2   -1    0    0    0  501  0.00000000000E+00  0.00000000000E+00  0.11749619565E+04  0.11749619565E+04  0.25500000920E-02 0.  1.
        2   -1    0    0  501    0  0.00000000000E+00  0.00000000000E+00 -0.22236601100E+04  0.22236601100E+04  0.25500000920E-02 0. -1.
    10030    2    1    2    0    0  0.00000000000E+00  0.00000000000E+00 -0.10486981535E+04  0.33986220665E+04  0.32327796296E+04 0.  0.
        3    1    3    3  502    0 -0.13667361553E+04 -0.68200553815E+03  0.31565887358E+02  0.15277747503E+04  0.10100000352E+00 0. -1.
       -3    1    3    3    0  502  0.13667361553E+04  0.68200553815E+03 -0.10802640408E+04  0.18708473162E+04  0.10100000352E+00 0.  1.
</event>
<event>
 5   0  0.8488469E-07  0.3192152E+04  0.7818609E-02  0.8190893E-01
       -2   -1    0    0    0  501  0.00000000000E+00  0.00000000000E+00  0.14173794617E+04  0.14173794617E+04  0.25500000920E-02 0. -1.
        2   -1    0    0  501    0  0.00000000000E+00  0.00000000000E+00 -0.17973021944E+04  0.17973021945E+04  0.25500000920E-02 0.  1.
    10030    2    1    2    0    0  0.00000000000E+00  0.00000000000E+00 -0.37992273273E+03  0.32146816562E+04  0.31921523879E+04 0.  0.
        3    1    3    3  502    0  0.13322658476E+04 -0.12208902681E+03  0.68659613797E+03  0.15037460843E+04  0.10100000352E+00 0. -1.
       -3    1    3    3    0  502 -0.13322658476E+04  0.12208902681E+03 -0.10665188707E+04  0.17109355718E+04  0.10100000352E+00 0.  1.
</event>
<event>
 5   0  0.2783875E-07  0.3206536E+04  0.7818609E-02  0.8187093E-01
        1   -1    0    0  501    0  0.00000000000E+00  0.00000000000E+00  0.14032609695E+04  0.14032609696E+04  0.50400001928E-02 0.  1.
       -1   -1    0    0    0  501  0.00000000000E+00  0.00000000000E+00 -0.18317826027E+04  0.18317826027E+04  0.50400001928E-02 0. -1.
    10030    2    1    2    0    0  0.00000000000E+00  0.00000000000E+00 -0.42852163319E+03  0.32350435723E+04  0.32065364686E+04 0.  0.
        2    1    3    3  502    0 -0.14406361961E+03  0.12508910962E+03 -0.18202885239E+04  0.18302600695E+04  0.25500000920E-02 0. -1.
       -2    1    3    3    0  502  0.14406361961E+03 -0.12508910962E+03  0.13917668907E+04  0.14047835028E+04  0.25500000920E-02 0.  1.
</event>
<event>
 5   0  0.8335929E-07  0.3208064E+04  0.7818609E-02  0.8186691E-01
        2   -1    0    0  501    0  0.00000000000E+00  0.00000000000E+00  0.21068337136E+04  0.21068337136E+04  0.25500000920E-02 0.  1.
       -2   -1    0    0    0  501  0.00000000000E+00  0.00000000000E+00 -0.12212250358E+04  0.12212250358E+04  0.25500000920E-02 0. -1.
    10030    2    1    2    0    0  0.00000000000E+00  0.00000000000E+00  0.88560867786E+03  0.33280587494E+04  0.32080636386E+04 0.  0.
        4    1    3    3  502    0 -0.13383802654E+04  0.52150963412E+03 -0.29781976321E+03  0.14669465762E+04  0.12699999809E+01 0. -1.
       -4    1    3    3    0  502  0.13383802654E+04 -0.52150963412E+03  0.11834284411E+04  0.18611121732E+04  0.12699999809E+01 0.  1.
</event>
<event>
 5   0  0.3013888E-07  0.3203300E+04  0.7818609E-02  0.8187946E-01
        1   -1    0    0  501    0  0.00000000000E+00  0.00000000000E+00  0.15056110450E+04  0.15056110450E+04  0.50400001928E-02 0. -1.
       -1   -1    0    0    0  501  0.00000000000E+00  0.00000000000E+00 -0.17038154998E+04  0.17038154998E+04  0.50400001928E-02 0.  1.
    10030    2    1    2    0    0  0.00000000000E+00  0.00000000000E+00 -0.19820445488E+03  0.32094265448E+04  0.32033004450E+04 0.  0.
        1    1    3    3  502    0 -0.56622125169E+03  0.59296172283E+03 -0.14776235377E+04  0.16898465699E+04  0.50400001928E-02 0.  1.
       -1    1    3    3    0  502  0.56622125169E+03 -0.59296172283E+03  0.12794190828E+04  0.15195799749E+04  0.50400001928E-02 0. -1.
</event>
<event>
 5   0  0.8488469E-07  0.3188641E+04  0.7818609E-02  0.8191824E-01
        2   -1    0    0  501    0  0.00000000000E+00  0.00000000000E+00  0.14067858004E+04  0.14067858004E+04  0.25500000920E-02 0. -1.
       -2   -1    0    0    0  501  0.00000000000E+00  0.00000000000E+00 -0.18068547796E+04  0.18068547796E+04  0.25500000920E-02 0.  1.
    10030    2    1    2    0    0  0.00000000000E+00  0.00000000000E+00 -0.40006897922E+03  0.32136405800E+04  0.31886408686E+04 0.  0.
        3    1    3    3  502    0 -0.14955403840E+04  0.30219647478E+03  0.26607815180E+03  0.15487935119E+04  0.10100000352E+00 0. -1.
       -3    1    3    3    0  502  0.14955403840E+04 -0.30219647478E+03 -0.66614713101E+03  0.16648470680E+04  0.10100000352E+00 0.  1.
</event>
<event>
 5   0  0.3013888E-07  0.3194049E+04  0.7818609E-02  0.8190391E-01
       -1   -1    0    0    0  501  0.00000000000E+00  0.00000000000E+00  0.12530871633E+04  0.12530871633E+04  0.50400001928E-02 0.  1.
        1   -1    0    0  501    0  0.00000000000E+00  0.00000000000E+00 -0.20353624778E+04  0.20353624778E+04  0.50400001928E-02 0. -1.
    10030    2    1    2    0    0  0.00000000000E+00  0.00000000000E+00 -0.78227531452E+03  0.32884496411E+04  0.31940485867E+04 0.  0.
        1    1    3    3  502    0 -0.38217368988E+03 -0.15489203732E+04 -0.31635804381E+03  0.16264358160E+04  0.50400001928E-02 0.  1.
       -1    1    3    3    0  502  0.38217368988E+03  0.15489203732E+04 -0.46591727071E+03  0.16620138251E+04  0.50400001928E-02 0. -1.
</event>
<event>
 5   0  0.8802800E-07  0.3265609E+04  0.7818609E-02  0.8171702E-01
       -2   -1    0    0    0  501  0.00000000000E+00  0.00000000000E+00  0.10741029061E+04  0.10741029061E+04  0.25500000920E-02 0. -1.
        2   -1    0    0  501    0  0.00000000000E+00  0.00000000000E+00 -0.24821181829E+04  0.24821181830E+04  0.25500000920E-02 0.  1.
    10030    2    1    2    0    0  0.00000000000E+00  0.00000000000E+00 -0.14080152768E+04  0.35562210891E+04  0.32656088888E+04 0.  0.
        5    1    3    3  502    0 -0.74147112464E+03  0.11534706197E+04 -0.16693202597E+04  0.21603069501E+04  0.46999998093E+01 0.  1.
       -5    1    3    3    0  502  0.74147112464E+03 -0.11534706197E+04  0.26130498293E+03  0.13959141389E+04  0.46999998093E+01 0. -1.
</event>
<event>
 5   0  0.2891204E-07  0.3170379E+04  0.7818609E-02  0.8196684E-01
        1   -1    0    0  501    0  0.00000000000E+00  0.00000000000E+00  0.12478511250E+04  0.12478511250E+04  0.50400001928E-02 0.  1.
       -1   -1    0    0    0  501  0.00000000000E+00  0.00000000000E+00 -0.20137222468E+04  0.20137222468E+04  0.50400001928E-02 0. -1.
    10030    2    1    2    0    0  0.00000000000E+00  0.00000000000E+00 -0.76587112176E+03  0.32615733718E+04  0.31703788866E+04 0.  0.
        4    1    3    3  502    0  0.14960191579E+04 -0.49831011116E+03 -0.55020922775E+03  0.16700652966E+04  0.12699999809E+01 0.  1.
       -4    1    3    3    0  502 -0.14960191579E+04  0.49831011116E+03 -0.21566189401E+03  0.15915080751E+04  0.12699999809E+01 0. -1.
</event>
<event>
 5   0  0.8838951E-07  0.3183091E+04  0.7818609E-02  0.8193297E-01
        2   -1    0    0  501    0  0.00000000000E+00  0.00000000000E+00  0.13712980375E+04  0.13712980375E+04  0.25500000920E-02 0.  1.
       -2   -1    0    0    0  501  0.00000000000E+00  0.00000000000E+00 -0.18471676925E+04  0.18471676925E+04  0.25500000920E-02 0. -1.
    10030    2    1    2    0    0  0.00000000000E+00  0.00000000000E+00 -0.47586965498E+03  0.32184657301E+04  0.31830912219E+04 0.  0.
        2    1    3    3  502    0  0.58492124297E+03  0.37969484450E+03 -0.16844688030E+04  0.18231116761E+04  0.25500000920E-02 0. -1.
       -2    1    3    3    0  502 -0.58492124297E+03 -0.37969484450E+03  0.12085991480E+04  0.13953540540E+04  0.25500000920E-02 0.  1.
</event>
<event>
 5   0  0.8488469E-07  0.3178703E+04  0.7818609E-02  0.8194464E-01
        2   -1    0    0  501    0  0.00000000000E+00  0.00000000000E+00  0.10855582835E+04  0.10855582835E+04  0.25500000920E-02 0.  1.
       -2   -1    0    0    0  501  0.00000000000E+00  0.00000000000E+00 -0.23269485673E+04  0.23269485673E+04  0.25500000920E-02 0. -1.
    10030    2    1    2    0    0  0.00000000000E+00  0.00000000000E+00 -0.12413902838E+04  0.34125068508E+04  0.31787030641E+04 0.  0.
        3    1    3    3  502    0  0.45936855092E+03  0.35279484173E+03 -0.22096099563E+04  0.22842635213E+04  0.10100000352E+00 0. -1.
       -3    1    3    3    0  502 -0.45936855092E+03 -0.35279484173E+03  0.96821967251E+03  0.11282433294E+04  0.10100000352E+00 0.  1.
</event>
<event>
 5   0  0.3075756E-07  0.3194494E+04  0.7818609E-02  0.8190273E-01
        1   -1    0    0  501    0  0.00000000000E+00  0.00000000000E+00  0.23924625553E+04  0.23924625553E+04  0.50400001928E-02 0. -1.
       -1   -1    0    0    0  501  0.00000000000E+00  0.00000000000E+00 -0.10663479325E+04  0.10663479325E+04  0.50400001928E-02 0.  1.
    10030    2    1    2    0    0  0.00000000000E+00  0.00000000000E+00  0.13261146228E+04  0.34588104878E+04  0.31944936998E+04 0.  0.
        5    1    3    3  502    0  0.52482948961E+02  0.81230409902E+03  0.21510224946E+04  0.22998939696E+04  0.46999998093E+01 0. -1.
       -5    1    3    3    0  502 -0.52482948961E+02 -0.81230409902E+03 -0.82490787181E+03  0.11589165182E+04  0.46999998093E+01 0.  1.
</event>
<event>
 5   0  0.8802800E-07  0.3171315E+04  0.7818609E-02  0.8196434E-01
        2   -1    0    0  501    0  0.00000000000E+00  0.00000000000E+00  0.22222897920E+04  0.22222897920E+04  0.25500000920E-02 0. -1.
       -2   -1    0    0    0  501  0.00000000000E+00  0.00000000000E+00 -0.11314050832E+04  0.11314050832E+04  0.25500000920E-02 0.  1.
    10030    2    1    2    0    0  0.00000000000E+00  0.00000000000E+00  0.10908847088E+04  0.33536948752E+04  0.31713151638E+04 0.  0.
        5    1    3    3  502    0  0.13992200248E+04 -0.58407083561E+03  0.10361681552E+04  0.18364699710E+04  0.46999998093E+01 0. -1.
       -5    1    3    3    0  502 -0.13992200248E+04  0.58407083561E+03  0.54716553687E+02  0.15172249042E+04  0.46999998093E+01 0.  1.
</event>
<event>
 5   0  0.8335929E-07  0.3194659E+04  0.7818609E-02  0.8190229E-01
        2   -1    0    0  501    0  0.00000000000E+00  0.00000000000E+00  0.91430665944E+03  0.91430665945E+03  0.25500000920E-02 0.  1.
       -2   -1    0    0    0  501  0.00000000000E+00  0.00000000000E+00 -0.27905975394E+04  0.27905975394E+04  0.25500000920E-02 0. -1.
    10030    2    1    2    0    0  0.00000000000E+00  0.00000000000E+00 -0.18762908800E+04  0.37049041989E+04  0.31946592395E+04 0.  0.
        4    1    3    3  502    0  0.67898366905E+03  0.14001465354E+04 -0.51995302000E+03  0.16406650783E+04  0.12699999809E+01 0.  1.
       -4    1    3    3    0  502 -0.67898366905E+03 -0.14001465354E+04 -0.13563378600E+04  0.20642391205E+04  0.12699999809E+01 0. -1.
</event>
<event>
 5   0  0.8838951E-07  0.3202040E+04  0.7818609E-02  0.8188279E-01
        2   -1    0    0  501    0  0.00000000000E+00  0.00000000000E+00  0.24263156096E+04  0.24263156096E+04  0.25500000920E-02 0.  1.
       -2   -1    0    0    0  501  0.00000000000E+00  0.00000000000E+00 -0.10564433143E+04  0.10564433143E+04  0.25500000920E-02 0. -1.
    10030    2    1    2    0    0  0.00000000000E+00  0.00000000000E+00  0.13698722953E+04  0.34827589239E+04  0.32020399149E+04 0.  0.
        2    1    3    3  502    0  0.15214631481E+03  0.15937733419E+04  0.68680040908E+03  0.17421127312E+04  0.25500000920E-02 0.  1.
       -2    1    3    3    0  502 -0.15214631481E+03 -0.15937733419E+04  0.68307188625E+03  0.17406461927E+04  0.25500000920E-02 0. -1.
</event>
<event>
 5   0  0.2783875E-07  0.3212378E+04  0.7818609E-02  0.8185556E-01
       -1   -1    0    0    0  501  0.00000000000E+00  0.00000000000E+00  0.34863270976E+04  0.34863270976E+04  0.50400001928E-02 0. -1.
        1   -1    0    0  501    0  0.00000000000E+00  0.00000000000E+00 -0.73998868360E+03  0.73998868362E+03  0.50400001928E-02 0.  1.
    10030    2    1    2    0    0  0.00000000000E+00  0.00000000000E+00  0.27463384140E+04  0.42263157812E+04  0.32123776861E+04 0.  0.
        2    1    3    3  502    0  0.13003547124E+04  0.78971963182E+03  0.20507698094E+04  0.25534753349E+04  0.25500000920E-02 0. -1.
       -2    1    3    3    0  502 -0.13003547124E+04 -0.78971963182E+03  0.69556860457E+03  0.16728404463E+04  0.25500000920E-02 0.  1.
</event>
<event>
 5   0  0.8335929E-07  0.3190073E+04  0.7818609E-02  0.8191444E-01
       -2   -1    0    0    0  501  0.00000000000E+00  0.00000000000E+00  0.14255988333E+04  0.14255988333E+04  0.25500000920E-02 0.  1.
        2   -1    0    0  501    0  0.00000000000E+00  0.00000000000E+00 -0.17846128163E+04  0.17846128163E+04  0.25500000920E-02 0. -1.
    10030    2    1    2    0    0  0.00000000000E+00  0.00000000000E+00 -0.35901398298E+03  0.32102116496E+04  0.31900733213E+04 0.  0.
        4    1    3    3  502    0  0.77826903291E+03  0.53617001570E+02  0.12205207524E+04  0.14485337381E+04  0.12699999809E+01 0.  1.
       -4    1    3    3    0  502 -0.77826903291E+03 -0.53617001570E+02 -0.15795347354E+04  0.17616779115E+04  0.12699999809E+01 0. -1.
</event>
<event>
 5   0  0.8802800E-07  0.3219441E+04  0.7818609E-02  0.8183702E-01
       -2   -1    0    0    0  501  0.00000000000E+00  0.00000000000E+00  0.19733442921E+04  0.19733442921E+04  0.25500000920E-02 0. -1.
        2   -1    0    0  501    0  0.00000000000E+00  0.00000000000E+00 -0.13131005343E+04  0.13131005343E+04  0.25500000920E-02 0.  1.
    10030    2    1    2    0    0  0.00000000000E+00  0.00000000000E+00  0.66024375781E+03  0.32864448264E+04  0.32194406000E+04 0.  0.
        5    1    3    3  502    0  0.75418956055E+03 -0.49731194452E+03 -0.10299190998E+04  0.13699914253E+04  0.46999998093E+01 0.  1.
       -5    1    3    3    0  502 -0.75418956055E+03  0.49731194452E+03  0.16901628576E+04  0.19164534011E+04  0.46999998093E+01 0. -1.
</event>
<event>
 5   0  0.8335929E-07  0.3216480E+04  0.7818609E-02  0.8184478E-01
       -2   -1    0    0    0  501  0.00000000000E+00  0.00000000000E+00  0.14957134971E+04  0.14957134971E+04  0.25500000920E-02 0. -1.
        2   -1    0    0  501    0  0.00000000000E+00  0.00000000000E+00 -0.17292317082E+04  0.17292317082E+04  0.25500000920E-02 0.  1.
    10030    2    1    2    0    0  0.00000000000E+00  0.00000000000E+00 -0.23351821115E+03  0.32249452053E+04  0.32164795697E+04 0.  0.
        4    1    3    3  502    0  0.70044993434E+03 -0.68175189149E+03  0.11637152895E+04  0.15197534800E+04  0.12699999809E+01 0. -1.
       -4    1    3    3    0  502 -0.70044993434E+03  0.68175189149E+03 -0.13972335006E+04  0.17051917253E+04  0.12699999809E+01 0.  1.
</event>
<event>
 5   0  0.8838951E-07  0.3196798E+04  0.7818609E-02  0.8189663E-01
        2   -1    0    0  501    0  0.00000000000E+00  0.00000000000E+00  0.11852656736E+04  0.11852656736E+04  0.25500000920E-02 0.  1.
       -2   -1    0    0    0  501  0.00000000000E+00  0.00000000000E+00 -0.21555326124E+04  0.21555326124E+04  0.25500000920E-02 0. -1.
    10030    2    1    2    0    0  0.00000000000E+00  0.00000000000E+00 -0.97026693881E+03  0.33407982860E+04  0.31967976562E+04 0.  0.
        2    1    3    3  502    0  0.29475885662E+03 -0.13627887164E+04 -0.13018769321E+04  0.19076056761E+04  0.25500000920E-02 0. -1.
       -2    1    3    3    0  502 -0.29475885662E+03  0.13627887164E+04  0.33160999333E+03  0.14331926098E+04  0.25500000920E-02 0.  1.
</event>
<event>
 5   0  0.8802800E-07  0.3200078E+04  0.7818609E-02  0.8188796E-01
        2   -1    0    0  501    0  0.00000000000E+00  0.00000000000E+00  0.22634176884E+04  0.22634176884E+04  0.25500000920E-02 0.  1.
       -2   -1    0    0    0  501  0.00000000000E+00  0.00000000000E+00 -0.11310883040E+04  0.11310883040E+04  0.25500000920E-02 0. -1.
    10030    2    1    2    0    0  0.00000000000E+00  0.00000000000E+00  0.11323293844E+04  0.33945059923E+04  0.32000782955E+04 0.  0.
        5    1    3    3  502    0 -0.84654852097E+03  0.11937066912E+04  0.12524041776E+04  0.19261667573E+04  0.46999998093E+01 0.  1.
       -5    1    3    3    0  502  0.84654852097E+03 -0.11937066912E+04 -0.12007479319E+03  0.14683392350E+04  0.46999998093E+01 0. -1.
</event>
<event>
 5   0  0.3013888E-07  0.3298027E+04  0.7818609E-02  0.8163397E-01
        1   -1    0    0  501    0  0.00000000000E+00  0.00000000000E+00  0.31517682875E+04  0.31517682875E+04  0.50400001928E-02 0. -1.
       -1   -1    0    0    0  501  0.00000000000E+00  0.00000000000E+00 -0.86276844494E+03  0.86276844496E+03  0.50400001928E-02 0.  1.
    10030    2    1    2    0    0  0.00000000000E+00  0.00000000000E+00  0.22889998425E+04  0.40145367324E+04  0.32980274251E+04 0.  0.
        1    1    3    3  502    0 -0.15008092500E+03 -0.64884816463E+03  0.29807862273E+04  0.30542781074E+04  0.50400001928E-02 0. -1.
       -1    1    3    3    0  502  0.15008092500E+03  0.64884816463E+03 -0.69178638473E+03  0.96025862502E+03  0.50400001928E-02 0.  1.
</event>
<event>
 5   0  0.8488469E-07  0.3166562E+04  0.7818609E-02  0.8197704E-01
       -2   -1    0    0    0  501  0.00000000000E+00  0.00000000000E+00  0.19830353200E+04  0.19830353200E+04  0.25500000920E-02 0.  1.
        2   -1    0    0  501    0  0.00000000000E+00  0.00000000000E+00 -0.12641116574E+04  0.12641116574E+04  0.25500000920E-02 0. -1.
    10030    2    1    2    0    0  0.00000000000E+00  0.00000000000E+00  0.71892366261E+03  0.32471469775E+04  0.31665615833E+04 0.  0.
        3    1    3    3  502    0 -0.45792522797E+03 -0.52644181262E+03  0.18168774199E+04  0.19462476886E+04  0.10100000352E+00 0.  1.
       -3    1    3    3    0  502  0.45792522797E+03  0.52644181262E+03 -0.10979537572E+04  0.13008992889E+04  0.10100000352E+00 0. -1.
</event>
<event>
 5   0  0.3013888E-07  0.3210330E+04  0.7818609E-02  0.8186094E-01
       -1   -1    0    0    0  501  0.00000000000E+00  0.00000000000E+00  0.13013039018E+04  0.13013039018E+04  0.50400001928E-02 0. -1.
        1   -1    0    0  501    0  0.00000000000E+00  0.00000000000E+00 -0.19799788380E+04  0.19799788380E+04  0.50400001928E-02 0.  1.
    10030    2    1    2    0    0  0.00000000000E+00  0.00000000000E+00 -0.67867493618E+03  0.32812827397E+04  0.32103296948E+04 0.  0.
        1    1    3    3  502    0  0.34876809633E+02  0.12707875758E+04  0.66234113974E+03  0.14334619772E+04  0.50400001928E-02 0. -1.
       -1    1    3    3    0  502 -0.34876809633E+02 -0.12707875758E+04 -0.13410160759E+04  0.18478207626E+04  0.50400001928E-02 0.  1.
</event>
<event>
 5   0  0.8838951E-07  0.3209148E+04  0.7818609E-02  0.8186405E-01
       -2   -1    0    0    0  501  0.00000000000E+00  0.00000000000E+00  0.16981042809E+04  0.16981042809E+04  0.25500000920E-02 0. -1.
        2   -1    0    0  501    0  0.00000000000E+00  0.00000000000E+00 -0.15161956152E+04  0.15161956153E+04  0.25500000920E-02 0.  1.
    10030    2    1    2    0    0  0.00000000000E+00  0.00000000000E+00  0.18190866566E+03  0.32142998962E+04  0.32091483387E+04 0.  0.
        2    1    3    3  502    0 -0.26173581054E+03  0.14114148147E+04 -0.62717698622E+03  0.15665083421E+04  0.25500000920E-02 0.  1.
       -2    1    3    3    0  502  0.26173581054E+03 -0.14114148147E+04  0.80908565188E+03  0.16477915541E+04  0.25500000920E-02 0. -1.
</event>
<event>
 5   0  0.8802800E-07  0.3200465E+04  0.7818609E-02  0.8188694E-01
        2   -1    0    0  501    0  0.00000000000E+00  0.00000000000E+00  0.17915268969E+04  0.17915268969E+04  0.25500000920E-02 0.  1.
       -2   -1    0    0    0  501  0.00000000000E+00  0.00000000000E+00 -0.14293642112E+04  0.14293642112E+04  0.25500000920E-02 0. -1.
    10030    2    1    2    0    0  0.00000000000E+00  0.00000000000E+00  0.36216268574E+03  0.32208911081E+04  0.32004652348E+04 0.  0.
        5    1    3    3  502    0  0.74973991114E+03 -0.11233149429E+04 -0.68275336073E+03  0.15133144540E+04  0.46999998093E+01 0. -1.
       -5    1    3    3    0  502 -0.74973991114E+03  0.11233149429E+04  0.10449160465E+04  0.17075766540E+04  0.46999998093E+01 0.  1.
</event>
<event>
 5   0  0.3013888E-07  0.3190991E+04  0.7818609E-02  0.8191201E-01
        1   -1    0    0  501    0  0.00000000000E+00  0.00000000000E+00  0.12330228811E+04  0.12330228811E+04  0.50400001928E-02 0. -1.
       -1   -1    0    0    0  501  0.00000000000E+00  0.00000000000E+00 -0.20645239851E+04  0.20645239851E+04  0.50400001928E-02 0.  1.
    10030    2    1    2    0    0  0.00000000000E+00  0.00000000000E+00 -0.83150110401E+03  0.32975468662E+04  0.31909906376E+04 0.  0.
        1    1    3    3  502    0  0.12099438793E+04 -0.89923788552E+03 -0.95570433768E+03  0.17849268184E+04  0.50400001928E-02 0.  1.
       -1    1    3    3    0  502 -0.12099438793E+04  0.89923788552E+03  0.12420323367E+03  0.15126200479E+04  0.50400001928E-02 0. -1.
</event>
<event>
 5   0  0.2891204E-07  0.3205164E+04  0.7818609E-02  0.8187455E-01
       -1   -1    0    0    0  501  0.00000000000E+00  0.00000000000E+00  0.19336872714E+04  0.19336872714E+04  0.50400001928E-02 0.  1.
        1   -1    0    0  501    0  0.00000000000E+00  0.00000000000E+00 -0.13281722209E+04  0.13281722210E+04  0.50400001928E-02 0. -1.
    10030    2    1    2    0    0  0.00000000000E+00  0.00000000000E+00  0.60551505046E+03  0.32618594924E+04  0.32051644063E+04 0.  0.
        4    1    3    3  502    0 -0.74502871295E+03 -0.36794089918E+03 -0.10918175444E+04  0.13720479042E+04  0.12699999809E+01 0. -1.
       -4    1    3    3    0  502  0.74502871295E+03  0.36794089918E+03  0.16973325948E+04  0.18898115882E+04  0.12699999809E+01 0.  1.
</event>
<event>
 5   0  0.3075756E-07  0.3199164E+04  0.7818609E-02  0.8189038E-01
       -1   -1    0    0    0  501  0.00000000000E+00  0.00000000000E+00  0.99962269542E+03  0.99962269543E+03  0.50400001928E-02 0. -1.
        1   -1    0    0  501    0  0.00000000000E+00  0.00000000000E+00 -0.25596289204E+04  0.25596289204E+04  0.50400001928E-02 0.  1.
    10030    2    1    2    0    0  0.00000000000E+00  0.00000000000E+00 -0.15600062250E+04  0.35592516158E+04  0.31991643663E+04 0.  0.
        5    1    3    3  502    0 -0.44108913079E+03  0.34951767982E+03 -0.24458384879E+04  0.25097550137E+04  0.46999998093E+01 0.  1.
       -5    1    3    3    0  502  0.44108913079E+03 -0.34951767982E+03  0.88583226294E+03  0.10494966021E+04  0.46999998093E+01 0. -1.
</event>
<event>
 5   0  0.2783875E-07  0.3192000E+04  0.7818609E-02  0.8190933E-01
        3   -1    0    0  501    0  0.00000000000E+00  0.00000000000E+00  0.24178347513E+04  0.24178347534E+04  0.10100000352E+00 0.  1.
       -3   -1    0    0    0  501  0.00000000000E+00  0.00000000000E+00 -0.10535112523E+04  0.10535112572E+04  0.10100000352E+00 0. -1.
    10030    2    1    2    0    0  0.00000000000E+00  0.00000000000E+00  0.13643234989E+04  0.34713460105E+04  0.31920000807E+04 0.  0.
        4    1    3    3  502    0  0.14706057096E+04  0.45869778878E+03  0.22835449029E+03  0.15573157036E+04  0.12699999809E+01 0. -1.
       -4    1    3    3    0  502 -0.14706057096E+04 -0.45869778878E+03  0.11359690086E+04  0.19140303070E+04  0.12699999809E+01 0.  1.
</event>
<event>
 5   0  0.2997105E-07  0.3211306E+04  0.7818609E-02  0.8185838E-01
        1   -1    0    0  501    0  0.00000000000E+00  0.00000000000E+00  0.21634838213E+04  0.21634838213E+04  0.50400001928E-02 0.  1.
       -1   -1    0    0    0  501  0.00000000000E+00  0.00000000000E+00 -0.11916528231E+04  0.11916528231E+04  0.50400001928E-02 0. -1.
    10030    2    1    2    0    0  0.00000000000E+00  0.00000000000E+00  0.97183099815E+03  0.33551366444E+04  0.32113060293E+04 0.  0.
        3    1    3    3  502    0  0.52914642179E+03  0.80601522150E+03  0.18273466854E+04  0.20661201301E+04  0.10100000352E+00 0.  1.
       -3    1    3    3    0  502 -0.52914642179E+03 -0.80601522150E+03 -0.85551568725E+03  0.12890165144E+04  0.10100000352E+00 0. -1.
</event>
<event>
 5   0  0.8802800E-07  0.3129405E+04  0.7818609E-02  0.8207714E-01
       -2   -1    0    0    0  501  0.00000000000E+00  0.00000000000E+00  0.13245221181E+04  0.13245221181E+04  0.25500000920E-02 0.  1.
        2   -1    0    0  501    0  0.00000000000E+00  0.00000000000E+00 -0.18484353541E+04  0.18484353541E+04  0.25500000920E-02 0. -1.
    10030    2    1    2    0    0  0.00000000000E+00  0.00000000000E+00 -0.52391323596E+03  0.31729574722E+04  0.31294047423E+04 0.  0.
        5    1    3    3  502    0  0.81653751196E+03  0.23650054320E+03 -0.15938616541E+04  0.18064005861E+04  0.46999998093E+01 0. -1.
       -5    1    3    3    0  502 -0.81653751196E+03 -0.23650054320E+03  0.10699484181E+04  0.13665568860E+04  0.46999998093E+01 0.  1.
</event>
<event>
 5   0  0.2783875E-07  0.3203337E+04  0.7818609E-02  0.8187936E-01
       -3   -1    0    0    0  501  0.00000000000E+00  0.00000000000E+00  0.13799894626E+04  0.13799894662E+04  0.10100000352E+00 0.  1.
        3   -1    0    0  501    0  0.00000000000E+00  0.00000000000E+00 -0.18589578359E+04  0.18589578387E+04  0.10100000352E+00 0. -1.
    10030    2    1    2    0    0  0.00000000000E+00  0.00000000000E+00 -0.47896837337E+03  0.32389473049E+04  0.32033371570E+04 0.  0.
        4    1    3    3  502    0  0.31766948021E+03 -0.61468044360E+03 -0.17000471328E+04  0.18354584749E+04  0.12699999809E+01 0. -1.
       -4    1    3    3    0  502 -0.31766948021E+03  0.61468044360E+03  0.12210787594E+04  0.14034888300E+04  0.12699999809E+01 0.  1.
</event>
<event>
 5   0  0.8802800E-07  0.3180011E+04  0.7818609E-02  0.8194116E-01
       -2   -1    0    0    0  501  0.00000000000E+00  0.00000000000E+00  0.14622547917E+04  0.14622547917E+04  0.25500000920E-02 0. -1.
        2   -1    0    0  501    0  0.00000000000E+00  0.00000000000E+00 -0.17289170790E+04  0.17289170790E+04  0.25500000920E-02 0.  1.
    10030    2    1    2    0    0  0.00000000000E+00  0.00000000000E+00 -0.26666228726E+03  0.31911718707E+04  0.31800108700E+04 0.  0.
        5    1    3    3  502    0  0.14664121281E+04  0.90222497657E+01  0.48335744363E+03  0.15440538976E+04  0.46999998093E+01 0. -1.
       -5    1    3    3    0  502 -0.14664121281E+04 -0.90222497657E+01 -0.75001973088E+03  0.16471179731E+04  0.46999998093E+01 0.  1.
</event>
<event>
 5   0  0.2891204E-07  0.3192865E+04  0.7818609E-02  0.8190704E-01
       -1   -1    0    0    0  501  0.00000000000E+00  0.00000000000E+00  0.15170033990E+04  0.15170033990E+04  0.50400001928E-02 0.  1.
        1   -1    0    0  501    0  0.00000000000E+00  0.00000000000E+00 -0.16800201733E+04  0.16800201733E+04  0.50400001928E-02 0. -1.
    10030    2    1    2    0    0  0.00000000000E+00  0.00000000000E+00 -0.16301677431E+03  0.31970235723E+04  0.31928647408E+04 0.  0.
        4    1    3    3  502    0 -0.57292514192E+03 -0.50030398957E+03  0.13239036060E+04  0.15268495902E+04  0.12699999809E+01 0.  1.
       -4    1    3    3    0  502  0.57292514192E+03  0.50030398957E+03 -0.14869203803E+04  0.16701739821E+04  0.12699999809E+01 0. -1.
</event>
<event>
 5   0  0.3075756E-07  0.3198031E+04  0.7818609E-02  0.8189337E-01
       -1   -1    0    0    0  501  0.00000000000E+00  0.00000000000E+00  0.15878311978E+04  0.15878311978E+04  0.50400001928E-02 0. -1.
        1   -1    0    0  501    0  0.00000000000E+00  0.00000000000E+00 -0.16102789456E+04  0.16102789456E+04  0.50400001928E-02 0.  1.
    10030    2    1    2    0    0  0.00000000000E+00  0.00000000000E+00 -0.22447747727E+02  0.31981101434E+04  0.31980313613E+04 0.  0.
        5    1    3    3  502    0 -0.98921265672E+03  0.35126861768E+02  0.12446149619E+04  0.15902402554E+04  0.46999998093E+01 0. -1.
       -5    1    3    3    0  502  0.98921265672E+03 -0.35126861768E+02 -0.12670627096E+04  0.16078698880E+04  0.46999998093E+01 0.  1.
</event>
<event>
 5   0  0.8488469E-07  0.3176615E+04  0.7818609E-02  0.8195020E-01
       -2   -1    0    0    0  501  0.00000000000E+00  0.00000000000E+00  0.87038365088E+03  0.87038365088E+03  0.25500000920E-02 0. -1.
        2   -1    0    0  501    0  0.00000000000E+00  0.00000000000E+00 -0.28984015221E+04  0.28984015221E+04  0.25500000920E-02 0.  1.
    10030    2    1    2    0    0  0.00000000000E+00  0.00000000000E+00 -0.20280178713E+04  0.37687851730E+04  0.31766153677E+04 0.  0.
        3    1    3    3  502    0  0.66059803733E+03  0.13160725723E+03 -0.27205555489E+04  0.28027009726E+04  0.10100000352E+00 0.  1.
       -3    1    3    3    0  502 -0.66059803733E+03 -0.13160725723E+03  0.69253767765E+03  0.96608420039E+03  0.10100000352E+00 0. -1.
</event>
<event>
 5   0  0.8802800E-07  0.3196677E+04  0.7818609E-02  0.8189695E-01
       -2   -1    0    0    0  501  0.00000000000E+00  0.00000000000E+00  0.96344285598E+03  0.96344285599E+03  0.25500000920E-02 0. -1.
        2   -1    0    0  501    0  0.00000000000E+00  0.00000000000E+00 -0.26516224695E+04  0.26516224695E+04  0.25500000920E-02 0.  1.
    10030    2    1    2    0    0  0.00000000000E+00  0.00000000000E+00 -0.16881796135E+04  0.36150653255E+04  0.31966774782E+04 0.  0.
        5    1    3    3  502    0 -0.15886305586E+04 -0.13912781876E+03 -0.96568478900E+03  0.18643156394E+04  0.46999998093E+01 0.  1.
       -5    1    3    3    0  502  0.15886305586E+04  0.13912781876E+03 -0.72249482449E+03  0.17507496860E+04  0.46999998093E+01 0. -1.
</event>
<event>
 5   0  0.2783875E-07  0.3198993E+04  0.7818609E-02  0.8189083E-01
        3   -1    0    0  501    0  0.00000000000E+00  0.00000000000E+00  0.14428329234E+04  0.14428329269E+04  0.10100000352E+00 0.  1.
       -3   -1    0    0    0  501  0.00000000000E+00  0.00000000000E+00 -0.17731705317E+04  0.17731705346E+04  0.10100000352E+00 0. -1.
    10030    2    1    2    0    0  0.00000000000E+00  0.00000000000E+00 -0.33033760832E+03  0.32160034615E+04  0.31989928617E+04 0.  0.
        3    1    3    3  502    0 -0.17254842353E+03 -0.15881356492E+04 -0.24585155143E+03  0.16162892050E+04  0.10100000352E+00 0.  1.
       -3    1    3    3    0  502  0.17254842353E+03  0.15881356492E+04 -0.84486056890E+02  0.15997142565E+04  0.10100000352E+00 0. -1.
</event>
<event>
 5   0  0.8335929E-07  0.3203633E+04  0.7818609E-02  0.8187858E-01
        2   -1    0    0  501    0  0.00000000000E+00  0.00000000000E+00  0.23328272436E+04  0.23328272436E+04  0.25500000920E-02 0. -1.
       -2   -1    0    0    0  501  0.00000000000E+00  0.00000000000E+00 -0.10998743550E+04  0.10998743550E+04  0.25500000920E-02 0.  1.
    10030    2    1    2    0    0  0.00000000000E+00  0.00000000000E+00  0.12329528886E+04  0.34327015986E+04  0.32036334746E+04 0.  0.
        4    1    3    3  502    0  0.90278838877E+03 -0.26122488014E+03  0.20063561393E+04  0.22155658157E+04  0.12699999809E+01 0. -1.
       -4    1    3    3    0  502 -0.90278838877E+03  0.26122488014E+03 -0.77340325070E+03  0.12171357829E+04  0.12699999809E+01 0.  1.
</event>
<event>
 5   0  0.3013888E-07  0.3190928E+04  0.7818609E-02  0.8191217E-01
        1   -1    0    0  501    0  0.00000000000E+00  0.00000000000E+00  0.15113706292E+04  0.15113706292E+04  0.50400001928E-02 0. -1.
       -1   -1    0    0    0  501  0.00000000000E+00  0.00000000000E+00 -0.16842358751E+04  0.16842358751E+04  0.50400001928E-02 0.  1.
    10030    2    1    2    0    0  0.00000000000E+00  0.00000000000E+00 -0.17286524589E+03  0.31956065044E+04  0.31909275356E+04 0.  0.
        1    1    3    3  502    0  0.52452287917E+03 -0.59646964050E+03 -0.14721538687E+04  0.16727633712E+04  0.50400001928E-02 0.  1.
       -1    1    3    3    0  502 -0.52452287917E+03  0.59646964050E+03  0.12992886228E+04  0.15228431332E+04  0.50400001928E-02 0. -1.
</event>
<event>
 5   0  0.2783875E-07  0.3223127E+04  0.7818609E-02  0.8182736E-01
        1   -1    0    0  501    0  0.00000000000E+00  0.00000000000E+00  0.25172992380E+04  0.25172992380E+04  0.50400001928E-02 0.  1.
       -1   -1    0    0    0  501  0.00000000000E+00  0.00000000000E+00 -0.10317155494E+04  0.10317155494E+04  0.50400001928E-02 0. -1.
    10030    2    1    2    0    0  0.00000000000E+00  0.00000000000E+00  0.14855836886E+04  0.35490147874E+04  0.32231269080E+04 0.  0.
        2    1    3    3  502    0  0.14824967664E+04  0.57312988984E+03  0.44967699529E+03  0.16518123178E+04  0.25500000920E-02 0. -1.
       -2    1    3    3    0  502 -0.14824967664E+04 -0.57312988984E+03  0.10359066933E+04  0.18972024696E+04  0.25500000920E-02 0.  1.
</event>
<event>
 5   0  0.2891204E-07  0.3208789E+04  0.7818609E-02  0.8186500E-01
        1   -1    0    0  501    0  0.00000000000E+00  0.00000000000E+00  0.25355923176E+04  0.25355923176E+04  0.50400001928E-02 0. -1.
       -1   -1    0    0    0  501  0.00000000000E+00  0.00000000000E+00 -0.10151797359E+04  0.10151797359E+04  0.50400001928E-02 0.  1.
    10030    2    1    2    0    0  0.00000000000E+00  0.00000000000E+00  0.15204125817E+04  0.35507720535E+04  0.32087891420E+04 0.  0.
        4    1    3    3  502    0 -0.15664641905E+04 -0.26238373124E+03  0.10111457455E+04  0.18828363216E+04  0.12699999809E+01 0. -1.
       -4    1    3    3    0  502  0.15664641905E+04  0.26238373124E+03  0.50926683619E+03  0.16679357319E+04  0.12699999809E+01 0.  1.
</event>
<event>
 5   0  0.2891204E-07  0.3195875E+04  0.7818609E-02  0.8189907E-01
        1   -1    0    0  501    0  0.00000000000E+00  0.00000000000E+00  0.15811047587E+04  0.15811047587E+04  0.50400001928E-02 0.  1.
       -1   -1    0    0    0  501  0.00000000000E+00  0.00000000000E+00 -0.16149498226E+04  0.16149498226E+04  0.50400001928E-02 0. -1.
    10030    2    1    2    0    0  0.00000000000E+00  0.00000000000E+00 -0.33845063855E+02  0.31960545813E+04  0.31958753728E+04 0.  0.
        4    1    3    3  502    0 -0.98797928363E+03 -0.66522978743E+03 -0.10822378700E+04  0.16093085954E+04  0.12699999809E+01 0. -1.
       -4    1    3    3    0  502  0.98797928363E+03  0.66522978743E+03  0.10483928061E+04  0.15867459859E+04  0.12699999809E+01 0.  1.
</event>
<event>
 5   0  0.3013888E-07  0.3199320E+04  0.7818609E-02  0.8188997E-01
        1   -1    0    0  501    0  0.00000000000E+00  0.00000000000E+00  0.23751941062E+04  0.23751941062E+04  0.50400001928E-02 0. -1.
       -1   -1    0    0    0  501  0.00000000000E+00  0.00000000000E+00 -0.10773486773E+04  0.10773486773E+04  0.50400001928E-02 0.  1.
    10030    2    1    2    0    0  0.00000000000E+00  0.00000000000E+00  0.12978454289E+04  0.34525427835E+04  0.31993200707E+04 0.  0.
        1    1    3    3  502    0 -0.12530180967E+04 -0.48223067093E+03  0.15874171856E+04  0.20790608677E+04  0.50400001928E-02 0. -1.
       -1    1    3    3    0  502  0.12530180967E+04  0.48223067093E+03 -0.28957175670E+03  0.13734819158E+04  0.50400001928E-02 0.  1.
</event>
<event>
 5   0  0.3075756E-07  0.3203721E+04  0.7818609E-02  0.8187835E-01
       -1   -1    0    0    0  501  0.00000000000E+00  0.00000000000E+00  0.13722586178E+04  0.13722586178E+04  0.50400001928E-02 0.  1.
        1   -1    0    0  501    0  0.00000000000E+00  0.00000000000E+00 -0.18698790944E+04  0.18698790944E+04  0.50400001928E-02 0. -1.
    10030    2    1    2    0    0  0.00000000000E+00  0.00000000000E+00 -0.49762047659E+03  0.32421377121E+04  0.32037213995E+04 0.  0.
        5    1    3    3  502    0 -0.98646501939E+03 -0.12454959041E+04 -0.42497207837E+02  0.15894028389E+04  0.46999998093E+01 0.  1.
       -5    1    3    3    0  502  0.98646501939E+03  0.12454959041E+04 -0.45512326875E+03  0.16527348733E+04  0.46999998093E+01 0. -1.
</event>
<event>
 5   0  0.8335929E-07  0.3226918E+04  0.7818609E-02  0.8181744E-01
       -2   -1    0    0    0  501  0.00000000000E+00  0.00000000000E+00  0.10413321133E+04  0.10413321133E+04  0.25500000920E-02 0. -1.
        2   -1    0    0  501    0  0.00000000000E+00  0.00000000000E+00 -0.24999229116E+04  0.24999229116E+04  0.25500000920E-02 0.  1.
    10030    2    1    2    0    0  0.00000000000E+00  0.00000000000E+00 -0.14585907983E+04  0.35412550249E+04  0.32269180397E+04 0.  0.
        4    1    3    3  502    0  0.39201345111E+03 -0.54607936927E+03  0.88033787564E+03  0.11076432691E+04  0.12699999809E+01 0. -1.
       -4    1    3    3    0  502 -0.39201345111E+03  0.54607936927E+03 -0.23389286740E+04  0.24336117558E+04  0.12699999809E+01 0.  1.
</event>
<event>
 5   0  0.3075756E-07  0.3203706E+04  0.7818609E-02  0.8187839E-01
        1   -1    0    0  501    0  0.00000000000E+00  0.00000000000E+00  0.28512230398E+04  0.28512230398E+04  0.50400001928E-02 0. -1.
       -1   -1    0    0    0  501  0.00000000000E+00  0.00000000000E+00 -0.89994129942E+03  0.89994129943E+03  0.50400001928E-02 0.  1.
    10030    2    1    2    0    0  0.00000000000E+00  0.00000000000E+00  0.19512817404E+04  0.37511643393E+04  0.32037062084E+04 0.  0.
        5    1    3    3  502    0  0.80580516152E+03  0.13666080579E+04  0.12347520513E+04  0.20103666980E+04  0.46999998093E+01 0. -1.
       -5    1    3    3    0  502 -0.80580516152E+03 -0.13666080579E+04  0.71652968912E+03  0.17407976412E+04  0.46999998093E+01 0.  1.
</event>
<event>
 5   0  0.8335929E-07  0.3196854E+04  0.7818609E-02  0.8189649E-01
       -2   -1    0    0    0  501  0.00000000000E+00  0.00000000000E+00  0.11564924109E+04  0.11564924109E+04  0.25500000920E-02 0.  1.
        2   -1    0    0  501    0  0.00000000000E+00  0.00000000000E+00 -0.22092396297E+04  0.22092396297E+04  0.25500000920E-02 0. -1.
    10030    2    1    2    0    0  0.00000000000E+00  0.00000000000E+00 -0.10527472189E+04  0.33657320406E+04  0.31968539945E+04 0.  0.
        4    1    3    3  502    0  0.11451226575E+04 -0.48411266004E+03  0.53133508062E+03  0.13520316376E+04  0.12699999809E+01 0.  1.
       -4    1    3    3    0  502 -0.11451226575E+04  0.48411266004E+03 -0.15840822995E+04  0.20137004029E+04  0.12699999809E+01 0. -1.
</event>
<event>
 5   0  0.3013888E-07  0.3160060E+04  0.7818609E-02  0.8199446E-01
       -1   -1    0    0    0  501  0.00000000000E+00  0.00000000000E+00  0.15673721986E+04  0.15673721986E+04  0.50400001928E-02 0. -1.
        1   -1    0    0  501    0  0.00000000000E+00  0.00000000000E+00 -0.15927898640E+04  0.15927898640E+04  0.50400001928E-02 0.  1.
    10030    2    1    2    0    0  0.00000000000E+00  0.00000000000E+00 -0.25417665460E+02  0.31601620626E+04  0.31600598419E+04 0.  0.
        1    1    3    3  502    0 -0.11590903547E+04 -0.78560191394E+03  0.71932149456E+03  0.15741931997E+04  0.50400001928E-02 0. -1.
       -1    1    3    3    0  502  0.11590903547E+04  0.78560191394E+03 -0.74473916002E+03  0.15859688629E+04  0.50400001928E-02 0.  1.
</event>
<event>
 5   0  0.8195618E-07  0.3174272E+04  0.7818609E-02  0.8195645E-01
        2   -1    0    0  501    0  0.00000000000E+00  0.00000000000E+00  0.83192879709E+03  0.83192879710E+03  0.25500000920E-02 0.  1.
       -2   -1    0    0    0  501  0.00000000000E+00  0.00000000000E+00 -0.30279044231E+04  0.30279044231E+04  0.25500000920E-02 0. -1.
    10030    2    1    2    0    0  0.00000000000E+00  0.00000000000E+00 -0.21959756260E+04  0.38598332202E+04  0.31742721272E+04 0.  0.
        1    1    3    3  502    0 -0.13555458842E+04 -0.40967457152E+02 -0.95404009846E+02  0.13595164220E+04  0.50400001928E-02 0.  1.
       -1    1    3    3    0  502  0.13555458842E+04  0.40967457152E+02 -0.21005716161E+04  0.25003167982E+04  0.50400001928E-02 0. -1.
</event>
<event>
 5   0  0.2997105E-07  0.3189993E+04  0.7818609E-02  0.8191465E-01
       -1   -1    0    0    0  501  0.00000000000E+00  0.00000000000E+00  0.83975161222E+03  0.83975161223E+03  0.50400001928E-02 0. -1.
        1   -1    0    0  501    0  0.00000000000E+00  0.00000000000E+00 -0.30294830974E+04  0.30294830974E+04  0.50400001928E-02 0.  1.
    10030    2    1    2    0    0  0.00000000000E+00  0.00000000000E+00 -0.21897314852E+04  0.38692347096E+04  0.31899926741E+04 0.  0.
        3    1    3    3  502    0 -0.26473028374E+02  0.15848172839E+04 -0.13107080233E+04  0.20567698406E+04  0.10100000352E+00 0.  1.
       -3    1    3    3    0  502  0.26473028374E+02 -0.15848172839E+04 -0.87902346185E+03  0.18124648690E+04  0.10100000352E+00 0. -1.
</event>
<event>
 5   0  0.8838951E-07  0.3192381E+04  0.7818609E-02  0.8190832E-01
        2   -1    0    0  501    0  0.00000000000E+00  0.00000000000E+00  0.19348582826E+04  0.19348582826E+04  0.25500000920E-02 0. -1.
       -2   -1    0    0    0  501  0.00000000000E+00  0.00000000000E+00 -0.13168014150E+04  0.13168014150E+04  0.25500000920E-02 0.  1.
    10030    2    1    2    0    0  0.00000000000E+00  0.00000000000E+00  0.61805686758E+03  0.32516596975E+04  0.31923810075E+04 0.  0.
        2    1    3    3  502    0  0.32687804885E+03 -0.14881318788E+04  0.79371991454E+03  0.17179572318E+04  0.25500000920E-02 0. -1.
       -2    1    3    3    0  502 -0.32687804885E+03  0.14881318788E+04 -0.17566304696E+03  0.15337024658E+04  0.25500000920E-02 0.  1.
</event>
<event>
 5   0  0.3013888E-07  0.3188718E+04  0.7818609E-02  0.8191803E-01
       -1   -1    0    0    0  501  0.00000000000E+00  0.00000000000E+00  0.10994491719E+04  0.10994491720E+04  0.50400001928E-02 0. -1.
        1   -1    0    0  501    0  0.00000000000E+00  0.00000000000E+00 -0.23120488134E+04  0.23120488134E+04  0.50400001928E-02 0.  1.
    10030    2    1    2    0    0  0.00000000000E+00  0.00000000000E+00 -0.12125996415E+04  0.34114979854E+04  0.31887177068E+04 0.  0.
        1    1    3    3  502    0  0.85156722400E+03 -0.72577696203E+03  0.60886225067E+03  0.12738258028E+04  0.50400001928E-02 0. -1.
       -1    1    3    3    0  502 -0.85156722400E+03  0.72577696203E+03 -0.18214618921E+04  0.21376721826E+04  0.50400001928E-02 0.  1.
</event>
<event>
 5   0  0.2997105E-07  0.3201554E+04  0.7818609E-02  0.8188407E-01
       -1   -1    0    0    0  501  0.00000000000E+00  0.00000000000E+00  0.11546284667E+04  0.11546284667E+04  0.50400001928E-02 0. -1.
        1   -1    0    0  501    0  0.00000000000E+00  0.00000000000E+00 -0.22193174464E+04  0.22193174464E+04  0.50400001928E-02 0.  1.
    10030    2    1    2    0    0  0.00000000000E+00  0.00000000000E+00 -0.10646889798E+04  0.33739459131E+04  0.32015540603E+04 0.  0.
        3    1    3    3  502    0 -0.11772109831E+04  0.10615176862E+04 -0.29707086972E+03  0.16127295522E+04  0.10100000352E+00 0. -1.
       -3    1    3    3    0  502  0.11772109831E+04 -0.10615176862E+04 -0.76761811004E+03  0.17612163609E+04  0.10100000352E+00 0.  1.
</event>
<event>
 5   0  0.3013888E-07  0.3172622E+04  0.7818609E-02  0.8196085E-01
        1   -1    0    0  501    0  0.00000000000E+00  0.00000000000E+00  0.19299654085E+04  0.19299654085E+04  0.50400001928E-02 0.  1.
       -1   -1    0    0    0  501  0.00000000000E+00  0.00000000000E+00 -0.13038488883E+04  0.13038488883E+04  0.50400001928E-02 0. -1.
    10030    2    1    2    0    0  0.00000000000E+00  0.00000000000E+00  0.62611652018E+03  0.32338142968E+04  0.31726224184E+04 0.  0.
        1    1    3    3  502    0 -0.73718256572E+03  0.22021755097E+03  0.17270599561E+04  0.18906797711E+04  0.50400001928E-02 0.  1.
       -1    1    3    3    0  502  0.73718256572E+03 -0.22021755097E+03 -0.11009434359E+04  0.13431345257E+04  0.50400001928E-02 0. -1.
</event>
<event>
 5   0  0.8802800E-07  0.3199339E+04  0.7818609E-02  0.8188992E-01
        2   -1    0    0  501    0  0.00000000000E+00  0.00000000000E+00  0.23009042934E+04  0.23009042934E+04  0.25500000920E-02 0. -1.
       -2   -1    0    0    0  501  0.00000000000E+00  0.00000000000E+00 -0.11121465646E+04  0.11121465646E+04  0.25500000920E-02 0.  1.
    10030    2    1    2    0    0  0.00000000000E+00  0.00000000000E+00  0.11887577288E+04  0.34130508580E+04  0.31993391851E+04 0.  0.
        5    1    3    3  502    0  0.45470219646E+03  0.25043845715E+03 -0.10197856339E+04  0.11443156634E+04  0.46999998093E+01 0.  1.
       -5    1    3    3    0  502 -0.45470219646E+03 -0.25043845715E+03  0.22085433628E+04  0.22687351947E+04  0.46999998093E+01 0. -1.
</event>
<event>
 5   0  0.8488469E-07  0.3193697E+04  0.7818609E-02  0.8190484E-01
       -2   -1    0    0    0  501  0.00000000000E+00  0.00000000000E+00  0.15008133586E+04  0.15008133586E+04  0.25500000920E-02 0. -1.
        2   -1    0    0  501    0  0.00000000000E+00  0.00000000000E+00 -0.16990289636E+04  0.16990289636E+04  0.25500000920E-02 0.  1.
    10030    2    1    2    0    0  0.00000000000E+00  0.00000000000E+00 -0.19821560497E+03  0.31998423222E+04  0.31936971461E+04 0.  0.
        3    1    3    3  502    0 -0.14846443959E+04 -0.53974835517E+03  0.13463937673E+03  0.15854415918E+04  0.10100000352E+00 0. -1.
       -3    1    3    3    0  502  0.14846443959E+04  0.53974835517E+03 -0.33285498170E+03  0.16144007304E+04  0.10100000352E+00 0.  1.
</event>
<event>
 5   0  0.8195618E-07  0.3200554E+04  0.7818609E-02  0.8188671E-01
       -2   -1    0    0    0  501  0.00000000000E+00  0.00000000000E+00  0.21869709701E+04  0.21869709701E+04  0.25500000920E-02 0. -1.
        2   -1    0    0  501    0  0.00000000000E+00  0.00000000000E+00 -0.11709744260E+04  0.11709744260E+04  0.25500000920E-02 0.  1.
    10030    2    1    2    0    0  0.00000000000E+00  0.00000000000E+00  0.10159965441E+04  0.33579453961E+04  0.32005543748E+04 0.  0.
        1    1    3    3  502    0 -0.12195442186E+04 -0.97366168010E+03  0.13619606910E+03  0.15664783872E+04  0.50400001928E-02 0. -1.
       -1    1    3    3    0  502  0.12195442186E+04  0.97366168010E+03  0.87980047499E+03  0.17914670089E+04  0.50400001928E-02 0.  1.
</event>
<event>
 5   0  0.2783875E-07  0.3188096E+04  0.7818609E-02  0.8191968E-01
       -1   -1    0    0    0  501  0.00000000000E+00  0.00000000000E+00  0.16035585816E+04  0.16035585816E+04  0.50400001928E-02 0.  1.
        1   -1    0    0  501    0  0.00000000000E+00  0.00000000000E+00 -0.15845943022E+04  0.15845943022E+04  0.50400001928E-02 0. -1.
    10030    2    1    2    0    0  0.00000000000E+00  0.00000000000E+00  0.18964279406E+02  0.31881528838E+04  0.31880964802E+04 0.  0.
        2    1    3    3  502    0 -0.60645665614E+03  0.14718832622E+04  0.91701464994E+02  0.15945655120E+04  0.25500000920E-02 0. -1.
       -2    1    3    3    0  502  0.60645665614E+03 -0.14718832622E+04 -0.72737185588E+02  0.15935873718E+04  0.25500000920E-02 0.  1.
</event>
<event>
 5   0  0.3013888E-07  0.3211796E+04  0.7818609E-02  0.8185709E-01
       -1   -1    0    0    0  501  0.00000000000E+00  0.00000000000E+00  0.18134905911E+04  0.18134905911E+04  0.50400001928E-02 0. -1.
        1   -1    0    0  501    0  0.00000000000E+00  0.00000000000E+00 -0.14220684448E+04  0.14220684448E+04  0.50400001928E-02 0.  1.
    10030    2    1    2    0    0  0.00000000000E+00  0.00000000000E+00  0.39142214637E+03  0.32355590359E+04  0.32117956003E+04 0.  0.
        1    1    3    3  502    0  0.60117009195E+02  0.15513590915E+04  0.60933221285E+03  0.16678173854E+04  0.50400001928E-02 0. -1.
       -1    1    3    3    0  502 -0.60117009195E+02 -0.15513590915E+04 -0.21791006648E+03  0.15677416505E+04  0.50400001928E-02 0.  1.
</event>
<event>
 5   0  0.8802800E-07  0.3215061E+04  0.7818609E-02  0.8184851E-01
        2   -1    0    0  501    0  0.00000000000E+00  0.00000000000E+00  0.14317401901E+04  0.14317401902E+04  0.25500000920E-02 0. -1.
       -2   -1    0    0    0  501  0.00000000000E+00  0.00000000000E+00 -0.18049041705E+04  0.18049041705E+04  0.25500000920E-02 0.  1.
    10030    2    1    2    0    0  0.00000000000E+00  0.00000000000E+00 -0.37316398032E+03  0.32366443606E+04  0.32150607087E+04 0.  0.
        5    1    3    3  502    0  0.30358992178E+03 -0.21111537722E+02 -0.17756333139E+04  0.18015294317E+04  0.46999998093E+01 0.  1.
       -5    1    3    3    0  502 -0.30358992178E+03  0.21111537722E+02  0.14024693336E+04  0.14351149290E+04  0.46999998093E+01 0. -1.
</event>
<event>
 5   0  0.2997105E-07  0.3172688E+04  0.7818609E-02  0.8196068E-01
       -1   -1    0    0    0  501  0.00000000000E+00  0.00000000000E+00  0.16765850677E+04  0.16765850677E+04  0.50400001928E-02 0.  1.
        1   -1    0    0  501    0  0.00000000000E+00  0.00000000000E+00 -0.15009597595E+04  0.15009597595E+04  0.50400001928E-02 0. -1.
    10030    2    1    2    0    0  0.00000000000E+00  0.00000000000E+00  0.17562530819E+03  0.31775448271E+04  0.31726876429E+04 0.  0.
        3    1    3    3  502    0  0.11030258394E+04 -0.17302645208E+03  0.12164285100E+04  0.16511518664E+04  0.10100000352E+00 0.  1.
       -3    1    3    3    0  502 -0.11030258394E+04  0.17302645208E+03 -0.10408032019E+04  0.15263929608E+04  0.10100000352E+00 0. -1.
</event>
<event>
 5   0  0.2891204E-07  0.3194132E+04  0.7818609E-02  0.8190369E-01
        1   -1    0    0  501    0  0.00000000000E+00  0.00000000000E+00  0.17170712480E+04  0.17170712480E+04  0.50400001928E-02 0. -1.
       -1   -1    0    0    0  501  0.00000000000E+00  0.00000000000E+00 -0.14854477958E+04  0.14854477958E+04  0.50400001928E-02 0.  1.
    10030    2    1    2    0    0  0.00000000000E+00  0.00000000000E+00  0.23162345218E+03  0.32025190439E+04  0.31941319326E+04 0.  0.
        4    1    3    3  502    0 -0.11386944090E+04 -0.59562346974E+03  0.10665768729E+04  0.16700239859E+04  0.12699999809E+01 0. -1.
       -4    1    3    3    0  502  0.11386944090E+04  0.59562346974E+03 -0.83495342074E+03  0.15324950579E+04  0.12699999809E+01 0.  1.
</event>
<event>
 5   0  0.8488469E-07  0.3205066E+04  0.7818609E-02  0.8187480E-01
       -2   -1    0    0    0  501  0.00000000000E+00  0.00000000000E+00  0.15685468381E+04  0.15685468381E+04  0.25500000920E-02 0. -1.
        2   -1    0    0  501    0  0.00000000000E+00  0.00000000000E+00 -0.16372560516E+04  0.16372560516E+04  0.25500000920E-02 0.  1.
    10030    2    1    2    0    0  0.00000000000E+00  0.00000000000E+00 -0.68709213494E+02  0.32058028896E+04  0.32050664909E+04 0.  0.
        3    1    3    3  502    0 -0.76083158604E+03 -0.59838789745E+03 -0.13118246311E+04  0.16302811571E+04  0.10100000352E+00 0.  1.
       -3    1    3    3    0  502  0.76083158604E+03  0.59838789745E+03  0.12431154176E+04  0.15755217326E+04  0.10100000352E+00 0. -1.
</event>
<event>
 5   0  0.2783875E-07  0.3176199E+04  0.7818609E-02  0.8195131E-01
        3   -1    0    0  501    0  0.00000000000E+00  0.00000000000E+00  0.13637418339E+04  0.13637418377E+04  0.10100000352E+00 0.  1.
       -3   -1    0    0    0  501  0.00000000000E+00  0.00000000000E+00 -0.18493677100E+04  0.18493677127E+04  0.10100000352E+00 0. -1.
    10030    2    1    2    0    0  0.00000000000E+00  0.00000000000E+00 -0.48562587606E+03  0.32131095504E+04  0.31761990636E+04 0.  0.
        2    1    3    3  502    0  0.11584925760E+04 -0.17098009732E+03  0.84236964914E+03  0.14425414615E+04  0.25500000920E-02 0.  1.
       -2    1    3    3    0  502 -0.11584925760E+04  0.17098009732E+03 -0.13279955252E+04  0.17705680889E+04  0.25500000920E-02 0. -1.
</event>
<event>
 5   0  0.8802800E-07  0.3217666E+04  0.7818609E-02  0.8184167E-01
        2   -1    0    0  501    0  0.00000000000E+00  0.00000000000E+00  0.30145529754E+04  0.30145529754E+04  0.25500000920E-02 0. -1.
       -2   -1    0    0    0  501  0.00000000000E+00  0.00000000000E+00 -0.85861626205E+03  0.85861626205E+03  0.25500000920E-02 0.  1.
    10030    2    1    2    0    0  0.00000000000E+00  0.00000000000E+00  0.21559367134E+04  0.38731692375E+04  0.32176663640E+04 0.  0.
        5    1    3    3  502    0  0.13452279568E+04 -0.32918294316E+03  0.20634926772E+04  0.24851607161E+04  0.46999998093E+01 0. -1.
       -5    1    3    3    0  502 -0.13452279568E+04  0.32918294316E+03  0.92444036192E+02  0.13880085214E+04  0.46999998093E+01 0.  1.
</event>
<event>
 5   0  0.8335929E-07  0.3185673E+04  0.7818609E-02  0.8192611E-01
        2   -1    0    0  501    0  0.00000000000E+00  0.00000000000E+00  0.15813517799E+04  0.15813517799E+04  0.25500000920E-02 0.  1.
       -2   -1    0    0    0  501  0.00000000000E+00  0.00000000000E+00 -0.16044049730E+04  0.16044049730E+04  0.25500000920E-02 0. -1.
    10030    2    1    2    0    0  0.00000000000E+00  0.00000000000E+00 -0.23053193133E+02  0.31857567528E+04  0.31856733415E+04 0.  0.
        4    1    3    3  502    0 -0.42197536484E+03 -0.14947803098E+02 -0.15474184962E+04  0.16039925999E+04  0.12699999809E+01 0. -1.
       -4    1    3    3    0  502  0.42197536484E+03  0.14947803098E+02  0.15243653031E+04  0.15817641529E+04  0.12699999809E+01 0.  1.
</event>
<event>
 5   0  0.8195618E-07  0.3203779E+04  0.7818609E-02  0.8187820E-01
        2   -1    0    0  501    0  0.00000000000E+00  0.00000000000E+00  0.25323213795E+04  0.25323213795E+04  0.25500000920E-02 0. -1.
       -2   -1    0    0    0  501  0.00000000000E+00  0.00000000000E+00 -0.10133191532E+04  0.10133191532E+04  0.25500000920E-02 0.  1.
    10030    2    1    2    0    0  0.00000000000E+00  0.00000000000E+00  0.15190022263E+04  0.35456405327E+04  0.32037788663E+04 0.  0.
        1    1    3    3  502    0 -0.38944415178E+01 -0.17899422899E+03 -0.10022116642E+04  0.10180777576E+04  0.50400001928E-02 0.  1.
       -1    1    3    3    0  502  0.38944415178E+01  0.17899422899E+03  0.25212138905E+04  0.25275627751E+04  0.50400001928E-02 0. -1.
</event>
<event>
 5   0  0.8195618E-07  0.3197857E+04  0.7818609E-02  0.8189383E-01
       -2   -1    0    0    0  501  0.00000000000E+00  0.00000000000E+00  0.22117603873E+04  0.22117603874E+04  0.25500000920E-02 0. -1.
        2   -1    0    0  501    0  0.00000000000E+00  0.00000000000E+00 -0.11558996787E+04  0.11558996787E+04  0.25500000920E-02 0.  1.
    10030    2    1    2    0    0  0.00000000000E+00  0.00000000000E+00  0.10558607086E+04  0.33676600661E+04  0.31978574834E+04 0.  0.
        1    1    3    3  502    0  0.23710345014E+03 -0.13044850833E+04  0.14690695165E+04  0.19789049050E+04  0.50400001928E-02 0. -1.
       -1    1    3    3    0  502 -0.23710345014E+03  0.13044850833E+04 -0.41320880784E+03  0.13887551611E+04  0.50400001928E-02 0.  1.
</event>
<event>
 5   0  0.2783875E-07  0.3183185E+04  0.7818609E-02  0.8193272E-01
        1   -1    0    0  501    0  0.00000000000E+00  0.00000000000E+00  0.17210202940E+04  0.17210202940E+04  0.50400001928E-02 0. -1.
       -1   -1    0    0    0  501  0.00000000000E+00  0.00000000000E+00 -0.14718982979E+04  0.14718982979E+04  0.50400001928E-02 0.  1.
    10030    2    1    2    0    0  0.00000000000E+00  0.00000000000E+00  0.24912199606E+03  0.31929185919E+04  0.31831850976E+04 0.  0.
        2    1    3    3  502    0  0.48987979308E+03 -0.12981262465E+04  0.90672284364E+03  0.16574861323E+04  0.25500000920E-02 0. -1.
       -2    1    3    3    0  502 -0.48987979308E+03  0.12981262465E+04 -0.65760084758E+03  0.15354324597E+04  0.25500000920E-02 0.  1.
</event>
<event>
 5   0  0.8195618E-07  0.3304961E+04  0.7818609E-02  0.8161634E-01
       -2   -1    0    0    0  501  0.00000000000E+00  0.00000000000E+00  0.14571515432E+04  0.14571515432E+04  0.25500000920E-02 0. -1.
        2   -1    0    0  501    0  0.00000000000E+00  0.00000000000E+00 -0.18739932946E+04  0.18739932946E+04  0.25500000920E-02 0.  1.
    10030    2    1    2    0    0  0.00000000000E+00  0.00000000000E+00 -0.41684175141E+03  0.33311448378E+04  0.33049612531E+04 0.  0.
        1    1    3    3  502    0  0.45602757938E+03  0.43340608081E+03  0.13317197562E+04  0.14728474100E+04  0.50400001928E-02 0. -1.
       -1    1    3    3    0  502 -0.45602757938E+03 -0.43340608081E+03 -0.17485615076E+04  0.18582974278E+04  0.50400001928E-02 0.  1.
</event>
<event>
 5   0  0.3075756E-07  0.3188584E+04  0.7818609E-02  0.8191839E-01
        1   -1    0    0  501    0  0.00000000000E+00  0.00000000000E+00  0.21641168477E+04  0.21641168477E+04  0.50400001928E-02 0.  1.
       -1   -1    0    0    0  501  0.00000000000E+00  0.00000000000E+00 -0.11745057622E+04  0.11745057622E+04  0.50400001928E-02 0. -1.
    10030    2    1    2    0    0  0.00000000000E+00  0.00000000000E+00  0.98961108551E+03  0.33386226099E+04  0.31885844557E+04 0.  0.
        5    1    3    3  502    0  0.55944523658E+03  0.78873022290E+03  0.18219949933E+04  0.20627074885E+04  0.46999998093E+01 0.  1.
       -5    1    3    3    0  502 -0.55944523658E+03 -0.78873022290E+03 -0.83238390781E+03  0.12759151215E+04  0.46999998093E+01 0. -1.
</event>
<event>
 5   0  0.2997105E-07  0.3184601E+04  0.7818609E-02  0.8192896E-01
       -1   -1    0    0    0  501  0.00000000000E+00  0.00000000000E+00  0.14745354243E+04  0.14745354243E+04  0.50400001928E-02 0.  1.
        1   -1    0    0  501    0  0.00000000000E+00  0.00000000000E+00 -0.17194713908E+04  0.17194713908E+04  0.50400001928E-02 0. -1.
    10030    2    1    2    0    0  0.00000000000E+00  0.00000000000E+00 -0.24493596655E+03  0.31940068152E+04  0.31846013734E+04 0.  0.
        3    1    3    3  502    0 -0.14371533862E+04  0.18480283969E+03 -0.78461439420E+03  0.16477808419E+04  0.10100000352E+00 0. -1.
       -3    1    3    3    0  502  0.14371533862E+04 -0.18480283969E+03  0.53967842766E+03  0.15462259733E+04  0.10100000352E+00 0.  1.
</event>
<event>
 5   0  0.8335929E-07  0.3215943E+04  0.7818609E-02  0.8184619E-01
       -2   -1    0    0    0  501  0.00000000000E+00  0.00000000000E+00  0.10699029769E+04  0.10699029769E+04  0.25500000920E-02 0. -1.
        2   -1    0    0  501    0  0.00000000000E+00  0.00000000000E+00 -0.24166413474E+04  0.24166413474E+04  0.25500000920E-02 0.  1.
    10030    2    1    2    0    0  0.00000000000E+00  0.00000000000E+00 -0.13467383705E+04  0.34865443244E+04  0.32159426437E+04 0.  0.
        4    1    3    3  502    0 -0.15236975867E+04  0.48320550055E+03 -0.48425438957E+03  0.16702232840E+04  0.12699999809E+01 0. -1.
       -4    1    3    3    0  502  0.15236975867E+04 -0.48320550055E+03 -0.86248398091E+03  0.18163210404E+04  0.12699999809E+01 0.  1.
</event>
<event>
 5   0  0.2891204E-07  0.3198014E+04  0.7818609E-02  0.8189342E-01
        1   -1    0    0  501    0  0.00000000000E+00  0.00000000000E+00  0.29075028413E+04  0.29075028414E+04  0.50400001928E-02 0. -1.
       -1   -1    0    0    0  501  0.00000000000E+00  0.00000000000E+00 -0.87938826424E+03  0.87938826425E+03  0.50400001928E-02 0.  1.
    10030    2    1    2    0    0  0.00000000000E+00  0.00000000000E+00  0.20281145771E+04  0.37868911056E+04  0.31980143070E+04 0.  0.
        4    1    3    3  502    0  0.11818240959E+04 -0.98429203304E+03  0.15319513148E+04  0.21708098590E+04  0.12699999809E+01 0. -1.
       -4    1    3    3    0  502 -0.11818240959E+04  0.98429203304E+03  0.49616326233E+03  0.16160812466E+04  0.12699999809E+01 0.  1.
</event>
<event>
 5   0  0.8195618E-07  0.3199514E+04  0.7818609E-02  0.8188946E-01
       -2   -1    0    0    0  501  0.00000000000E+00  0.00000000000E+00  0.15080661139E+04  0.15080661139E+04  0.25500000920E-02 0.  1.
        2   -1    0    0  501    0  0.00000000000E+00  0.00000000000E+00 -0.16970225150E+04  0.16970225150E+04  0.25500000920E-02 0. -1.
    10030    2    1    2    0    0  0.00000000000E+00  0.00000000000E+00 -0.18895640104E+03  0.32050886289E+04  0.31995138064E+04 0.  0.
        1    1    3    3  502    0 -0.94266311413E+03 -0.12454013239E+04 -0.44088985387E+03  0.16229670568E+04  0.50400001928E-02 0.  1.
       -1    1    3    3    0  502  0.94266311413E+03  0.12454013239E+04  0.25193345283E+03  0.15821215721E+04  0.50400001928E-02 0. -1.
</event>
<event>
 5   0  0.8488469E-07  0.3208812E+04  0.7818609E-02  0.8186494E-01
       -2   -1    0    0    0  501  0.00000000000E+00  0.00000000000E+00  0.14639282242E+04  0.14639282242E+04  0.25500000920E-02 0.  1.
        2   -1    0    0  501    0  0.00000000000E+00  0.00000000000E+00 -0.17583644664E+04  0.17583644664E+04  0.25500000920E-02 0. -1.
    10030    2    1    2    0    0  0.00000000000E+00  0.00000000000E+00 -0.29443624217E+03  0.32222926907E+04  0.32088124725E+04 0.  0.
        3    1    3    3  502    0 -0.58038330429E+03  0.25821788841E+03 -0.16267024135E+04  0.17463338771E+04  0.10100000352E+00 0. -1.
       -3    1    3    3    0  502  0.58038330429E+03 -0.25821788841E+03  0.13322661714E+04  0.14759588136E+04  0.10100000352E+00 0.  1.
</event>
<event>
 5   0  0.8488469E-07  0.3210697E+04  0.7818609E-02  0.8185998E-01
        2   -1    0    0  501    0  0.00000000000E+00  0.00000000000E+00  0.21849081898E+04  0.21849081898E+04  0.25500000920E-02 0.  1.
       -2   -1    0    0    0  501  0.00000000000E+00  0.00000000000E+00 -0.11795205007E+04  0.11795205007E+04  0.25500000920E-02 0. -1.
    10030    2    1    2    0    0  0.00000000000E+00  0.00000000000E+00  0.10053876890E+04  0.33644286905E+04  0.32106971218E+04 0.  0.
        3    1    3    3  502    0  0.14460087590E+03 -0.15622457230E+04  0.14637902984E+03  0.15757372696E+04  0.10100000352E+00 0. -1.
       -3    1    3    3    0  502 -0.14460087590E+03  0.15622457230E+04  0.85900865918E+03  0.17886914209E+04  0.10100000352E+00 0.  1.
</event>
<event>
 5   0  0.2783875E-07  0.3211462E+04  0.7818609E-02  0.8185797E-01
        1   -1    0    0  501    0  0.00000000000E+00  0.00000000000E+00  0.17080855357E+04  0.17080855357E+04  0.50400001928E-02 0. -1.
       -1   -1    0    0    0  501  0.00000000000E+00  0.00000000000E+00 -0.15095099089E+04  0.15095099089E+04  0.50400001928E-02 0.  1.
    10030    2    1    2    0    0  0.00000000000E+00  0.00000000000E+00  0.19857562682E+03  0.32175954446E+04  0.32114619981E+04 0.  0.
        2    1    3    3  502    0  0.38966600065E+03 -0.53628115746E+03 -0.13660151958E+04  0.15183657620E+04  0.25500000920E-02 0.  1.
       -2    1    3    3    0  502 -0.38966600065E+03  0.53628115746E+03  0.15645908226E+04  0.16992296826E+04  0.25500000920E-02 0. -1.
</event>
<event>
 5   0  0.8802800E-07  0.3204963E+04  0.7818609E-02  0.8187508E-01
        2   -1    0    0  501    0  0.00000000000E+00  0.00000000000E+00  0.19932422747E+04  0.19932422747E+04  0.25500000920E-02 0.  1.
       -2   -1    0    0    0  501  0.00000000000E+00  0.00000000000E+00 -0.12883265452E+04  0.12883265452E+04  0.25500000920E-02 0. -1.
    10030    2    1    2    0    0  0.00000000000E+00  0.00000000000E+00  0.70491572949E+03  0.32815688198E+04  0.32049629848E+04 0.  0.
        5    1    3    3  502    0  0.14294897884E+04  0.63900242571E+03  0.70142635741E+03  0.17157465372E+04  0.46999998093E+01 0.  1.
       -5    1    3    3    0  502 -0.14294897884E+04 -0.63900242571E+03  0.34893720816E+01  0.15658222826E+04  0.46999998093E+01 0. -1.
</event>
<event>
 5   0  0.8802800E-07  0.3216083E+04  0.7818609E-02  0.8184583E-01
        2   -1    0    0  501    0  0.00000000000E+00  0.00000000000E+00  0.20796801977E+04  0.20796801977E+04  0.25500000920E-02 0. -1.
       -2   -1    0    0    0  501  0.00000000000E+00  0.00000000000E+00 -0.12433630100E+04  0.12433630100E+04  0.25500000920E-02 0.  1.
    10030    2    1    2    0    0  0.00000000000E+00  0.00000000000E+00  0.83631718763E+03  0.33230432077E+04  0.32160829781E+04 0.  0.
        5    1    3    3  502    0  0.15643810730E+03 -0.14856220542E+04 -0.19680746861E+03  0.15067518174E+04  0.46999998093E+01 0.  1.
       -5    1    3    3    0  502 -0.15643810730E+03  0.14856220542E+04  0.10331246562E+04  0.18162913904E+04  0.46999998093E+01 0. -1.
</event>
<event>
 5   0  0.8335929E-07  0.3193444E+04  0.7818609E-02  0.8190551E-01
        2   -1    0    0  501    0  0.00000000000E+00  0.00000000000E+00  0.27628440397E+04  0.27628440397E+04  0.25500000920E-02 0. -1.
       -2   -1    0    0    0  501  0.00000000000E+00  0.00000000000E+00 -0.92278844888E+03  0.92278844888E+03  0.25500000920E-02 0.  1.
    10030    2    1    2    0    0  0.00000000000E+00  0.00000000000E+00  0.18400555908E+04  0.36856324886E+04  0.31934436371E+04 0.  0.
        4    1    3    3  502    0  0.14221834996E+04 -0.30710131676E+02  0.83012812971E+02  0.14249357034E+04  0.12699999809E+01 0.  1.
       -4    1    3    3    0  502 -0.14221834996E+04  0.30710131676E+02  0.17570427778E+04  0.22606967852E+04  0.12699999809E+01 0. -1.
</event>
<event>
 5   0  0.8335929E-07  0.3223721E+04  0.7818609E-02  0.8182580E-01
        2   -1    0    0  501    0  0.00000000000E+00  0.00000000000E+00  0.16300445767E+04  0.16300445767E+04  0.25500000920E-02 0. -1.
       -2   -1    0    0    0  501  0.00000000000E+00  0.00000000000E+00 -0.15938796969E+04  0.15938796969E+04  0.25500000920E-02 0.  1.
    10030    2    1    2    0    0  0.00000000000E+00  0.00000000000E+00  0.36164879792E+02  0.32239242735E+04  0.32237214245E+04 0.  0.
        4    1    3    3  502    0  0.28348400058E+03  0.22815060521E+03 -0.15522639471E+04  0.15943465281E+04  0.12699999809E+01 0.  1.
       -4    1    3    3    0  502 -0.28348400058E+03 -0.22815060521E+03  0.15884288269E+04  0.16295777454E+04  0.12699999809E+01 0. -1.
</event>
<event>
 5   0  0.2783875E-07  0.3234937E+04  0.7818609E-02  0.8179651E-01
       -1   -1    0    0    0  501  0.00000000000E+00  0.00000000000E+00  0.13888751041E+04  0.13888751041E+04  0.50400001928E-02 0. -1.
        1   -1    0    0  501    0  0.00000000000E+00  0.00000000000E+00 -0.18836854354E+04  0.18836854354E+04  0.50400001928E-02 0.  1.
    10030    2    1    2    0    0  0.00000000000E+00  0.00000000000E+00 -0.49481033133E+03  0.32725605395E+04  0.32349366641E+04 0.  0.
        2    1    3    3  502    0  0.10509503714E+04  0.15183548890E+03 -0.14816992888E+04  0.18229052311E+04  0.25500000920E-02 0.  1.
       -2    1    3    3    0  502 -0.10509503714E+04 -0.15183548890E+03  0.98688895748E+03  0.14496553085E+04  0.25500000920E-02 0. -1.
</event>
<event>
 5   0  0.8488469E-07  0.3192297E+04  0.7818609E-02  0.8190855E-01
       -2   -1    0    0    0  501  0.00000000000E+00  0.00000000000E+00  0.12884639281E+04  0.12884639281E+04  0.25500000920E-02 0. -1.
        2   -1    0    0  501    0  0.00000000000E+00  0.00000000000E+00 -0.19773077250E+04  0.19773077250E+04  0.25500000920E-02 0.  1.
    10030    2    1    2    0    0  0.00000000000E+00  0.00000000000E+00 -0.68884379691E+03  0.32657716531E+04  0.31922967772E+04 0.  0.
        3    1    3    3  502    0 -0.40265042650E+03 -0.74949892799E+03 -0.17259915592E+04  0.19242980231E+04  0.10100000352E+00 0.  1.
       -3    1    3    3    0  502  0.40265042650E+03  0.74949892799E+03  0.10371477623E+04  0.13414736300E+04  0.10100000352E+00 0. -1.
</event>
<event>
 5   0  0.2891204E-07  0.3197247E+04  0.7818609E-02  0.8189544E-01
        1   -1    0    0  501    0  0.00000000000E+00  0.00000000000E+00  0.30452627053E+04  0.30452627053E+04  0.50400001928E-02 0.  1.
       -1   -1    0    0    0  501  0.00000000000E+00  0.00000000000E+00 -0.83920437906E+03  0.83920437907E+03  0.50400001928E-02 0. -1.
    10030    2    1    2    0    0  0.00000000000E+00  0.00000000000E+00  0.22060583262E+04  0.38844670843E+04  0.31972474397E+04 0.  0.
        4    1    3    3  502    0  0.12781689720E+04  0.72893917190E+03  0.34378535840E+03  0.15110454073E+04  0.12699999809E+01 0. -1.
       -4    1    3    3    0  502 -0.12781689720E+04 -0.72893917190E+03  0.18622729678E+04  0.23734216770E+04  0.12699999809E+01 0.  1.
</event>
<event>
 5   0  0.8195618E-07  0.3212093E+04  0.7818609E-02  0.8185631E-01
       -2   -1    0    0    0  501  0.00000000000E+00  0.00000000000E+00  0.13034909174E+04  0.13034909174E+04  0.25500000920E-02 0.  1.
        2   -1    0    0  501    0  0.00000000000E+00  0.00000000000E+00 -0.19788288747E+04  0.19788288747E+04  0.25500000920E-02 0. -1.
    10030    2    1    2    0    0  0.00000000000E+00  0.00000000000E+00 -0.67533795727E+03  0.32823197921E+04  0.32120930654E+04 0.  0.
        1    1    3    3  502    0  0.32654078321E+02  0.19843467631E+03  0.12905740779E+04  0.13061485597E+04  0.50400001928E-02 0.  1.
       -1    1    3    3    0  502 -0.32654078321E+02 -0.19843467631E+03 -0.19659120351E+04  0.19761712323E+04  0.50400001928E-02 0. -1.
</event>
<event>
 5   0  0.8838951E-07  0.3209158E+04  0.7818609E-02  0.8186403E-01
        2   -1    0    0  501    0  0.00000000000E+00  0.00000000000E+00  0.28422888375E+04  0.28422888375E+04  0.25500000920E-02 0. -1.
       -2   -1    0    0    0  501  0.00000000000E+00  0.00000000000E+00 -0.90584520407E+03  0.90584520407E+03  0.25500000920E-02 0.  1.
    10030    2    1    2    0    0  0.00000000000E+00  0.00000000000E+00  0.19364436334E+04  0.37481340415E+04  0.32091579656E+04 0.  0.
        2    1    3    3  502    0 -0.82034872815E+03 -0.79866006158E+03 -0.34479629527E+03  0.11957066593E+04  0.25500000920E-02 0.  1.
       -2    1    3    3    0  502  0.82034872815E+03  0.79866006158E+03  0.22812399287E+04  0.25524273823E+04  0.25500000920E-02 0. -1.
</event>
<event>
 5   0  0.2891204E-07  0.3198134E+04  0.7818609E-02  0.8189310E-01
       -1   -1    0    0    0  501  0.00000000000E+00  0.00000000000E+00  0.15305471410E+04  0.15305471411E+04  0.50400001928E-02 0.  1.
        1   -1    0    0  501    0  0.00000000000E+00  0.00000000000E+00 -0.16706546783E+04  0.16706546783E+04  0.50400001928E-02 0. -1.
    10030    2    1    2    0    0  0.00000000000E+00  0.00000000000E+00 -0.14010753724E+03  0.32012018193E+04  0.31981342946E+04 0.  0.
        4    1    3    3  502    0 -0.11607679279E+03  0.12403014040E+04 -0.10736084216E+04  0.16445236546E+04  0.12699999809E+01 0. -1.
       -4    1    3    3    0  502  0.11607679279E+03 -0.12403014040E+04  0.93350088439E+03  0.15566781648E+04  0.12699999809E+01 0.  1.
</event>
<event>
 5   0  0.2783875E-07  0.3191786E+04  0.7818609E-02  0.8190990E-01
       -1   -1    0    0    0  501  0.00000000000E+00  0.00000000000E+00  0.15051924597E+04  0.15051924597E+04  0.50400001928E-02 0.  1.
        1   -1    0    0  501    0  0.00000000000E+00  0.00000000000E+00 -0.16920594351E+04  0.16920594351E+04  0.50400001928E-02 0. -1.
    10030    2    1    2    0    0  0.00000000000E+00  0.00000000000E+00 -0.18686697544E+03  0.31972518948E+04  0.31917863983E+04 0.  0.
        2    1    3    3  502    0 -0.15094627549E+04 -0.35390951390E+03 -0.47242689671E+03  0.16207766426E+04  0.25500000920E-02 0. -1.
       -2    1    3    3    0  502  0.15094627549E+04  0.35390951390E+03  0.28555992127E+03  0.15764752523E+04  0.25500000920E-02 0.  1.
</event>
<event>
 5   0  0.8335929E-07  0.3202863E+04  0.7818609E-02  0.8188062E-01
       -2   -1    0    0    0  501  0.00000000000E+00  0.00000000000E+00  0.10581481757E+04  0.10581481757E+04  0.25500000920E-02 0.  1.
        2   -1    0    0  501    0  0.00000000000E+00  0.00000000000E+00 -0.24236513401E+04  0.24236513402E+04  0.25500000920E-02 0. -1.
    10030    2    1    2    0    0  0.00000000000E+00  0.00000000000E+00 -0.13655031644E+04  0.34817995159E+04  0.32028626222E+04 0.  0.
        4    1    3    3  502    0  0.92252286288E+03  0.24870746257E+03  0.71434999590E+03  0.11929800350E+04  0.12699999809E+01 0.  1.
       -4    1    3    3    0  502 -0.92252286288E+03 -0.24870746257E+03 -0.20798531603E+04  0.22888194808E+04  0.12699999809E+01 0. -1.
</event>
<event>
 5   0  0.8335929E-07  0.3176464E+04  0.7818609E-02  0.8195061E-01
        2   -1    0    0  501    0  0.00000000000E+00  0.00000000000E+00  0.23491052342E+04  0.23491052342E+04  0.25500000920E-02 0. -1.
       -2   -1    0    0    0  501  0.00000000000E+00  0.00000000000E+00 -0.10738048614E+04  0.10738048614E+04  0.25500000920E-02 0.  1.
    10030    2    1    2    0    0  0.00000000000E+00  0.00000000000E+00  0.12753003728E+04  0.34229100957E+04  0.31764638330E+04 0.  0.
        4    1    3    3  502    0  0.81481286194E+03  0.90262451237E+02  0.21034874575E+04  0.22575934991E+04  0.12699999809E+01 0. -1.
       -4    1    3    3    0  502 -0.81481286194E+03 -0.90262451237E+02 -0.82818708474E+03  0.11653165966E+04  0.12699999809E+01 0.  1.
</event>
<event>
 5   0  0.2891204E-07  0.3199792E+04  0.7818609E-02  0.8188872E-01
       -1   -1    0    0    0  501  0.00000000000E+00  0.00000000000E+00  0.14819241508E+04  0.14819241508E+04  0.50400001928E-02 0.  1.
        1   -1    0    0  501    0  0.00000000000E+00  0.00000000000E+00 -0.17272593462E+04  0.17272593462E+04  0.50400001928E-02 0. -1.
    10030    2    1    2    0    0  0.00000000000E+00  0.00000000000E+00 -0.24533519539E+03  0.32091834971E+04  0.31997920807E+04 0.  0.
        4    1    3    3  502    0  0.38755046770E+03 -0.52625413383E+03  0.13419358597E+04  0.14926259554E+04  0.12699999809E+01 0.  1.
       -4    1    3    3    0  502 -0.38755046770E+03  0.52625413383E+03 -0.15872710551E+04  0.17165575416E+04  0.12699999809E+01 0. -1.
</event>
<event>
 5   0  0.2783875E-07  0.3196272E+04  0.7818609E-02  0.8189802E-01
       -1   -1    0    0    0  501  0.00000000000E+00  0.00000000000E+00  0.19867210151E+04  0.19867210151E+04  0.50400001928E-02 0. -1.
        1   -1    0    0  501    0  0.00000000000E+00  0.00000000000E+00 -0.12855547218E+04  0.12855547218E+04  0.50400001928E-02 0.  1.
    10030    2    1    2    0    0  0.00000000000E+00  0.00000000000E+00  0.70116629331E+03  0.32722757368E+04  0.31962719420E+04 0.  0.
        2    1    3    3  502    0  0.38219665500E+03  0.11139002708E+04  0.14566389507E+04  0.18731377763E+04  0.25500000920E-02 0. -1.
       -2    1    3    3    0  502 -0.38219665500E+03 -0.11139002708E+04 -0.75547265738E+03  0.13991379605E+04  0.25500000920E-02 0.  1.
</event>
<event>
 5   0  0.8802800E-07  0.3194785E+04  0.7818609E-02  0.8190196E-01
        2   -1    0    0  501    0  0.00000000000E+00  0.00000000000E+00  0.27023255286E+04  0.27023255286E+04  0.25500000920E-02 0. -1.
       -2   -1    0    0    0  501  0.00000000000E+00  0.00000000000E+00 -0.94424682274E+03  0.94424682274E+03  0.25500000920E-02 0.  1.
    10030    2    1    2    0    0  0.00000000000E+00  0.00000000000E+00  0.17580787058E+04  0.36465723513E+04  0.31947846841E+04 0.  0.
        5    1    3    3  502    0 -0.73645291128E+03 -0.70873444160E+03  0.22802258665E+04  0.24988236215E+04  0.46999998093E+01 0. -1.
       -5    1    3    3    0  502  0.73645291128E+03  0.70873444160E+03 -0.52214716070E+03  0.11477487298E+04  0.46999998093E+01 0.  1.
</event>
<event>
 5   0  0.8802800E-07  0.3250624E+04  0.7818609E-02  0.8175574E-01
        2   -1    0    0  501    0  0.00000000000E+00  0.00000000000E+00  0.12236920056E+04  0.12236920056E+04  0.25500000920E-02 0.  1.
       -2   -1    0    0    0  501  0.00000000000E+00  0.00000000000E+00 -0.21587456923E+04  0.21587456923E+04  0.25500000920E-02 0. -1.
    10030    2    1    2    0    0  0.00000000000E+00  0.00000000000E+00 -0.93505368669E+03  0.33824376978E+04  0.32506244604E+04 0.  0.
        5    1    3    3  502    0  0.11196380879E+04 -0.73738291783E+03  0.48858797414E+03  0.14269069044E+04  0.46999998093E+01 0.  1.
       -5    1    3    3    0  502 -0.11196380879E+04  0.73738291783E+03 -0.14236416608E+04  0.19555307934E+04  0.46999998093E+01 0. -1.
</event>
<event>
 5   0  0.3075756E-07  0.3241693E+04  0.7818609E-02  0.8177892E-01
       -1   -1    0    0    0  501  0.00000000000E+00  0.00000000000E+00  0.10932499392E+04  0.10932499392E+04  0.50400001928E-02 0.  1.
        1   -1    0    0  501    0  0.00000000000E+00  0.00000000000E+00 -0.24030589741E+04  0.24030589741E+04  0.50400001928E-02 0. -1.
    10030    2    1    2    0    0  0.00000000000E+00  0.00000000000E+00 -0.13098090349E+04  0.34963089134E+04  0.32416934324E+04 0.  0.
        5    1    3    3  502    0  0.30822057771E+03 -0.15498604421E+04 -0.10438608413E+04  0.18938676988E+04  0.46999998093E+01 0.  1.
       -5    1    3    3    0  502 -0.30822057771E+03  0.15498604421E+04 -0.26594819358E+03  0.16024412146E+04  0.46999998093E+01 0. -1.
</event>
<event>
 5   0  0.8838951E-07  0.3204187E+04  0.7818609E-02  0.8187712E-01
        2   -1    0    0  501    0  0.00000000000E+00  0.00000000000E+00  0.32413622917E+04  0.32413622917E+04  0.25500000920E-02 0. -1.
       -2   -1    0    0    0  501  0.00000000000E+00  0.00000000000E+00 -0.79185950764E+03  0.79185950764E+03  0.25500000920E-02 0.  1.
    10030    2    1    2    0    0  0.00000000000E+00  0.00000000000E+00  0.24495027841E+04  0.40332217994E+04  0.32041869786E+04 0.  0.
        2    1    3    3  502    0  0.90157532309E+03  0.13120031879E+04  0.99778394208E+03  0.18787664100E+04  0.25500000920E-02 0.  1.
       -2    1    3    3    0  502 -0.90157532309E+03 -0.13120031879E+04  0.14517188420E+04  0.21544553893E+04  0.25500000920E-02 0. -1.
</event>
<event>
 5   0  0.2891204E-07  0.3194819E+04  0.7818609E-02  0.8190187E-01
        1   -1    0    0  501    0  0.00000000000E+00  0.00000000000E+00  0.19742465687E+04  0.19742465687E+04  0.50400001928E-02 0. -1.
       -1   -1    0    0    0  501  0.00000000000E+00  0.00000000000E+00 -0.12925019215E+04  0.12925019215E+04  0.50400001928E-02 0.  1.
    10030    2    1    2    0    0  0.00000000000E+00  0.00000000000E+00  0.68174464724E+03  0.32667484903E+04  0.31948192335E+04 0.  0.
        4    1    3    3  502    0 -0.69662468360E+03 -0.78227774065E+03 -0.89229500562E+03  0.13760219487E+04  0.12699999809E+01 0.  1.
       -4    1    3    3    0  502  0.69662468360E+03  0.78227774065E+03  0.15740396529E+04  0.18907265416E+04  0.12699999809E+01 0. -1.
</event>
<event>
 5   0  0.8488469E-07  0.3189477E+04  0.7818609E-02  0.8191602E-01
       -2   -1    0    0    0  501  0.00000000000E+00  0.00000000000E+00  0.10238760562E+04  0.10238760562E+04  0.25500000920E-02 0.  1.
        2   -1    0    0  501    0  0.00000000000E+00  0.00000000000E+00 -0.24838850827E+04  0.24838850827E+04  0.25500000920E-02 0. -1.
    10030    2    1    2    0    0  0.00000000000E+00  0.00000000000E+00 -0.14600090265E+04  0.35077611389E+04  0.31894767362E+04 0.  0.
        3    1    3    3  502    0 -0.42981180741E+02  0.45519089979E+02 -0.24825330852E+04  0.24833223510E+04  0.10100000352E+00 0. -1.
       -3    1    3    3    0  502  0.42981180741E+02 -0.45519089979E+02  0.10225240587E+04  0.10244387880E+04  0.10100000352E+00 0.  1.
</event>
<event>
 5   0  0.8802800E-07  0.3204034E+04  0.7818609E-02  0.8187753E-01
        2   -1    0    0  501    0  0.00000000000E+00  0.00000000000E+00  0.16020042878E+04  0.16020042878E+04  0.25500000920E-02 0. -1.
       -2   -1    0    0    0  501  0.00000000000E+00  0.00000000000E+00 -0.16020294025E+04  0.16020294025E+04  0.25500000920E-02 0.  1.
    10030    2    1    2    0    0  0.00000000000E+00  0.00000000000E+00 -0.25114694686E-01  0.32040336904E+04  0.32040336903E+04 0.  0.
        5    1    3    3  502    0  0.14116470175E+02  0.55660010161E+03  0.15021302236E+04  0.16020050707E+04  0.46999998093E+01 0. -1.
       -5    1    3    3    0  502 -0.14116470175E+02 -0.55660010161E+03 -0.15021553383E+04  0.16020286197E+04  0.46999998093E+01 0.  1.
</event>
<event>
 5   0  0.8838951E-07  0.3181836E+04  0.7818609E-02  0.8193631E-01
       -2   -1    0    0    0  501  0.00000000000E+00  0.00000000000E+00  0.15099040910E+04  0.15099040910E+04  0.25500000920E-02 0. -1.
        2   -1    0    0  501    0  0.00000000000E+00  0.00000000000E+00 -0.16762787891E+04  0.16762787891E+04  0.25500000920E-02 0.  1.
    10030    2    1    2    0    0  0.00000000000E+00  0.00000000000E+00 -0.16637469816E+03  0.31861828801E+04  0.31818360745E+04 0.  0.
        2    1    3    3  502    0  0.32353023007E+02 -0.14441385789E+04  0.58438466702E+03  0.15582324577E+04  0.25500000920E-02 0. -1.
       -2    1    3    3    0  502 -0.32353023007E+02  0.14441385789E+04 -0.75075936518E+03  0.16279504224E+04  0.25500000920E-02 0.  1.
</event>
<event>
 5   0  0.2997105E-07  0.3204863E+04  0.7818609E-02  0.8187534E-01
        1   -1    0    0  501    0  0.00000000000E+00  0.00000000000E+00  0.16683473730E+04  0.16683473730E+04  0.50400001928E-02 0.  1.
       -1   -1    0    0    0  501  0.00000000000E+00  0.00000000000E+00 -0.15391200029E+04  0.15391200029E+04  0.50400001928E-02 0. -1.
    10030    2    1    2    0    0  0.00000000000E+00  0.00000000000E+00  0.12922737012E+03  0.32074673758E+04  0.32048630632E+04 0.  0.
        3    1    3    3  502    0 -0.11496368637E+04 -0.99222666602E+03  0.57650573736E+03  0.16243575808E+04  0.10100000352E+00 0.  1.
       -3    1    3    3    0  502  0.11496368637E+04  0.99222666602E+03 -0.44727836724E+03  0.15831097950E+04  0.10100000352E+00 0. -1.
</event>
<event>
 5   0  0.8838951E-07  0.3194265E+04  0.7818609E-02  0.8190333E-01
       -2   -1    0    0    0  501  0.00000000000E+00  0.00000000000E+00  0.10942254544E+04  0.10942254544E+04  0.25500000920E-02 0. -1.
        2   -1    0    0  501    0  0.00000000000E+00  0.00000000000E+00 -0.23311758599E+04  0.23311758599E+04  0.25500000920E-02 0.  1.
    10030    2    1    2    0    0  0.00000000000E+00  0.00000000000E+00 -0.12369504055E+04  0.34254013143E+04  0.31942648384E+04 0.  0.
        2    1    3    3  502    0 -0.10841030449E+04  0.67013588834E+03  0.41370689792E+03  0.13399682527E+04  0.25500000920E-02 0. -1.
       -2    1    3    3    0  502  0.10841030449E+04 -0.67013588834E+03 -0.16506573035E+04  0.20854330616E+04  0.25500000920E-02 0.  1.
</event>
<event>
 5   0  0.3075756E-07  0.3190314E+04  0.7818609E-02  0.8191380E-01
        1   -1    0    0  501    0  0.00000000000E+00  0.00000000000E+00  0.14832074449E+04  0.14832074449E+04  0.50400001928E-02 0.  1.
       -1   -1    0    0    0  501  0.00000000000E+00  0.00000000000E+00 -0.17155560405E+04  0.17155560406E+04  0.50400001928E-02 0. -1.
    10030    2    1    2    0    0  0.00000000000E+00  0.00000000000E+00 -0.23234859562E+03  0.31987634855E+04  0.31903137724E+04 0.  0.
        5    1    3    3  502    0  0.14487052955E+04  0.26590857742E+03  0.49786014883E+03  0.15547801203E+04  0.46999998093E+01 0.  1.
       -5    1    3    3    0  502 -0.14487052955E+04 -0.26590857742E+03 -0.73020874445E+03  0.16439833652E+04  0.46999998093E+01 0. -1.
</event>
<event>
 5   0  0.2891204E-07  0.3217886E+04  0.7818609E-02  0.8184109E-01
        1   -1    0    0  501    0  0.00000000000E+00  0.00000000000E+00  0.18145637145E+04  0.18145637146E+04  0.50400001928E-02 0.  1.
       -1   -1    0    0    0  501  0.00000000000E+00  0.00000000000E+00 -0.14266230274E+04  0.14266230274E+04  0.50400001928E-02 0. -1.
    10030    2    1    2    0    0  0.00000000000E+00  0.00000000000E+00  0.38794068714E+03  0.32411867420E+04  0.32178864989E+04 0.  0.
        4    1    3    3  502    0 -0.12714247218E+04 -0.42584302489E+02 -0.79823220721E+03  0.15018357152E+04  0.12699999809E+01 0. -1.
       -4    1    3    3    0  502  0.12714247218E+04  0.42584302489E+02  0.11861728944E+04  0.17393510267E+04  0.12699999809E+01 0.  1.
</event>
<event>
 5   0  0.8488469E-07  0.3203894E+04  0.7818609E-02  0.8187789E-01
        2   -1    0    0  501    0  0.00000000000E+00  0.00000000000E+00  0.19677288956E+04  0.19677288956E+04  0.25500000920E-02 0.  1.
       -2   -1    0    0    0  501  0.00000000000E+00  0.00000000000E+00 -0.13041606203E+04  0.13041606203E+04  0.25500000920E-02 0. -1.
    10030    2    1    2    0    0  0.00000000000E+00  0.00000000000E+00  0.66356827528E+03  0.32718895160E+04  0.32038942162E+04 0.  0.
        3    1    3    3  502    0  0.12280982101E+04  0.94292643496E+03 -0.87911125000E+02  0.15508268284E+04  0.10100000352E+00 0.  1.
       -3    1    3    3    0  502 -0.12280982101E+04 -0.94292643496E+03  0.75147940028E+03  0.17210626876E+04  0.10100000352E+00 0. -1.
</event>
<event>
 5   0  0.2997105E-07  0.3192417E+04  0.7818609E-02  0.8190823E-01
       -1   -1    0    0    0  501  0.00000000000E+00  0.00000000000E+00  0.13812660000E+04  0.13812660000E+04  0.50400001928E-02 0.  1.
        1   -1    0    0  501    0  0.00000000000E+00  0.00000000000E+00 -0.18445987359E+04  0.18445987359E+04  0.50400001928E-02 0. -1.
    10030    2    1    2    0    0  0.00000000000E+00  0.00000000000E+00 -0.46333273591E+03  0.32258647359E+04  0.31924169637E+04 0.  0.
        3    1    3    3  502    0  0.87976243696E+03  0.51684566628E+03  0.10087001732E+04  0.14347778357E+04  0.10100000352E+00 0.  1.
       -3    1    3    3    0  502 -0.87976243696E+03 -0.51684566628E+03 -0.14720329091E+04  0.17910869002E+04  0.10100000352E+00 0. -1.
</event>
<event>
 5   0  0.2783875E-07  0.3195039E+04  0.7818609E-02  0.8190129E-01
       -1   -1    0    0    0  501  0.00000000000E+00  0.00000000000E+00  0.12337631267E+04  0.12337631267E+04  0.50400001928E-02 0. -1.
        1   -1    0    0  501    0  0.00000000000E+00  0.00000000000E+00 -0.20685233343E+04  0.20685233343E+04  0.50400001928E-02 0.  1.
    10030    2    1    2    0    0  0.00000000000E+00  0.00000000000E+00 -0.83476020760E+03  0.33022864610E+04  0.31950385391E+04 0.  0.
        2    1    3    3  502    0  0.54378435328E+03  0.87024397451E+03  0.84807143181E+03  0.13312592353E+04  0.25500000920E-02 0. -1.
       -2    1    3    3    0  502 -0.54378435328E+03 -0.87024397451E+03 -0.16828316394E+04  0.19710272257E+04  0.25500000920E-02 0.  1.
</event>
<event>
 5   0  0.2783875E-07  0.3210706E+04  0.7818609E-02  0.8185995E-01
       -1   -1    0    0    0  501  0.00000000000E+00  0.00000000000E+00  0.18360847270E+04  0.18360847270E+04  0.50400001928E-02 0.  1.
        1   -1    0    0  501    0  0.00000000000E+00  0.00000000000E+00 -0.14036165682E+04  0.14036165682E+04  0.50400001928E-02 0. -1.
    10030    2    1    2    0    0  0.00000000000E+00  0.00000000000E+00  0.43246815882E+03  0.32397012952E+04  0.32107064291E+04 0.  0.
        2    1    3    3  502    0 -0.26381868968E+03  0.10869777062E+04  0.13781705261E+04  0.17749576991E+04  0.25500000920E-02 0.  1.
       -2    1    3    3    0  502  0.26381868968E+03 -0.10869777062E+04 -0.94570236724E+03  0.14647435961E+04  0.25500000920E-02 0. -1.
</event>
<event>
 5   0  0.8335929E-07  0.3232107E+04  0.7818609E-02  0.8180389E-01
        2   -1    0    0  501    0  0.00000000000E+00  0.00000000000E+00  0.22400921784E+04  0.22400921784E+04  0.25500000920E-02 0.  1.
       -2   -1    0    0    0  501  0.00000000000E+00  0.00000000000E+00 -0.11658576855E+04  0.11658576855E+04  0.25500000920E-02 0. -1.
    10030    2    1    2    0    0  0.00000000000E+00  0.00000000000E+00  0.10742344929E+04  0.34059498638E+04  0.32321068561E+04 0.  0.
        4    1    3    3  502    0  0.46053798155E+03 -0.16766697247E+03  0.21598864043E+04  0.22147953266E+04  0.12699999809E+01 0.  1.
       -4    1    3    3    0  502 -0.46053798155E+03  0.16766697247E+03 -0.10856519114E+04  0.11911545373E+04  0.12699999809E+01 0. -1.
</event>
<event>
 5   0  0.2891204E-07  0.3190683E+04  0.7818609E-02  0.8191282E-01
       -1   -1    0    0    0  501  0.00000000000E+00  0.00000000000E+00  0.16453585074E+04  0.16453585074E+04  0.50400001928E-02 0.  1.
        1   -1    0    0  501    0  0.00000000000E+00  0.00000000000E+00 -0.15468448470E+04  0.15468448470E+04  0.50400001928E-02 0. -1.
    10030    2    1    2    0    0  0.00000000000E+00  0.00000000000E+00  0.98513660424E+02  0.31922033544E+04  0.31906828916E+04 0.  0.
        4    1    3    3  502    0  0.10805708842E+04 -0.60379383649E+02  0.12219218607E+04  0.16322909521E+04  0.12699999809E+01 0.  1.
       -4    1    3    3    0  502 -0.10805708842E+04  0.60379383649E+02 -0.11234082002E+04  0.15599124024E+04  0.12699999809E+01 0. -1.
</event>
<event>
 5   0  0.3013888E-07  0.3170325E+04  0.7818609E-02  0.8196699E-01
       -1   -1    0    0    0  501  0.00000000000E+00  0.00000000000E+00  0.13359827698E+04  0.13359827698E+04  0.50400001928E-02 0. -1.
        1   -1    0    0  501    0  0.00000000000E+00  0.00000000000E+00 -0.18808172155E+04  0.18808172155E+04  0.50400001928E-02 0.  1.
    10030    2    1    2    0    0  0.00000000000E+00  0.00000000000E+00 -0.54483444571E+03  0.32167999853E+04  0.31703245216E+04 0.  0.
        1    1    3    3  502    0 -0.60628844541E+03  0.12839720409E+04  0.44258989309E+03  0.14872981189E+04  0.50400001928E-02 0. -1.
       -1    1    3    3    0  502  0.60628844541E+03 -0.12839720409E+04 -0.98742433880E+03  0.17295018664E+04  0.50400001928E-02 0.  1.
</event>
<event>
 5   0  0.8802800E-07  0.3189117E+04  0.7818609E-02  0.8191697E-01
       -2   -1    0    0    0  501  0.00000000000E+00  0.00000000000E+00  0.20702988342E+04  0.20702988342E+04  0.25500000920E-02 0. -1.
        2   -1    0    0  501    0  0.00000000000E+00  0.00000000000E+00 -0.12281401089E+04  0.12281401089E+04  0.25500000920E-02 0.  1.
    10030    2    1    2    0    0  0.00000000000E+00  0.00000000000E+00  0.84215872539E+03  0.32984389431E+04  0.31891171416E+04 0.  0.
        5    1    3    3  502    0 -0.10027927864E+04 -0.45804927358E+03  0.16126092119E+04  0.19534413403E+04  0.46999998093E+01 0. -1.
       -5    1    3    3    0  502  0.10027927864E+04  0.45804927358E+03 -0.77045048655E+03  0.13449976028E+04  0.46999998093E+01 0.  1.
</event>
<event>
 5   0  0.8195618E-07  0.3219212E+04  0.7818609E-02  0.8183762E-01
       -2   -1    0    0    0  501  0.00000000000E+00  0.00000000000E+00  0.16330997338E+04  0.16330997338E+04  0.25500000920E-02 0.  1.
        2   -1    0    0  501    0  0.00000000000E+00  0.00000000000E+00 -0.15864499289E+04  0.15864499289E+04  0.25500000920E-02 0. -1.
    10030    2    1    2    0    0  0.00000000000E+00  0.00000000000E+00  0.46649804863E+02  0.32195496627E+04  0.32192116777E+04 0.  0.
        1    1    3    3  502    0 -0.14041610470E+04  0.77207753789E+03 -0.12854289630E+03  0.16075743363E+04  0.50400001928E-02 0. -1.
       -1    1    3    3    0  502  0.14041610470E+04 -0.77207753789E+03  0.17519270116E+03  0.16119753264E+04  0.50400001928E-02 0.  1.
</event>
<event>
 5   0  0.8195618E-07  0.3238076E+04  0.7818609E-02  0.8178833E-01
        2   -1    0    0  501    0  0.00000000000E+00  0.00000000000E+00  0.23655165463E+04  0.23655165463E+04  0.25500000920E-02 0.  1.
       -2   -1    0    0    0  501  0.00000000000E+00  0.00000000000E+00 -0.11081235857E+04  0.11081235857E+04  0.25500000920E-02 0. -1.
    10030    2    1    2    0    0  0.00000000000E+00  0.00000000000E+00  0.12573929606E+04  0.34736401320E+04  0.32380763902E+04 0.  0.
        1    1    3    3  502    0  0.12919882114E+04 -0.95804582351E+03  0.43031250510E+03  0.16650087659E+04  0.50400001928E-02 0. -1.
       -1    1    3    3    0  502 -0.12919882114E+04  0.95804582351E+03  0.82708045547E+03  0.18086313661E+04  0.50400001928E-02 0.  1.
</event>
<event>
 5   0  0.2997105E-07  0.3207952E+04  0.7818609E-02  0.8186720E-01
        1   -1    0    0  501    0  0.00000000000E+00  0.00000000000E+00  0.16840341979E+04  0.16840341979E+04  0.50400001928E-02 0. -1.
       -1   -1    0    0    0  501  0.00000000000E+00  0.00000000000E+00 -0.15277236832E+04  0.15277236832E+04  0.50400001928E-02 0.  1.
    10030    2    1    2    0    0  0.00000000000E+00  0.00000000000E+00  0.15631051467E+03  0.32117578811E+04  0.32079519495E+04 0.  0.
        3    1    3    3  502    0  0.54019303793E+03  0.10765177032E+03  0.15863758672E+04  0.16792813415E+04  0.10100000352E+00 0. -1.
       -3    1    3    3    0  502 -0.54019303793E+03 -0.10765177032E+03 -0.14300653525E+04  0.15324765396E+04  0.10100000352E+00 0.  1.
</event>
<event>
 5   0  0.8802800E-07  0.3214964E+04  0.7818609E-02  0.8184876E-01
        2   -1    0    0  501    0  0.00000000000E+00  0.00000000000E+00  0.24250938626E+04  0.24250938626E+04  0.25500000920E-02 0. -1.
       -2   -1    0    0    0  501  0.00000000000E+00  0.00000000000E+00 -0.10655252182E+04  0.10655252182E+04  0.25500000920E-02 0.  1.
    10030    2    1    2    0    0  0.00000000000E+00  0.00000000000E+00  0.13595686444E+04  0.34906190808E+04  0.32149641784E+04 0.  0.
        5    1    3    3  502    0  0.23869600540E+03 -0.21530330883E+02  0.24055791851E+04  0.24174930494E+04  0.46999998093E+01 0. -1.
       -5    1    3    3    0  502 -0.23869600540E+03  0.21530330883E+02 -0.10460105407E+04  0.10731260314E+04  0.46999998093E+01 0.  1.
</event>
<event>
 5   0  0.8838951E-07  0.3205002E+04  0.7818609E-02  0.8187497E-01
        2   -1    0    0  501    0  0.00000000000E+00  0.00000000000E+00  0.15226234275E+04  0.15226234275E+04  0.25500000920E-02 0. -1.
       -2   -1    0    0    0  501  0.00000000000E+00  0.00000000000E+00 -0.16865691793E+04  0.16865691793E+04  0.25500000920E-02 0.  1.
    10030    2    1    2    0    0  0.00000000000E+00  0.00000000000E+00 -0.16394575176E+03  0.32091926068E+04  0.32050021806E+04 0.  0.
        2    1    3    3  502    0  0.64276631952E+03 -0.14142035930E+03  0.13810540019E+04  0.15298556846E+04  0.25500000920E-02 0. -1.
       -2    1    3    3    0  502 -0.64276631952E+03  0.14142035930E+03 -0.15449997536E+04  0.16793369222E+04  0.25500000920E-02 0.  1.
</event>
<event>
 5   0  0.3075756E-07  0.3204493E+04  0.7818609E-02  0.8187632E-01
       -1   -1    0    0    0  501  0.00000000000E+00  0.00000000000E+00  0.16078943302E+04  0.16078943302E+04  0.50400001928E-02 0.  1.
        1   -1    0    0  501    0  0.00000000000E+00  0.00000000000E+00 -0.15966185329E+04  0.15966185329E+04  0.50400001928E-02 0. -1.
    10030    2    1    2    0    0  0.00000000000E+00  0.00000000000E+00  0.11275797306E+02  0.32045128631E+04  0.32044930248E+04 0.  0.
        5    1    3    3  502    0  0.10664640924E+04 -0.11957409134E+04  0.17853125367E+00  0.16022372215E+04  0.46999998093E+01 0. -1.
       -5    1    3    3    0  502 -0.10664640924E+04  0.11957409134E+04  0.11097266053E+02  0.16022756416E+04  0.46999998093E+01 0.  1.
</event>
<event>
 5   0  0.8195618E-07  0.3187572E+04  0.7818609E-02  0.8192107E-01
        2   -1    0    0  501    0  0.00000000000E+00  0.00000000000E+00  0.16258760054E+04  0.16258760054E+04  0.25500000920E-02 0.  1.
       -2   -1    0    0    0  501  0.00000000000E+00  0.00000000000E+00 -0.15623289318E+04  0.15623289318E+04  0.25500000920E-02 0. -1.
    10030    2    1    2    0    0  0.00000000000E+00  0.00000000000E+00  0.63547073547E+02  0.31882049372E+04  0.31875715664E+04 0.  0.
        1    1    3    3  502    0  0.46640970053E+03  0.73060522237E+03  0.13695112074E+04  0.16207661605E+04  0.50400001928E-02 0.  1.
       -1    1    3    3    0  502 -0.46640970053E+03 -0.73060522237E+03 -0.13059641339E+04  0.15674387767E+04  0.50400001928E-02 0. -1.
</event>
<event>
 5   0  0.8335929E-07  0.3191386E+04  0.7818609E-02  0.8191096E-01
        2   -1    0    0  501    0  0.00000000000E+00  0.00000000000E+00  0.14425048144E+04  0.14425048144E+04  0.25500000920E-02 0. -1.
       -2   -1    0    0    0  501  0.00000000000E+00  0.00000000000E+00 -0.17651492363E+04  0.17651492363E+04  0.25500000920E-02 0.  1.
    10030    2    1    2    0    0  0.00000000000E+00  0.00000000000E+00 -0.32264442190E+03  0.32076540508E+04  0.31913860761E+04 0.  0.
        4    1    3    3  502    0  0.13481383876E+04 -0.33149177803E+03  0.62937126378E+03  0.15242944963E+04  0.12699999809E+01 0. -1.
       -4    1    3    3    0  502 -0.13481383876E+04  0.33149177803E+03 -0.95201568568E+03  0.16833595545E+04  0.12699999809E+01 0.  1.
</event>
<event>
 5   0  0.8195618E-07  0.3186438E+04  0.7818609E-02  0.8192408E-01
       -2   -1    0    0    0  501  0.00000000000E+00  0.00000000000E+00  0.11797466528E+04  0.11797466528E+04  0.25500000920E-02 0.  1.
        2   -1    0    0  501    0  0.00000000000E+00  0.00000000000E+00 -0.21516032247E+04  0.21516032247E+04  0.25500000920E-02 0. -1.
    10030    2    1    2    0    0  0.00000000000E+00  0.00000000000E+00 -0.97185657196E+03  0.33313498775E+04  0.31864379501E+04 0.  0.
        1    1    3    3  502    0 -0.53372758181E+03  0.11173741334E+04  0.56213724584E+03  0.13599221922E+04  0.50400001928E-02 0.  1.
       -1    1    3    3    0  502  0.53372758181E+03 -0.11173741334E+04 -0.15339938178E+04  0.19714276854E+04  0.50400001928E-02 0. -1.
</event>
<event>
 5   0  0.8838951E-07  0.3215870E+04  0.7818609E-02  0.8184639E-01
        2   -1    0    0  501    0  0.00000000000E+00  0.00000000000E+00  0.10677759383E+04  0.10677759383E+04  0.25500000920E-02 0. -1.
       -2   -1    0    0    0  501  0.00000000000E+00  0.00000000000E+00 -0.24213455860E+04  0.24213455860E+04  0.25500000920E-02 0.  1.
    10030    2    1    2    0    0  0.00000000000E+00  0.00000000000E+00 -0.13535696477E+04  0.34891215243E+04  0.32158697456E+04 0.  0.
        2    1    3    3  502    0  0.83058401184E+02  0.29560852666E+03 -0.23892409582E+04  0.24088909182E+04  0.25500000920E-02 0.  1.
       -2    1    3    3    0  502 -0.83058401184E+02 -0.29560852666E+03  0.10356713105E+04  0.10802306062E+04  0.25500000920E-02 0. -1.
</event>
<event>
 5   0  0.2783875E-07  0.3201159E+04  0.7818609E-02  0.8188511E-01
        1   -1    0    0  501    0  0.00000000000E+00  0.00000000000E+00  0.32154712071E+04  0.32154712071E+04  0.50400001928E-02 0.  1.
       -1   -1    0    0    0  501  0.00000000000E+00  0.00000000000E+00 -0.79672748655E+03  0.79672748656E+03  0.50400001928E-02 0. -1.
    10030    2    1    2    0    0  0.00000000000E+00  0.00000000000E+00  0.24187437205E+04  0.40121986937E+04  0.32011587233E+04 0.  0.
        2    1    3    3  502    0 -0.78693870596E+03 -0.87113800058E+03 -0.15425677282E+03  0.11840393131E+04  0.25500000920E-02 0. -1.
       -2    1    3    3    0  502  0.78693870596E+03  0.87113800058E+03  0.25730004934E+04  0.28281593806E+04  0.25500000920E-02 0.  1.
</event>
<event>
 5   0  0.2783875E-07  0.3199839E+04  0.7818609E-02  0.8188860E-01
       -1   -1    0    0    0  501  0.00000000000E+00  0.00000000000E+00  0.34557793239E+04  0.34557793239E+04  0.50400001928E-02 0.  1.
        1   -1    0    0  501    0  0.00000000000E+00  0.00000000000E+00 -0.74071342096E+03  0.74071342097E+03  0.50400001928E-02 0. -1.
    10030    2    1    2    0    0  0.00000000000E+00  0.00000000000E+00  0.27150659029E+04  0.41964927448E+04  0.31998388241E+04 0.  0.
        2    1    3    3  502    0 -0.10939763483E+04 -0.55045464283E+03  0.27077469667E+04  0.29718139579E+04  0.25500000920E-02 0.  1.
       -2    1    3    3    0  502  0.10939763483E+04  0.55045464283E+03  0.73189361833E+01  0.12246787870E+04  0.25500000920E-02 0. -1.
</event>
<event>
 5   0  0.8195618E-07  0.3195467E+04  0.7818609E-02  0.8190015E-01
       -2   -1    0    0    0  501  0.00000000000E+00  0.00000000000E+00  0.19092362405E+04  0.19092362405E+04  0.25500000920E-02 0. -1.
        2   -1    0    0  501    0  0.00000000000E+00  0.00000000000E+00 -0.13370539046E+04  0.13370539046E+04  0.25500000920E-02 0.  1.
    10030    2    1    2    0    0  0.00000000000E+00  0.00000000000E+00  0.57218233587E+03  0.32462901451E+04  0.31954666453E+04 0.  0.
        1    1    3    3  502    0  0.64805389128E+03 -0.28146943472E+03  0.17419054986E+04  0.18797429757E+04  0.50400001928E-02 0. -1.
       -1    1    3    3    0  502 -0.64805389128E+03  0.28146943472E+03 -0.11697231628E+04  0.13665471694E+04  0.50400001928E-02 0.  1.
</event>
<event>
 5   0  0.3013888E-07  0.3203238E+04  0.7818609E-02  0.8187963E-01
        1   -1    0    0  501    0  0.00000000000E+00  0.00000000000E+00  0.19730067086E+04  0.19730067086E+04  0.50400001928E-02 0.  1.
       -1   -1    0    0    0  501  0.00000000000E+00  0.00000000000E+00 -0.13001392393E+04  0.13001392393E+04  0.50400001928E-02 0. -1.
    10030    2    1    2    0    0  0.00000000000E+00  0.00000000000E+00  0.67286746930E+03  0.32731459480E+04  0.32032380126E+04 0.  0.
        1    1    3    3  502    0 -0.13106151381E+04 -0.22559138593E+03 -0.57555787019E+03  0.14490929493E+04  0.50400001928E-02 0. -1.
       -1    1    3    3    0  502  0.13106151381E+04  0.22559138593E+03  0.12484253395E+04  0.18240529987E+04  0.50400001928E-02 0.  1.
</event>
<event>
 5   0  0.3075756E-07  0.3197476E+04  0.7818609E-02  0.8189484E-01
        1   -1    0    0  501    0  0.00000000000E+00  0.00000000000E+00  0.18389876158E+04  0.18389876158E+04  0.50400001928E-02 0.  1.
       -1   -1    0    0    0  501  0.00000000000E+00  0.00000000000E+00 -0.13898748487E+04  0.13898748488E+04  0.50400001928E-02 0. -1.
    10030    2    1    2    0    0  0.00000000000E+00  0.00000000000E+00  0.44911276703E+03  0.32288624645E+04  0.31974756508E+04 0.  0.
        5    1    3    3  502    0 -0.62306382886E+03  0.69296598371E+03  0.15363577273E+04  0.17968938605E+04  0.46999998093E+01 0.  1.
       -5    1    3    3    0  502  0.62306382886E+03 -0.69296598371E+03 -0.10872449603E+04  0.14319686041E+04  0.46999998093E+01 0. -1.
</event>
<event>
 5   0  0.8195618E-07  0.3195607E+04  0.7818609E-02  0.8189978E-01
       -2   -1    0    0    0  501  0.00000000000E+00  0.00000000000E+00  0.15286321347E+04  0.15286321347E+04  0.25500000920E-02 0.  1.
        2   -1    0    0  501    0  0.00000000000E+00  0.00000000000E+00 -0.16701053765E+04  0.16701053765E+04  0.25500000920E-02 0. -1.
    10030    2    1    2    0    0  0.00000000000E+00  0.00000000000E+00 -0.14147324180E+03  0.31987375112E+04  0.31956074521E+04 0.  0.
        1    1    3    3  502    0 -0.97431077588E+03  0.12601466984E+04 -0.19626103484E+03  0.16049204290E+04  0.50400001928E-02 0.  1.
       -1    1    3    3    0  502  0.97431077588E+03 -0.12601466984E+04  0.54787793042E+02  0.15938170823E+04  0.50400001928E-02 0. -1.
</event>
<event>
 5   0  0.2891204E-07  0.3214667E+04  0.7818609E-02  0.8184954E-01
        1   -1    0    0  501    0  0.00000000000E+00  0.00000000000E+00  0.18357501692E+04  0.18357501692E+04  0.50400001928E-02 0. -1.
       -1   -1    0    0    0  501  0.00000000000E+00  0.00000000000E+00 -0.14073378198E+04  0.14073378199E+04  0.50400001928E-02 0.  1.
    10030    2    1    2    0    0  0.00000000000E+00  0.00000000000E+00  0.42841234933E+03  0.32430879890E+04  0.32146667889E+04 0.  0.
        4    1    3    3  502    0  0.10024552642E+04  0.11879178133E+04  0.62703517159E+03  0.16760787592E+04  0.12699999809E+01 0. -1.
       -4    1    3    3    0  502 -0.10024552642E+04 -0.11879178133E+04 -0.19862282226E+03  0.15670092298E+04  0.12699999809E+01 0.  1.
</event>
<event>
 5   0  0.8838951E-07  0.3203673E+04  0.7818609E-02  0.8187848E-01
       -2   -1    0    0    0  501  0.00000000000E+00  0.00000000000E+00  0.17121232941E+04  0.17121232941E+04  0.25500000920E-02 0. -1.
        2   -1    0    0  501    0  0.00000000000E+00  0.00000000000E+00 -0.14986534268E+04  0.14986534268E+04  0.25500000920E-02 0.  1.
    10030    2    1    2    0    0  0.00000000000E+00  0.00000000000E+00  0.21346986728E+03  0.32107767209E+04  0.32036725437E+04 0.  0.
        2    1    3    3  502    0 -0.54017215401E+03  0.97698600411E+03 -0.10445472819E+04  0.15288448686E+04  0.25500000920E-02 0.  1.
       -2    1    3    3    0  502  0.54017215401E+03 -0.97698600411E+03  0.12580171491E+04  0.16819318523E+04  0.25500000920E-02 0. -1.
</event>
<event>
 5   0  0.2891204E-07  0.3200895E+04  0.7818609E-02  0.8188581E-01
        1   -1    0    0  501    0  0.00000000000E+00  0.00000000000E+00  0.15118396871E+04  0.15118396871E+04  0.50400001928E-02 0.  1.
       -1   -1    0    0    0  501  0.00000000000E+00  0.00000000000E+00 -0.16942487895E+04  0.16942487895E+04  0.50400001928E-02 0. -1.
    10030    2    1    2    0    0  0.00000000000E+00  0.00000000000E+00 -0.18240910233E+03  0.32060884766E+04  0.32008952247E+04 0.  0.
        4    1    3    3  502    0  0.29781741137E+03  0.14263069822E+04  0.57197550321E+03  0.15653128783E+04  0.12699999809E+01 0.  1.
       -4    1    3    3    0  502 -0.29781741137E+03 -0.14263069822E+04 -0.75438460554E+03  0.16407755983E+04  0.12699999809E+01 0. -1.
</event>
<event>
 5   0  0.3013888E-07  0.3200451E+04  0.7818609E-02  0.8188698E-01
       -1   -1    0    0    0  501  0.00000000000E+00  0.00000000000E+00  0.18119732442E+04  0.18119732443E+04  0.50400001928E-02 0.  1.
        1   -1    0    0  501    0  0.00000000000E+00  0.00000000000E+00 -0.14132230534E+04  0.14132230534E+04  0.50400001928E-02 0. -1.
    10030    2    1    2    0    0  0.00000000000E+00  0.00000000000E+00  0.39875019082E+03  0.32251962977E+04  0.32004514438E+04 0.  0.
        1    1    3    3  502    0 -0.74037914289E+03 -0.64658549499E+03 -0.10731184149E+04  0.14552722117E+04  0.50400001928E-02 0. -1.
       -1    1    3    3    0  502  0.74037914289E+03  0.64658549499E+03  0.14718686058E+04  0.17699240860E+04  0.50400001928E-02 0.  1.
</event>
<event>
 5   0  0.8802800E-07  0.3210921E+04  0.7818609E-02  0.8185939E-01
        2   -1    0    0  501    0  0.00000000000E+00  0.00000000000E+00  0.20032495556E+04  0.20032495556E+04  0.25500000920E-02 0. -1.
       -2   -1    0    0    0  501  0.00000000000E+00  0.00000000000E+00 -0.12866612673E+04  0.12866612673E+04  0.25500000920E-02 0.  1.
    10030    2    1    2    0    0  0.00000000000E+00  0.00000000000E+00  0.71658828835E+03  0.32899108229E+04  0.32109211214E+04 0.  0.
        5    1    3    3  502    0  0.46826459841E+03 -0.14558063901E+04 -0.14243836252E+03  0.15358889141E+04  0.46999998093E+01 0. -1.
       -5    1    3    3    0  502 -0.46826459841E+03  0.14558063901E+04  0.85902665087E+03  0.17540219088E+04  0.46999998093E+01 0.  1.
</event>
<event>
 5   0  0.2997105E-07  0.3210288E+04  0.7818609E-02  0.8186105E-01
        1   -1    0    0  501    0  0.00000000000E+00  0.00000000000E+00  0.13975433206E+04  0.13975433206E+04  0.50400001928E-02 0. -1.
       -1   -1    0    0    0  501  0.00000000000E+00  0.00000000000E+00 -0.18435835048E+04  0.18435835048E+04  0.50400001928E-02 0.  1.
    10030    2    1    2    0    0  0.00000000000E+00  0.00000000000E+00 -0.44604018419E+03  0.32411268254E+04  0.32102883441E+04 0.  0.
        3    1    3    3  502    0  0.11269031748E+03 -0.13503682087E+04  0.64564869001E+03  0.15010182037E+04  0.10100000352E+00 0. -1.
       -3    1    3    3    0  502 -0.11269031748E+03  0.13503682087E+04 -0.10916888742E+04  0.17401086216E+04  0.10100000352E+00 0.  1.
</event>
<event>
 5   0  0.2997105E-07  0.3196416E+04  0.7818609E-02  0.8189764E-01
        1   -1    0    0  501    0  0.00000000000E+00  0.00000000000E+00  0.16728132301E+04  0.16728132301E+04  0.50400001928E-02 0.  1.
       -1   -1    0    0    0  501  0.00000000000E+00  0.00000000000E+00 -0.15269300606E+04  0.15269300606E+04  0.50400001928E-02 0. -1.
    10030    2    1    2    0    0  0.00000000000E+00  0.00000000000E+00  0.14588316943E+03  0.31997432907E+04  0.31964159972E+04 0.  0.
        3    1    3    3  502    0 -0.63653356844E+03 -0.92896768469E+03  0.12081912458E+04  0.16516301158E+04  0.10100000352E+00 0. -1.
       -3    1    3    3    0  502  0.63653356844E+03  0.92896768469E+03 -0.10623080764E+04  0.15481131749E+04  0.10100000352E+00 0.  1.
</event>
<event>
 5   0  0.8838951E-07  0.3192999E+04  0.7818609E-02  0.8190669E-01
        2   -1    0    0  501    0  0.00000000000E+00  0.00000000000E+00  0.14487345984E+04  0.14487345985E+04  0.25500000920E-02 0. -1.
       -2   -1    0    0    0  501  0.00000000000E+00  0.00000000000E+00 -0.17593359374E+04  0.17593359374E+04  0.25500000920E-02 0.  1.
    10030    2    1    2    0    0  0.00000000000E+00  0.00000000000E+00 -0.31060133893E+03  0.32080705358E+04  0.31929991186E+04 0.  0.
        2    1    3    3  502    0  0.62607623318E+03  0.10563708236E+04  0.86976998851E+03  0.15047892210E+04  0.25500000920E-02 0. -1.
       -2    1    3    3    0  502 -0.62607623318E+03 -0.10563708236E+04 -0.11803713274E+04  0.17032813148E+04  0.25500000920E-02 0.  1.
</event>
<event>
 5   0  0.8335929E-07  0.3206444E+04  0.7818609E-02  0.8187117E-01
       -2   -1    0    0    0  501  0.00000000000E+00  0.00000000000E+00  0.22664940304E+04  0.22664940304E+04  0.25500000920E-02 0. -1.
        2   -1    0    0  501    0  0.00000000000E+00  0.00000000000E+00 -0.11340514322E+04  0.11340514322E+04  0.25500000920E-02 0.  1.
    10030    2    1    2    0    0  0.00000000000E+00  0.00000000000E+00  0.11324425982E+04  0.34005454625E+04  0.32064440124E+04 0.  0.
        4    1    3    3  502    0 -0.14622328801E+04 -0.59829983878E+03  0.85516885790E+03  0.17964974481E+04  0.12699999809E+01 0.  1.
       -4    1    3    3    0  502  0.14622328801E+04  0.59829983878E+03  0.27727374029E+03  0.16040480144E+04  0.12699999809E+01 0. -1.
</event>
<event>
 5   0  0.2997105E-07  0.3190331E+04  0.7818609E-02  0.8191375E-01
       -1   -1    0    0    0  501  0.00000000000E+00  0.00000000000E+00  0.26541328674E+04  0.26541328674E+04  0.50400001928E-02 0.  1.
        1   -1    0    0  501    0  0.00000000000E+00  0.00000000000E+00 -0.95871349745E+03  0.95871349746E+03  0.50400001928E-02 0. -1.
    10030    2    1    2    0    0  0.00000000000E+00  0.00000000000E+00  0.16954193700E+04  0.36128463649E+04  0.31903310199E+04 0.  0.
        3    1    3    3  502    0  0.10343458514E+04  0.10195235806E+04  0.10059926352E+03  0.14558227549E+04  0.10100000352E+00 0. -1.
       -3    1    3    3    0  502 -0.10343458514E+04 -0.10195235806E+04  0.15948201065E+04  0.21570236100E+04  0.10100000352E+00 0.  1.
</event>
<event>
 5   0  0.8838951E-07  0.3187101E+04  0.7818609E-02  0.8192232E-01
       -2   -1    0    0    0  501  0.00000000000E+00  0.00000000000E+00  0.19516921630E+04  0.19516921630E+04  0.25500000920E-02 0.  1.
        2   -1    0    0  501    0  0.00000000000E+00  0.00000000000E+00 -0.13011292113E+04  0.13011292113E+04  0.25500000920E-02 0. -1.
    10030    2    1    2    0    0  0.00000000000E+00  0.00000000000E+00  0.65056295171E+03  0.32528213742E+04  0.31871013066E+04 0.  0.
        2    1    3    3  502    0 -0.76957867426E+02 -0.46354629420E+03  0.18793774119E+04  0.19372292422E+04  0.25500000920E-02 0.  1.
       -2    1    3    3    0  502  0.76957867426E+02  0.46354629420E+03 -0.12288144602E+04  0.13155921321E+04  0.25500000920E-02 0. -1.
</event>
<event>
 5   0  0.8335929E-07  0.3204585E+04  0.7818609E-02  0.8187607E-01
       -2   -1    0    0    0  501  0.00000000000E+00  0.00000000000E+00  0.11915705257E+04  0.11915705257E+04  0.25500000920E-02 0.  1.
        2   -1    0    0  501    0  0.00000000000E+00  0.00000000000E+00 -0.21545855381E+04  0.21545855381E+04  0.25500000920E-02 0. -1.
    10030    2    1    2    0    0  0.00000000000E+00  0.00000000000E+00 -0.96301501247E+03  0.33461560638E+04  0.32045846047E+04 0.  0.
        4    1    3    3  502    0 -0.14801168739E+04 -0.51132595231E+03 -0.12719593444E+03  0.15711080830E+04  0.12699999809E+01 0.  1.
       -4    1    3    3    0  502  0.14801168739E+04  0.51132595231E+03 -0.83581907803E+03  0.17750479808E+04  0.12699999809E+01 0. -1.
</event>
<event>
 5   0  0.8488469E-07  0.3194155E+04  0.7818609E-02  0.8190363E-01
       -2   -1    0    0    0  501  0.00000000000E+00  0.00000000000E+00  0.98662298266E+03  0.98662298267E+03  0.25500000920E-02 0. -1.
        2   -1    0    0  501    0  0.00000000000E+00  0.00000000000E+00 -0.25852391153E+04  0.25852391153E+04  0.25500000920E-02 0.  1.
    10030    2    1    2    0    0  0.00000000000E+00  0.00000000000E+00 -0.15986161326E+04  0.35718620980E+04  0.31941548659E+04 0.  0.
        3    1    3    3  502    0  0.77001940093E+03  0.92152124471E+03  0.37805787206E+03  0.12589912816E+04  0.10100000352E+00 0. -1.
       -3    1    3    3    0  502 -0.77001940093E+03 -0.92152124471E+03 -0.19766740047E+04  0.23128708164E+04  0.10100000352E+00 0.  1.
</event>
<event>
 5   0  0.2997105E-07  0.3204856E+04  0.7818609E-02  0.8187536E-01
       -1   -1    0    0    0  501  0.00000000000E+00  0.00000000000E+00  0.11397295184E+04  0.11397295184E+04  0.50400001928E-02 0. -1.
        1   -1    0    0  501    0  0.00000000000E+00  0.00000000000E+00 -0.22529696614E+04  0.22529696615E+04  0.50400001928E-02 0.  1.
    10030    2    1    2    0    0  0.00000000000E+00  0.00000000000E+00 -0.11132401431E+04  0.33926991798E+04  0.32048563320E+04 0.  0.
        3    1    3    3  502    0 -0.53687241587E+03  0.76198793642E+03  0.82320187900E+03  0.12435911506E+04  0.10100000352E+00 0. -1.
       -3    1    3    3    0  502  0.53687241587E+03 -0.76198793642E+03 -0.19364420221E+04  0.21491080292E+04  0.10100000352E+00 0.  1.
</event>
<event>
 5   0  0.8838951E-07  0.3208059E+04  0.7818609E-02  0.8186692E-01
       -2   -1    0    0    0  501  0.00000000000E+00  0.00000000000E+00  0.14757447363E+04  0.14757447363E+04  0.25500000920E-02 0. -1.
        2   -1    0    0  501    0  0.00000000000E+00  0.00000000000E+00 -0.17434664204E+04  0.17434664204E+04  0.25500000920E-02 0.  1.
    10030    2    1    2    0    0  0.00000000000E+00  0.00000000000E+00 -0.26772168410E+03  0.32192111567E+04  0.32080594713E+04 0.  0.
        2    1    3    3  502    0  0.46502224554E+03  0.14755468249E+04 -0.55892186197E+03  0.16449552484E+04  0.25500000920E-02 0.  1.
       -2    1    3    3    0  502 -0.46502224554E+03 -0.14755468249E+04  0.29120017787E+03  0.15742559084E+04  0.25500000920E-02 0. -1.
</event>
<event>
 5   0  0.2783875E-07  0.3208303E+04  0.7818609E-02  0.8186628E-01
        3   -1    0    0  501    0  0.00000000000E+00  0.00000000000E+00  0.10154282829E+04  0.10154282880E+04  0.10100000352E+00 0.  1.
       -3   -1    0    0    0  501  0.00000000000E+00  0.00000000000E+00 -0.25342034861E+04  0.25342034881E+04  0.10100000352E+00 0. -1.
    10030    2    1    2    0    0  0.00000000000E+00  0.00000000000E+00 -0.15187752032E+04  0.35496317761E+04  0.32083029203E+04 0.  0.
        2    1    3    3  502    0  0.22950690989E+03 -0.88613006770E+03  0.69811044808E+03  0.11511985564E+04  0.25500000920E-02 0.  1.
       -2    1    3    3    0  502 -0.22950690989E+03  0.88613006770E+03 -0.22168856513E+04  0.23984332197E+04  0.25500000920E-02 0. -1.
</event>
<event>
 5   0  0.2891204E-07  0.3201533E+04  0.7818609E-02  0.8188413E-01
       -1   -1    0    0    0  501  0.00000000000E+00  0.00000000000E+00  0.12421639197E+04  0.12421639197E+04  0.50400001928E-02 0. -1.
        1   -1    0    0  501    0  0.00000000000E+00  0.00000000000E+00 -0.20628941914E+04  0.20628941914E+04  0.50400001928E-02 0.  1.
    10030    2    1    2    0    0  0.00000000000E+00  0.00000000000E+00 -0.82073027172E+03  0.33050581110E+04  0.32015325921E+04 0.  0.
        4    1    3    3  502    0 -0.53405429379E+03  0.13806879304E+04 -0.10391061903E+04  0.18086615044E+04  0.12699999809E+01 0. -1.
       -4    1    3    3    0  502  0.53405429379E+03 -0.13806879304E+04  0.21837591855E+03  0.14963966067E+04  0.12699999809E+01 0.  1.
</event>
<event>
 5   0  0.8838951E-07  0.3205319E+04  0.7818609E-02  0.8187414E-01
        2   -1    0    0  501    0  0.00000000000E+00  0.00000000000E+00  0.16029184570E+04  0.16029184570E+04  0.25500000920E-02 0.  1.
       -2   -1    0    0    0  501  0.00000000000E+00  0.00000000000E+00 -0.16024005788E+04  0.16024005788E+04  0.25500000920E-02 0. -1.
    10030    2    1    2    0    0  0.00000000000E+00  0.00000000000E+00  0.51787812840E+00  0.32053190358E+04  0.32053189940E+04 0.  0.
        2    1    3    3  502    0 -0.10920547872E+04 -0.11021397357E+04 -0.40126542179E+03  0.16025946443E+04  0.25500000920E-02 0. -1.
       -2    1    3    3    0  502  0.10920547872E+04  0.11021397357E+04  0.40178329992E+03  0.16027243915E+04  0.25500000920E-02 0.  1.
</event>
<event>
 5   0  0.3075756E-07  0.3190512E+04  0.7818609E-02  0.8191327E-01
       -1   -1    0    0    0  501  0.00000000000E+00  0.00000000000E+00  0.12917199731E+04  0.12917199732E+04  0.50400001928E-02 0. -1.
        1   -1    0    0  501    0  0.00000000000E+00  0.00000000000E+00 -0.19701191788E+04  0.19701191788E+04  0.50400001928E-02 0.  1.
    10030    2    1    2    0    0  0.00000000000E+00  0.00000000000E+00 -0.67839920562E+03  0.32618391519E+04  0.31905123681E+04 0.  0.
        5    1    3    3  502    0  0.15188585165E+03 -0.94707955411E+03 -0.16423690491E+04  0.19019535160E+04  0.46999998093E+01 0.  1.
       -5    1    3    3    0  502 -0.15188585165E+03  0.94707955411E+03  0.96396984343E+03  0.13598856359E+04  0.46999998093E+01 0. -1.
</event>
<event>
 5   0  0.2997105E-07  0.3216244E+04  0.7818609E-02  0.8184540E-01
        1   -1    0    0  501    0  0.00000000000E+00  0.00000000000E+00  0.85618922371E+03  0.85618922372E+03  0.50400001928E-02 0.  1.
       -1   -1    0    0    0  501  0.00000000000E+00  0.00000000000E+00 -0.30204268691E+04  0.30204268691E+04  0.50400001928E-02 0. -1.
    10030    2    1    2    0    0  0.00000000000E+00  0.00000000000E+00 -0.21642376454E+04  0.38766160929E+04  0.32162443541E+04 0.  0.
        3    1    3    3  502    0 -0.37827659393E+03 -0.99111692491E+03 -0.25388418503E+04  0.27515675335E+04  0.10100000352E+00 0.  1.
       -3    1    3    3    0  502  0.37827659393E+03  0.99111692491E+03  0.37460420490E+03  0.11250485593E+04  0.10100000352E+00 0. -1.
</event>
<event>
 5   0  0.2997105E-07  0.3210359E+04  0.7818609E-02  0.8186087E-01
        1   -1    0    0  501    0  0.00000000000E+00  0.00000000000E+00  0.13380447161E+04  0.13380447161E+04  0.50400001928E-02 0. -1.
       -1   -1    0    0    0  501  0.00000000000E+00  0.00000000000E+00 -0.19256467496E+04  0.19256467496E+04  0.50400001928E-02 0.  1.
    10030    2    1    2    0    0  0.00000000000E+00  0.00000000000E+00 -0.58760203347E+03  0.32636914657E+04  0.32103591440E+04 0.  0.
        3    1    3    3  502    0 -0.11572204367E+04  0.73282482708E+02  0.83462610967E+03  0.14286812851E+04  0.10100000352E+00 0. -1.
       -3    1    3    3    0  502  0.11572204367E+04 -0.73282482708E+02 -0.14222281431E+04  0.18350101805E+04  0.10100000352E+00 0.  1.
</event>
<event>
 5   0  0.2783875E-07  0.3188889E+04  0.7818609E-02  0.8191758E-01
       -1   -1    0    0    0  501  0.00000000000E+00  0.00000000000E+00  0.15623810838E+04  0.15623810838E+04  0.50400001928E-02 0.  1.
        1   -1    0    0  501    0  0.00000000000E+00  0.00000000000E+00 -0.16271657534E+04  0.16271657534E+04  0.50400001928E-02 0. -1.
    10030    2    1    2    0    0  0.00000000000E+00  0.00000000000E+00 -0.64784669659E+02  0.31895468372E+04  0.31888888305E+04 0.  0.
        2    1    3    3  502    0  0.12222859988E+04 -0.51570816731E+03  0.85227590879E+03  0.15768044271E+04  0.25500000920E-02 0.  1.
       -2    1    3    3    0  502 -0.12222859988E+04  0.51570816731E+03 -0.91706057844E+03  0.16127424101E+04  0.25500000920E-02 0. -1.
</event>
<event>
 5   0  0.8802800E-07  0.3190104E+04  0.7818609E-02  0.8191436E-01
        2   -1    0    0  501    0  0.00000000000E+00  0.00000000000E+00  0.20216862758E+04  0.20216862758E+04  0.25500000920E-02 0.  1.
       -2   -1    0    0    0  501  0.00000000000E+00  0.00000000000E+00 -0.12584499820E+04  0.12584499820E+04  0.25500000920E-02 0. -1.
    10030    2    1    2    0    0  0.00000000000E+00  0.00000000000E+00  0.76323629375E+03  0.32801362578E+04  0.31901041096E+04 0.  0.
        5    1    3    3  502    0 -0.70149785418E+03  0.35876021947E+03  0.18076112078E+04  0.19718743629E+04  0.46999998093E+01 0.  1.
       -5    1    3    3    0  502  0.70149785418E+03 -0.35876021947E+03 -0.10443749141E+04  0.13082618949E+04  0.46999998093E+01 0. -1.
</event>
<event>
 5   0  0.2891204E-07  0.3193803E+04  0.7818609E-02  0.8190456E-01
        1   -1    0    0  501    0  0.00000000000E+00  0.00000000000E+00  0.20591259589E+04  0.20591259589E+04  0.50400001928E-02 0.  1.
       -1   -1    0    0    0  501  0.00000000000E+00  0.00000000000E+00 -0.12384352578E+04  0.12384352578E+04  0.50400001928E-02 0. -1.
    10030    2    1    2    0    0  0.00000000000E+00  0.00000000000E+00  0.82069070111E+03  0.32975612167E+04  0.31938028666E+04 0.  0.
        4    1    3    3  502    0  0.24484988815E+03  0.92226416750E+03 -0.91171028044E+03  0.13197499425E+04  0.12699999809E+01 0. -1.
       -4    1    3    3    0  502 -0.24484988815E+03 -0.92226416750E+03  0.17324009815E+04  0.19778112742E+04  0.12699999809E+01 0.  1.
</event>
<event>
 5   0  0.2997105E-07  0.3212453E+04  0.7818609E-02  0.8185536E-01
        1   -1    0    0  501    0  0.00000000000E+00  0.00000000000E+00  0.13877454588E+04  0.13877454588E+04  0.50400001928E-02 0. -1.
       -1   -1    0    0    0  501  0.00000000000E+00  0.00000000000E+00 -0.18591045305E+04  0.18591045305E+04  0.50400001928E-02 0.  1.
    10030    2    1    2    0    0  0.00000000000E+00  0.00000000000E+00 -0.47135907170E+03  0.32468499893E+04  0.32124531870E+04 0.  0.
        3    1    3    3  502    0  0.16653784710E+02  0.14467292598E+04  0.46940090970E+03  0.15210654568E+04  0.10100000352E+00 0. -1.
       -3    1    3    3    0  502 -0.16653784710E+02 -0.14467292598E+04 -0.94075998140E+03  0.17257845325E+04  0.10100000352E+00 0.  1.
</event>
<event>
 5   0  0.8838951E-07  0.3195069E+04  0.7818609E-02  0.8190121E-01
       -2   -1    0    0    0  501  0.00000000000E+00  0.00000000000E+00  0.12159837831E+04  0.12159837831E+04  0.25500000920E-02 0.  1.
        2   -1    0    0  501    0  0.00000000000E+00  0.00000000000E+00 -0.20988080881E+04  0.20988080881E+04  0.25500000920E-02 0. -1.
    10030    2    1    2    0    0  0.00000000000E+00  0.00000000000E+00 -0.88282430504E+03  0.33147918712E+04  0.31950690753E+04 0.  0.
        2    1    3    3  502    0 -0.89454489311E+03 -0.94057682749E+01  0.93174565847E+03  0.12916845615E+04  0.25500000920E-02 0.  1.
       -2    1    3    3    0  502  0.89454489311E+03  0.94057682749E+01 -0.18145699635E+04  0.20231073097E+04  0.25500000920E-02 0. -1.
</event>
<event>
 5   0  0.2783875E-07  0.3199727E+04  0.7818609E-02  0.8188889E-01
       -1   -1    0    0    0  501  0.00000000000E+00  0.00000000000E+00  0.12659500081E+04  0.12659500081E+04  0.50400001928E-02 0.  1.
        1   -1    0    0  501    0  0.00000000000E+00  0.00000000000E+00 -0.20218513774E+04  0.20218513774E+04  0.50400001928E-02 0. -1.
    10030    2    1    2    0    0  0.00000000000E+00  0.00000000000E+00 -0.75590136934E+03  0.32878013855E+04  0.31997267180E+04 0.  0.
        2    1    3    3  502    0 -0.38863980056E+03 -0.56144210587E+02 -0.19715664021E+04  0.20102903136E+04  0.25500000920E-02 0. -1.
       -2    1    3    3    0  502  0.38863980056E+03  0.56144210587E+02  0.12156650328E+04  0.12775110719E+04  0.25500000920E-02 0.  1.
</event>
<event>
 5   0  0.8802800E-07  0.3196462E+04  0.7818609E-02  0.8189752E-01
        2   -1    0    0  501    0  0.00000000000E+00  0.00000000000E+00  0.28292647387E+04  0.28292647387E+04  0.25500000920E-02 0. -1.
       -2   -1    0    0    0  501  0.00000000000E+00  0.00000000000E+00 -0.90282895600E+03  0.90282895601E+03  0.25500000920E-02 0.  1.
    10030    2    1    2    0    0  0.00000000000E+00  0.00000000000E+00  0.19264357826E+04  0.37320936947E+04  0.31964618754E+04 0.  0.
        5    1    3    3  502    0 -0.92386179529E+03  0.60701519825E+03  0.23109054970E+04  0.25616975570E+04  0.46999998093E+01 0. -1.
       -5    1    3    3    0  502  0.92386179529E+03 -0.60701519825E+03 -0.38446971435E+03  0.11703961376E+04  0.46999998093E+01 0.  1.
</event>
<event>
 5   0  0.3013888E-07  0.3184771E+04  0.7818609E-02  0.8192851E-01
        1   -1    0    0  501    0  0.00000000000E+00  0.00000000000E+00  0.16640773179E+04  0.16640773179E+04  0.50400001928E-02 0. -1.
       -1   -1    0    0    0  501  0.00000000000E+00  0.00000000000E+00 -0.15237825922E+04  0.15237825922E+04  0.50400001928E-02 0.  1.
    10030    2    1    2    0    0  0.00000000000E+00  0.00000000000E+00  0.14029472571E+03  0.31878599100E+04  0.31847712941E+04 0.  0.
        1    1    3    3  502    0  0.10306629249E+04  0.11954764165E+04 -0.14044232052E+03  0.15846621005E+04  0.50400001928E-02 0. -1.
       -1    1    3    3    0  502 -0.10306629249E+04 -0.11954764165E+04  0.28073704623E+03  0.16031978095E+04  0.50400001928E-02 0.  1.
</event>
<event>
 5   0  0.8488469E-07  0.3201506E+04  0.7818609E-02  0.8188419E-01
       -2   -1    0    0    0  501  0.00000000000E+00  0.00000000000E+00  0.14162701772E+04  0.14162701772E+04  0.25500000920E-02 0. -1.
        2   -1    0    0  501    0  0.00000000000E+00  0.00000000000E+00 -0.18092669202E+04  0.18092669202E+04  0.25500000920E-02 0.  1.
    10030    2    1    2    0    0  0.00000000000E+00  0.00000000000E+00 -0.39299674307E+03  0.32255370974E+04  0.32015063840E+04 0.  0.
        3    1    3    3  502    0 -0.12678735699E+04  0.58052888118E+03 -0.98846068848E+03  0.17092605752E+04  0.10100000352E+00 0.  1.
       -3    1    3    3    0  502  0.12678735699E+04 -0.58052888118E+03  0.59546394541E+03  0.15162765222E+04  0.10100000352E+00 0. -1.
</event>
<event>
 5   0  0.8802800E-07  0.3206905E+04  0.7818609E-02  0.8186996E-01
        2   -1    0    0  501    0  0.00000000000E+00  0.00000000000E+00  0.99397800961E+03  0.99397800962E+03  0.25500000920E-02 0. -1.
       -2   -1    0    0    0  501  0.00000000000E+00  0.00000000000E+00 -0.25866360646E+04  0.25866360646E+04  0.25500000920E-02 0.  1.
    10030    2    1    2    0    0  0.00000000000E+00  0.00000000000E+00 -0.15926580550E+04  0.35806140742E+04  0.32069046553E+04 0.  0.
        5    1    3    3  502    0  0.92451271337E+03  0.38588766272E+03 -0.21941835433E+04  0.24120730828E+04  0.46999998093E+01 0.  1.
       -5    1    3    3    0  502 -0.92451271337E+03 -0.38588766272E+03  0.60152548830E+03  0.11685409914E+04  0.46999998093E+01 0. -1.
</event>
<event>
 5   0  0.3013888E-07  0.3205907E+04  0.7818609E-02  0.8187259E-01
       -1   -1    0    0    0  501  0.00000000000E+00  0.00000000000E+00  0.26467548378E+04  0.26467548378E+04  0.50400001928E-02 0. -1.
        1   -1    0    0  501    0  0.00000000000E+00  0.00000000000E+00 -0.97079613941E+03  0.97079613942E+03  0.50400001928E-02 0.  1.
    10030    2    1    2    0    0  0.00000000000E+00  0.00000000000E+00  0.16759586984E+04  0.36175509773E+04  0.32059066603E+04 0.  0.
        1    1    3    3  502    0  0.87529609628E+03 -0.71558372191E+03  0.21202212728E+04  0.24028195032E+04  0.50400001928E-02 0. -1.
       -1    1    3    3    0  502 -0.87529609628E+03  0.71558372191E+03 -0.44426257433E+03  0.12147314741E+04  0.50400001928E-02 0.  1.
</event>
<event>
 5   0  0.8838951E-07  0.3086084E+04  0.7818609E-02  0.8219567E-01
        2   -1    0    0  501    0  0.00000000000E+00  0.00000000000E+00  0.20982063161E+04  0.20982063161E+04  0.25500000920E-02 0.  1.
       -2   -1    0    0    0  501  0.00000000000E+00  0.00000000000E+00 -0.11347685770E+04  0.11347685770E+04  0.25500000920E-02 0. -1.
    10030    2    1    2    0    0  0.00000000000E+00  0.00000000000E+00  0.96343773912E+03  0.32329748931E+04  0.30860839882E+04 0.  0.
        2    1    3    3  502    0 -0.14742732369E+04 -0.44768205388E+03  0.56985290370E+03  0.16427516946E+04  0.25500000920E-02 0.  1.
       -2    1    3    3    0  502  0.14742732369E+04  0.44768205388E+03  0.39358483543E+03  0.15902231985E+04  0.25500000920E-02 0. -1.
</event>
<event>
 5   0  0.8802800E-07  0.3200196E+04  0.7818609E-02  0.8188765E-01
       -2   -1    0    0    0  501  0.00000000000E+00  0.00000000000E+00  0.92749617329E+03  0.92749617329E+03  0.25500000920E-02 0. -1.
        2   -1    0    0  501    0  0.00000000000E+00  0.00000000000E+00 -0.27604571908E+04  0.27604571908E+04  0.25500000920E-02 0.  1.
    10030    2    1    2    0    0  0.00000000000E+00  0.00000000000E+00 -0.18329610175E+04  0.36879533641E+04  0.32001959196E+04 0.  0.
        5    1    3    3  502    0 -0.58645710279E+03  0.51921221741E+03 -0.25244103042E+04  0.26431388034E+04  0.46999998093E+01 0.  1.
       -5    1    3    3    0  502  0.58645710279E+03 -0.51921221741E+03  0.69144928670E+03  0.10448145607E+04  0.46999998093E+01 0. -1.
</event>
<event>
 5   0  0.2783875E-07  0.3186810E+04  0.7818609E-02  0.8192309E-01
       -1   -1    0    0    0  501  0.00000000000E+00  0.00000000000E+00  0.10941789888E+04  0.10941789888E+04  0.50400001928E-02 0. -1.
        1   -1    0    0  501    0  0.00000000000E+00  0.00000000000E+00 -0.23204056520E+04  0.23204056520E+04  0.50400001928E-02 0.  1.
    10030    2    1    2    0    0  0.00000000000E+00  0.00000000000E+00 -0.12262266632E+04  0.34145846408E+04  0.31868097589E+04 0.  0.
        2    1    3    3  502    0 -0.37768357838E+03  0.14411464911E+03 -0.22645486344E+04  0.23003465902E+04  0.25500000920E-02 0.  1.
       -2    1    3    3    0  502  0.37768357838E+03 -0.14411464911E+03  0.10383219712E+04  0.11142380506E+04  0.25500000920E-02 0. -1.
</event>
<event>
 5   0  0.8802800E-07  0.3207531E+04  0.7818609E-02  0.8186831E-01
        2   -1    0    0  501    0  0.00000000000E+00  0.00000000000E+00  0.26227273943E+04  0.26227273943E+04  0.25500000920E-02 0. -1.
       -2   -1    0    0    0  501  0.00000000000E+00  0.00000000000E+00 -0.98068302990E+03  0.98068302990E+03  0.25500000920E-02 0.  1.
    10030    2    1    2    0    0  0.00000000000E+00  0.00000000000E+00  0.16420443644E+04  0.36034104242E+04  0.32075312922E+04 0.  0.
        5    1    3    3  502    0 -0.61307993245E+03  0.47303782362E+03  0.23987840927E+04  0.25206782816E+04  0.46999998093E+01 0. -1.
       -5    1    3    3    0  502  0.61307993245E+03 -0.47303782362E+03 -0.75673972829E+03  0.10827321426E+04  0.46999998093E+01 0.  1.
</event>
<event>
 5   0  0.2891204E-07  0.3189527E+04  0.7818609E-02  0.8191588E-01
        1   -1    0    0  501    0  0.00000000000E+00  0.00000000000E+00  0.77278169628E+03  0.77278169629E+03  0.50400001928E-02 0. -1.
       -1   -1    0    0    0  501  0.00000000000E+00  0.00000000000E+00 -0.32910602691E+04  0.32910602691E+04  0.50400001928E-02 0.  1.
    10030    2    1    2    0    0  0.00000000000E+00  0.00000000000E+00 -0.25182785729E+04  0.40638419654E+04  0.31895273238E+04 0.  0.
        4    1    3    3  502    0 -0.13814165315E+04  0.64742771975E+03 -0.18510162168E+04  0.23986948396E+04  0.12699999809E+01 0.  1.
       -4    1    3    3    0  502  0.13814165315E+04 -0.64742771975E+03 -0.66726235611E+03  0.16651471258E+04  0.12699999809E+01 0. -1.
</event>
<event>
 5   0  0.3075756E-07  0.3195118E+04  0.7818609E-02  0.8190108E-01
       -1   -1    0    0    0  501  0.00000000000E+00  0.00000000000E+00  0.12099255131E+04  0.12099255131E+04  0.50400001928E-02 0. -1.
        1   -1    0    0  501    0  0.00000000000E+00  0.00000000000E+00 -0.21093817511E+04  0.21093817512E+04  0.50400001928E-02 0.  1.
    10030    2    1    2    0    0  0.00000000000E+00  0.00000000000E+00 -0.89945623804E+03  0.33193072643E+04  0.31951180245E+04 0.  0.
        5    1    3    3  502    0 -0.25497115565E+03  0.13836995919E+04  0.33634447509E+03  0.14466459646E+04  0.46999998093E+01 0. -1.
       -5    1    3    3    0  502  0.25497115565E+03 -0.13836995919E+04 -0.12358007131E+04  0.18726612997E+04  0.46999998093E+01 0.  1.
</event>
<event>
 5   0  0.3075756E-07  0.3199153E+04  0.7818609E-02  0.8189041E-01
        1   -1    0    0  501    0  0.00000000000E+00  0.00000000000E+00  0.27311409260E+04  0.27311409260E+04  0.50400001928E-02 0. -1.
       -1   -1    0    0    0  501  0.00000000000E+00  0.00000000000E+00 -0.93684123997E+03  0.93684123998E+03  0.50400001928E-02 0.  1.
    10030    2    1    2    0    0  0.00000000000E+00  0.00000000000E+00  0.17942996860E+04  0.36679821660E+04  0.31991532953E+04 0.  0.
        5    1    3    3  502    0 -0.20427525236E+03  0.23306726651E+02  0.27159200927E+04  0.27236952147E+04  0.46999998093E+01 0. -1.
       -5    1    3    3    0  502  0.20427525236E+03 -0.23306726651E+02 -0.92162040675E+03  0.94428695129E+03  0.46999998093E+01 0.  1.
</event>
<event>
 5   0  0.2783875E-07  0.3194994E+04  0.7818609E-02  0.8190140E-01
       -3   -1    0    0    0  501  0.00000000000E+00  0.00000000000E+00  0.13973018340E+04  0.13973018377E+04  0.10100000352E+00 0.  1.
        3   -1    0    0  501    0  0.00000000000E+00  0.00000000000E+00 -0.18263751156E+04  0.18263751184E+04  0.10100000352E+00 0. -1.
    10030    2    1    2    0    0  0.00000000000E+00  0.00000000000E+00 -0.42907328156E+03  0.32236769560E+04  0.31949944031E+04 0.  0.
        4    1    3    3  502    0  0.47152064189E+03  0.24242421694E+03 -0.17350137643E+04  0.18142148693E+04  0.12699999809E+01 0. -1.
       -4    1    3    3    0  502 -0.47152064189E+03 -0.24242421694E+03  0.13059404827E+04  0.14094620868E+04  0.12699999809E+01 0.  1.
</event>
<event>
 5   0  0.8488469E-07  0.3192548E+04  0.7818609E-02  0.8190788E-01
        2   -1    0    0  501    0  0.00000000000E+00  0.00000000000E+00  0.17021751803E+04  0.17021751803E+04  0.25500000920E-02 0. -1.
       -2   -1    0    0    0  501  0.00000000000E+00  0.00000000000E+00 -0.14969617896E+04  0.14969617896E+04  0.25500000920E-02 0.  1.
    10030    2    1    2    0    0  0.00000000000E+00  0.00000000000E+00  0.20521339067E+03  0.31991369698E+04  0.31925483264E+04 0.  0.
        3    1    3    3  502    0  0.52422254199E+03  0.14281570834E+04  0.58697706088E+03  0.16306391412E+04  0.10100000352E+00 0. -1.
       -3    1    3    3    0  502 -0.52422254199E+03 -0.14281570834E+04 -0.38176367021E+03  0.15684978287E+04  0.10100000352E+00 0.  1.
</event>
<event>
 5   0  0.3075756E-07  0.3188142E+04  0.7818609E-02  0.8191956E-01
       -1   -1    0    0    0  501  0.00000000000E+00  0.00000000000E+00  0.11440395156E+04  0.11440395156E+04  0.50400001928E-02 0.  1.
        1   -1    0    0  501    0  0.00000000000E+00  0.00000000000E+00 -0.22211321882E+04  0.22211321882E+04  0.50400001928E-02 0. -1.
    10030    2    1    2    0    0  0.00000000000E+00  0.00000000000E+00 -0.10770926726E+04  0.33651717039E+04  0.31881424013E+04 0.  0.
        5    1    3    3  502    0 -0.10862504797E+04  0.60705960029E+03 -0.15901501554E+04  0.20191733630E+04  0.46999998093E+01 0. -1.
       -5    1    3    3    0  502  0.10862504797E+04 -0.60705960029E+03  0.51305748282E+03  0.13459983409E+04  0.46999998093E+01 0.  1.
</event>
<event>
 5   0  0.3075756E-07  0.3138634E+04  0.7818609E-02  0.8205214E-01
        1   -1    0    0  501    0  0.00000000000E+00  0.00000000000E+00  0.29771345735E+04  0.29771345735E+04  0.50400001928E-02 0.  1.
       -1   -1    0    0    0  501  0.00000000000E+00  0.00000000000E+00 -0.82722357864E+03  0.82722357866E+03  0.50400001928E-02 0. -1.
    10030    2    1    2    0    0  0.00000000000E+00  0.00000000000E+00  0.21499109949E+04  0.38043581522E+04  0.31386340443E+04 0.  0.
        5    1    3    3  502    0  0.16787959486E+03  0.55868122963E+03  0.28408182551E+04  0.29000997782E+04  0.46999998093E+01 0.  1.
       -5    1    3    3    0  502 -0.16787959486E+03 -0.55868122963E+03 -0.69090726024E+03  0.90425837401E+03  0.46999998093E+01 0. -1.
</event>
<event>
 5   0  0.8488469E-07  0.3185774E+04  0.7818609E-02  0.8192584E-01
       -2   -1    0    0    0  501  0.00000000000E+00  0.00000000000E+00  0.12717443117E+04  0.12717443117E+04  0.25500000920E-02 0.  1.
        2   -1    0    0  501    0  0.00000000000E+00  0.00000000000E+00 -0.19951245325E+04  0.19951245325E+04  0.25500000920E-02 0. -1.
    10030    2    1    2    0    0  0.00000000000E+00  0.00000000000E+00 -0.72338022084E+03  0.32668688442E+04  0.31857735484E+04 0.  0.
        3    1    3    3  502    0  0.17530766736E+03  0.92054936604E+03 -0.16825564823E+04  0.19259128329E+04  0.10100000352E+00 0. -1.
       -3    1    3    3    0  502 -0.17530766736E+03 -0.92054936604E+03  0.95917626148E+03  0.13409560113E+04  0.10100000352E+00 0.  1.
</event>
<event>
 5   0  0.8195618E-07  0.3214348E+04  0.7818609E-02  0.8185038E-01
        2   -1    0    0  501    0  0.00000000000E+00  0.00000000000E+00  0.20039991764E+04  0.20039991764E+04  0.25500000920E-02 0. -1.
       -2   -1    0    0    0  501  0.00000000000E+00  0.00000000000E+00 -0.12889266780E+04  0.12889266780E+04  0.25500000920E-02 0.  1.
    10030    2    1    2    0    0  0.00000000000E+00  0.00000000000E+00  0.71507249840E+03  0.32929258545E+04  0.32143478351E+04 0.  0.
        1    1    3    3  502    0  0.83879083561E+03  0.13702107873E+04  0.40289426844E+03  0.16563126091E+04  0.50400001928E-02 0.  1.
       -1    1    3    3    0  502 -0.83879083561E+03 -0.13702107873E+04  0.31217822996E+03  0.16366132453E+04  0.50400001928E-02 0. -1.
</event>
<event>
 5   0  0.8335929E-07  0.3201492E+04  0.7818609E-02  0.8188423E-01
        2   -1    0    0  501    0  0.00000000000E+00  0.00000000000E+00  0.21419150232E+04  0.21419150232E+04  0.25500000920E-02 0. -1.
       -2   -1    0    0    0  501  0.00000000000E+00  0.00000000000E+00 -0.11963070860E+04  0.11963070860E+04  0.25500000920E-02 0.  1.
    10030    2    1    2    0    0  0.00000000000E+00  0.00000000000E+00  0.94560793714E+03  0.33382221092E+04  0.32014922270E+04 0.  0.
        4    1    3    3  502    0  0.27065282241E+02 -0.69144843655E+03  0.19779029347E+04  0.20954558219E+04  0.12699999809E+01 0. -1.
       -4    1    3    3    0  502 -0.27065282241E+02  0.69144843655E+03 -0.10322949975E+04  0.12427662872E+04  0.12699999809E+01 0.  1.
</event>
<event>
 5   0  0.2783875E-07  0.3206951E+04  0.7818609E-02  0.8186984E-01
       -1   -1    0    0    0  501  0.00000000000E+00  0.00000000000E+00  0.26654176558E+04  0.26654176558E+04  0.50400001928E-02 0. -1.
        1   -1    0    0  501    0  0.00000000000E+00  0.00000000000E+00 -0.96462673754E+03  0.96462673755E+03  0.50400001928E-02 0.  1.
    10030    2    1    2    0    0  0.00000000000E+00  0.00000000000E+00  0.17007909183E+04  0.36300443934E+04  0.32069506623E+04 0.  0.
        2    1    3    3  502    0 -0.89478548866E+03  0.13103247454E+04  0.11123122962E+04  0.19377385411E+04  0.25500000920E-02 0. -1.
       -2    1    3    3    0  502  0.89478548866E+03 -0.13103247454E+04  0.58847862207E+03  0.16923058523E+04  0.25500000920E-02 0.  1.
</event>
<event>
 5   0  0.8802800E-07  0.3192960E+04  0.7818609E-02  0.8190679E-01
        2   -1    0    0  501    0  0.00000000000E+00  0.00000000000E+00  0.24594052104E+04  0.24594052105E+04  0.25500000920E-02 0. -1.
       -2   -1    0    0    0  501  0.00000000000E+00  0.00000000000E+00 -0.10363268313E+04  0.10363268313E+04  0.25500000920E-02 0.  1.
    10030    2    1    2    0    0  0.00000000000E+00  0.00000000000E+00  0.14230783792E+04  0.34957320417E+04  0.31929595103E+04 0.  0.
        5    1    3    3  502    0  0.11833474180E+04 -0.51638838463E+03 -0.31652277350E+03  0.13293520345E+04  0.46999998093E+01 0. -1.
       -5    1    3    3    0  502 -0.11833474180E+04  0.51638838463E+03  0.17396011527E+04  0.21663800072E+04  0.46999998093E+01 0.  1.
</event>
<event>
 5   0  0.2891204E-07  0.3202060E+04  0.7818609E-02  0.8188273E-01
       -1   -1    0    0    0  501  0.00000000000E+00  0.00000000000E+00  0.23689719215E+04  0.23689719215E+04  0.50400001928E-02 0. -1.
        1   -1    0    0  501    0  0.00000000000E+00  0.00000000000E+00 -0.10820295815E+04  0.10820295815E+04  0.50400001928E-02 0.  1.
    10030    2    1    2    0    0  0.00000000000E+00  0.00000000000E+00  0.12869423400E+04  0.34510015030E+04  0.32020603972E+04 0.  0.
        4    1    3    3  502    0 -0.73499839411E+03 -0.34653796921E+03  0.21302052543E+04  0.22799314116E+04  0.12699999809E+01 0. -1.
       -4    1    3    3    0  502  0.73499839411E+03  0.34653796921E+03 -0.84326291430E+03  0.11710700914E+04  0.12699999809E+01 0.  1.
</event>
<event>
 5   0  0.8195618E-07  0.3233134E+04  0.7818609E-02  0.8180121E-01
        2   -1    0    0  501    0  0.00000000000E+00  0.00000000000E+00  0.12523186722E+04  0.12523186722E+04  0.25500000920E-02 0.  1.
       -2   -1    0    0    0  501  0.00000000000E+00  0.00000000000E+00 -0.20867597135E+04  0.20867597135E+04  0.25500000920E-02 0. -1.
    10030    2    1    2    0    0  0.00000000000E+00  0.00000000000E+00 -0.83444104135E+03  0.33390783857E+04  0.32331335597E+04 0.  0.
        1    1    3    3  502    0 -0.11384692759E+04 -0.11104772447E+04 -0.71657403321E+03  0.17443481155E+04  0.50400001928E-02 0. -1.
       -1    1    3    3    0  502  0.11384692759E+04  0.11104772447E+04 -0.11786700814E+03  0.15947302702E+04  0.50400001928E-02 0.  1.
</event>
<event>
 5   0  0.8802800E-07  0.3226267E+04  0.7818609E-02  0.8181914E-01
       -2   -1    0    0    0  501  0.00000000000E+00  0.00000000000E+00  0.10243824180E+04  0.10243824180E+04  0.25500000920E-02 0.  1.
        2   -1    0    0  501    0  0.00000000000E+00  0.00000000000E+00 -0.25402625248E+04  0.25402625248E+04  0.25500000920E-02 0. -1.
    10030    2    1    2    0    0  0.00000000000E+00  0.00000000000E+00 -0.15158801068E+04  0.35646449428E+04  0.32262673588E+04 0.  0.
        5    1    3    3  502    0  0.14622686587E+04 -0.66483158161E+03 -0.92162494887E+03  0.18519301549E+04  0.46999998093E+01 0.  1.
       -5    1    3    3    0  502 -0.14622686587E+04  0.66483158161E+03 -0.59425515794E+03  0.17127147880E+04  0.46999998093E+01 0. -1.
</event>
<event>
 5   0  0.8838951E-07  0.3202122E+04  0.7818609E-02  0.8188257E-01
        2   -1    0    0  501    0  0.00000000000E+00  0.00000000000E+00  0.18488346023E+04  0.18488346023E+04  0.25500000920E-02 0.  1.
       -2   -1    0    0    0  501  0.00000000000E+00  0.00000000000E+00 -0.13864929380E+04  0.13864929380E+04  0.25500000920E-02 0. -1.
    10030    2    1    2    0    0  0.00000000000E+00  0.00000000000E+00  0.46234166428E+03  0.32353275404E+04  0.32021218713E+04 0.  0.
        2    1    3    3  502    0 -0.49714016992E+03 -0.81281822305E+02  0.17666808045E+04  0.18370944854E+04  0.25500000920E-02 0.  1.
       -2    1    3    3    0  502  0.49714016992E+03  0.81281822305E+02 -0.13043391403E+04  0.13982330550E+04  0.25500000920E-02 0. -1.
</event>
<event>
 5   0  0.3013888E-07  0.3195227E+04  0.7818609E-02  0.8190079E-01
        1   -1    0    0  501    0  0.00000000000E+00  0.00000000000E+00  0.12415439398E+04  0.12415439398E+04  0.50400001928E-02 0. -1.
       -1   -1    0    0    0  501  0.00000000000E+00  0.00000000000E+00 -0.20558024995E+04  0.20558024995E+04  0.50400001928E-02 0.  1.
    10030    2    1    2    0    0  0.00000000000E+00  0.00000000000E+00 -0.81425855969E+03  0.32973464393E+04  0.31952271498E+04 0.  0.
        1    1    3    3  502    0  0.11998505381E+04 -0.82216391533E+03 -0.10891402936E+04  0.18170914663E+04  0.50400001928E-02 0.  1.
       -1    1    3    3    0  502 -0.11998505381E+04  0.82216391533E+03  0.27488173395E+03  0.14802549730E+04  0.50400001928E-02 0. -1.
</event>
<event>
 5   0  0.2891204E-07  0.3203631E+04  0.7818609E-02  0.8187859E-01
       -1   -1    0    0    0  501  0.00000000000E+00  0.00000000000E+00  0.14732605546E+04  0.14732605546E+04  0.50400001928E-02 0.  1.
        1   -1    0    0  501    0  0.00000000000E+00  0.00000000000E+00 -0.17415881616E+04  0.17415881616E+04  0.50400001928E-02 0. -1.
    10030    2    1    2    0    0  0.00000000000E+00  0.00000000000E+00 -0.26832760693E+03  0.32148487162E+04  0.32036311528E+04 0.  0.
        4    1    3    3  502    0  0.13941931080E+04  0.74196477138E+03  0.13421494948E+03  0.15850241039E+04  0.12699999809E+01 0. -1.
       -4    1    3    3    0  502 -0.13941931080E+04 -0.74196477138E+03 -0.40254255641E+03  0.16298246123E+04  0.12699999809E+01 0.  1.
</event>
<event>
 5   0  0.8838951E-07  0.3198889E+04  0.7818609E-02  0.8189111E-01
       -2   -1    0    0    0  501  0.00000000000E+00  0.00000000000E+00  0.13461151138E+04  0.13461151138E+04  0.25500000920E-02 0. -1.
        2   -1    0    0  501    0  0.00000000000E+00  0.00000000000E+00 -0.19004489258E+04  0.19004489258E+04  0.25500000920E-02 0.  1.
    10030    2    1    2    0    0  0.00000000000E+00  0.00000000000E+00 -0.55433381201E+03  0.32465640396E+04  0.31988891959E+04 0.  0.
        2    1    3    3  502    0  0.13922714460E+04  0.77513767809E+03 -0.41693214415E+03  0.16471462024E+04  0.25500000920E-02 0.  1.
       -2    1    3    3    0  502 -0.13922714460E+04 -0.77513767809E+03 -0.13740166786E+03  0.15994178371E+04  0.25500000920E-02 0. -1.
</event>
<event>
 5   0  0.8802800E-07  0.3266750E+04  0.7818609E-02  0.8171408E-01
       -2   -1    0    0    0  501  0.00000000000E+00  0.00000000000E+00  0.17953503426E+04  0.17953503426E+04  0.25500000920E-02 0.  1.
        2   -1    0    0  501    0  0.00000000000E+00  0.00000000000E+00 -0.14860133501E+04  0.14860133501E+04  0.25500000920E-02 0. -1.
    10030    2    1    2    0    0  0.00000000000E+00  0.00000000000E+00  0.30933699248E+03  0.32813636927E+04  0.32667504204E+04 0.  0.
        5    1    3    3  502    0  0.13539102549E+04 -0.30369578191E+03 -0.71092201633E+03  0.15590818803E+04  0.46999998093E+01 0. -1.
       -5    1    3    3    0  502 -0.13539102549E+04  0.30369578191E+03  0.10202590088E+04  0.17222818124E+04  0.46999998093E+01 0.  1.
</event>
<event>
 5   0  0.2891204E-07  0.3084161E+04  0.7818609E-02  0.8220098E-01
        1   -1    0    0  501    0  0.00000000000E+00  0.00000000000E+00  0.19771431963E+04  0.19771431963E+04  0.50400001928E-02 0. -1.
       -1   -1    0    0    0  501  0.00000000000E+00  0.00000000000E+00 -0.12027518298E+04  0.12027518299E+04  0.50400001928E-02 0.  1.
    10030    2    1    2    0    0  0.00000000000E+00  0.00000000000E+00  0.77439136641E+03  0.31798950261E+04  0.30841612132E+04 0.  0.
        4    1    3    3  502    0  0.87679665628E+03 -0.12674634870E+04  0.44150829694E+03  0.16031741192E+04  0.12699999809E+01 0.  1.
       -4    1    3    3    0  502 -0.87679665628E+03  0.12674634870E+04  0.33288306948E+03  0.15767209069E+04  0.12699999809E+01 0. -1.
</event>
<event>
 5   0  0.2783875E-07  0.3201086E+04  0.7818609E-02  0.8188531E-01
        1   -1    0    0  501    0  0.00000000000E+00  0.00000000000E+00  0.27022360694E+04  0.27022360694E+04  0.50400001928E-02 0.  1.
       -1   -1    0    0    0  501  0.00000000000E+00  0.00000000000E+00 -0.94800644048E+03  0.94800644049E+03  0.50400001928E-02 0. -1.
    10030    2    1    2    0    0  0.00000000000E+00  0.00000000000E+00  0.17542296289E+04  0.36502425099E+04  0.32010855643E+04 0.  0.
        2    1    3    3  502    0 -0.79422793234E+03 -0.71147696228E+03 -0.48399197959E+03  0.11710020122E+04  0.25500000920E-02 0. -1.
       -2    1    3    3    0  502  0.79422793234E+03  0.71147696228E+03  0.22382216085E+04  0.24792404977E+04  0.25500000920E-02 0.  1.
</event>
<event>
 5   0  0.8335929E-07  0.3196654E+04  0.7818609E-02  0.8189702E-01
       -2   -1    0    0    0  501  0.00000000000E+00  0.00000000000E+00  0.11520408394E+04  0.11520408394E+04  0.25500000920E-02 0. -1.
        2   -1    0    0  501    0  0.00000000000E+00  0.00000000000E+00 -0.22174981660E+04  0.22174981660E+04  0.25500000920E-02 0.  1.
    10030    2    1    2    0    0  0.00000000000E+00  0.00000000000E+00 -0.10654573266E+04  0.33695390054E+04  0.31966535306E+04 0.  0.
        4    1    3    3  502    0 -0.13809703170E+04 -0.49527093375E+03 -0.12012821895E+04  0.18961679319E+04  0.12699999809E+01 0.  1.
       -4    1    3    3    0  502  0.13809703170E+04  0.49527093375E+03  0.13582486293E+03  0.14733710736E+04  0.12699999809E+01 0. -1.
</event>
<event>
 5   0  0.3075756E-07  0.3200217E+04  0.7818609E-02  0.8188760E-01
        1   -1    0    0  501    0  0.00000000000E+00  0.00000000000E+00  0.16140027123E+04  0.16140027123E+04  0.50400001928E-02 0.  1.
       -1   -1    0    0    0  501  0.00000000000E+00  0.00000000000E+00 -0.15863343690E+04  0.15863343690E+04  0.50400001928E-02 0. -1.
    10030    2    1    2    0    0  0.00000000000E+00  0.00000000000E+00  0.27668343366E+02  0.32003370813E+04  0.32002174765E+04 0.  0.
        5    1    3    3  502    0 -0.84003589916E+03 -0.13122220953E+04  0.37818107658E+03  0.16033184824E+04  0.46999998093E+01 0.  1.
       -5    1    3    3    0  502  0.84003589916E+03  0.13122220953E+04 -0.35051273321E+03  0.15970185989E+04  0.46999998093E+01 0. -1.
</event>
<event>
 5   0  0.8335929E-07  0.3226579E+04  0.7818609E-02  0.8181833E-01
        2   -1    0    0  501    0  0.00000000000E+00  0.00000000000E+00  0.27613754872E+04  0.27613754872E+04  0.25500000920E-02 0. -1.
       -2   -1    0    0    0  501  0.00000000000E+00  0.00000000000E+00 -0.94253847732E+03  0.94253847732E+03  0.25500000920E-02 0.  1.
    10030    2    1    2    0    0  0.00000000000E+00  0.00000000000E+00  0.18188370098E+04  0.37039139645E+04  0.32265787745E+04 0.  0.
        4    1    3    3  502    0 -0.12665182798E+04  0.32301213946E+02 -0.23713537434E+03  0.12889323954E+04  0.12699999809E+01 0.  1.
       -4    1    3    3    0  502  0.12665182798E+04 -0.32301213946E+02  0.20559723842E+04  0.24149815690E+04  0.12699999809E+01 0. -1.
</event>
<event>
 5   0  0.8335929E-07  0.3199834E+04  0.7818609E-02  0.8188861E-01
       -2   -1    0    0    0  501  0.00000000000E+00  0.00000000000E+00  0.12797717104E+04  0.12797717104E+04  0.25500000920E-02 0. -1.
        2   -1    0    0  501    0  0.00000000000E+00  0.00000000000E+00 -0.20001490833E+04  0.20001490833E+04  0.25500000920E-02 0.  1.
    10030    2    1    2    0    0  0.00000000000E+00  0.00000000000E+00 -0.72037737291E+03  0.32799207937E+04  0.31998338791E+04 0.  0.
        4    1    3    3  502    0  0.29235606163E+03 -0.12803676037E+04 -0.12967973758E+04  0.18456701532E+04  0.12699999809E+01 0.  1.
       -4    1    3    3    0  502 -0.29235606163E+03  0.12803676037E+04  0.57642000294E+03  0.14342506406E+04  0.12699999809E+01 0. -1.
</event>
<event>
 5   0  0.8488469E-07  0.3202300E+04  0.7818609E-02  0.8188210E-01
       -2   -1    0    0    0  501  0.00000000000E+00  0.00000000000E+00  0.33713379546E+04  0.33713379546E+04  0.25500000920E-02 0.  1.
        2   -1    0    0  501    0  0.00000000000E+00  0.00000000000E+00 -0.76043451206E+03  0.76043451207E+03  0.25500000920E-02 0. -1.
    10030    2    1    2    0    0  0.00000000000E+00  0.00000000000E+00  0.26109034425E+04  0.41317724667E+04  0.32023002561E+04 0.  0.
        3    1    3    3  502    0 -0.39382246736E+03  0.15276150722E+04  0.95215416862E+03  0.18426343956E+04  0.10100000352E+00 0. -1.
       -3    1    3    3    0  502  0.39382246736E+03 -0.15276150722E+04  0.16587492739E+04  0.22891380711E+04  0.10100000352E+00 0.  1.
</event>
<event>
 5   0  0.2783875E-07  0.3203531E+04  0.7818609E-02  0.8187885E-01
       -1   -1    0    0    0  501  0.00000000000E+00  0.00000000000E+00  0.21592097659E+04  0.21592097659E+04  0.50400001928E-02 0.  1.
        1   -1    0    0  501    0  0.00000000000E+00  0.00000000000E+00 -0.11882366702E+04  0.11882366702E+04  0.50400001928E-02 0. -1.
    10030    2    1    2    0    0  0.00000000000E+00  0.00000000000E+00  0.97097309568E+03  0.33474464361E+04  0.32035306913E+04 0.  0.
        2    1    3    3  502    0 -0.12865419556E+04  0.89628742821E+03  0.14347398951E+03  0.15745177494E+04  0.25500000920E-02 0. -1.
       -2    1    3    3    0  502  0.12865419556E+04 -0.89628742821E+03  0.82749910617E+03  0.17729286867E+04  0.25500000920E-02 0.  1.
</event>
<event>
 5   0  0.2891204E-07  0.3214061E+04  0.7818609E-02  0.8185114E-01
        1   -1    0    0  501    0  0.00000000000E+00  0.00000000000E+00  0.20667197312E+04  0.20667197312E+04  0.50400001928E-02 0. -1.
       -1   -1    0    0    0  501  0.00000000000E+00  0.00000000000E+00 -0.12495875235E+04  0.12495875235E+04  0.50400001928E-02 0.  1.
    10030    2    1    2    0    0  0.00000000000E+00  0.00000000000E+00  0.81713220767E+03  0.33163072547E+04  0.32140611013E+04 0.  0.
        4    1    3    3  502    0 -0.22085949247E+03 -0.26953199721E+03 -0.12101360829E+04  0.12593082883E+04  0.12699999809E+01 0.  1.
       -4    1    3    3    0  502  0.22085949247E+03  0.26953199721E+03  0.20272682906E+04  0.20569989664E+04  0.12699999809E+01 0. -1.
</event>
<event>
 5   0  0.3075756E-07  0.3204897E+04  0.7818609E-02  0.8187525E-01
       -1   -1    0    0    0  501  0.00000000000E+00  0.00000000000E+00  0.10716828309E+04  0.10716828309E+04  0.50400001928E-02 0.  1.
        1   -1    0    0  501    0  0.00000000000E+00  0.00000000000E+00 -0.23960828920E+04  0.23960828920E+04  0.50400001928E-02 0. -1.
    10030    2    1    2    0    0  0.00000000000E+00  0.00000000000E+00 -0.13244000611E+04  0.34677657229E+04  0.32048968138E+04 0.  0.
        5    1    3    3  502    0  0.14872285597E+04  0.58309787187E+03 -0.52547568235E+03  0.16816654542E+04  0.46999998093E+01 0.  1.
       -5    1    3    3    0  502 -0.14872285597E+04 -0.58309787187E+03 -0.79892437875E+03  0.17861002687E+04  0.46999998093E+01 0. -1.
</event>
<event>
 5   0  0.8195618E-07  0.3175627E+04  0.7818609E-02  0.8195284E-01
       -2   -1    0    0    0  501  0.00000000000E+00  0.00000000000E+00  0.92769428659E+03  0.92769428660E+03  0.25500000920E-02 0.  1.
        2   -1    0    0  501    0  0.00000000000E+00  0.00000000000E+00 -0.27176538664E+04  0.27176538664E+04  0.25500000920E-02 0. -1.
    10030    2    1    2    0    0  0.00000000000E+00  0.00000000000E+00 -0.17899595798E+04  0.36453481530E+04  0.31756271600E+04 0.  0.
        1    1    3    3  502    0 -0.22590622063E+02  0.14418886386E+04 -0.16578021916E+04  0.21972394701E+04  0.50400001928E-02 0. -1.
       -1    1    3    3    0  502  0.22590622063E+02 -0.14418886386E+04 -0.13215738815E+03  0.14481086829E+04  0.50400001928E-02 0.  1.
</event>
<event>
 5   0  0.8802800E-07  0.3206344E+04  0.7818609E-02  0.8187144E-01
       -2   -1    0    0    0  501  0.00000000000E+00  0.00000000000E+00  0.17721907421E+04  0.17721907421E+04  0.25500000920E-02 0. -1.
        2   -1    0    0  501    0  0.00000000000E+00  0.00000000000E+00 -0.14502729180E+04  0.14502729180E+04  0.25500000920E-02 0.  1.
    10030    2    1    2    0    0  0.00000000000E+00  0.00000000000E+00  0.32191782408E+03  0.32224636601E+04  0.32063438611E+04 0.  0.
        5    1    3    3  502    0  0.12241517369E+04 -0.50148567974E+03 -0.74918920797E+03  0.15203098110E+04  0.46999998093E+01 0.  1.
       -5    1    3    3    0  502 -0.12241517369E+04  0.50148567974E+03  0.10711070320E+04  0.17021538491E+04  0.46999998093E+01 0. -1.
</event>
<event>
 5   0  0.8335929E-07  0.3198058E+04  0.7818609E-02  0.8189330E-01
        2   -1    0    0  501    0  0.00000000000E+00  0.00000000000E+00  0.14023580481E+04  0.14023580481E+04  0.25500000920E-02 0.  1.
       -2   -1    0    0    0  501  0.00000000000E+00  0.00000000000E+00 -0.18232821302E+04  0.18232821302E+04  0.25500000920E-02 0. -1.
    10030    2    1    2    0    0  0.00000000000E+00  0.00000000000E+00 -0.42092408217E+03  0.32256401783E+04  0.31980583917E+04 0.  0.
        4    1    3    3  502    0  0.21782980457E+03 -0.24945105670E+03 -0.17883122822E+04  0.18187188031E+04  0.12699999809E+01 0. -1.
       -4    1    3    3    0  502 -0.21782980457E+03  0.24945105670E+03  0.13673882000E+04  0.14069213752E+04  0.12699999809E+01 0.  1.
</event>
<event>
 5   0  0.3075756E-07  0.3197056E+04  0.7818609E-02  0.8189595E-01
        1   -1    0    0  501    0  0.00000000000E+00  0.00000000000E+00  0.24817488355E+04  0.24817488355E+04  0.50400001928E-02 0.  1.
       -1   -1    0    0    0  501  0.00000000000E+00  0.00000000000E+00 -0.10296332426E+04  0.10296332426E+04  0.50400001928E-02 0. -1.
    10030    2    1    2    0    0  0.00000000000E+00  0.00000000000E+00  0.14521155929E+04  0.35113820780E+04  0.31970555833E+04 0.  0.
        5    1    3    3  502    0  0.59101020818E+03 -0.13173145584E+03 -0.89879251398E+03  0.10837418123E+04  0.46999998093E+01 0. -1.
       -5    1    3    3    0  502 -0.59101020818E+03  0.13173145584E+03  0.23509081069E+04  0.24276402657E+04  0.46999998093E+01 0.  1.
</event>
<event>
 5   0  0.3013888E-07  0.3204495E+04  0.7818609E-02  0.8187631E-01
        1   -1    0    0  501    0  0.00000000000E+00  0.00000000000E+00  0.16120088114E+04  0.16120088114E+04  0.50400001928E-02 0. -1.
       -1   -1    0    0    0  501  0.00000000000E+00  0.00000000000E+00 -0.15925454975E+04  0.15925454975E+04  0.50400001928E-02 0.  1.
    10030    2    1    2    0    0  0.00000000000E+00  0.00000000000E+00  0.19463313846E+02  0.32045543089E+04  0.32044952017E+04 0.  0.
        1    1    3    3  502    0 -0.79006609670E+02  0.99682243498E+03  0.12616734214E+04  0.16098809998E+04  0.50400001928E-02 0. -1.
       -1    1    3    3    0  502  0.79006609670E+02 -0.99682243498E+03 -0.12422101076E+04  0.15946733091E+04  0.50400001928E-02 0.  1.
</event>
<event>
 5   0  0.2783875E-07  0.3203859E+04  0.7818609E-02  0.8187799E-01
        1   -1    0    0  501    0  0.00000000000E+00  0.00000000000E+00  0.15542197996E+04  0.15542197996E+04  0.50400001928E-02 0. -1.
       -1   -1    0    0    0  501  0.00000000000E+00  0.00000000000E+00 -0.16511040909E+04  0.16511040909E+04  0.50400001928E-02 0.  1.
    10030    2    1    2    0    0  0.00000000000E+00  0.00000000000E+00 -0.96884291211E+02  0.32053238905E+04  0.32038593410E+04 0.  0.
        2    1    3    3  502    0 -0.10809077282E+04 -0.89436294920E+03  0.72517200007E+03  0.15792786427E+04  0.25500000920E-02 0. -1.
       -2    1    3    3    0  502  0.10809077282E+04  0.89436294920E+03 -0.82205629128E+03  0.16260452478E+04  0.25500000920E-02 0.  1.
</event>
<event>
 5   0  0.2783875E-07  0.3212294E+04  0.7818609E-02  0.8185578E-01
        1   -1    0    0  501    0  0.00000000000E+00  0.00000000000E+00  0.14797730203E+04  0.14797730203E+04  0.50400001928E-02 0. -1.
       -1   -1    0    0    0  501  0.00000000000E+00  0.00000000000E+00 -0.17433135161E+04  0.17433135161E+04  0.50400001928E-02 0.  1.
    10030    2    1    2    0    0  0.00000000000E+00  0.00000000000E+00 -0.26354049586E+03  0.32230865364E+04  0.32122940756E+04 0.  0.
        2    1    3    3  502    0  0.80014284528E+03 -0.40234874377E+03  0.12059740438E+04  0.15021606035E+04  0.25500000920E-02 0. -1.
       -2    1    3    3    0  502 -0.80014284528E+03  0.40234874377E+03 -0.14695145396E+04  0.17209259329E+04  0.25500000920E-02 0.  1.
</event>
<event>
 5   0  0.3075756E-07  0.3266920E+04  0.7818609E-02  0.8171364E-01
       -1   -1    0    0    0  501  0.00000000000E+00  0.00000000000E+00  0.18205599553E+04  0.18205599553E+04  0.50400001928E-02 0.  1.
        1   -1    0    0  501    0  0.00000000000E+00  0.00000000000E+00 -0.14655881260E+04  0.14655881261E+04  0.50400001928E-02 0. -1.
    10030    2    1    2    0    0  0.00000000000E+00  0.00000000000E+00  0.35497182924E+03  0.32861480813E+04  0.32669196827E+04 0.  0.
        5    1    3    3  502    0 -0.10111117265E+03 -0.15669684028E+04 -0.27522473630E+03  0.15941719450E+04  0.46999998093E+01 0. -1.
       -5    1    3    3    0  502  0.10111117265E+03  0.15669684028E+04  0.63019656553E+03  0.16919761363E+04  0.46999998093E+01 0.  1.
</event>
<event>
 5   0  0.8195618E-07  0.3220234E+04  0.7818609E-02  0.8183494E-01
       -2   -1    0    0    0  501  0.00000000000E+00  0.00000000000E+00  0.15025747963E+04  0.15025747963E+04  0.25500000920E-02 0.  1.
        2   -1    0    0  501    0  0.00000000000E+00  0.00000000000E+00 -0.17253560181E+04  0.17253560181E+04  0.25500000920E-02 0. -1.
    10030    2    1    2    0    0  0.00000000000E+00  0.00000000000E+00 -0.22278122182E+03  0.32279308145E+04  0.32202338223E+04 0.  0.
        1    1    3    3  502    0  0.79841072591E+03  0.11287665068E+04  0.71575014335E+03  0.15568788591E+04  0.50400001928E-02 0.  1.
       -1    1    3    3    0  502 -0.79841072591E+03 -0.11287665068E+04 -0.93853136517E+03  0.16710519554E+04  0.50400001928E-02 0. -1.
</event>
<event>
 5   0  0.2783875E-07  0.3197316E+04  0.7818609E-02  0.8189526E-01
        1   -1    0    0  501    0  0.00000000000E+00  0.00000000000E+00  0.23273948687E+04  0.23273948687E+04  0.50400001928E-02 0. -1.
       -1   -1    0    0    0  501  0.00000000000E+00  0.00000000000E+00 -0.10980979653E+04  0.10980979653E+04  0.50400001928E-02 0.  1.
    10030    2    1    2    0    0  0.00000000000E+00  0.00000000000E+00  0.12292969034E+04  0.34254928340E+04  0.31973161056E+04 0.  0.
        2    1    3    3  502    0  0.13112960805E+04 -0.21396054935E+03  0.15671583160E+04  0.20545709320E+04  0.25500000920E-02 0. -1.
       -2    1    3    3    0  502 -0.13112960805E+04  0.21396054935E+03 -0.33786141261E+03  0.13709219020E+04  0.25500000920E-02 0.  1.
</event>
<event>
 5   0  0.3013888E-07  0.3210154E+04  0.7818609E-02  0.8186141E-01
       -1   -1    0    0    0  501  0.00000000000E+00  0.00000000000E+00  0.17935051876E+04  0.17935051876E+04  0.50400001928E-02 0.  1.
        1   -1    0    0  501    0  0.00000000000E+00  0.00000000000E+00 -0.14364456418E+04  0.14364456418E+04  0.50400001928E-02 0. -1.
    10030    2    1    2    0    0  0.00000000000E+00  0.00000000000E+00  0.35705954581E+03  0.32299508293E+04  0.32101543328E+04 0.  0.
        1    1    3    3  502    0  0.68181435938E+03 -0.35579832998E+03 -0.12389909183E+04  0.14582735573E+04  0.50400001928E-02 0. -1.
       -1    1    3    3    0  502 -0.68181435938E+03  0.35579832998E+03  0.15960504641E+04  0.17716772720E+04  0.50400001928E-02 0.  1.
</event>
<event>
 5   0  0.8335929E-07  0.3187241E+04  0.7818609E-02  0.8192195E-01
        2   -1    0    0  501    0  0.00000000000E+00  0.00000000000E+00  0.23640584642E+04  0.23640584642E+04  0.25500000920E-02 0. -1.
       -2   -1    0    0    0  501  0.00000000000E+00  0.00000000000E+00 -0.10742655174E+04  0.10742655174E+04  0.25500000920E-02 0.  1.
    10030    2    1    2    0    0  0.00000000000E+00  0.00000000000E+00  0.12897929467E+04  0.34383239816E+04  0.31872411200E+04 0.  0.
        4    1    3    3  502    0 -0.14885513267E+04 -0.45801256675E+03  0.28055654313E+03  0.15824898579E+04  0.12699999809E+01 0.  1.
       -4    1    3    3    0  502  0.14885513267E+04  0.45801256675E+03  0.10092364036E+04  0.18558341237E+04  0.12699999809E+01 0. -1.
</event>
<event>
 5   0  0.3075756E-07  0.3206777E+04  0.7818609E-02  0.8187030E-01
       -1   -1    0    0    0  501  0.00000000000E+00  0.00000000000E+00  0.12323913234E+04  0.12323913234E+04  0.50400001928E-02 0. -1.
        1   -1    0    0  501    0  0.00000000000E+00  0.00000000000E+00 -0.20860704422E+04  0.20860704422E+04  0.50400001928E-02 0.  1.
    10030    2    1    2    0    0  0.00000000000E+00  0.00000000000E+00 -0.85367911879E+03  0.33184617656E+04  0.32067772689E+04 0.  0.
        5    1    3    3  502    0 -0.12290237541E+04  0.21040212004E+03 -0.14699461235E+04  0.19275715645E+04  0.46999998093E+01 0.  1.
       -5    1    3    3    0  502  0.12290237541E+04 -0.21040212004E+03  0.61626700473E+03  0.13908902011E+04  0.46999998093E+01 0. -1.
</event>
<event>
 5   0  0.3075756E-07  0.3201064E+04  0.7818609E-02  0.8188536E-01
        1   -1    0    0  501    0  0.00000000000E+00  0.00000000000E+00  0.21148745486E+04  0.21148745486E+04  0.50400001928E-02 0. -1.
       -1   -1    0    0    0  501  0.00000000000E+00  0.00000000000E+00 -0.12112786612E+04  0.12112786612E+04  0.50400001928E-02 0.  1.
    10030    2    1    2    0    0  0.00000000000E+00  0.00000000000E+00  0.90359588733E+03  0.33261532098E+04  0.32010638306E+04 0.  0.
        5    1    3    3  502    0 -0.11274267992E+04  0.10259225236E+04  0.95879119234E+03  0.18008083886E+04  0.46999998093E+01 0. -1.
       -5    1    3    3    0  502  0.11274267992E+04 -0.10259225236E+04 -0.55195305009E+02  0.15253448212E+04  0.46999998093E+01 0.  1.
</event>
<event>
 5   0  0.2783875E-07  0.3198476E+04  0.7818609E-02  0.8189220E-01
       -1   -1    0    0    0  501  0.00000000000E+00  0.00000000000E+00  0.10876347354E+04  0.10876347354E+04  0.50400001928E-02 0. -1.
        1   -1    0    0  501    0  0.00000000000E+00  0.00000000000E+00 -0.23514902434E+04  0.23514902434E+04  0.50400001928E-02 0.  1.
    10030    2    1    2    0    0  0.00000000000E+00  0.00000000000E+00 -0.12638555080E+04  0.34391249788E+04  0.31984761801E+04 0.  0.
        2    1    3    3  502    0 -0.63033539575E+03  0.75705934048E+03  0.72265988554E+03  0.12217605601E+04  0.25500000920E-02 0. -1.
       -2    1    3    3    0  502  0.63033539575E+03 -0.75705934048E+03 -0.19865153936E+04  0.22173644186E+04  0.25500000920E-02 0.  1.
</event>
<event>
 5   0  0.8195618E-07  0.3210278E+04  0.7818609E-02  0.8186108E-01
        2   -1    0    0  501    0  0.00000000000E+00  0.00000000000E+00  0.10399705119E+04  0.10399705119E+04  0.25500000920E-02 0.  1.
       -2   -1    0    0    0  501  0.00000000000E+00  0.00000000000E+00 -0.24774461784E+04  0.24774461784E+04  0.25500000920E-02 0. -1.
    10030    2    1    2    0    0  0.00000000000E+00  0.00000000000E+00 -0.14374756665E+04  0.35174166903E+04  0.32102778512E+04 0.  0.
        1    1    3    3  502    0  0.92065934095E+03  0.12961332329E+04 -0.47645768936E+03  0.16596948242E+04  0.50400001928E-02 0. -1.
       -1    1    3    3    0  502 -0.92065934095E+03 -0.12961332329E+04 -0.96101797713E+03  0.18577218662E+04  0.50400001928E-02 0.  1.
</event>
<event>
 5   0  0.2783875E-07  0.3201345E+04  0.7818609E-02  0.8188462E-01
       -1   -1    0    0    0  501  0.00000000000E+00  0.00000000000E+00  0.21309885466E+04  0.21309885466E+04  0.50400001928E-02 0.  1.
        1   -1    0    0  501    0  0.00000000000E+00  0.00000000000E+00 -0.12023306165E+04  0.12023306165E+04  0.50400001928E-02 0. -1.
    10030    2    1    2    0    0  0.00000000000E+00  0.00000000000E+00  0.92865793008E+03  0.33333191632E+04  0.32013452004E+04 0.  0.
        2    1    3    3  502    0  0.63726771912E+03  0.48185149961E+02  0.19923843495E+04  0.20923736164E+04  0.25500000920E-02 0.  1.
       -2    1    3    3    0  502 -0.63726771912E+03 -0.48185149961E+02 -0.10637264194E+04  0.12409455467E+04  0.25500000920E-02 0. -1.
</event>
<event>
 5   0  0.8195618E-07  0.3201113E+04  0.7818609E-02  0.8188523E-01
       -2   -1    0    0    0  501  0.00000000000E+00  0.00000000000E+00  0.13845928184E+04  0.13845928184E+04  0.25500000920E-02 0.  1.
        2   -1    0    0  501    0  0.00000000000E+00  0.00000000000E+00 -0.18502056404E+04  0.18502056404E+04  0.25500000920E-02 0. -1.
    10030    2    1    2    0    0  0.00000000000E+00  0.00000000000E+00 -0.46561282201E+03  0.32347984588E+04  0.32011132078E+04 0.  0.
        1    1    3    3  502    0 -0.15077330542E+04 -0.28446034639E+02  0.30922713489E+03  0.15393796025E+04  0.50400001928E-02 0.  1.
       -1    1    3    3    0  502  0.15077330542E+04  0.28446034639E+02 -0.77483995690E+03  0.16954188563E+04  0.50400001928E-02 0. -1.
</event>
<event>
 5   0  0.8488469E-07  0.3213274E+04  0.7818609E-02  0.8185320E-01
        2   -1    0    0  501    0  0.00000000000E+00  0.00000000000E+00  0.17422897187E+04  0.17422897187E+04  0.25500000920E-02 0.  1.
       -2   -1    0    0    0  501  0.00000000000E+00  0.00000000000E+00 -0.14815463285E+04  0.14815463285E+04  0.25500000920E-02 0. -1.
    10030    2    1    2    0    0  0.00000000000E+00  0.00000000000E+00  0.26074339022E+03  0.32238360472E+04  0.32132743026E+04 0.  0.
        3    1    3    3  502    0 -0.97548993245E+03  0.18202535088E+03 -0.11373356438E+04  0.15093860386E+04  0.10100000352E+00 0. -1.
       -3    1    3    3    0  502  0.97548993245E+03 -0.18202535088E+03  0.13980790340E+04  0.17144500086E+04  0.10100000352E+00 0.  1.
</event>
<event>
 5   0  0.8488469E-07  0.3178500E+04  0.7818609E-02  0.8194519E-01
       -2   -1    0    0    0  501  0.00000000000E+00  0.00000000000E+00  0.11075235510E+04  0.11075235510E+04  0.25500000920E-02 0.  1.
        2   -1    0    0  501    0  0.00000000000E+00  0.00000000000E+00 -0.22805068042E+04  0.22805068042E+04  0.25500000920E-02 0. -1.
    10030    2    1    2    0    0  0.00000000000E+00  0.00000000000E+00 -0.11729832532E+04  0.33880303552E+04  0.31784996422E+04 0.  0.
        3    1    3    3  502    0  0.37666944823E+03  0.64872726568E+03 -0.20799184700E+04  0.22110603317E+04  0.10100000352E+00 0. -1.
       -3    1    3    3    0  502 -0.37666944823E+03 -0.64872726568E+03  0.90693521680E+03  0.11769700235E+04  0.10100000352E+00 0.  1.
</event>
<event>
 5   0  0.3013888E-07  0.3198556E+04  0.7818609E-02  0.8189199E-01
        1   -1    0    0  501    0  0.00000000000E+00  0.00000000000E+00  0.12413764605E+04  0.12413764605E+04  0.50400001928E-02 0.  1.
       -1   -1    0    0    0  501  0.00000000000E+00  0.00000000000E+00 -0.20603657458E+04  0.20603657458E+04  0.50400001928E-02 0. -1.
    10030    2    1    2    0    0  0.00000000000E+00  0.00000000000E+00 -0.81898928536E+03  0.33017422063E+04  0.31985556346E+04 0.  0.
        1    1    3    3  502    0  0.84612813891E+03  0.65925701659E+03  0.81500151733E+03  0.13471377490E+04  0.50400001928E-02 0.  1.
       -1    1    3    3    0  502 -0.84612813891E+03 -0.65925701659E+03 -0.16339908027E+04  0.19546044573E+04  0.50400001928E-02 0. -1.
</event>
<event>
 5   0  0.3075756E-07  0.3199114E+04  0.7818609E-02  0.8189051E-01
       -1   -1    0    0    0  501  0.00000000000E+00  0.00000000000E+00  0.10440828680E+04  0.10440828680E+04  0.50400001928E-02 0.  1.
        1   -1    0    0  501    0  0.00000000000E+00  0.00000000000E+00 -0.24505556059E+04  0.24505556059E+04  0.50400001928E-02 0. -1.
    10030    2    1    2    0    0  0.00000000000E+00  0.00000000000E+00 -0.14064727379E+04  0.34946384739E+04  0.31991143307E+04 0.  0.
        5    1    3    3  502    0  0.43639443259E+03  0.15225052923E+04 -0.45873282688E+03  0.16489149045E+04  0.46999998093E+01 0.  1.
       -5    1    3    3    0  502 -0.43639443259E+03 -0.15225052923E+04 -0.94773991099E+03  0.18457235694E+04  0.46999998093E+01 0. -1.
</event>
<event>
 5   0  0.8488469E-07  0.3201061E+04  0.7818609E-02  0.8188537E-01
        2   -1    0    0  501    0  0.00000000000E+00  0.00000000000E+00  0.20029520668E+04  0.20029520668E+04  0.25500000920E-02 0. -1.
       -2   -1    0    0    0  501  0.00000000000E+00  0.00000000000E+00 -0.12789612257E+04  0.12789612257E+04  0.25500000920E-02 0.  1.
    10030    2    1    2    0    0  0.00000000000E+00  0.00000000000E+00  0.72399084114E+03  0.32819132925E+04  0.32010610931E+04 0.  0.
        3    1    3    3  502    0 -0.11264526125E+04  0.68659655328E+03  0.12911912225E+04  0.18459374578E+04  0.10100000352E+00 0. -1.
       -3    1    3    3    0  502  0.11264526125E+04 -0.68659655328E+03 -0.56720038132E+03  0.14359758347E+04  0.10100000352E+00 0.  1.
</event>
<event>
 5   0  0.3075756E-07  0.3180497E+04  0.7818609E-02  0.8193987E-01
       -1   -1    0    0    0  501  0.00000000000E+00  0.00000000000E+00  0.13544453876E+04  0.13544453876E+04  0.50400001928E-02 0. -1.
        1   -1    0    0  501    0  0.00000000000E+00  0.00000000000E+00 -0.18671043622E+04  0.18671043622E+04  0.50400001928E-02 0.  1.
    10030    2    1    2    0    0  0.00000000000E+00  0.00000000000E+00 -0.51265897456E+03  0.32215497498E+04  0.31804973772E+04 0.  0.
        5    1    3    3  502    0  0.14260076871E+04  0.35253189693E+03 -0.87336573635E+03  0.17089664893E+04  0.46999998093E+01 0.  1.
       -5    1    3    3    0  502 -0.14260076871E+04 -0.35253189693E+03  0.36070676179E+03  0.15125832605E+04  0.46999998093E+01 0. -1.
</event>
<event>
 5   0  0.8838951E-07  0.3210814E+04  0.7818609E-02  0.8185967E-01
       -2   -1    0    0    0  501  0.00000000000E+00  0.00000000000E+00  0.15931003064E+04  0.15931003064E+04  0.25500000920E-02 0. -1.
        2   -1    0    0  501    0  0.00000000000E+00  0.00000000000E+00 -0.16178085861E+04  0.16178085861E+04  0.25500000920E-02 0.  1.
    10030    2    1    2    0    0  0.00000000000E+00  0.00000000000E+00 -0.24708279730E+02  0.32109088924E+04  0.32108138246E+04 0.  0.
        2    1    3    3  502    0 -0.13859859277E+04  0.35675840878E+03  0.71505848874E+03  0.15998569300E+04  0.25500000920E-02 0. -1.
       -2    1    3    3    0  502  0.13859859277E+04 -0.35675840878E+03 -0.73976676847E+03  0.16110519625E+04  0.25500000920E-02 0.  1.
</event>
<event>
 5   0  0.3013888E-07  0.3195057E+04  0.7818609E-02  0.8190124E-01
       -1   -1    0    0    0  501  0.00000000000E+00  0.00000000000E+00  0.12212516205E+04  0.12212516205E+04  0.50400001928E-02 0. -1.
        1   -1    0    0  501    0  0.00000000000E+00  0.00000000000E+00 -0.20897397501E+04  0.20897397501E+04  0.50400001928E-02 0.  1.
    10030    2    1    2    0    0  0.00000000000E+00  0.00000000000E+00 -0.86848812962E+03  0.33109913706E+04  0.31950574682E+04 0.  0.
        1    1    3    3  502    0  0.74921113062E+03 -0.68291077432E+03  0.84522792838E+03  0.13198843491E+04  0.50400001928E-02 0. -1.
       -1    1    3    3    0  502 -0.74921113062E+03  0.68291077432E+03 -0.17137160580E+04  0.19911070216E+04  0.50400001928E-02 0.  1.
</event>
<event>
 5   0  0.3013888E-07  0.3191213E+04  0.7818609E-02  0.8191142E-01
       -1   -1    0    0    0  501  0.00000000000E+00  0.00000000000E+00  0.19952388560E+04  0.19952388560E+04  0.50400001928E-02 0. -1.
        1   -1    0    0  501    0  0.00000000000E+00  0.00000000000E+00 -0.12760178273E+04  0.12760178273E+04  0.50400001928E-02 0.  1.
    10030    2    1    2    0    0  0.00000000000E+00  0.00000000000E+00  0.71922102875E+03  0.32712566833E+04  0.31912131549E+04 0.  0.
        1    1    3    3  502    0  0.35663578153E+02  0.82381168087E+03 -0.10406772024E+04  0.13277599994E+04  0.50400001928E-02 0.  1.
       -1    1    3    3    0  502 -0.35663578153E+02 -0.82381168087E+03  0.17598982312E+04  0.19434966839E+04  0.50400001928E-02 0. -1.
</event>
<event>
 5   0  0.2891204E-07  0.3201949E+04  0.7818609E-02  0.8188303E-01
       -1   -1    0    0    0  501  0.00000000000E+00  0.00000000000E+00  0.14988822564E+04  0.14988822564E+04  0.50400001928E-02 0.  1.
        1   -1    0    0  501    0  0.00000000000E+00  0.00000000000E+00 -0.17100199512E+04  0.17100199512E+04  0.50400001928E-02 0. -1.
    10030    2    1    2    0    0  0.00000000000E+00  0.00000000000E+00 -0.21113769488E+03  0.32089022076E+04  0.32019485086E+04 0.  0.
        4    1    3    3  502    0 -0.12722633208E+04 -0.96497333773E+03 -0.22109907845E+03  0.16120527024E+04  0.12699999809E+01 0.  1.
       -4    1    3    3    0  502  0.12722633208E+04  0.96497333773E+03  0.99613835642E+01  0.15968495052E+04  0.12699999809E+01 0. -1.
</event>
<event>
 5   0  0.8335929E-07  0.3202405E+04  0.7818609E-02  0.8188182E-01
       -2   -1    0    0    0  501  0.00000000000E+00  0.00000000000E+00  0.11383863962E+04  0.11383863962E+04  0.25500000920E-02 0. -1.
        2   -1    0    0  501    0  0.00000000000E+00  0.00000000000E+00 -0.22521785987E+04  0.22521785987E+04  0.25500000920E-02 0.  1.
    10030    2    1    2    0    0  0.00000000000E+00  0.00000000000E+00 -0.11137922026E+04  0.33905649949E+04  0.32024050203E+04 0.  0.
        4    1    3    3  502    0 -0.82406121933E+03  0.48604037226E+03 -0.19162890036E+04  0.21418396987E+04  0.12699999809E+01 0.  1.
       -4    1    3    3    0  502  0.82406121933E+03 -0.48604037226E+03  0.80249680107E+03  0.12487252962E+04  0.12699999809E+01 0. -1.
</event>
<event>
 5   0  0.2997105E-07  0.3215802E+04  0.7818609E-02  0.8184656E-01
        1   -1    0    0  501    0  0.00000000000E+00  0.00000000000E+00  0.13347642705E+04  0.13347642705E+04  0.50400001928E-02 0. -1.
       -1   -1    0    0    0  501  0.00000000000E+00  0.00000000000E+00 -0.19369304074E+04  0.19369304074E+04  0.50400001928E-02 0.  1.
    10030    2    1    2    0    0  0.00000000000E+00  0.00000000000E+00 -0.60216613696E+03  0.32716946779E+04  0.32158019231E+04 0.  0.
        3    1    3    3  502    0  0.10956219269E+04  0.11523960271E+04 -0.54385465711E+03  0.16805302462E+04  0.10100000352E+00 0. -1.
       -3    1    3    3    0  502 -0.10956219269E+04 -0.11523960271E+04 -0.58311479843E+02  0.15911644317E+04  0.10100000352E+00 0.  1.
</event>
<event>
 5   0  0.3075756E-07  0.3196219E+04  0.7818609E-02  0.8189816E-01
        1   -1    0    0  501    0  0.00000000000E+00  0.00000000000E+00  0.89623883385E+03  0.89623883386E+03  0.50400001928E-02 0.  1.
       -1   -1    0    0    0  501  0.00000000000E+00  0.00000000000E+00 -0.28496353401E+04  0.28496353401E+04  0.50400001928E-02 0. -1.
    10030    2    1    2    0    0  0.00000000000E+00  0.00000000000E+00 -0.19533965063E+04  0.37458741740E+04  0.31962189250E+04 0.  0.
        5    1    3    3  502    0 -0.15263016569E+04 -0.44053419643E+03 -0.77281366052E+03  0.17666154562E+04  0.46999998093E+01 0. -1.
       -5    1    3    3    0  502  0.15263016569E+04  0.44053419643E+03 -0.11805828457E+04  0.19792587178E+04  0.46999998093E+01 0.  1.
</event>
<event>
 5   0  0.2891204E-07  0.3221145E+04  0.7818609E-02  0.8183255E-01
        1   -1    0    0  501    0  0.00000000000E+00  0.00000000000E+00  0.90973554605E+03  0.90973554607E+03  0.50400001928E-02 0. -1.
       -1   -1    0    0    0  501  0.00000000000E+00  0.00000000000E+00 -0.28513158042E+04  0.28513158042E+04  0.50400001928E-02 0.  1.
    10030    2    1    2    0    0  0.00000000000E+00  0.00000000000E+00 -0.19415802581E+04  0.37610513503E+04  0.32211447283E+04 0.  0.
        4    1    3    3  502    0 -0.20572840922E+03 -0.74706455334E+02 -0.28338694128E+04  0.28423093946E+04  0.12699999809E+01 0.  1.
       -4    1    3    3    0  502  0.20572840922E+03  0.74706455334E+02  0.89228915463E+03  0.91874195572E+03  0.12699999809E+01 0. -1.
</event>
<event>
 5   0  0.8838951E-07  0.3170093E+04  0.7818609E-02  0.8196761E-01
       -2   -1    0    0    0  501  0.00000000000E+00  0.00000000000E+00  0.15380163113E+04  0.15380163113E+04  0.25500000920E-02 0. -1.
        2   -1    0    0  501    0  0.00000000000E+00  0.00000000000E+00 -0.16335144276E+04  0.16335144276E+04  0.25500000920E-02 0.  1.
    10030    2    1    2    0    0  0.00000000000E+00  0.00000000000E+00 -0.95498116286E+02  0.31715307388E+04  0.31700926386E+04 0.  0.
        2    1    3    3  502    0  0.18892438329E+02  0.10763587989E+04  0.11161645617E+04  0.15507187098E+04  0.25500000920E-02 0. -1.
       -2    1    3    3    0  502 -0.18892438329E+02 -0.10763587989E+04 -0.12116626780E+04  0.16208120290E+04  0.25500000920E-02 0.  1.
</event>
<event>
 5   0  0.8335929E-07  0.3103078E+04  0.7818609E-02  0.8214894E-01
       -2   -1    0    0    0  501  0.00000000000E+00  0.00000000000E+00  0.17431287124E+04  0.17431287124E+04  0.25500000920E-02 0. -1.
        2   -1    0    0  501    0  0.00000000000E+00  0.00000000000E+00 -0.13810068024E+04  0.13810068024E+04  0.25500000920E-02 0.  1.
    10030    2    1    2    0    0  0.00000000000E+00  0.00000000000E+00  0.36212191001E+03  0.31241355149E+04  0.31030775752E+04 0.  0.
        4    1    3    3  502    0 -0.25029603997E+02  0.76459490824E+03  0.15400503956E+04  0.17195896862E+04  0.12699999809E+01 0. -1.
       -4    1    3    3    0  502  0.25029603997E+02 -0.76459490824E+03 -0.11779284856E+04  0.14045458287E+04  0.12699999809E+01 0.  1.
</event>
<event>
 5   0  0.8335929E-07  0.3195171E+04  0.7818609E-02  0.8190094E-01
        2   -1    0    0  501    0  0.00000000000E+00  0.00000000000E+00  0.18223949434E+04  0.18223949434E+04  0.25500000920E-02 0. -1.
       -2   -1    0    0    0  501  0.00000000000E+00  0.00000000000E+00 -0.14005084747E+04  0.14005084747E+04  0.25500000920E-02 0.  1.
    10030    2    1    2    0    0  0.00000000000E+00  0.00000000000E+00  0.42188646864E+03  0.32229034181E+04  0.31951710830E+04 0.  0.
        4    1    3    3  502    0 -0.12867055326E+04  0.24527637093E+02 -0.74388001156E+03  0.14864628542E+04  0.12699999809E+01 0.  1.
       -4    1    3    3    0  502  0.12867055326E+04 -0.24527637093E+02  0.11657664802E+04  0.17364405638E+04  0.12699999809E+01 0. -1.
</event>
<event>
 5   0  0.2891204E-07  0.3202060E+04  0.7818609E-02  0.8188273E-01
       -1   -1    0    0    0  501  0.00000000000E+00  0.00000000000E+00  0.10280814628E+04  0.10280814628E+04  0.50400001928E-02 0. -1.
        1   -1    0    0  501    0  0.00000000000E+00  0.00000000000E+00 -0.24932824901E+04  0.24932824901E+04  0.50400001928E-02 0.  1.
    10030    2    1    2    0    0  0.00000000000E+00  0.00000000000E+00 -0.14652010273E+04  0.35213639529E+04  0.32020602803E+04 0.  0.
        4    1    3    3  502    0 -0.67646489855E+03  0.96985222372E+03  0.45442177733E+03  0.12667749837E+04  0.12699999809E+01 0. -1.
       -4    1    3    3    0  502  0.67646489855E+03 -0.96985222372E+03 -0.19196228047E+04  0.22545889692E+04  0.12699999809E+01 0.  1.
</event>
<event>
 5   0  0.8838951E-07  0.3199697E+04  0.7818609E-02  0.8188897E-01
        2   -1    0    0  501    0  0.00000000000E+00  0.00000000000E+00  0.11911221126E+04  0.11911221126E+04  0.25500000920E-02 0.  1.
       -2   -1    0    0    0  501  0.00000000000E+00  0.00000000000E+00 -0.21488271259E+04  0.21488271259E+04  0.25500000920E-02 0. -1.
    10030    2    1    2    0    0  0.00000000000E+00  0.00000000000E+00 -0.95770501334E+03  0.33399492385E+04  0.31996971768E+04 0.  0.
        2    1    3    3  502    0 -0.36578761016E+03  0.89703265881E+03 -0.18078643069E+04  0.20510586337E+04  0.25500000920E-02 0. -1.
       -2    1    3    3    0  502  0.36578761016E+03 -0.89703265881E+03  0.85015929354E+03  0.12888906048E+04  0.25500000920E-02 0.  1.
</event>
<event>
 5   0  0.8335929E-07  0.3198637E+04  0.7818609E-02  0.8189177E-01
        2   -1    0    0  501    0  0.00000000000E+00  0.00000000000E+00  0.17048530877E+04  0.17048530877E+04  0.25500000920E-02 0. -1.
       -2   -1    0    0    0  501  0.00000000000E+00  0.00000000000E+00 -0.15003164674E+04  0.15003164674E+04  0.25500000920E-02 0.  1.
    10030    2    1    2    0    0  0.00000000000E+00  0.00000000000E+00  0.20453662031E+03  0.32051695551E+04  0.31986366858E+04 0.  0.
        4    1    3    3  502    0  0.10145493849E+04  0.84878085191E+03  0.10030359579E+04  0.16600669067E+04  0.12699999809E+01 0. -1.
       -4    1    3    3    0  502 -0.10145493849E+04 -0.84878085191E+03 -0.79849933761E+03  0.15451026484E+04  0.12699999809E+01 0.  1.
</event>
<event>
 5   0  0.8802800E-07  0.3196803E+04  0.7818609E-02  0.8189662E-01
       -2   -1    0    0    0  501  0.00000000000E+00  0.00000000000E+00  0.12032893293E+04  0.12032893293E+04  0.25500000920E-02 0.  1.
        2   -1    0    0  501    0  0.00000000000E+00  0.00000000000E+00 -0.21232525685E+04  0.21232525685E+04  0.25500000920E-02 0. -1.
    10030    2    1    2    0    0  0.00000000000E+00  0.00000000000E+00 -0.91996323915E+03  0.33265418978E+04  0.31968028773E+04 0.  0.
        5    1    3    3  502    0 -0.12934335287E+04 -0.16827761515E+03 -0.14213694035E+04  0.19291450749E+04  0.46999998093E+01 0. -1.
       -5    1    3    3    0  502  0.12934335287E+04  0.16827761515E+03  0.50140616432E+03  0.13973968229E+04  0.46999998093E+01 0.  1.
</event>
<event>
 5   0  0.2783875E-07  0.3208243E+04  0.7818609E-02  0.8186644E-01
       -4   -1    0    0    0  501  0.00000000000E+00  0.00000000000E+00  0.17312233408E+04  0.17312238066E+04  0.12699999809E+01 0.  1.
        4   -1    0    0  501    0  0.00000000000E+00  0.00000000000E+00 -0.14863498149E+04  0.14863503575E+04  0.12699999809E+01 0. -1.
    10030    2    1    2    0    0  0.00000000000E+00  0.00000000000E+00  0.24487352584E+03  0.32175741641E+04  0.32082425809E+04 0.  0.
        5    1    3    3  502    0  0.14514770194E+04  0.68262336327E+03  0.10181410704E+03  0.16072175946E+04  0.46999998093E+01 0. -1.
       -5    1    3    3    0  502 -0.14514770194E+04 -0.68262336327E+03  0.14305941880E+03  0.16103565696E+04  0.46999998093E+01 0.  1.
</event>
<event>
 5   0  0.8488469E-07  0.3209075E+04  0.7818609E-02  0.8186425E-01
       -2   -1    0    0    0  501  0.00000000000E+00  0.00000000000E+00  0.11949723478E+04  0.11949723478E+04  0.25500000920E-02 0.  1.
        2   -1    0    0  501    0  0.00000000000E+00  0.00000000000E+00 -0.21544768343E+04  0.21544768343E+04  0.25500000920E-02 0. -1.
    10030    2    1    2    0    0  0.00000000000E+00  0.00000000000E+00 -0.95950448650E+03  0.33494491821E+04  0.32090747832E+04 0.  0.
        3    1    3    3  502    0  0.17185569035E+03  0.69471287694E+03  0.10191657944E+04  0.12453350097E+04  0.10100000352E+00 0.  1.
       -3    1    3    3    0  502 -0.17185569035E+03 -0.69471287694E+03 -0.19786702809E+04  0.21041141724E+04  0.10100000352E+00 0. -1.
</event>
<event>
 5   0  0.3075756E-07  0.3203136E+04  0.7818609E-02  0.8187989E-01
       -1   -1    0    0    0  501  0.00000000000E+00  0.00000000000E+00  0.16012114038E+04  0.16012114038E+04  0.50400001928E-02 0.  1.
        1   -1    0    0  501    0  0.00000000000E+00  0.00000000000E+00 -0.16019247085E+04  0.16019247085E+04  0.50400001928E-02 0. -1.
    10030    2    1    2    0    0  0.00000000000E+00  0.00000000000E+00 -0.71330463109E+00  0.32031361123E+04  0.32031360329E+04 0.  0.
        5    1    3    3  502    0 -0.67073318575E+02 -0.54548632518E+03  0.15039518175E+04  0.16012330625E+04  0.46999998093E+01 0.  1.
       -5    1    3    3    0  502  0.67073318575E+02  0.54548632518E+03 -0.15046651222E+04  0.16019030498E+04  0.46999998093E+01 0. -1.
</event>
<event>
 5   0  0.2783875E-07  0.3208656E+04  0.7818609E-02  0.8186535E-01
        1   -1    0    0  501    0  0.00000000000E+00  0.00000000000E+00  0.30412326077E+04  0.30412326077E+04  0.50400001928E-02 0. -1.
       -1   -1    0    0    0  501  0.00000000000E+00  0.00000000000E+00 -0.84632408710E+03  0.84632408712E+03  0.50400001928E-02 0.  1.
    10030    2    1    2    0    0  0.00000000000E+00  0.00000000000E+00  0.21949085206E+04  0.38875566948E+04  0.32086560491E+04 0.  0.
        2    1    3    3  502    0 -0.44220852281E+03  0.15984204993E+03  0.29558720668E+04  0.29930381778E+04  0.25500000920E-02 0. -1.
       -2    1    3    3    0  502  0.44220852281E+03 -0.15984204993E+03 -0.76096354621E+03  0.89451851699E+03  0.25500000920E-02 0.  1.
</event>
<event>
 5   0  0.8195618E-07  0.3213828E+04  0.7818609E-02  0.8185175E-01
        2   -1    0    0  501    0  0.00000000000E+00  0.00000000000E+00  0.82063730559E+03  0.82063730560E+03  0.25500000920E-02 0.  1.
       -2   -1    0    0    0  501  0.00000000000E+00  0.00000000000E+00 -0.31465457089E+04  0.31465457089E+04  0.25500000920E-02 0. -1.
    10030    2    1    2    0    0  0.00000000000E+00  0.00000000000E+00 -0.23259084033E+04  0.39671830145E+04  0.32138281177E+04 0.  0.
        1    1    3    3  502    0  0.12023624859E+04  0.47195241543E+03  0.17027369463E+02  0.12917834808E+04  0.50400001928E-02 0.  1.
       -1    1    3    3    0  502 -0.12023624859E+04 -0.47195241543E+03 -0.23429357728E+04  0.26753995338E+04  0.50400001928E-02 0. -1.
</event>
<event>
 5   0  0.2891204E-07  0.2990914E+04  0.7818609E-02  0.8246330E-01
       -1   -1    0    0    0  501  0.00000000000E+00  0.00000000000E+00  0.15606634031E+04  0.15606634031E+04  0.50400001928E-02 0. -1.
        1   -1    0    0  501    0  0.00000000000E+00  0.00000000000E+00 -0.14329751029E+04  0.14329751029E+04  0.50400001928E-02 0.  1.
    10030    2    1    2    0    0  0.00000000000E+00  0.00000000000E+00  0.12768830026E+03  0.29936385060E+04  0.29909141082E+04 0.  0.
        4    1    3    3  502    0 -0.14171641501E+04  0.19420000689E+02 -0.41372653244E+03  0.14764493291E+04  0.12699999809E+01 0.  1.
       -4    1    3    3    0  502  0.14171641501E+04 -0.19420000689E+02  0.54141483270E+03  0.15171891770E+04  0.12699999809E+01 0. -1.
</event>
<event>
 5   0  0.8488469E-07  0.3216548E+04  0.7818609E-02  0.8184461E-01
       -2   -1    0    0    0  501  0.00000000000E+00  0.00000000000E+00  0.15590928564E+04  0.15590928564E+04  0.25500000920E-02 0.  1.
        2   -1    0    0  501    0  0.00000000000E+00  0.00000000000E+00 -0.16590065439E+04  0.16590065439E+04  0.25500000920E-02 0. -1.
    10030    2    1    2    0    0  0.00000000000E+00  0.00000000000E+00 -0.99913687489E+02  0.32180994003E+04  0.32165479952E+04 0.  0.
        3    1    3    3  502    0  0.90704301482E+03  0.13269755665E+03 -0.13720364323E+04  0.16500968620E+04  0.10100000352E+00 0. -1.
       -3    1    3    3    0  502 -0.90704301482E+03 -0.13269755665E+03  0.12721227448E+04  0.15680025384E+04  0.10100000352E+00 0.  1.
</event>
<event>
 5   0  0.3075756E-07  0.2986765E+04  0.7818609E-02  0.8247520E-01
        1   -1    0    0  501    0  0.00000000000E+00  0.00000000000E+00  0.12272740896E+04  0.12272740896E+04  0.50400001928E-02 0. -1.
       -1   -1    0    0    0  501  0.00000000000E+00  0.00000000000E+00 -0.18171905174E+04  0.18171905174E+04  0.50400001928E-02 0.  1.
    10030    2    1    2    0    0  0.00000000000E+00  0.00000000000E+00 -0.58991642777E+03  0.30444646070E+04  0.29867646964E+04 0.  0.
        5    1    3    3  502    0  0.81904778239E+03 -0.87340088410E+03  0.61475166777E+03  0.13459606522E+04  0.46999998093E+01 0. -1.
       -5    1    3    3    0  502 -0.81904778239E+03  0.87340088410E+03 -0.12046680955E+04  0.16985039548E+04  0.46999998093E+01 0.  1.
</event>
<event>
 5   0  0.2997105E-07  0.3195912E+04  0.7818609E-02  0.8189898E-01
        1   -1    0    0  501    0  0.00000000000E+00  0.00000000000E+00  0.15142992621E+04  0.15142992621E+04  0.50400001928E-02 0. -1.
       -1   -1    0    0    0  501  0.00000000000E+00  0.00000000000E+00 -0.16862346729E+04  0.16862346729E+04  0.50400001928E-02 0.  1.
    10030    2    1    2    0    0  0.00000000000E+00  0.00000000000E+00 -0.17193541075E+03  0.32005339350E+04  0.31959123398E+04 0.  0.
        3    1    3    3  502    0  0.12967753640E+04 -0.81610074224E+03  0.36835909075E+03  0.15758601448E+04  0.10100000352E+00 0. -1.
       -3    1    3    3    0  502 -0.12967753640E+04  0.81610074224E+03 -0.54029450149E+03  0.16246737902E+04  0.10100000352E+00 0.  1.
</event>
<event>
 5   0  0.2783875E-07  0.3213293E+04  0.7818609E-02  0.8185315E-01
       -3   -1    0    0    0  501  0.00000000000E+00  0.00000000000E+00  0.13239733463E+04  0.13239733502E+04  0.10100000352E+00 0.  1.
        3   -1    0    0  501    0  0.00000000000E+00  0.00000000000E+00 -0.19496716130E+04  0.19496716156E+04  0.10100000352E+00 0. -1.
    10030    2    1    2    0    0  0.00000000000E+00  0.00000000000E+00 -0.62569826668E+03  0.32736449658E+04  0.32132931769E+04 0.  0.
        1    1    3    3  502    0  0.10926352755E+04  0.11566678579E+04 -0.85999361194E+02  0.15934642352E+04  0.50400001928E-02 0.  1.
       -1    1    3    3    0  502 -0.10926352755E+04 -0.11566678579E+04 -0.53969890549E+03  0.16801807306E+04  0.50400001928E-02 0. -1.
</event>
<event>
 5   0  0.8838951E-07  0.3204035E+04  0.7818609E-02  0.8187752E-01
        2   -1    0    0  501    0  0.00000000000E+00  0.00000000000E+00  0.19674019084E+04  0.19674019084E+04  0.25500000920E-02 0.  1.
       -2   -1    0    0    0  501  0.00000000000E+00  0.00000000000E+00 -0.13044919171E+04  0.13044919171E+04  0.25500000920E-02 0. -1.
    10030    2    1    2    0    0  0.00000000000E+00  0.00000000000E+00  0.66290999125E+03  0.32718938255E+04  0.32040348857E+04 0.  0.
        2    1    3    3  502    0  0.15892127733E+04 -0.19737762061E+03  0.37602245640E+03  0.16449766113E+04  0.25500000920E-02 0.  1.
       -2    1    3    3    0  502 -0.15892127733E+04  0.19737762061E+03  0.28688753485E+03  0.16269172142E+04  0.25500000920E-02 0. -1.
</event>
<event>
 5   0  0.8802800E-07  0.3198009E+04  0.7818609E-02  0.8189343E-01
       -2   -1    0    0    0  501  0.00000000000E+00  0.00000000000E+00  0.18967876821E+04  0.18967876821E+04  0.25500000920E-02 0. -1.
        2   -1    0    0  501    0  0.00000000000E+00  0.00000000000E+00 -0.13479715946E+04  0.13479715946E+04  0.25500000920E-02 0.  1.
    10030    2    1    2    0    0  0.00000000000E+00  0.00000000000E+00  0.54881608744E+03  0.32447592767E+04  0.31980093286E+04 0.  0.
        5    1    3    3  502    0 -0.10348258791E+03 -0.27387604618E+03 -0.13205376626E+04  0.13526117488E+04  0.46999998093E+01 0.  1.
       -5    1    3    3    0  502  0.10348258791E+03  0.27387604618E+03  0.18693537500E+04  0.18921475279E+04  0.46999998093E+01 0. -1.
</event>
<event>
 5   0  0.2891204E-07  0.3203296E+04  0.7818609E-02  0.8187947E-01
        1   -1    0    0  501    0  0.00000000000E+00  0.00000000000E+00  0.14943529092E+04  0.14943529092E+04  0.50400001928E-02 0.  1.
       -1   -1    0    0    0  501  0.00000000000E+00  0.00000000000E+00 -0.17166474034E+04  0.17166474034E+04  0.50400001928E-02 0. -1.
    10030    2    1    2    0    0  0.00000000000E+00  0.00000000000E+00 -0.22229449418E+03  0.32110003126E+04  0.32032964530E+04 0.  0.
        4    1    3    3  502    0 -0.11697307428E+04 -0.27780682601E+03  0.94961737858E+03  0.15320644313E+04  0.12699999809E+01 0.  1.
       -4    1    3    3    0  502  0.11697307428E+04  0.27780682601E+03 -0.11719118728E+04  0.16789358813E+04  0.12699999809E+01 0. -1.
</event>
<event>
 5   0  0.8335929E-07  0.3201398E+04  0.7818609E-02  0.8188448E-01
        2   -1    0    0  501    0  0.00000000000E+00  0.00000000000E+00  0.15591085270E+04  0.15591085270E+04  0.25500000920E-02 0.  1.
       -2   -1    0    0    0  501  0.00000000000E+00  0.00000000000E+00 -0.16433992707E+04  0.16433992707E+04  0.25500000920E-02 0. -1.
    10030    2    1    2    0    0  0.00000000000E+00  0.00000000000E+00 -0.84290743708E+02  0.32025077978E+04  0.32013983297E+04 0.  0.
        4    1    3    3  502    0  0.98131617550E+03  0.11969486063E+04  0.36612448051E+03  0.15905081422E+04  0.12699999809E+01 0.  1.
       -4    1    3    3    0  502 -0.98131617550E+03 -0.11969486063E+04 -0.45041522422E+03  0.16119996556E+04  0.12699999809E+01 0. -1.
</event>
<event>
 5   0  0.3075756E-07  0.3149928E+04  0.7818609E-02  0.8202168E-01
       -1   -1    0    0    0  501  0.00000000000E+00  0.00000000000E+00  0.14190608845E+04  0.14190608845E+04  0.50400001928E-02 0.  1.
        1   -1    0    0  501    0  0.00000000000E+00  0.00000000000E+00 -0.17479957151E+04  0.17479957151E+04  0.50400001928E-02 0. -1.
    10030    2    1    2    0    0  0.00000000000E+00  0.00000000000E+00 -0.32893483060E+03  0.31670565996E+04  0.31499284726E+04 0.  0.
        5    1    3    3  502    0  0.27318976054E+03  0.25827286640E+03 -0.17022127671E+04  0.17432406355E+04  0.46999998093E+01 0. -1.
       -5    1    3    3    0  502 -0.27318976054E+03 -0.25827286640E+03  0.13732779365E+04  0.14238159641E+04  0.46999998093E+01 0.  1.
</event>
<event>
 5   0  0.8838951E-07  0.3178999E+04  0.7818609E-02  0.8194385E-01
        2   -1    0    0  501    0  0.00000000000E+00  0.00000000000E+00  0.22899825143E+04  0.22899825143E+04  0.25500000920E-02 0. -1.
       -2   -1    0    0    0  501  0.00000000000E+00  0.00000000000E+00 -0.11032876367E+04  0.11032876367E+04  0.25500000920E-02 0.  1.
    10030    2    1    2    0    0  0.00000000000E+00  0.00000000000E+00  0.11866948776E+04  0.33932701510E+04  0.31789994629E+04 0.  0.
        2    1    3    3  502    0 -0.15315179456E+04  0.39942837674E+03  0.74956472967E+03  0.17512674067E+04  0.25500000920E-02 0. -1.
       -2    1    3    3    0  502  0.15315179456E+04 -0.39942837674E+03  0.43713014793E+03  0.16420027443E+04  0.25500000920E-02 0.  1.
</event>
<event>
 5   0  0.8488469E-07  0.3155190E+04  0.7818609E-02  0.8200753E-01
        2   -1    0    0  501    0  0.00000000000E+00  0.00000000000E+00  0.16027680590E+04  0.16027680590E+04  0.25500000920E-02 0. -1.
       -2   -1    0    0    0  501  0.00000000000E+00  0.00000000000E+00 -0.15528175974E+04  0.15528175974E+04  0.25500000920E-02 0.  1.
    10030    2    1    2    0    0  0.00000000000E+00  0.00000000000E+00  0.49950461662E+02  0.31555856564E+04  0.31551902932E+04 0.  0.
        3    1    3    3  502    0 -0.87533059728E+02  0.15638338162E+04 -0.16364372279E+03  0.15748071372E+04  0.10100000352E+00 0.  1.
       -3    1    3    3    0  502  0.87533059728E+02 -0.15638338162E+04  0.21359418445E+03  0.15807785193E+04  0.10100000352E+00 0. -1.
</event>
<event>
 5   0  0.2783875E-07  0.3214805E+04  0.7818609E-02  0.8184918E-01
       -1   -1    0    0    0  501  0.00000000000E+00  0.00000000000E+00  0.12438256572E+04  0.12438256572E+04  0.50400001928E-02 0.  1.
        1   -1    0    0  501    0  0.00000000000E+00  0.00000000000E+00 -0.20772550649E+04  0.20772550649E+04  0.50400001928E-02 0. -1.
    10030    2    1    2    0    0  0.00000000000E+00  0.00000000000E+00 -0.83342940772E+03  0.33210807221E+04  0.32148052173E+04 0.  0.
        2    1    3    3  502    0 -0.80105057512E+03 -0.31632165504E+03  0.98535557891E+03  0.13086890503E+04  0.25500000920E-02 0.  1.
       -2    1    3    3    0  502  0.80105057512E+03  0.31632165504E+03 -0.18187849866E+04  0.20123916719E+04  0.25500000920E-02 0. -1.
</event>
<event>
 5   0  0.3075756E-07  0.3204183E+04  0.7818609E-02  0.8187713E-01
        1   -1    0    0  501    0  0.00000000000E+00  0.00000000000E+00  0.15807358857E+04  0.15807358857E+04  0.50400001928E-02 0.  1.
       -1   -1    0    0    0  501  0.00000000000E+00  0.00000000000E+00 -0.16237352060E+04  0.16237352060E+04  0.50400001928E-02 0. -1.
    10030    2    1    2    0    0  0.00000000000E+00  0.00000000000E+00 -0.42999320289E+02  0.32044710916E+04  0.32041825846E+04 0.  0.
        5    1    3    3  502    0  0.13033457778E+04 -0.14035155632E+03 -0.94259596718E+03  0.16145953125E+04  0.46999998093E+01 0. -1.
       -5    1    3    3    0  502 -0.13033457778E+04  0.14035155632E+03  0.89959664689E+03  0.15898757791E+04  0.46999998093E+01 0.  1.
</event>
<event>
 5   0  0.8488469E-07  0.3179577E+04  0.7818609E-02  0.8194232E-01
        2   -1    0    0  501    0  0.00000000000E+00  0.00000000000E+00  0.30199735227E+04  0.30199735227E+04  0.25500000920E-02 0.  1.
       -2   -1    0    0    0  501  0.00000000000E+00  0.00000000000E+00 -0.83690393876E+03  0.83690393876E+03  0.25500000920E-02 0. -1.
    10030    2    1    2    0    0  0.00000000000E+00  0.00000000000E+00  0.21830695840E+04  0.38568774615E+04  0.31795771644E+04 0.  0.
        3    1    3    3  502    0  0.39151308277E+02  0.13961863630E+04  0.20125953319E+04  0.24497773706E+04  0.10100000352E+00 0.  1.
       -3    1    3    3    0  502 -0.39151308277E+02 -0.13961863630E+04  0.17047425203E+03  0.14071000909E+04  0.10100000352E+00 0. -1.
</event>
<event>
 5   0  0.8488469E-07  0.3203657E+04  0.7818609E-02  0.8187852E-01
       -2   -1    0    0    0  501  0.00000000000E+00  0.00000000000E+00  0.89715933426E+03  0.89715933426E+03  0.25500000920E-02 0.  1.
        2   -1    0    0  501    0  0.00000000000E+00  0.00000000000E+00 -0.28599759297E+04  0.28599759297E+04  0.25500000920E-02 0. -1.
    10030    2    1    2    0    0  0.00000000000E+00  0.00000000000E+00 -0.19628165954E+04  0.37571352639E+04  0.32036567239E+04 0.  0.
        3    1    3    3  502    0 -0.85926882620E+01 -0.15159113056E+04 -0.37451742742E+03  0.15615134436E+04  0.10100000352E+00 0.  1.
       -3    1    3    3    0  502  0.85926882620E+01  0.15159113056E+04 -0.15882991680E+04  0.21956218204E+04  0.10100000352E+00 0. -1.
</event>
<event>
 5   0  0.8838951E-07  0.3195039E+04  0.7818609E-02  0.8190129E-01
        2   -1    0    0  501    0  0.00000000000E+00  0.00000000000E+00  0.23518804857E+04  0.23518804857E+04  0.25500000920E-02 0. -1.
       -2   -1    0    0    0  501  0.00000000000E+00  0.00000000000E+00 -0.10851183181E+04  0.10851183181E+04  0.25500000920E-02 0.  1.
    10030    2    1    2    0    0  0.00000000000E+00  0.00000000000E+00  0.12667621676E+04  0.34369988038E+04  0.31950390277E+04 0.  0.
        2    1    3    3  502    0 -0.15785998978E+04 -0.24511450024E+03  0.63000639681E+03  0.17172556058E+04  0.25500000920E-02 0. -1.
       -2    1    3    3    0  502  0.15785998978E+04  0.24511450024E+03  0.63675577075E+03  0.17197431980E+04  0.25500000920E-02 0.  1.
</event>
<event>
 5   0  0.3013888E-07  0.3211823E+04  0.7818609E-02  0.8185702E-01
        1   -1    0    0  501    0  0.00000000000E+00  0.00000000000E+00  0.17226621893E+04  0.17226621893E+04  0.50400001928E-02 0.  1.
       -1   -1    0    0    0  501  0.00000000000E+00  0.00000000000E+00 -0.14970736803E+04  0.14970736803E+04  0.50400001928E-02 0. -1.
    10030    2    1    2    0    0  0.00000000000E+00  0.00000000000E+00  0.22558850901E+03  0.32197358696E+04  0.32118232976E+04 0.  0.
        1    1    3    3  502    0  0.80421450045E+03 -0.56598697569E+03 -0.11599200175E+04  0.15206961125E+04  0.50400001928E-02 0.  1.
       -1    1    3    3    0  502 -0.80421450045E+03  0.56598697569E+03  0.13855085265E+04  0.16990397572E+04  0.50400001928E-02 0. -1.
</event>
<event>
 5   0  0.8335929E-07  0.3224053E+04  0.7818609E-02  0.8182494E-01
       -2   -1    0    0    0  501  0.00000000000E+00  0.00000000000E+00  0.13684699267E+04  0.13684699267E+04  0.25500000920E-02 0.  1.
        2   -1    0    0  501    0  0.00000000000E+00  0.00000000000E+00 -0.18989305126E+04  0.18989305126E+04  0.25500000920E-02 0. -1.
    10030    2    1    2    0    0  0.00000000000E+00  0.00000000000E+00 -0.53046058591E+03  0.32674004393E+04  0.32240529148E+04 0.  0.
        4    1    3    3  502    0  0.14926041512E+04  0.24489029473E+03 -0.83021047683E+03  0.17254244282E+04  0.12699999809E+01 0. -1.
       -4    1    3    3    0  502 -0.14926041512E+04 -0.24489029473E+03  0.29974989092E+03  0.15419760111E+04  0.12699999809E+01 0.  1.
</event>
<event>
 5   0  0.8488469E-07  0.3186371E+04  0.7818609E-02  0.8192426E-01
        2   -1    0    0  501    0  0.00000000000E+00  0.00000000000E+00  0.21838057446E+04  0.21838057446E+04  0.25500000920E-02 0.  1.
       -2   -1    0    0    0  501  0.00000000000E+00  0.00000000000E+00 -0.11623013388E+04  0.11623013388E+04  0.25500000920E-02 0. -1.
    10030    2    1    2    0    0  0.00000000000E+00  0.00000000000E+00  0.10215044057E+04  0.33461070834E+04  0.31863711904E+04 0.  0.
        3    1    3    3  502    0 -0.46456472241E+03  0.71281809921E+02 -0.10878420236E+04  0.11850323862E+04  0.10100000352E+00 0. -1.
       -3    1    3    3    0  502  0.46456472241E+03 -0.71281809921E+02  0.21093464294E+04  0.21610746972E+04  0.10100000352E+00 0.  1.
</event>
<event>
 5   0  0.2783875E-07  0.3222246E+04  0.7818609E-02  0.8182967E-01
       -1   -1    0    0    0  501  0.00000000000E+00  0.00000000000E+00  0.16345311470E+04  0.16345311470E+04  0.50400001928E-02 0.  1.
        1   -1    0    0  501    0  0.00000000000E+00  0.00000000000E+00 -0.15880501681E+04  0.15880501682E+04  0.50400001928E-02 0. -1.
    10030    2    1    2    0    0  0.00000000000E+00  0.00000000000E+00  0.46480978846E+02  0.32225813151E+04  0.32222460880E+04 0.  0.
        2    1    3    3  502    0  0.46787398114E+03  0.80122973430E+03  0.13405116467E+04  0.16302903497E+04  0.25500000920E-02 0.  1.
       -2    1    3    3    0  502 -0.46787398114E+03 -0.80122973430E+03 -0.12940306678E+04  0.15922909655E+04  0.25500000920E-02 0. -1.
</event>
<event>
 5   0  0.3013888E-07  0.3188577E+04  0.7818609E-02  0.8191840E-01
       -1   -1    0    0    0  501  0.00000000000E+00  0.00000000000E+00  0.14252411967E+04  0.14252411967E+04  0.50400001928E-02 0. -1.
        1   -1    0    0  501    0  0.00000000000E+00  0.00000000000E+00 -0.17833865794E+04  0.17833865794E+04  0.50400001928E-02 0.  1.
    10030    2    1    2    0    0  0.00000000000E+00  0.00000000000E+00 -0.35814538272E+03  0.32086277761E+04  0.31885771263E+04 0.  0.
        1    1    3    3  502    0  0.14023040022E+03 -0.10204598417E+04  0.10454412888E+04  0.14676342671E+04  0.50400001928E-02 0. -1.
       -1    1    3    3    0  502 -0.14023040022E+03  0.10204598417E+04 -0.14035866715E+04  0.17409935090E+04  0.50400001928E-02 0.  1.
</event>
<event>
 5   0  0.8195618E-07  0.3186279E+04  0.7818609E-02  0.8192450E-01
       -2   -1    0    0    0  501  0.00000000000E+00  0.00000000000E+00  0.83248049785E+03  0.83248049786E+03  0.25500000920E-02 0.  1.
        2   -1    0    0  501    0  0.00000000000E+00  0.00000000000E+00 -0.30488318609E+04  0.30488318609E+04  0.25500000920E-02 0. -1.
    10030    2    1    2    0    0  0.00000000000E+00  0.00000000000E+00 -0.22163513631E+04  0.38813123588E+04  0.31862787483E+04 0.  0.
        1    1    3    3  502    0 -0.12917422313E+04  0.92012907637E+03 -0.92400956668E+03  0.18354915387E+04  0.50400001928E-02 0.  1.
       -1    1    3    3    0  502  0.12917422313E+04 -0.92012907637E+03 -0.12923417964E+04  0.20458208201E+04  0.50400001928E-02 0. -1.
</event>
<event>
 5   0  0.3075756E-07  0.3200604E+04  0.7818609E-02  0.8188658E-01
       -1   -1    0    0    0  501  0.00000000000E+00  0.00000000000E+00  0.11430010417E+04  0.11430010417E+04  0.50400001928E-02 0. -1.
        1   -1    0    0  501    0  0.00000000000E+00  0.00000000000E+00 -0.22405637736E+04  0.22405637736E+04  0.50400001928E-02 0.  1.
    10030    2    1    2    0    0  0.00000000000E+00  0.00000000000E+00 -0.10975627319E+04  0.33835648154E+04  0.32006041475E+04 0.  0.
        5    1    3    3  502    0  0.54112118661E+02  0.77507436348E+03  0.93022008261E+03  0.12120230536E+04  0.46999998093E+01 0. -1.
       -5    1    3    3    0  502 -0.54112118661E+02 -0.77507436348E+03 -0.20277828145E+04  0.21715417618E+04  0.46999998093E+01 0.  1.
</event>
<event>
 5   0  0.2891204E-07  0.3208817E+04  0.7818609E-02  0.8186493E-01
       -1   -1    0    0    0  501  0.00000000000E+00  0.00000000000E+00  0.18168288808E+04  0.18168288808E+04  0.50400001928E-02 0. -1.
        1   -1    0    0  501    0  0.00000000000E+00  0.00000000000E+00 -0.14168235281E+04  0.14168235281E+04  0.50400001928E-02 0.  1.
    10030    2    1    2    0    0  0.00000000000E+00  0.00000000000E+00  0.40000535271E+03  0.32336524089E+04  0.32088165450E+04 0.  0.
        4    1    3    3  502    0 -0.13336300771E+04  0.87597101958E+03  0.30684734498E+02  0.15958814415E+04  0.12699999809E+01 0.  1.
       -4    1    3    3    0  502  0.13336300771E+04 -0.87597101958E+03  0.36932061822E+03  0.16377709674E+04  0.12699999809E+01 0. -1.
</event>
<event>
 5   0  0.8488469E-07  0.3219393E+04  0.7818609E-02  0.8183714E-01
        2   -1    0    0  501    0  0.00000000000E+00  0.00000000000E+00  0.22316959884E+04  0.22316959884E+04  0.25500000920E-02 0. -1.
       -2   -1    0    0    0  501  0.00000000000E+00  0.00000000000E+00 -0.11610556298E+04  0.11610556298E+04  0.25500000920E-02 0.  1.
    10030    2    1    2    0    0  0.00000000000E+00  0.00000000000E+00  0.10706403586E+04  0.33927516182E+04  0.32193932294E+04 0.  0.
        3    1    3    3  502    0 -0.24016229287E+03 -0.27082183462E+03 -0.11176099273E+04  0.11747656587E+04  0.10100000352E+00 0.  1.
       -3    1    3    3    0  502  0.24016229287E+03  0.27082183462E+03  0.21882502859E+04  0.22179859596E+04  0.10100000352E+00 0. -1.
</event>
<event>
 5   0  0.2891204E-07  0.3183504E+04  0.7818609E-02  0.8193187E-01
       -1   -1    0    0    0  501  0.00000000000E+00  0.00000000000E+00  0.13959272140E+04  0.13959272140E+04  0.50400001928E-02 0.  1.
        1   -1    0    0  501    0  0.00000000000E+00  0.00000000000E+00 -0.18150477756E+04  0.18150477756E+04  0.50400001928E-02 0. -1.
    10030    2    1    2    0    0  0.00000000000E+00  0.00000000000E+00 -0.41912056158E+03  0.32109749896E+04  0.31835040975E+04 0.  0.
        4    1    3    3  502    0  0.97886681468E+03  0.40939640506E+03 -0.14063434077E+04  0.17617006132E+04  0.12699999809E+01 0. -1.
       -4    1    3    3    0  502 -0.97886681468E+03 -0.40939640506E+03  0.98722284610E+03  0.14492743764E+04  0.12699999809E+01 0.  1.
</event>
<event>
 5   0  0.3013888E-07  0.3206107E+04  0.7818609E-02  0.8187206E-01
        1   -1    0    0  501    0  0.00000000000E+00  0.00000000000E+00  0.19090939275E+04  0.19090939275E+04  0.50400001928E-02 0.  1.
       -1   -1    0    0    0  501  0.00000000000E+00  0.00000000000E+00 -0.13460733147E+04  0.13460733147E+04  0.50400001928E-02 0. -1.
    10030    2    1    2    0    0  0.00000000000E+00  0.00000000000E+00  0.56302061278E+03  0.32551672422E+04  0.32061069172E+04 0.  0.
        1    1    3    3  502    0 -0.15678080186E+04  0.16951661856E+03  0.57405570482E+03  0.16781828921E+04  0.50400001928E-02 0.  1.
       -1    1    3    3    0  502  0.15678080186E+04 -0.16951661856E+03 -0.11035092041E+02  0.15769843501E+04  0.50400001928E-02 0. -1.
</event>
<event>
 5   0  0.2783875E-07  0.3200459E+04  0.7818609E-02  0.8188696E-01
       -1   -1    0    0    0  501  0.00000000000E+00  0.00000000000E+00  0.18017795664E+04  0.18017795664E+04  0.50400001928E-02 0. -1.
        1   -1    0    0  501    0  0.00000000000E+00  0.00000000000E+00 -0.14212251531E+04  0.14212251531E+04  0.50400001928E-02 0.  1.
    10030    2    1    2    0    0  0.00000000000E+00  0.00000000000E+00  0.38055441323E+03  0.32230047195E+04  0.32004589922E+04 0.  0.
        2    1    3    3  502    0  0.48324895564E+03 -0.11487242840E+04  0.12011600255E+04  0.17308617624E+04  0.25500000920E-02 0. -1.
       -2    1    3    3    0  502 -0.48324895564E+03  0.11487242840E+04 -0.82060561225E+03  0.14921429571E+04  0.25500000920E-02 0.  1.
</event>
<event>
 5   0  0.8195618E-07  0.3197889E+04  0.7818609E-02  0.8189375E-01
        2   -1    0    0  501    0  0.00000000000E+00  0.00000000000E+00  0.21489271906E+04  0.21489271906E+04  0.25500000920E-02 0. -1.
       -2   -1    0    0    0  501  0.00000000000E+00  0.00000000000E+00 -0.11897205691E+04  0.11897205691E+04  0.25500000920E-02 0.  1.
    10030    2    1    2    0    0  0.00000000000E+00  0.00000000000E+00  0.95920662148E+03  0.33386477597E+04  0.31978886036E+04 0.  0.
        1    1    3    3  502    0 -0.86688871728E+03  0.68183786742E+03 -0.72903389320E+03  0.13220776615E+04  0.50400001928E-02 0.  1.
       -1    1    3    3    0  502  0.86688871728E+03 -0.68183786742E+03  0.16882405147E+04  0.20165700982E+04  0.50400001928E-02 0. -1.
</event>
<event>
 5   0  0.2783875E-07  0.3192956E+04  0.7818609E-02  0.8190680E-01
       -3   -1    0    0    0  501  0.00000000000E+00  0.00000000000E+00  0.29702167699E+04  0.29702167716E+04  0.10100000352E+00 0. -1.
        3   -1    0    0  501    0  0.00000000000E+00  0.00000000000E+00 -0.85809976688E+03  0.85809977283E+03  0.10100000352E+00 0.  1.
    10030    2    1    2    0    0  0.00000000000E+00  0.00000000000E+00  0.21121170030E+04  0.38283165444E+04  0.31929562055E+04 0.  0.
        1    1    3    3  502    0 -0.15663323652E+04 -0.30850905970E+03  0.10405449556E+04  0.19055993081E+04  0.50400001928E-02 0.  1.
       -1    1    3    3    0  502  0.15663323652E+04  0.30850905970E+03  0.10715720474E+04  0.19227172363E+04  0.50400001928E-02 0. -1.
</event>
<event>
 5   0  0.8488469E-07  0.3189614E+04  0.7818609E-02  0.8191565E-01
        2   -1    0    0  501    0  0.00000000000E+00  0.00000000000E+00  0.15591055718E+04  0.15591055718E+04  0.25500000920E-02 0. -1.
       -2   -1    0    0    0  501  0.00000000000E+00  0.00000000000E+00 -0.16313263447E+04  0.16313263447E+04  0.25500000920E-02 0.  1.
    10030    2    1    2    0    0  0.00000000000E+00  0.00000000000E+00 -0.72220772903E+02  0.31904319164E+04  0.31896143926E+04 0.  0.
        3    1    3    3  502    0  0.81699696870E+03  0.90291087603E+03 -0.10662665282E+04  0.16185352688E+04  0.10100000352E+00 0.  1.
       -3    1    3    3    0  502 -0.81699696870E+03 -0.90291087603E+03  0.99404575533E+03  0.15718966476E+04  0.10100000352E+00 0. -1.
</event>
<event>
 5   0  0.8838951E-07  0.3199106E+04  0.7818609E-02  0.8189053E-01
        2   -1    0    0  501    0  0.00000000000E+00  0.00000000000E+00  0.21443371346E+04  0.21443371346E+04  0.25500000920E-02 0. -1.
       -2   -1    0    0    0  501  0.00000000000E+00  0.00000000000E+00 -0.11931748053E+04  0.11931748053E+04  0.25500000920E-02 0.  1.
    10030    2    1    2    0    0  0.00000000000E+00  0.00000000000E+00  0.95116232938E+03  0.33375119399E+04  0.31991055269E+04 0.  0.
        2    1    3    3  502    0 -0.17708995021E+03  0.35390909199E+03 -0.11412952840E+04  0.12079600247E+04  0.25500000920E-02 0.  1.
       -2    1    3    3    0  502  0.17708995021E+03 -0.35390909199E+03  0.20924576134E+04  0.21295519152E+04  0.25500000920E-02 0. -1.
</event>
<event>
 5   0  0.8335929E-07  0.3153752E+04  0.7818609E-02  0.8201139E-01
       -2   -1    0    0    0  501  0.00000000000E+00  0.00000000000E+00  0.17960109396E+04  0.17960109396E+04  0.25500000920E-02 0. -1.
        2   -1    0    0  501    0  0.00000000000E+00  0.00000000000E+00 -0.13844778285E+04  0.13844778285E+04  0.25500000920E-02 0.  1.
    10030    2    1    2    0    0  0.00000000000E+00  0.00000000000E+00  0.41153311110E+03  0.31804887681E+04  0.31537516234E+04 0.  0.
        4    1    3    3  502    0 -0.13693162449E+04  0.60464574166E+03  0.70586611351E+03  0.16549537863E+04  0.12699999809E+01 0. -1.
       -4    1    3    3    0  502  0.13693162449E+04 -0.60464574166E+03 -0.29433300241E+03  0.15255349818E+04  0.12699999809E+01 0.  1.
</event>
<event>
 5   0  0.8488469E-07  0.3221410E+04  0.7818609E-02  0.8183186E-01
       -2   -1    0    0    0  501  0.00000000000E+00  0.00000000000E+00  0.15408737966E+04  0.15408737966E+04  0.25500000920E-02 0.  1.
        2   -1    0    0  501    0  0.00000000000E+00  0.00000000000E+00 -0.16837008981E+04  0.16837008981E+04  0.25500000920E-02 0. -1.
    10030    2    1    2    0    0  0.00000000000E+00  0.00000000000E+00 -0.14282710149E+03  0.32245746947E+04  0.32214099988E+04 0.  0.
        3    1    3    3  502    0  0.13605492326E+04  0.85601477322E+03  0.31230244859E+02  0.16077409134E+04  0.10100000352E+00 0.  1.
       -3    1    3    3    0  502 -0.13605492326E+04 -0.85601477322E+03 -0.17405734635E+03  0.16168337813E+04  0.10100000352E+00 0. -1.
</event>
<event>
 5   0  0.3013888E-07  0.3166466E+04  0.7818609E-02  0.8197730E-01
       -1   -1    0    0    0  501  0.00000000000E+00  0.00000000000E+00  0.29217937518E+04  0.29217937518E+04  0.50400001928E-02 0.  1.
        1   -1    0    0  501    0  0.00000000000E+00  0.00000000000E+00 -0.85790656623E+03  0.85790656625E+03  0.50400001928E-02 0. -1.
    10030    2    1    2    0    0  0.00000000000E+00  0.00000000000E+00  0.20638871855E+04  0.37797003180E+04  0.31664655658E+04 0.  0.
        1    1    3    3  502    0 -0.95152652096E+03  0.98467071101E+03  0.83263499741E+02  0.13718279555E+04  0.50400001928E-02 0. -1.
       -1    1    3    3    0  502  0.95152652096E+03 -0.98467071101E+03  0.19806236858E+04  0.24078723625E+04  0.50400001928E-02 0.  1.
</event>
<event>
 5   0  0.2783875E-07  0.3204196E+04  0.7818609E-02  0.8187710E-01
        3   -1    0    0  501    0  0.00000000000E+00  0.00000000000E+00  0.15089495958E+04  0.15089495992E+04  0.10100000352E+00 0.  1.
       -3   -1    0    0    0  501  0.00000000000E+00  0.00000000000E+00 -0.17009960959E+04  0.17009960989E+04  0.10100000352E+00 0. -1.
    10030    2    1    2    0    0  0.00000000000E+00  0.00000000000E+00 -0.19204650006E+03  0.32099456981E+04  0.32041956130E+04 0.  0.
        4    1    3    3  502    0  0.77407083017E+03 -0.83520392588E+03 -0.12249726010E+04  0.16725162881E+04  0.12699999809E+01 0. -1.
       -4    1    3    3    0  502 -0.77407083017E+03  0.83520392588E+03  0.10329261009E+04  0.15374294100E+04  0.12699999809E+01 0.  1.
</event>
<event>
 5   0  0.8335929E-07  0.3200293E+04  0.7818609E-02  0.8188740E-01
       -2   -1    0    0    0  501  0.00000000000E+00  0.00000000000E+00  0.15899892927E+04  0.15899892927E+04  0.25500000920E-02 0.  1.
        2   -1    0    0  501    0  0.00000000000E+00  0.00000000000E+00 -0.16103684785E+04  0.16103684785E+04  0.25500000920E-02 0. -1.
    10030    2    1    2    0    0  0.00000000000E+00  0.00000000000E+00 -0.20379185816E+02  0.32003577712E+04  0.32002928854E+04 0.  0.
        4    1    3    3  502    0 -0.14172984845E+04 -0.27549664233E+03 -0.70001053088E+03  0.16045715161E+04  0.12699999809E+01 0. -1.
       -4    1    3    3    0  502  0.14172984845E+04  0.27549664233E+03  0.67963134506E+03  0.15957862551E+04  0.12699999809E+01 0.  1.
</event>
<event>
 5   0  0.8838951E-07  0.3191541E+04  0.7818609E-02  0.8191055E-01
        2   -1    0    0  501    0  0.00000000000E+00  0.00000000000E+00  0.17121360872E+04  0.17121360872E+04  0.25500000920E-02 0.  1.
       -2   -1    0    0    0  501  0.00000000000E+00  0.00000000000E+00 -0.14873140319E+04  0.14873140319E+04  0.25500000920E-02 0. -1.
    10030    2    1    2    0    0  0.00000000000E+00  0.00000000000E+00  0.22482205528E+03  0.31994501190E+04  0.31915413373E+04 0.  0.
        2    1    3    3  502    0  0.29237161460E+01 -0.14628962906E+04 -0.52667161271E+03  0.15548173825E+04  0.25500000920E-02 0. -1.
       -2    1    3    3    0  502 -0.29237161460E+01  0.14628962906E+04  0.75149366799E+03  0.16446327366E+04  0.25500000920E-02 0.  1.
</event>
<event>
 5   0  0.2783875E-07  0.3196200E+04  0.7818609E-02  0.8189822E-01
        1   -1    0    0  501    0  0.00000000000E+00  0.00000000000E+00  0.19605625868E+04  0.19605625868E+04  0.50400001928E-02 0. -1.
       -1   -1    0    0    0  501  0.00000000000E+00  0.00000000000E+00 -0.13026480981E+04  0.13026480981E+04  0.50400001928E-02 0.  1.
    10030    2    1    2    0    0  0.00000000000E+00  0.00000000000E+00  0.65791448873E+03  0.32632106849E+04  0.31961996965E+04 0.  0.
        2    1    3    3  502    0  0.81139382853E+03  0.13728881096E+04  0.43477097538E+03  0.16529390513E+04  0.25500000920E-02 0. -1.
       -2    1    3    3    0  502 -0.81139382853E+03 -0.13728881096E+04  0.22314351335E+03  0.16102716336E+04  0.25500000920E-02 0.  1.
</event>
<event>
 5   0  0.2783875E-07  0.3172037E+04  0.7818609E-02  0.8196241E-01
        1   -1    0    0  501    0  0.00000000000E+00  0.00000000000E+00  0.17104069937E+04  0.17104069937E+04  0.50400001928E-02 0.  1.
       -1   -1    0    0    0  501  0.00000000000E+00  0.00000000000E+00 -0.14706763166E+04  0.14706763167E+04  0.50400001928E-02 0. -1.
    10030    2    1    2    0    0  0.00000000000E+00  0.00000000000E+00  0.23973067709E+03  0.31810833104E+04  0.31720372366E+04 0.  0.
        2    1    3    3  502    0  0.75840957790E-01  0.13006046185E+04 -0.79040303183E+03  0.15219426179E+04  0.25500000920E-02 0. -1.
       -2    1    3    3    0  502 -0.75840957790E-01 -0.13006046185E+04  0.10301337089E+04  0.16591406925E+04  0.25500000920E-02 0.  1.
</event>
<event>
 5   0  0.8195618E-07  0.3184468E+04  0.7818609E-02  0.8192931E-01
       -2   -1    0    0    0  501  0.00000000000E+00  0.00000000000E+00  0.15508200650E+04  0.15508200650E+04  0.25500000920E-02 0. -1.
        2   -1    0    0  501    0  0.00000000000E+00  0.00000000000E+00 -0.16347540706E+04  0.16347540706E+04  0.25500000920E-02 0.  1.
    10030    2    1    2    0    0  0.00000000000E+00  0.00000000000E+00 -0.83934005620E+02  0.31855741356E+04  0.31844681905E+04 0.  0.
        1    1    3    3  502    0  0.63636663287E+03 -0.99210141127E+03  0.10289101305E+04  0.15645714296E+04  0.50400001928E-02 0. -1.
       -1    1    3    3    0  502 -0.63636663287E+03  0.99210141127E+03 -0.11128441361E+04  0.16210027060E+04  0.50400001928E-02 0.  1.
</event>
<event>
 5   0  0.2891204E-07  0.3294087E+04  0.7818609E-02  0.8164402E-01
       -1   -1    0    0    0  501  0.00000000000E+00  0.00000000000E+00  0.13299750706E+04  0.13299750706E+04  0.50400001928E-02 0.  1.
        1   -1    0    0  501    0  0.00000000000E+00  0.00000000000E+00 -0.20397012513E+04  0.20397012513E+04  0.50400001928E-02 0. -1.
    10030    2    1    2    0    0  0.00000000000E+00  0.00000000000E+00 -0.70972618074E+03  0.33696763219E+04  0.32940867115E+04 0.  0.
        4    1    3    3  502    0  0.81180889333E+03  0.85123810244E+02 -0.18182389931E+04  0.19930565449E+04  0.12699999809E+01 0. -1.
       -4    1    3    3    0  502 -0.81180889333E+03 -0.85123810244E+02  0.11085128123E+04  0.13766197770E+04  0.12699999809E+01 0.  1.
</event>
<event>
 5   0  0.3075756E-07  0.3202916E+04  0.7818609E-02  0.8188047E-01
       -1   -1    0    0    0  501  0.00000000000E+00  0.00000000000E+00  0.16689613356E+04  0.16689613356E+04  0.50400001928E-02 0.  1.
        1   -1    0    0  501    0  0.00000000000E+00  0.00000000000E+00 -0.15366849012E+04  0.15366849012E+04  0.50400001928E-02 0. -1.
    10030    2    1    2    0    0  0.00000000000E+00  0.00000000000E+00  0.13227643443E+03  0.32056462368E+04  0.32029159746E+04 0.  0.
        5    1    3    3  502    0  0.55329599045E+03  0.15027623146E+04  0.51477593526E+02  0.16022181686E+04  0.46999998093E+01 0.  1.
       -5    1    3    3    0  502 -0.55329599045E+03 -0.15027623146E+04  0.80798840900E+02  0.16034280682E+04  0.46999998093E+01 0. -1.
</event>
<event>
 5   0  0.3013888E-07  0.3235082E+04  0.7818609E-02  0.8179613E-01
        1   -1    0    0  501    0  0.00000000000E+00  0.00000000000E+00  0.25005767897E+04  0.25005767897E+04  0.50400001928E-02 0. -1.
       -1   -1    0    0    0  501  0.00000000000E+00  0.00000000000E+00 -0.10463339458E+04  0.10463339458E+04  0.50400001928E-02 0.  1.
    10030    2    1    2    0    0  0.00000000000E+00  0.00000000000E+00  0.14542428439E+04  0.35469107356E+04  0.32350816863E+04 0.  0.
        1    1    3    3  502    0 -0.41325414774E+02 -0.13746877011E+04  0.16606407672E+04  0.21562007845E+04  0.50400001928E-02 0. -1.
       -1    1    3    3    0  502  0.41325414774E+02  0.13746877011E+04 -0.20639792327E+03  0.13907099511E+04  0.50400001928E-02 0.  1.
</event>
<event>
 5   0  0.2997105E-07  0.3219249E+04  0.7818609E-02  0.8183752E-01
       -1   -1    0    0    0  501  0.00000000000E+00  0.00000000000E+00  0.15493712812E+04  0.15493712812E+04  0.50400001928E-02 0. -1.
        1   -1    0    0  501    0  0.00000000000E+00  0.00000000000E+00 -0.16722213139E+04  0.16722213139E+04  0.50400001928E-02 0.  1.
    10030    2    1    2    0    0  0.00000000000E+00  0.00000000000E+00 -0.12285003271E+03  0.32215925951E+04  0.32192494029E+04 0.  0.
        3    1    3    3  502    0 -0.13960233301E+02 -0.60357405505E+03 -0.15546220460E+04  0.16677368630E+04  0.10100000352E+00 0.  1.
       -3    1    3    3    0  502  0.13960233301E+02  0.60357405505E+03  0.14317720133E+04  0.15538557321E+04  0.10100000352E+00 0. -1.
</event>
<event>
 5   0  0.8195618E-07  0.3195805E+04  0.7818609E-02  0.8189926E-01
       -2   -1    0    0    0  501  0.00000000000E+00  0.00000000000E+00  0.28774393211E+04  0.28774393211E+04  0.25500000920E-02 0. -1.
        2   -1    0    0  501    0  0.00000000000E+00  0.00000000000E+00 -0.88734882147E+03  0.88734882147E+03  0.25500000920E-02 0.  1.
    10030    2    1    2    0    0  0.00000000000E+00  0.00000000000E+00  0.19900904996E+04  0.37647881426E+04  0.31958049943E+04 0.  0.
        1    1    3    3  502    0  0.13741651702E+04  0.14625506765E+02  0.19555266890E+04  0.23901105522E+04  0.50400001928E-02 0. -1.
       -1    1    3    3    0  502 -0.13741651702E+04 -0.14625506765E+02  0.34563810632E+02  0.13746775904E+04  0.50400001928E-02 0.  1.
</event>
<event>
 5   0  0.8195618E-07  0.3216244E+04  0.7818609E-02  0.8184540E-01
        2   -1    0    0  501    0  0.00000000000E+00  0.00000000000E+00  0.17241581531E+04  0.17241581531E+04  0.25500000920E-02 0. -1.
       -2   -1    0    0    0  501  0.00000000000E+00  0.00000000000E+00 -0.14998948841E+04  0.14998948841E+04  0.25500000920E-02 0.  1.
    10030    2    1    2    0    0  0.00000000000E+00  0.00000000000E+00  0.22426326906E+03  0.32240530372E+04  0.32162437676E+04 0.  0.
        1    1    3    3  502    0  0.31488172491E+03  0.16007707367E+03 -0.14605246104E+04  0.15026334576E+04  0.50400001928E-02 0.  1.
       -1    1    3    3    0  502 -0.31488172491E+03 -0.16007707367E+03  0.16847878795E+04  0.17214195796E+04  0.50400001928E-02 0. -1.
</event>
<event>
 5   0  0.2783875E-07  0.3192030E+04  0.7818609E-02  0.8190925E-01
        3   -1    0    0  501    0  0.00000000000E+00  0.00000000000E+00  0.14503110893E+04  0.14503110929E+04  0.10100000352E+00 0.  1.
       -3   -1    0    0    0  501  0.00000000000E+00  0.00000000000E+00 -0.17563572217E+04  0.17563572246E+04  0.10100000352E+00 0. -1.
    10030    2    1    2    0    0  0.00000000000E+00  0.00000000000E+00 -0.30604613231E+03  0.32066683174E+04  0.31920303042E+04 0.  0.
        3    1    3    3  502    0  0.29071388983E+03 -0.50895326744E+03 -0.16443226036E+04  0.17456645809E+04  0.10100000352E+00 0. -1.
       -3    1    3    3    0  502 -0.29071388983E+03  0.50895326744E+03  0.13382764713E+04  0.14610037365E+04  0.10100000352E+00 0.  1.
</event>
<event>
 5   0  0.8335929E-07  0.3206385E+04  0.7818609E-02  0.8187133E-01
        2   -1    0    0  501    0  0.00000000000E+00  0.00000000000E+00  0.11338000039E+04  0.11338000040E+04  0.25500000920E-02 0. -1.
       -2   -1    0    0    0  501  0.00000000000E+00  0.00000000000E+00 -0.22669137111E+04  0.22669137111E+04  0.25500000920E-02 0.  1.
    10030    2    1    2    0    0  0.00000000000E+00  0.00000000000E+00 -0.11331137072E+04  0.34007137151E+04  0.32063853634E+04 0.  0.
        4    1    3    3  502    0 -0.44781172941E+03  0.14104728953E+04  0.87465224915E+02  0.14824374900E+04  0.12699999809E+01 0. -1.
       -4    1    3    3    0  502  0.44781172941E+03 -0.14104728953E+04 -0.12205789321E+04  0.19182762251E+04  0.12699999809E+01 0.  1.
</event>
<event>
 5   0  0.2783875E-07  0.3199308E+04  0.7818609E-02  0.8189000E-01
        1   -1    0    0  501    0  0.00000000000E+00  0.00000000000E+00  0.16652216374E+04  0.16652216374E+04  0.50400001928E-02 0. -1.
       -1   -1    0    0    0  501  0.00000000000E+00  0.00000000000E+00 -0.15366680021E+04  0.15366680021E+04  0.50400001928E-02 0.  1.
    10030    2    1    2    0    0  0.00000000000E+00  0.00000000000E+00  0.12855363531E+03  0.32018896394E+04  0.31993079292E+04 0.  0.
        2    1    3    3  502    0  0.57167070129E+03  0.14165834294E+04  0.53939858070E+03  0.16200206271E+04  0.25500000920E-02 0. -1.
       -2    1    3    3    0  502 -0.57167070129E+03 -0.14165834294E+04 -0.41084494539E+03  0.15818690124E+04  0.25500000920E-02 0.  1.
</event>
<event>
 5   0  0.8802800E-07  0.3190245E+04  0.7818609E-02  0.8191398E-01
       -2   -1    0    0    0  501  0.00000000000E+00  0.00000000000E+00  0.20379594765E+04  0.20379594765E+04  0.25500000920E-02 0. -1.
        2   -1    0    0  501    0  0.00000000000E+00  0.00000000000E+00 -0.12485115215E+04  0.12485115215E+04  0.25500000920E-02 0.  1.
    10030    2    1    2    0    0  0.00000000000E+00  0.00000000000E+00  0.78944795499E+03  0.32864709981E+04  0.31902450607E+04 0.  0.
        5    1    3    3  502    0  0.12425823951E+03  0.11586068791E+04 -0.72743648799E+03  0.13736797095E+04  0.46999998093E+01 0.  1.
       -5    1    3    3    0  502 -0.12425823951E+03 -0.11586068791E+04  0.15168844430E+04  0.19127912886E+04  0.46999998093E+01 0. -1.
</event>
<event>
 5   0  0.8802800E-07  0.3197865E+04  0.7818609E-02  0.8189381E-01
        2   -1    0    0  501    0  0.00000000000E+00  0.00000000000E+00  0.17137006625E+04  0.17137006625E+04  0.25500000920E-02 0.  1.
       -2   -1    0    0    0  501  0.00000000000E+00  0.00000000000E+00 -0.14918501281E+04  0.14918501281E+04  0.25500000920E-02 0. -1.
    10030    2    1    2    0    0  0.00000000000E+00  0.00000000000E+00  0.22185053440E+03  0.32055507906E+04  0.31978646330E+04 0.  0.
        5    1    3    3  502    0  0.55540728129E+02 -0.95090224173E+03 -0.11763976304E+04  0.15136820408E+04  0.46999998093E+01 0. -1.
       -5    1    3    3    0  502 -0.55540728129E+02  0.95090224173E+03  0.13982481648E+04  0.16918687497E+04  0.46999998093E+01 0.  1.
</event>
<event>
 5   0  0.8488469E-07  0.3197271E+04  0.7818609E-02  0.8189538E-01
       -2   -1    0    0    0  501  0.00000000000E+00  0.00000000000E+00  0.15668236146E+04  0.15668236147E+04  0.25500000920E-02 0.  1.
        2   -1    0    0  501    0  0.00000000000E+00  0.00000000000E+00 -0.16310936984E+04  0.16310936984E+04  0.25500000920E-02 0. -1.
    10030    2    1    2    0    0  0.00000000000E+00  0.00000000000E+00 -0.64270083794E+02  0.31979173131E+04  0.31972714145E+04 0.  0.
        3    1    3    3  502    0  0.15068903545E+04  0.54893495416E+02  0.49891880434E+03  0.15882858117E+04  0.10100000352E+00 0.  1.
       -3    1    3    3    0  502 -0.15068903545E+04 -0.54893495416E+02 -0.56318888814E+03  0.16096315014E+04  0.10100000352E+00 0. -1.
</event>
<event>
 5   0  0.8802800E-07  0.3188256E+04  0.7818609E-02  0.8191926E-01
        2   -1    0    0  501    0  0.00000000000E+00  0.00000000000E+00  0.20287846026E+04  0.20287846026E+04  0.25500000920E-02 0.  1.
       -2   -1    0    0    0  501  0.00000000000E+00  0.00000000000E+00 -0.12525943782E+04  0.12525943782E+04  0.25500000920E-02 0. -1.
    10030    2    1    2    0    0  0.00000000000E+00  0.00000000000E+00  0.77619022440E+03  0.32813789807E+04  0.31882560673E+04 0.  0.
        5    1    3    3  502    0 -0.12779488369E+04 -0.42424493494E+03 -0.49010658009E+03  0.14329562256E+04  0.46999998093E+01 0. -1.
       -5    1    3    3    0  502  0.12779488369E+04  0.42424493494E+03  0.12662968045E+04  0.18484227551E+04  0.46999998093E+01 0.  1.
</event>
<event>
 5   0  0.8838951E-07  0.3201440E+04  0.7818609E-02  0.8188437E-01
       -2   -1    0    0    0  501  0.00000000000E+00  0.00000000000E+00  0.23307111378E+04  0.23307111378E+04  0.25500000920E-02 0. -1.
        2   -1    0    0  501    0  0.00000000000E+00  0.00000000000E+00 -0.10993661639E+04  0.10993661639E+04  0.25500000920E-02 0.  1.
    10030    2    1    2    0    0  0.00000000000E+00  0.00000000000E+00  0.12313449738E+04  0.34300773017E+04  0.32014402776E+04 0.  0.
        2    1    3    3  502    0 -0.10898626391E+04  0.66368239341E+03 -0.41980087845E+03  0.13433196452E+04  0.25500000920E-02 0. -1.
       -2    1    3    3    0  502  0.10898626391E+04 -0.66368239341E+03  0.16511458523E+04  0.20867576565E+04  0.25500000920E-02 0.  1.
</event>
<event>
 5   0  0.8802800E-07  0.3201416E+04  0.7818609E-02  0.8188443E-01
        2   -1    0    0  501    0  0.00000000000E+00  0.00000000000E+00  0.19918027687E+04  0.19918027687E+04  0.25500000920E-02 0. -1.
       -2   -1    0    0    0  501  0.00000000000E+00  0.00000000000E+00 -0.12864056504E+04  0.12864056504E+04  0.25500000920E-02 0.  1.
    10030    2    1    2    0    0  0.00000000000E+00  0.00000000000E+00  0.70539711834E+03  0.32782084191E+04  0.32014161467E+04 0.  0.
        5    1    3    3  502    0 -0.26113753493E+02  0.50401310503E+03 -0.12027956575E+04  0.13043966505E+04  0.46999998093E+01 0.  1.
       -5    1    3    3    0  502  0.26113753493E+02 -0.50401310503E+03  0.19081927758E+04  0.19738117686E+04  0.46999998093E+01 0. -1.
</event>
<event>
 5   0  0.8838951E-07  0.3225546E+04  0.7818609E-02  0.8182103E-01
       -2   -1    0    0    0  501  0.00000000000E+00  0.00000000000E+00  0.11678867706E+04  0.11678867706E+04  0.25500000920E-02 0. -1.
        2   -1    0    0  501    0  0.00000000000E+00  0.00000000000E+00 -0.22271313877E+04  0.22271313877E+04  0.25500000920E-02 0.  1.
    10030    2    1    2    0    0  0.00000000000E+00  0.00000000000E+00 -0.10592446171E+04  0.33950181584E+04  0.32255463315E+04 0.  0.
        2    1    3    3  502    0 -0.15086212415E+04 -0.22074111360E+03  0.23710351596E+02  0.15248694601E+04  0.25500000920E-02 0. -1.
       -2    1    3    3    0  502  0.15086212415E+04  0.22074111360E+03 -0.10829549687E+04  0.18701486983E+04  0.25500000920E-02 0.  1.
</event>
<event>
 5   0  0.8335929E-07  0.3188488E+04  0.7818609E-02  0.8191864E-01
        2   -1    0    0  501    0  0.00000000000E+00  0.00000000000E+00  0.16677608596E+04  0.16677608596E+04  0.25500000920E-02 0.  1.
       -2   -1    0    0    0  501  0.00000000000E+00  0.00000000000E+00 -0.15239673787E+04  0.15239673787E+04  0.25500000920E-02 0. -1.
    10030    2    1    2    0    0  0.00000000000E+00  0.00000000000E+00  0.14379348085E+03  0.31917282383E+04  0.31884875069E+04 0.  0.
        4    1    3    3  502    0  0.78165874145E+03  0.11985976882E+03 -0.13137987765E+04  0.15334358775E+04  0.12699999809E+01 0. -1.
       -4    1    3    3    0  502 -0.78165874145E+03 -0.11985976882E+03  0.14575922574E+04  0.16582923608E+04  0.12699999809E+01 0.  1.
</event>
<event>
 5   0  0.8195618E-07  0.3232136E+04  0.7818609E-02  0.8180381E-01
       -2   -1    0    0    0  501  0.00000000000E+00  0.00000000000E+00  0.11535174262E+04  0.11535174262E+04  0.25500000920E-02 0.  1.
        2   -1    0    0  501    0  0.00000000000E+00  0.00000000000E+00 -0.22640971430E+04  0.22640971430E+04  0.25500000920E-02 0. -1.
    10030    2    1    2    0    0  0.00000000000E+00  0.00000000000E+00 -0.11105797168E+04  0.34176145692E+04  0.32321358320E+04 0.  0.
        1    1    3    3  502    0 -0.55578931658E+03 -0.49061941343E+03  0.96310524525E+03  0.12153933054E+04  0.50400001928E-02 0.  1.
       -1    1    3    3    0  502  0.55578931658E+03  0.49061941343E+03 -0.20736849620E+04  0.22022212638E+04  0.50400001928E-02 0. -1.
</event>
<event>
 5   0  0.3013888E-07  0.3181251E+04  0.7818609E-02  0.8193786E-01
       -1   -1    0    0    0  501  0.00000000000E+00  0.00000000000E+00  0.16915473287E+04  0.16915473288E+04  0.50400001928E-02 0. -1.
        1   -1    0    0  501    0  0.00000000000E+00  0.00000000000E+00 -0.14957248950E+04  0.14957248951E+04  0.50400001928E-02 0.  1.
    10030    2    1    2    0    0  0.00000000000E+00  0.00000000000E+00  0.19582243370E+03  0.31872722238E+04  0.31812509808E+04 0.  0.
        1    1    3    3  502    0  0.25325614105E+03 -0.14141662694E+04  0.78190723476E+03  0.16356600607E+04  0.50400001928E-02 0. -1.
       -1    1    3    3    0  502 -0.25325614105E+03  0.14141662694E+04 -0.58608480105E+03  0.15516121631E+04  0.50400001928E-02 0.  1.
</event>
<event>
 5   0  0.3075756E-07  0.3197100E+04  0.7818609E-02  0.8189583E-01
       -1   -1    0    0    0  501  0.00000000000E+00  0.00000000000E+00  0.14400101466E+04  0.14400101466E+04  0.50400001928E-02 0. -1.
        1   -1    0    0  501    0  0.00000000000E+00  0.00000000000E+00 -0.17745447545E+04  0.17745447545E+04  0.50400001928E-02 0.  1.
    10030    2    1    2    0    0  0.00000000000E+00  0.00000000000E+00 -0.33453460786E+03  0.32145549011E+04  0.31971002187E+04 0.  0.
        5    1    3    3  502    0  0.95923504202E+03 -0.10152060956E+04  0.61451552323E+03  0.15259183139E+04  0.46999998093E+01 0. -1.
       -5    1    3    3    0  502 -0.95923504202E+03  0.10152060956E+04 -0.94905013109E+03  0.16886365872E+04  0.46999998093E+01 0.  1.
</event>
<event>
 5   0  0.2783875E-07  0.3188592E+04  0.7818609E-02  0.8191836E-01
        1   -1    0    0  501    0  0.00000000000E+00  0.00000000000E+00  0.18672524637E+04  0.18672524637E+04  0.50400001928E-02 0. -1.
       -1   -1    0    0    0  501  0.00000000000E+00  0.00000000000E+00 -0.13612407895E+04  0.13612407895E+04  0.50400001928E-02 0.  1.
    10030    2    1    2    0    0  0.00000000000E+00  0.00000000000E+00  0.50601167420E+03  0.32284932532E+04  0.31885923025E+04 0.  0.
        2    1    3    3  502    0 -0.68086308900E+03 -0.10259028022E+04 -0.77245063577E+03  0.14535236806E+04  0.25500000920E-02 0.  1.
       -2    1    3    3    0  502  0.68086308900E+03  0.10259028022E+04  0.12784623100E+04  0.17749695726E+04  0.25500000920E-02 0. -1.
</event>
<event>
 5   0  0.3075756E-07  0.3193499E+04  0.7818609E-02  0.8190536E-01
        1   -1    0    0  501    0  0.00000000000E+00  0.00000000000E+00  0.22127668013E+04  0.22127668013E+04  0.50400001928E-02 0.  1.
       -1   -1    0    0    0  501  0.00000000000E+00  0.00000000000E+00 -0.11522269675E+04  0.11522269675E+04  0.50400001928E-02 0. -1.
    10030    2    1    2    0    0  0.00000000000E+00  0.00000000000E+00  0.10605398338E+04  0.33649937688E+04  0.31934993855E+04 0.  0.
        5    1    3    3  502    0  0.11917535272E+04 -0.10626484754E+04  0.54022387832E+03  0.16856340589E+04  0.46999998093E+01 0.  1.
       -5    1    3    3    0  502 -0.11917535272E+04  0.10626484754E+04  0.52031595550E+03  0.16793597099E+04  0.46999998093E+01 0. -1.
</event>
<event>
 5   0  0.8195618E-07  0.3204137E+04  0.7818609E-02  0.8187725E-01
       -2   -1    0    0    0  501  0.00000000000E+00  0.00000000000E+00  0.12206644034E+04  0.12206644034E+04  0.25500000920E-02 0.  1.
        2   -1    0    0  501    0  0.00000000000E+00  0.00000000000E+00 -0.21026445291E+04  0.21026445291E+04  0.25500000920E-02 0. -1.
    10030    2    1    2    0    0  0.00000000000E+00  0.00000000000E+00 -0.88198012567E+03  0.33233089325E+04  0.32041369070E+04 0.  0.
        1    1    3    3  502    0  0.10766397888E+04  0.32628454703E+03 -0.16240308439E+04  0.19756242109E+04  0.50400001928E-02 0. -1.
       -1    1    3    3    0  502 -0.10766397888E+04 -0.32628454703E+03  0.74205071828E+03  0.13476847216E+04  0.50400001928E-02 0.  1.
</event>
<event>
 5   0  0.8335929E-07  0.3200363E+04  0.7818609E-02  0.8188721E-01
        2   -1    0    0  501    0  0.00000000000E+00  0.00000000000E+00  0.20805294814E+04  0.20805294814E+04  0.25500000920E-02 0.  1.
       -2   -1    0    0    0  501  0.00000000000E+00  0.00000000000E+00 -0.12307348765E+04  0.12307348765E+04  0.25500000920E-02 0. -1.
    10030    2    1    2    0    0  0.00000000000E+00  0.00000000000E+00  0.84979460495E+03  0.33112643579E+04  0.32003626009E+04 0.  0.
        4    1    3    3  502    0  0.13168856682E+03 -0.12914205447E+04 -0.54319155739E+03  0.14071842747E+04  0.12699999809E+01 0. -1.
       -4    1    3    3    0  502 -0.13168856682E+03  0.12914205447E+04  0.13929861623E+04  0.19040800832E+04  0.12699999809E+01 0.  1.
</event>
<event>
 5   0  0.2891204E-07  0.3200045E+04  0.7818609E-02  0.8188805E-01
        1   -1    0    0  501    0  0.00000000000E+00  0.00000000000E+00  0.19225730328E+04  0.19225730328E+04  0.50400001928E-02 0. -1.
       -1   -1    0    0    0  501  0.00000000000E+00  0.00000000000E+00 -0.13315867264E+04  0.13315867264E+04  0.50400001928E-02 0.  1.
    10030    2    1    2    0    0  0.00000000000E+00  0.00000000000E+00  0.59098630637E+03  0.32541597592E+04  0.32000454566E+04 0.  0.
        4    1    3    3  502    0 -0.61424038559E+03 -0.14774022628E+04  0.30352743621E+03  0.16285389817E+04  0.12699999809E+01 0. -1.
       -4    1    3    3    0  502  0.61424038559E+03  0.14774022628E+04  0.28745887016E+03  0.16256207775E+04  0.12699999809E+01 0.  1.
</event>
<event>
 5   0  0.2783875E-07  0.3195355E+04  0.7818609E-02  0.8190045E-01
       -1   -1    0    0    0  501  0.00000000000E+00  0.00000000000E+00  0.11897397877E+04  0.11897397877E+04  0.50400001928E-02 0. -1.
        1   -1    0    0  501    0  0.00000000000E+00  0.00000000000E+00 -0.21454891949E+04  0.21454891950E+04  0.50400001928E-02 0.  1.
    10030    2    1    2    0    0  0.00000000000E+00  0.00000000000E+00 -0.95574940725E+03  0.33352289827E+04  0.31953552912E+04 0.  0.
        2    1    3    3  502    0  0.12412170699E+04 -0.81308177536E+03  0.14038155881E+03  0.14904458293E+04  0.25500000920E-02 0. -1.
       -2    1    3    3    0  502 -0.12412170699E+04  0.81308177536E+03 -0.10961309661E+04  0.18447831533E+04  0.25500000920E-02 0.  1.
</event>
<event>
 5   0  0.2783875E-07  0.3194736E+04  0.7818609E-02  0.8190209E-01
        1   -1    0    0  501    0  0.00000000000E+00  0.00000000000E+00  0.12627884426E+04  0.12627884426E+04  0.50400001928E-02 0.  1.
       -1   -1    0    0    0  501  0.00000000000E+00  0.00000000000E+00 -0.20205960393E+04  0.20205960393E+04  0.50400001928E-02 0. -1.
    10030    2    1    2    0    0  0.00000000000E+00  0.00000000000E+00 -0.75780759672E+03  0.32833844820E+04  0.31947364997E+04 0.  0.
        2    1    3    3  502    0 -0.96246778198E+03  0.71338609983E+03  0.70697490683E+03  0.13910706228E+04  0.25500000920E-02 0.  1.
       -2    1    3    3    0  502  0.96246778198E+03 -0.71338609983E+03 -0.14647825036E+04  0.18923138591E+04  0.25500000920E-02 0. -1.
</event>
<event>
 5   0  0.8838951E-07  0.3181510E+04  0.7818609E-02  0.8193717E-01
       -2   -1    0    0    0  501  0.00000000000E+00  0.00000000000E+00  0.31543872384E+04  0.31543872384E+04  0.25500000920E-02 0.  1.
        2   -1    0    0  501    0  0.00000000000E+00  0.00000000000E+00 -0.80221658756E+03  0.80221658757E+03  0.25500000920E-02 0. -1.
    10030    2    1    2    0    0  0.00000000000E+00  0.00000000000E+00  0.23521706508E+04  0.39566038259E+04  0.31815101862E+04 0.  0.
        2    1    3    3  502    0  0.15880336820E+03 -0.43581522427E+03 -0.71624704601E+03  0.85332482115E+03  0.25500000920E-02 0. -1.
       -2    1    3    3    0  502 -0.15880336820E+03  0.43581522427E+03  0.30684176968E+04  0.31032790048E+04  0.25500000920E-02 0.  1.
</event>
<event>
 5   0  0.3013888E-07  0.3208362E+04  0.7818609E-02  0.8186612E-01
        1   -1    0    0  501    0  0.00000000000E+00  0.00000000000E+00  0.15476382256E+04  0.15476382257E+04  0.50400001928E-02 0. -1.
       -1   -1    0    0    0  501  0.00000000000E+00  0.00000000000E+00 -0.16627892479E+04  0.16627892479E+04  0.50400001928E-02 0.  1.
    10030    2    1    2    0    0  0.00000000000E+00  0.00000000000E+00 -0.11515102222E+03  0.32104274735E+04  0.32083617011E+04 0.  0.
        1    1    3    3  502    0 -0.10434692653E+04  0.12168766208E+04  0.39407619623E+01  0.16030072824E+04  0.50400001928E-02 0.  1.
       -1    1    3    3    0  502  0.10434692653E+04 -0.12168766208E+04 -0.11909178418E+03  0.16074201911E+04  0.50400001928E-02 0. -1.
</event>
<event>
 5   0  0.2783875E-07  0.3222434E+04  0.7818609E-02  0.8182918E-01
       -1   -1    0    0    0  501  0.00000000000E+00  0.00000000000E+00  0.12867613165E+04  0.12867613165E+04  0.50400001928E-02 0. -1.
        1   -1    0    0  501    0  0.00000000000E+00  0.00000000000E+00 -0.20174834571E+04  0.20174834571E+04  0.50400001928E-02 0.  1.
    10030    2    1    2    0    0  0.00000000000E+00  0.00000000000E+00 -0.73072214067E+03  0.33042447736E+04  0.32224336575E+04 0.  0.
        2    1    3    3  502    0  0.99286138789E+03  0.51767803239E+03  0.82260983596E+03  0.13894067882E+04  0.25500000920E-02 0. -1.
       -2    1    3    3    0  502 -0.99286138789E+03 -0.51767803239E+03 -0.15533319766E+04  0.19148379854E+04  0.25500000920E-02 0.  1.
</event>
<event>
 5   0  0.2997105E-07  0.3194604E+04  0.7818609E-02  0.8190244E-01
       -1   -1    0    0    0  501  0.00000000000E+00  0.00000000000E+00  0.11889704915E+04  0.11889704915E+04  0.50400001928E-02 0. -1.
        1   -1    0    0  501    0  0.00000000000E+00  0.00000000000E+00 -0.21458684998E+04  0.21458684998E+04  0.50400001928E-02 0.  1.
    10030    2    1    2    0    0  0.00000000000E+00  0.00000000000E+00 -0.95689800834E+03  0.33348389913E+04  0.31946044042E+04 0.  0.
        3    1    3    3  502    0 -0.13433253048E+04 -0.86137905684E+03 -0.40554370213E+03  0.16465000634E+04  0.10100000352E+00 0. -1.
       -3    1    3    3    0  502  0.13433253048E+04  0.86137905684E+03 -0.55135430622E+03  0.16883389279E+04  0.10100000352E+00 0.  1.
</event>
<event>
 5   0  0.2891204E-07  0.3178594E+04  0.7818609E-02  0.8194494E-01
       -1   -1    0    0    0  501  0.00000000000E+00  0.00000000000E+00  0.17349995596E+04  0.17349995596E+04  0.50400001928E-02 0. -1.
        1   -1    0    0  501    0  0.00000000000E+00  0.00000000000E+00 -0.14558299257E+04  0.14558299257E+04  0.50400001928E-02 0.  1.
    10030    2    1    2    0    0  0.00000000000E+00  0.00000000000E+00  0.27916963389E+03  0.31908294854E+04  0.31785935758E+04 0.  0.
        4    1    3    3  502    0  0.13198500543E+04  0.81926963375E+03  0.47651918539E+03  0.16248935490E+04  0.12699999809E+01 0. -1.
       -4    1    3    3    0  502 -0.13198500543E+04 -0.81926963375E+03 -0.19734955149E+03  0.15659359364E+04  0.12699999809E+01 0.  1.
</event>
<event>
 5   0  0.8335929E-07  0.3187200E+04  0.7818609E-02  0.8192206E-01
        2   -1    0    0  501    0  0.00000000000E+00  0.00000000000E+00  0.23401368864E+04  0.23401368864E+04  0.25500000920E-02 0.  1.
       -2   -1    0    0    0  501  0.00000000000E+00  0.00000000000E+00 -0.10852188696E+04  0.10852188696E+04  0.25500000920E-02 0. -1.
    10030    2    1    2    0    0  0.00000000000E+00  0.00000000000E+00  0.12549180168E+04  0.34253557560E+04  0.31871998410E+04 0.  0.
        4    1    3    3  502    0 -0.75340595020E+03 -0.13915308419E+04  0.42473633999E+03  0.16384081241E+04  0.12699999809E+01 0. -1.
       -4    1    3    3    0  502  0.75340595020E+03  0.13915308419E+04  0.83018167676E+03  0.17869476319E+04  0.12699999809E+01 0.  1.
</event>
<event>
 5   0  0.8838951E-07  0.3316793E+04  0.7818609E-02  0.8158635E-01
       -2   -1    0    0    0  501  0.00000000000E+00  0.00000000000E+00  0.18660798166E+04  0.18660798166E+04  0.25500000920E-02 0.  1.
        2   -1    0    0  501    0  0.00000000000E+00  0.00000000000E+00 -0.14738271715E+04  0.14738271715E+04  0.25500000920E-02 0. -1.
    10030    2    1    2    0    0  0.00000000000E+00  0.00000000000E+00  0.39225264513E+03  0.33399069880E+04  0.33167931125E+04 0.  0.
        2    1    3    3  502    0 -0.78648318702E+03  0.10060122525E+04 -0.86938873480E+03  0.15448149494E+04  0.25500000920E-02 0. -1.
       -2    1    3    3    0  502  0.78648318702E+03 -0.10060122525E+04  0.12616413799E+04  0.17950920386E+04  0.25500000920E-02 0.  1.
</event>
<event>
 5   0  0.8802800E-07  0.3202948E+04  0.7818609E-02  0.8188039E-01
       -2   -1    0    0    0  501  0.00000000000E+00  0.00000000000E+00  0.16395153274E+04  0.16395153274E+04  0.25500000920E-02 0.  1.
        2   -1    0    0  501    0  0.00000000000E+00  0.00000000000E+00 -0.15643149946E+04  0.15643149946E+04  0.25500000920E-02 0. -1.
    10030    2    1    2    0    0  0.00000000000E+00  0.00000000000E+00  0.75200332839E+02  0.32038303220E+04  0.32029476490E+04 0.  0.
        5    1    3    3  502    0 -0.98628925344E+01  0.61686688591E+03 -0.14406684951E+04  0.15672172263E+04  0.46999998093E+01 0. -1.
       -5    1    3    3    0  502  0.98628925344E+01 -0.61686688591E+03  0.15158688279E+04  0.16366130957E+04  0.46999998093E+01 0.  1.
</event>
<event>
 5   0  0.8488469E-07  0.3206240E+04  0.7818609E-02  0.8187171E-01
        2   -1    0    0  501    0  0.00000000000E+00  0.00000000000E+00  0.19947528403E+04  0.19947528403E+04  0.25500000920E-02 0. -1.
       -2   -1    0    0    0  501  0.00000000000E+00  0.00000000000E+00 -0.12883773403E+04  0.12883773403E+04  0.25500000920E-02 0.  1.
    10030    2    1    2    0    0  0.00000000000E+00  0.00000000000E+00  0.70637549993E+03  0.32831301806E+04  0.32062403896E+04 0.  0.
        3    1    3    3  502    0 -0.34253641935E+03  0.47411517586E+03  0.18815901829E+04  0.19704055484E+04  0.10100000352E+00 0. -1.
       -3    1    3    3    0  502  0.34253641935E+03 -0.47411517586E+03 -0.11752146830E+04  0.13127246322E+04  0.10100000352E+00 0.  1.
</event>
<event>
 5   0  0.8195618E-07  0.3065714E+04  0.7818609E-02  0.8225211E-01
        2   -1    0    0  501    0  0.00000000000E+00  0.00000000000E+00  0.27206565678E+04  0.27206565678E+04  0.25500000920E-02 0. -1.
       -2   -1    0    0    0  501  0.00000000000E+00  0.00000000000E+00 -0.86363344471E+03  0.86363344471E+03  0.25500000920E-02 0.  1.
    10030    2    1    2    0    0  0.00000000000E+00  0.00000000000E+00  0.18570231231E+04  0.35842900125E+04  0.30657136223E+04 0.  0.
        1    1    3    3  502    0 -0.37486660821E+03  0.71452947326E+03 -0.59523810423E+03  0.10026892554E+04  0.50400001928E-02 0.  1.
       -1    1    3    3    0  502  0.37486660821E+03 -0.71452947326E+03  0.24522612273E+04  0.25816007571E+04  0.50400001928E-02 0. -1.
</event>
<event>
 5   0  0.2997105E-07  0.3174211E+04  0.7818609E-02  0.8195661E-01
       -1   -1    0    0    0  501  0.00000000000E+00  0.00000000000E+00  0.12419205334E+04  0.12419205334E+04  0.50400001928E-02 0.  1.
        1   -1    0    0  501    0  0.00000000000E+00  0.00000000000E+00 -0.20282328912E+04  0.20282328912E+04  0.50400001928E-02 0. -1.
    10030    2    1    2    0    0  0.00000000000E+00  0.00000000000E+00 -0.78631235783E+03  0.32701534246E+04  0.31742111298E+04 0.  0.
        3    1    3    3  502    0 -0.11843032345E+04  0.17283087461E+03 -0.14669949245E+04  0.18932825413E+04  0.10100000352E+00 0. -1.
       -3    1    3    3    0  502  0.11843032345E+04 -0.17283087461E+03  0.68068256664E+03  0.13768708833E+04  0.10100000352E+00 0.  1.
</event>
<event>
 5   0  0.2997105E-07  0.3200831E+04  0.7818609E-02  0.8188598E-01
       -1   -1    0    0    0  501  0.00000000000E+00  0.00000000000E+00  0.11143121906E+04  0.11143121906E+04  0.50400001928E-02 0. -1.
        1   -1    0    0  501    0  0.00000000000E+00  0.00000000000E+00 -0.22985750001E+04  0.22985750001E+04  0.50400001928E-02 0.  1.
    10030    2    1    2    0    0  0.00000000000E+00  0.00000000000E+00 -0.11842628095E+04  0.34128871907E+04  0.32008312318E+04 0.  0.
        3    1    3    3  502    0 -0.13877547033E+03  0.11906368954E+04  0.53852397247E+03  0.13141091762E+04  0.10100000352E+00 0. -1.
       -3    1    3    3    0  502  0.13877547033E+03 -0.11906368954E+04 -0.17227867820E+04  0.20987780145E+04  0.10100000352E+00 0.  1.
</event>
<event>
 5   0  0.8488469E-07  0.3187908E+04  0.7818609E-02  0.8192018E-01
       -2   -1    0    0    0  501  0.00000000000E+00  0.00000000000E+00  0.15593460497E+04  0.15593460497E+04  0.25500000920E-02 0.  1.
        2   -1    0    0  501    0  0.00000000000E+00  0.00000000000E+00 -0.16293296293E+04  0.16293296293E+04  0.25500000920E-02 0. -1.
    10030    2    1    2    0    0  0.00000000000E+00  0.00000000000E+00 -0.69983579651E+02  0.31886756790E+04  0.31879076029E+04 0.  0.
        3    1    3    3  502    0 -0.14918695748E+04  0.11052997075E+02 -0.59627912146E+03  0.16066567144E+04  0.10100000352E+00 0. -1.
       -3    1    3    3    0  502  0.14918695748E+04 -0.11052997075E+02  0.52629554181E+03  0.15820189646E+04  0.10100000352E+00 0.  1.
</event>
<event>
 5   0  0.2891204E-07  0.3197740E+04  0.7818609E-02  0.8189414E-01
        1   -1    0    0  501    0  0.00000000000E+00  0.00000000000E+00  0.81074817099E+03  0.81074817101E+03  0.50400001928E-02 0.  1.
       -1   -1    0    0    0  501  0.00000000000E+00  0.00000000000E+00 -0.31531181404E+04  0.31531181404E+04  0.50400001928E-02 0. -1.
    10030    2    1    2    0    0  0.00000000000E+00  0.00000000000E+00 -0.23423699694E+04  0.39638663114E+04  0.31977396800E+04 0.  0.
        4    1    3    3  502    0  0.10007847277E+04  0.65886017827E+03  0.14108666347E+03  0.12064716596E+04  0.12699999809E+01 0.  1.
       -4    1    3    3    0  502 -0.10007847277E+04 -0.65886017827E+03 -0.24834566329E+04  0.27573946519E+04  0.12699999809E+01 0. -1.
</event>
<event>
 5   0  0.8195618E-07  0.3196170E+04  0.7818609E-02  0.8189830E-01
        2   -1    0    0  501    0  0.00000000000E+00  0.00000000000E+00  0.15016874932E+04  0.15016874932E+04  0.25500000920E-02 0. -1.
       -2   -1    0    0    0  501  0.00000000000E+00  0.00000000000E+00 -0.17006700369E+04  0.17006700369E+04  0.25500000920E-02 0.  1.
    10030    2    1    2    0    0  0.00000000000E+00  0.00000000000E+00 -0.19898254367E+03  0.32023575301E+04  0.31961695353E+04 0.  0.
        1    1    3    3  502    0 -0.12116776419E+04 -0.26345038159E+03 -0.11095631474E+04  0.16639408612E+04  0.50400001928E-02 0.  1.
       -1    1    3    3    0  502  0.12116776419E+04  0.26345038159E+03  0.91058060376E+03  0.15384166690E+04  0.50400001928E-02 0. -1.
</event>
<event>
 5   0  0.8488469E-07  0.3193833E+04  0.7818609E-02  0.8190448E-01
        2   -1    0    0  501    0  0.00000000000E+00  0.00000000000E+00  0.11637461049E+04  0.11637461049E+04  0.25500000920E-02 0.  1.
       -2   -1    0    0    0  501  0.00000000000E+00  0.00000000000E+00 -0.21913212036E+04  0.21913212036E+04  0.25500000920E-02 0. -1.
    10030    2    1    2    0    0  0.00000000000E+00  0.00000000000E+00 -0.10275750987E+04  0.33550673085E+04  0.31938325037E+04 0.  0.
        3    1    3    3  502    0 -0.11894042850E+04  0.10556128619E+04 -0.66652519464E+03  0.17243134612E+04  0.10100000352E+00 0. -1.
       -3    1    3    3    0  502  0.11894042850E+04 -0.10556128619E+04 -0.36104990408E+03  0.16307538473E+04  0.10100000352E+00 0.  1.
</event>
<event>
 5   0  0.3013888E-07  0.3089511E+04  0.7818609E-02  0.8218622E-01
       -1   -1    0    0    0  501  0.00000000000E+00  0.00000000000E+00  0.13259959764E+04  0.13259959764E+04  0.50400001928E-02 0.  1.
        1   -1    0    0  501    0  0.00000000000E+00  0.00000000000E+00 -0.17996055787E+04  0.17996055787E+04  0.50400001928E-02 0. -1.
    10030    2    1    2    0    0  0.00000000000E+00  0.00000000000E+00 -0.47360960233E+03  0.31256015551E+04  0.30895111305E+04 0.  0.
        1    1    3    3  502    0  0.67210249120E+03 -0.81776922899E+03 -0.13750259497E+04  0.17352707664E+04  0.50400001928E-02 0. -1.
       -1    1    3    3    0  502 -0.67210249120E+03  0.81776922899E+03  0.90141634733E+03  0.13903307886E+04  0.50400001928E-02 0.  1.
</event>
<event>
 5   0  0.8488469E-07  0.3208040E+04  0.7818609E-02  0.8186697E-01
        2   -1    0    0  501    0  0.00000000000E+00  0.00000000000E+00  0.20310196678E+04  0.20310196678E+04  0.25500000920E-02 0. -1.
       -2   -1    0    0    0  501  0.00000000000E+00  0.00000000000E+00 -0.12667920843E+04  0.12667920843E+04  0.25500000920E-02 0.  1.
    10030    2    1    2    0    0  0.00000000000E+00  0.00000000000E+00  0.76422758342E+03  0.32978117521E+04  0.32080396745E+04 0.  0.
        3    1    3    3  502    0 -0.96451899647E+03 -0.34534764921E+03 -0.88665176349E+03  0.13548849594E+04  0.10100000352E+00 0.  1.
       -3    1    3    3    0  502  0.96451899647E+03  0.34534764921E+03  0.16508793469E+04  0.19429267927E+04  0.10100000352E+00 0. -1.
</event>
<event>
 5   0  0.8195618E-07  0.3192817E+04  0.7818609E-02  0.8190717E-01
       -2   -1    0    0    0  501  0.00000000000E+00  0.00000000000E+00  0.10535437003E+04  0.10535437003E+04  0.25500000920E-02 0. -1.
        2   -1    0    0  501    0  0.00000000000E+00  0.00000000000E+00 -0.24189976355E+04  0.24189976355E+04  0.25500000920E-02 0.  1.
    10030    2    1    2    0    0  0.00000000000E+00  0.00000000000E+00 -0.13654539352E+04  0.34725413358E+04  0.31928167626E+04 0.  0.
        1    1    3    3  502    0  0.76122160482E+03 -0.17435653395E+03  0.83161649506E+03  0.11408087164E+04  0.50400001928E-02 0. -1.
       -1    1    3    3    0  502 -0.76122160482E+03  0.17435653395E+03 -0.21970704303E+04  0.23317326194E+04  0.50400001928E-02 0.  1.
</event>
<event>
 5   0  0.2783875E-07  0.3143989E+04  0.7818609E-02  0.8203768E-01
       -1   -1    0    0    0  501  0.00000000000E+00  0.00000000000E+00  0.14966374735E+04  0.14966374735E+04  0.50400001928E-02 0. -1.
        1   -1    0    0  501    0  0.00000000000E+00  0.00000000000E+00 -0.16511458971E+04  0.16511458971E+04  0.50400001928E-02 0.  1.
    10030    2    1    2    0    0  0.00000000000E+00  0.00000000000E+00 -0.15450842356E+03  0.31477833706E+04  0.31439890737E+04 0.  0.
        2    1    3    3  502    0 -0.69933629971E+03 -0.20995914536E+03 -0.14710595399E+04  0.16423063882E+04  0.25500000920E-02 0.  1.
       -2    1    3    3    0  502  0.69933629971E+03  0.20995914536E+03  0.13165511163E+04  0.15054769824E+04  0.25500000920E-02 0. -1.
</event>
<event>
 5   0  0.8335929E-07  0.3261784E+04  0.7818609E-02  0.8172688E-01
        2   -1    0    0  501    0  0.00000000000E+00  0.00000000000E+00  0.15401244263E+04  0.15401244263E+04  0.25500000920E-02 0. -1.
       -2   -1    0    0    0  501  0.00000000000E+00  0.00000000000E+00 -0.17270088898E+04  0.17270088898E+04  0.25500000920E-02 0.  1.
    10030    2    1    2    0    0  0.00000000000E+00  0.00000000000E+00 -0.18688446346E+03  0.32671333161E+04  0.32617839142E+04 0.  0.
        4    1    3    3  502    0  0.24548120174E+02  0.11639903893E+03 -0.17226569526E+04  0.17267599531E+04  0.12699999809E+01 0.  1.
       -4    1    3    3    0  502 -0.24548120174E+02 -0.11639903893E+03  0.15357724891E+04  0.15403733631E+04  0.12699999809E+01 0. -1.
</event>
<event>
 5   0  0.8838951E-07  0.3178012E+04  0.7818609E-02  0.8194648E-01
        2   -1    0    0  501    0  0.00000000000E+00  0.00000000000E+00  0.18595859343E+04  0.18595859343E+04  0.25500000920E-02 0. -1.
       -2   -1    0    0    0  501  0.00000000000E+00  0.00000000000E+00 -0.13577965895E+04  0.13577965895E+04  0.25500000920E-02 0.  1.
    10030    2    1    2    0    0  0.00000000000E+00  0.00000000000E+00  0.50178934478E+03  0.32173825237E+04  0.31780116044E+04 0.  0.
        2    1    3    3  502    0  0.68820800540E+03  0.16506412385E+03 -0.11894261343E+04  0.13840559788E+04  0.25500000920E-02 0.  1.
       -2    1    3    3    0  502 -0.68820800540E+03 -0.16506412385E+03  0.16912154790E+04  0.18333265449E+04  0.25500000920E-02 0. -1.
</event>
<event>
 5   0  0.2997105E-07  0.3194872E+04  0.7818609E-02  0.8190173E-01
       -1   -1    0    0    0  501  0.00000000000E+00  0.00000000000E+00  0.79756248547E+03  0.79756248548E+03  0.50400001928E-02 0.  1.
        1   -1    0    0  501    0  0.00000000000E+00  0.00000000000E+00 -0.31995007955E+04  0.31995007955E+04  0.50400001928E-02 0. -1.
    10030    2    1    2    0    0  0.00000000000E+00  0.00000000000E+00 -0.24019383100E+04  0.39970632810E+04  0.31948720204E+04 0.  0.
        3    1    3    3  502    0 -0.15421552963E+03  0.24756628980E+03  0.76396676669E+03  0.81775101849E+03  0.10100000352E+00 0.  1.
       -3    1    3    3    0  502  0.15421552963E+03 -0.24756628980E+03 -0.31659050767E+04  0.31793122625E+04  0.10100000352E+00 0. -1.
</event>
<event>
 5   0  0.2891204E-07  0.3192236E+04  0.7818609E-02  0.8190871E-01
        1   -1    0    0  501    0  0.00000000000E+00  0.00000000000E+00  0.24617158098E+04  0.24617158098E+04  0.50400001928E-02 0. -1.
       -1   -1    0    0    0  501  0.00000000000E+00  0.00000000000E+00 -0.10348851167E+04  0.10348851167E+04  0.50400001928E-02 0.  1.
    10030    2    1    2    0    0  0.00000000000E+00  0.00000000000E+00  0.14268306931E+04  0.34966009265E+04  0.31922362400E+04 0.  0.
        4    1    3    3  502    0  0.14933598745E+04 -0.10661926821E+03  0.13194294760E+04  0.19955919267E+04  0.12699999809E+01 0. -1.
       -4    1    3    3    0  502 -0.14933598745E+04  0.10661926821E+03  0.10740121719E+03  0.15010089998E+04  0.12699999809E+01 0.  1.
</event>
<event>
 5   0  0.3075756E-07  0.3184162E+04  0.7818609E-02  0.8193013E-01
       -1   -1    0    0    0  501  0.00000000000E+00  0.00000000000E+00  0.16686635137E+04  0.16686635137E+04  0.50400001928E-02 0.  1.
        1   -1    0    0  501    0  0.00000000000E+00  0.00000000000E+00 -0.15190129091E+04  0.15190129091E+04  0.50400001928E-02 0. -1.
    10030    2    1    2    0    0  0.00000000000E+00  0.00000000000E+00  0.14965060459E+03  0.31876764228E+04  0.31841616908E+04 0.  0.
        5    1    3    3  502    0  0.11853333078E+04  0.94212057082E+03  0.56739799303E+03  0.16169628298E+04  0.46999998093E+01 0. -1.
       -5    1    3    3    0  502 -0.11853333078E+04 -0.94212057082E+03 -0.41774738843E+03  0.15707135930E+04  0.46999998093E+01 0.  1.
</event>
<event>
 5   0  0.2891204E-07  0.3173726E+04  0.7818609E-02  0.8195791E-01
        1   -1    0    0  501    0  0.00000000000E+00  0.00000000000E+00  0.17315976473E+04  0.17315976473E+04  0.50400001928E-02 0.  1.
       -1   -1    0    0    0  501  0.00000000000E+00  0.00000000000E+00 -0.14542257320E+04  0.14542257321E+04  0.50400001928E-02 0. -1.
    10030    2    1    2    0    0  0.00000000000E+00  0.00000000000E+00  0.27737191525E+03  0.31858233794E+04  0.31737257955E+04 0.  0.
        4    1    3    3  502    0  0.71062660803E+03  0.30792252232E+03 -0.12516298985E+04  0.14718646240E+04  0.12699999809E+01 0. -1.
       -4    1    3    3    0  502 -0.71062660803E+03 -0.30792252232E+03  0.15290018137E+04  0.17139587553E+04  0.12699999809E+01 0.  1.
</event>
<event>
 5   0  0.3013888E-07  0.3201520E+04  0.7818609E-02  0.8188416E-01
        1   -1    0    0  501    0  0.00000000000E+00  0.00000000000E+00  0.26127993647E+04  0.26127993647E+04  0.50400001928E-02 0.  1.
       -1   -1    0    0    0  501  0.00000000000E+00  0.00000000000E+00 -0.98072330806E+03  0.98072330807E+03  0.50400001928E-02 0. -1.
    10030    2    1    2    0    0  0.00000000000E+00  0.00000000000E+00  0.16320760566E+04  0.35935226728E+04  0.32015204115E+04 0.  0.
        1    1    3    3  502    0  0.15655107222E+04  0.11244613727E+03  0.46293166399E+03  0.16363904427E+04  0.50400001928E-02 0.  1.
       -1    1    3    3    0  502 -0.15655107222E+04 -0.11244613727E+03  0.11691443926E+04  0.19571322301E+04  0.50400001928E-02 0. -1.
</event>
<event>
 5   0  0.8802800E-07  0.3216196E+04  0.7818609E-02  0.8184553E-01
        2   -1    0    0  501    0  0.00000000000E+00  0.00000000000E+00  0.19440036835E+04  0.19440036835E+04  0.25500000920E-02 0. -1.
       -2   -1    0    0    0  501  0.00000000000E+00  0.00000000000E+00 -0.13302335690E+04  0.13302335690E+04  0.25500000920E-02 0.  1.
    10030    2    1    2    0    0  0.00000000000E+00  0.00000000000E+00  0.61377011453E+03  0.32742372526E+04  0.32161958635E+04 0.  0.
        5    1    3    3  502    0  0.48889389282E+03  0.11953080686E+04 -0.66862366522E+03  0.14542552434E+04  0.46999998093E+01 0.  1.
       -5    1    3    3    0  502 -0.48889389282E+03 -0.11953080686E+04  0.12823937797E+04  0.18199820092E+04  0.46999998093E+01 0. -1.
</event>
<event>
 5   0  0.2891204E-07  0.3198571E+04  0.7818609E-02  0.8189195E-01
        1   -1    0    0  501    0  0.00000000000E+00  0.00000000000E+00  0.23909531486E+04  0.23909531487E+04  0.50400001928E-02 0.  1.
       -1   -1    0    0    0  501  0.00000000000E+00  0.00000000000E+00 -0.10697468272E+04  0.10697468272E+04  0.50400001928E-02 0. -1.
    10030    2    1    2    0    0  0.00000000000E+00  0.00000000000E+00  0.13212063214E+04  0.34606999759E+04  0.31985712716E+04 0.  0.
        4    1    3    3  502    0 -0.49259977210E+03  0.15136927376E+04  0.82749293030E+03  0.17940642134E+04  0.12699999809E+01 0. -1.
       -4    1    3    3    0  502  0.49259977210E+03 -0.15136927376E+04  0.49371339111E+03  0.16666357625E+04  0.12699999809E+01 0.  1.
</event>
<event>
 5   0  0.8802800E-07  0.3209544E+04  0.7818609E-02  0.8186301E-01
        2   -1    0    0  501    0  0.00000000000E+00  0.00000000000E+00  0.14700219251E+04  0.14700219252E+04  0.25500000920E-02 0.  1.
       -2   -1    0    0    0  501  0.00000000000E+00  0.00000000000E+00 -0.17518737904E+04  0.17518737904E+04  0.25500000920E-02 0. -1.
    10030    2    1    2    0    0  0.00000000000E+00  0.00000000000E+00 -0.28185186521E+03  0.32218957155E+04  0.32095438193E+04 0.  0.
        5    1    3    3  502    0 -0.11732724650E+03 -0.45740742290E+03 -0.16805440268E+04  0.17456338532E+04  0.46999998093E+01 0. -1.
       -5    1    3    3    0  502  0.11732724650E+03  0.45740742290E+03  0.13986921616E+04  0.14762618623E+04  0.46999998093E+01 0.  1.
</event>
<event>
 5   0  0.8488469E-07  0.3197474E+04  0.7818609E-02  0.8189485E-01
        2   -1    0    0  501    0  0.00000000000E+00  0.00000000000E+00  0.21688236866E+04  0.21688236866E+04  0.25500000920E-02 0.  1.
       -2   -1    0    0    0  501  0.00000000000E+00  0.00000000000E+00 -0.11785006224E+04  0.11785006224E+04  0.25500000920E-02 0. -1.
    10030    2    1    2    0    0  0.00000000000E+00  0.00000000000E+00  0.99032306412E+03  0.33473243090E+04  0.31974740434E+04 0.  0.
        3    1    3    3  502    0 -0.54095537909E+03  0.62850383969E+03  0.19260812318E+04  0.20970070864E+04  0.10100000352E+00 0.  1.
       -3    1    3    3    0  502  0.54095537909E+03 -0.62850383969E+03 -0.93575816765E+03  0.12503172226E+04  0.10100000352E+00 0. -1.
</event>
<event>
 5   0  0.8488469E-07  0.3201407E+04  0.7818609E-02  0.8188446E-01
       -2   -1    0    0    0  501  0.00000000000E+00  0.00000000000E+00  0.15029195916E+04  0.15029195916E+04  0.25500000920E-02 0.  1.
        2   -1    0    0  501    0  0.00000000000E+00  0.00000000000E+00 -0.17048492816E+04  0.17048492817E+04  0.25500000920E-02 0. -1.
    10030    2    1    2    0    0  0.00000000000E+00  0.00000000000E+00 -0.20192969007E+03  0.32077688732E+04  0.32014068071E+04 0.  0.
        3    1    3    3  502    0 -0.13092004884E+04  0.89492902750E+03 -0.31899205513E+03  0.16176092930E+04  0.10100000352E+00 0. -1.
       -3    1    3    3    0  502  0.13092004884E+04 -0.89492902750E+03  0.11706236506E+03  0.15901595803E+04  0.10100000352E+00 0.  1.
</event>
<event>
 5   0  0.3075756E-07  0.3292575E+04  0.7818609E-02  0.8164787E-01
        1   -1    0    0  501    0  0.00000000000E+00  0.00000000000E+00  0.16078354371E+04  0.16078354371E+04  0.50400001928E-02 0. -1.
       -1   -1    0    0    0  501  0.00000000000E+00  0.00000000000E+00 -0.16856596425E+04  0.16856596425E+04  0.50400001928E-02 0.  1.
    10030    2    1    2    0    0  0.00000000000E+00  0.00000000000E+00 -0.77824205463E+02  0.32934950796E+04  0.32925754710E+04 0.  0.
        5    1    3    3  502    0 -0.79409374339E+03  0.94966012608E+03  0.10466568708E+04  0.16210959020E+04  0.46999998093E+01 0. -1.
       -5    1    3    3    0  502  0.79409374339E+03 -0.94966012608E+03 -0.11244810762E+04  0.16723991776E+04  0.46999998093E+01 0.  1.
</event>
<event>
 5   0  0.8802800E-07  0.3155982E+04  0.7818609E-02  0.8200540E-01
       -2   -1    0    0    0  501  0.00000000000E+00  0.00000000000E+00  0.10387573215E+04  0.10387573215E+04  0.25500000920E-02 0.  1.
        2   -1    0    0  501    0  0.00000000000E+00  0.00000000000E+00 -0.23971482724E+04  0.23971482724E+04  0.25500000920E-02 0. -1.
    10030    2    1    2    0    0  0.00000000000E+00  0.00000000000E+00 -0.13583909509E+04  0.34359055940E+04  0.31559818243E+04 0.  0.
        5    1    3    3  502    0 -0.10069858973E+04 -0.19739297712E+03  0.62590054001E+03  0.12019809319E+04  0.46999998093E+01 0.  1.
       -5    1    3    3    0  502  0.10069858973E+04  0.19739297712E+03 -0.19842914909E+04  0.22339246620E+04  0.46999998093E+01 0. -1.
</event>
<event>
 5   0  0.8488469E-07  0.3202724E+04  0.7818609E-02  0.8188098E-01
       -2   -1    0    0    0  501  0.00000000000E+00  0.00000000000E+00  0.23683164254E+04  0.23683164254E+04  0.25500000920E-02 0.  1.
        2   -1    0    0  501    0  0.00000000000E+00  0.00000000000E+00 -0.10827773903E+04  0.10827773903E+04  0.25500000920E-02 0. -1.
    10030    2    1    2    0    0  0.00000000000E+00  0.00000000000E+00  0.12855390351E+04  0.34510938157E+04  0.32027235151E+04 0.  0.
        3    1    3    3  502    0 -0.52124723581E+03  0.12239012584E+04 -0.31783840380E+03  0.13677186232E+04  0.10100000352E+00 0. -1.
       -3    1    3    3    0  502  0.52124723581E+03 -0.12239012584E+04  0.16033774389E+04  0.20833751925E+04  0.10100000352E+00 0.  1.
</event>
<event>
 5   0  0.2997105E-07  0.3191140E+04  0.7818609E-02  0.8191161E-01
        1   -1    0    0  501    0  0.00000000000E+00  0.00000000000E+00  0.17207326212E+04  0.17207326212E+04  0.50400001928E-02 0. -1.
       -1   -1    0    0    0  501  0.00000000000E+00  0.00000000000E+00 -0.14795115135E+04  0.14795115135E+04  0.50400001928E-02 0.  1.
    10030    2    1    2    0    0  0.00000000000E+00  0.00000000000E+00  0.24122110762E+03  0.32002441347E+04  0.31911400626E+04 0.  0.
        3    1    3    3  502    0  0.62286579659E+01 -0.38587163220E+03 -0.14320014040E+04  0.14830926282E+04  0.10100000352E+00 0.  1.
       -3    1    3    3    0  502 -0.62286579659E+01  0.38587163220E+03  0.16732225116E+04  0.17171515065E+04  0.10100000352E+00 0. -1.
</event>
<event>
 5   0  0.2997105E-07  0.3197816E+04  0.7818609E-02  0.8189394E-01
       -1   -1    0    0    0  501  0.00000000000E+00  0.00000000000E+00  0.12525125337E+04  0.12525125337E+04  0.50400001928E-02 0.  1.
        1   -1    0    0  501    0  0.00000000000E+00  0.00000000000E+00 -0.20411023815E+04  0.20411023815E+04  0.50400001928E-02 0. -1.
    10030    2    1    2    0    0  0.00000000000E+00  0.00000000000E+00 -0.78858984777E+03  0.32936149152E+04  0.31978157017E+04 0.  0.
        3    1    3    3  502    0 -0.97918156898E+03  0.11642350953E+04  0.11265607807E+03  0.15254282364E+04  0.10100000352E+00 0.  1.
       -3    1    3    3    0  502  0.97918156898E+03 -0.11642350953E+04 -0.90124592583E+03  0.17681866789E+04  0.10100000352E+00 0. -1.
</event>
<event>
 5   0  0.2891204E-07  0.3187781E+04  0.7818609E-02  0.8192052E-01
       -1   -1    0    0    0  501  0.00000000000E+00  0.00000000000E+00  0.11736755319E+04  0.11736755319E+04  0.50400001928E-02 0. -1.
        1   -1    0    0  501    0  0.00000000000E+00  0.00000000000E+00 -0.21645559193E+04  0.21645559193E+04  0.50400001928E-02 0.  1.
    10030    2    1    2    0    0  0.00000000000E+00  0.00000000000E+00 -0.99088038733E+03  0.33382314512E+04  0.31877806198E+04 0.  0.
        4    1    3    3  502    0  0.15779602411E+04  0.17728713585E+03 -0.64014835837E+03  0.17120691530E+04  0.12699999809E+01 0. -1.
       -4    1    3    3    0  502 -0.15779602411E+04 -0.17728713585E+03 -0.35073202896E+03  0.16261622982E+04  0.12699999809E+01 0.  1.
</event>
<event>
 5   0  0.8195618E-07  0.3194357E+04  0.7818609E-02  0.8190309E-01
       -2   -1    0    0    0  501  0.00000000000E+00  0.00000000000E+00  0.26394668736E+04  0.26394668736E+04  0.25500000920E-02 0. -1.
        2   -1    0    0  501    0  0.00000000000E+00  0.00000000000E+00 -0.96647534059E+03  0.96647534059E+03  0.25500000920E-02 0.  1.
    10030    2    1    2    0    0  0.00000000000E+00  0.00000000000E+00  0.16729915330E+04  0.36059422142E+04  0.31943573035E+04 0.  0.
        1    1    3    3  502    0 -0.70808906308E+03 -0.34989648599E+03 -0.73059582113E+03  0.10759126015E+04  0.50400001928E-02 0.  1.
       -1    1    3    3    0  502  0.70808906308E+03  0.34989648599E+03  0.24035873541E+04  0.25300296127E+04  0.50400001928E-02 0. -1.
</event>
<event>
 5   0  0.8802800E-07  0.3198716E+04  0.7818609E-02  0.8189156E-01
        2   -1    0    0  501    0  0.00000000000E+00  0.00000000000E+00  0.31911266828E+04  0.31911266828E+04  0.25500000920E-02 0.  1.
       -2   -1    0    0    0  501  0.00000000000E+00  0.00000000000E+00 -0.80158080843E+03  0.80158080843E+03  0.25500000920E-02 0. -1.
    10030    2    1    2    0    0  0.00000000000E+00  0.00000000000E+00  0.23895458744E+04  0.39927074912E+04  0.31987159337E+04 0.  0.
        5    1    3    3  502    0 -0.96420775763E+03  0.51966932912E+03 -0.25991235618E+03  0.11257572271E+04  0.46999998093E+01 0. -1.
       -5    1    3    3    0  502  0.96420775763E+03 -0.51966932912E+03  0.26494582305E+04  0.28669502641E+04  0.46999998093E+01 0.  1.
</event>
<event>
 5   0  0.8838951E-07  0.3200681E+04  0.7818609E-02  0.8188637E-01
        2   -1    0    0  501    0  0.00000000000E+00  0.00000000000E+00  0.23172148269E+04  0.23172148269E+04  0.25500000920E-02 0.  1.
       -2   -1    0    0    0  501  0.00000000000E+00  0.00000000000E+00 -0.11052445613E+04  0.11052445613E+04  0.25500000920E-02 0. -1.
    10030    2    1    2    0    0  0.00000000000E+00  0.00000000000E+00  0.12119702656E+04  0.34224593882E+04  0.32006806056E+04 0.  0.
        2    1    3    3  502    0  0.38872101923E+03 -0.13555674203E+04  0.14149955842E+04  0.19977185901E+04  0.25500000920E-02 0.  1.
       -2    1    3    3    0  502 -0.38872101923E+03  0.13555674203E+04 -0.20302531861E+03  0.14247407981E+04  0.25500000920E-02 0. -1.
</event>
<event>
 5   0  0.8488469E-07  0.3212121E+04  0.7818609E-02  0.8185623E-01
        2   -1    0    0  501    0  0.00000000000E+00  0.00000000000E+00  0.18274058779E+04  0.18274058779E+04  0.25500000920E-02 0.  1.
       -2   -1    0    0    0  501  0.00000000000E+00  0.00000000000E+00 -0.14115258542E+04  0.14115258542E+04  0.25500000920E-02 0. -1.
    10030    2    1    2    0    0  0.00000000000E+00  0.00000000000E+00  0.41588002379E+03  0.32389317321E+04  0.32121211949E+04 0.  0.
        3    1    3    3  502    0 -0.67380856043E+03 -0.87127035203E+03 -0.97070495393E+03  0.14681274196E+04  0.10100000352E+00 0. -1.
       -3    1    3    3    0  502  0.67380856043E+03  0.87127035203E+03  0.13865849777E+04  0.17708043125E+04  0.10100000352E+00 0.  1.
</event>
<event>
 5   0  0.2783875E-07  0.3194146E+04  0.7818609E-02  0.8190365E-01
        1   -1    0    0  501    0  0.00000000000E+00  0.00000000000E+00  0.14958941735E+04  0.14958941735E+04  0.50400001928E-02 0. -1.
       -1   -1    0    0    0  501  0.00000000000E+00  0.00000000000E+00 -0.17050949384E+04  0.17050949384E+04  0.50400001928E-02 0.  1.
    10030    2    1    2    0    0  0.00000000000E+00  0.00000000000E+00 -0.20920076489E+03  0.32009891120E+04  0.31941456346E+04 0.  0.
        2    1    3    3  502    0 -0.84006281864E+03  0.10172392082E+04  0.79741719195E+03  0.15415431632E+04  0.25500000920E-02 0. -1.
       -2    1    3    3    0  502  0.84006281864E+03 -0.10172392082E+04 -0.10066179568E+04  0.16594459488E+04  0.25500000920E-02 0.  1.
</event>
<event>
 5   0  0.3013888E-07  0.3162327E+04  0.7818609E-02  0.8198838E-01
        1   -1    0    0  501    0  0.00000000000E+00  0.00000000000E+00  0.23657398700E+04  0.23657398700E+04  0.50400001928E-02 0.  1.
       -1   -1    0    0    0  501  0.00000000000E+00  0.00000000000E+00 -0.10567850712E+04  0.10567850712E+04  0.50400001928E-02 0. -1.
    10030    2    1    2    0    0  0.00000000000E+00  0.00000000000E+00  0.13089547988E+04  0.34225249413E+04  0.31623273563E+04 0.  0.
        1    1    3    3  502    0  0.12437820405E+03  0.15434269929E+04  0.30807706222E+03  0.15787806359E+04  0.50400001928E-02 0. -1.
       -1    1    3    3    0  502 -0.12437820405E+03 -0.15434269929E+04  0.10008777366E+04  0.18437443054E+04  0.50400001928E-02 0.  1.
</event>
<event>
 5   0  0.8488469E-07  0.3194297E+04  0.7818609E-02  0.8190325E-01
       -2   -1    0    0    0  501  0.00000000000E+00  0.00000000000E+00  0.24785033140E+04  0.24785033140E+04  0.25500000920E-02 0. -1.
        2   -1    0    0  501    0  0.00000000000E+00  0.00000000000E+00 -0.10292032741E+04  0.10292032741E+04  0.25500000920E-02 0.  1.
    10030    2    1    2    0    0  0.00000000000E+00  0.00000000000E+00  0.14493000398E+04  0.35077065881E+04  0.31942972471E+04 0.  0.
        3    1    3    3  502    0  0.12241892562E+03  0.10923375686E+04  0.19970884350E+04  0.22795942588E+04  0.10100000352E+00 0. -1.
       -3    1    3    3    0  502 -0.12241892562E+03 -0.10923375686E+04 -0.54778839520E+03  0.12281123293E+04  0.10100000352E+00 0.  1.
</event>
<event>
 5   0  0.8802800E-07  0.3197404E+04  0.7818609E-02  0.8189503E-01
       -2   -1    0    0    0  501  0.00000000000E+00  0.00000000000E+00  0.84958953175E+03  0.84958953176E+03  0.25500000920E-02 0.  1.
        2   -1    0    0  501    0  0.00000000000E+00  0.00000000000E+00 -0.30083336193E+04  0.30083336193E+04  0.25500000920E-02 0. -1.
    10030    2    1    2    0    0  0.00000000000E+00  0.00000000000E+00 -0.21587440875E+04  0.38579231511E+04  0.31974044167E+04 0.  0.
        5    1    3    3  502    0  0.39451949839E+03 -0.14849489157E+04 -0.16123303752E+04  0.22271843762E+04  0.46999998093E+01 0. -1.
       -5    1    3    3    0  502 -0.39451949839E+03  0.14849489157E+04 -0.54641371237E+03  0.16307387749E+04  0.46999998093E+01 0.  1.
</event>
<event>
 5   0  0.2997105E-07  0.3207734E+04  0.7818609E-02  0.8186778E-01
       -1   -1    0    0    0  501  0.00000000000E+00  0.00000000000E+00  0.27567231218E+04  0.27567231218E+04  0.50400001928E-02 0.  1.
        1   -1    0    0  501    0  0.00000000000E+00  0.00000000000E+00 -0.93313325876E+03  0.93313325878E+03  0.50400001928E-02 0. -1.
    10030    2    1    2    0    0  0.00000000000E+00  0.00000000000E+00  0.18235898630E+04  0.36898563805E+04  0.32077344218E+04 0.  0.
        3    1    3    3  502    0 -0.46304726655E+03 -0.25040166468E+03  0.26545186419E+04  0.27062119272E+04  0.10100000352E+00 0.  1.
       -3    1    3    3    0  502  0.46304726655E+03  0.25040166468E+03 -0.83092877889E+03  0.98364445331E+03  0.10100000352E+00 0. -1.
</event>
<event>
 5   0  0.2783875E-07  0.3189571E+04  0.7818609E-02  0.8191577E-01
        1   -1    0    0  501    0  0.00000000000E+00  0.00000000000E+00  0.15173449326E+04  0.15173449326E+04  0.50400001928E-02 0. -1.
       -1   -1    0    0    0  501  0.00000000000E+00  0.00000000000E+00 -0.16761787230E+04  0.16761787230E+04  0.50400001928E-02 0.  1.
    10030    2    1    2    0    0  0.00000000000E+00  0.00000000000E+00 -0.15883379039E+03  0.31935236556E+04  0.31895713138E+04 0.  0.
        2    1    3    3  502    0  0.65995064677E+03 -0.22828440764E+03  0.13561284451E+04  0.15253632310E+04  0.25500000920E-02 0. -1.
       -2    1    3    3    0  502 -0.65995064677E+03  0.22828440764E+03 -0.15149622355E+04  0.16681604245E+04  0.25500000920E-02 0.  1.
</event>
<event>
 5   0  0.2783875E-07  0.3201201E+04  0.7818609E-02  0.8188500E-01
       -1   -1    0    0    0  501  0.00000000000E+00  0.00000000000E+00  0.92738500191E+03  0.92738500192E+03  0.50400001928E-02 0. -1.
        1   -1    0    0  501    0  0.00000000000E+00  0.00000000000E+00 -0.27625220673E+04  0.27625220673E+04  0.50400001928E-02 0.  1.
    10030    2    1    2    0    0  0.00000000000E+00  0.00000000000E+00 -0.18351370654E+04  0.36899070692E+04  0.32012007327E+04 0.  0.
        2    1    3    3  502    0 -0.14528487518E+04  0.56449460611E+03 -0.13371409986E+04  0.20536235551E+04  0.25500000920E-02 0.  1.
       -2    1    3    3    0  502  0.14528487518E+04 -0.56449460611E+03 -0.49799606682E+03  0.16362835141E+04  0.25500000920E-02 0. -1.
</event>
<event>
 5   0  0.8335929E-07  0.3213720E+04  0.7818609E-02  0.8185203E-01
        2   -1    0    0  501    0  0.00000000000E+00  0.00000000000E+00  0.19133467167E+04  0.19133467167E+04  0.25500000920E-02 0.  1.
       -2   -1    0    0    0  501  0.00000000000E+00  0.00000000000E+00 -0.13494675151E+04  0.13494675151E+04  0.25500000920E-02 0. -1.
    10030    2    1    2    0    0  0.00000000000E+00  0.00000000000E+00  0.56387920162E+03  0.32628142318E+04  0.32137201118E+04 0.  0.
        4    1    3    3  502    0  0.52595200581E+03  0.12501390488E+04  0.11568018629E+04  0.17826007171E+04  0.12699999809E+01 0.  1.
       -4    1    3    3    0  502 -0.52595200581E+03 -0.12501390488E+04 -0.59292266131E+03  0.14802135146E+04  0.12699999809E+01 0. -1.
</event>
<event>
 5   0  0.3075756E-07  0.3202355E+04  0.7818609E-02  0.8188196E-01
        1   -1    0    0  501    0  0.00000000000E+00  0.00000000000E+00  0.90073816607E+03  0.90073816609E+03  0.50400001928E-02 0.  1.
       -1   -1    0    0    0  501  0.00000000000E+00  0.00000000000E+00 -0.28462977518E+04  0.28462977518E+04  0.50400001928E-02 0. -1.
    10030    2    1    2    0    0  0.00000000000E+00  0.00000000000E+00 -0.19455595857E+04  0.37470359179E+04  0.32023547693E+04 0.  0.
        5    1    3    3  502    0  0.88587471769E+03  0.36459608715E+03 -0.24739811523E+04  0.26529811824E+04  0.46999998093E+01 0. -1.
       -5    1    3    3    0  502 -0.88587471769E+03 -0.36459608715E+03  0.52842156659E+03  0.10940547355E+04  0.46999998093E+01 0.  1.
</event>
<event>
 5   0  0.8802800E-07  0.3172328E+04  0.7818609E-02  0.8196164E-01
       -2   -1    0    0    0  501  0.00000000000E+00  0.00000000000E+00  0.14367964726E+04  0.14367964726E+04  0.25500000920E-02 0.  1.
        2   -1    0    0  501    0  0.00000000000E+00  0.00000000000E+00 -0.17510596938E+04  0.17510596938E+04  0.25500000920E-02 0. -1.
    10030    2    1    2    0    0  0.00000000000E+00  0.00000000000E+00 -0.31426322124E+03  0.31878561664E+04  0.31723280986E+04 0.  0.
        5    1    3    3  502    0  0.16166524808E+03  0.73759415116E+03  0.12445845105E+04  0.14557449907E+04  0.46999998093E+01 0.  1.
       -5    1    3    3    0  502 -0.16166524808E+03 -0.73759415116E+03 -0.15588477317E+04  0.17321111757E+04  0.46999998093E+01 0. -1.
</event>
<event>
 5   0  0.2783875E-07  0.3186685E+04  0.7818609E-02  0.8192342E-01
        1   -1    0    0  501    0  0.00000000000E+00  0.00000000000E+00  0.27977847013E+04  0.27977847013E+04  0.50400001928E-02 0. -1.
       -1   -1    0    0    0  501  0.00000000000E+00  0.00000000000E+00 -0.90741090159E+03  0.90741090160E+03  0.50400001928E-02 0.  1.
    10030    2    1    2    0    0  0.00000000000E+00  0.00000000000E+00  0.18903737997E+04  0.37051956029E+04  0.31866850100E+04 0.  0.
        2    1    3    3  502    0 -0.89955848327E+03 -0.10875499386E+04  0.85432626391E+02  0.14139551151E+04  0.25500000920E-02 0.  1.
       -2    1    3    3    0  502  0.89955848327E+03  0.10875499386E+04  0.18049411733E+04  0.22912404878E+04  0.25500000920E-02 0. -1.
</event>
<event>
 5   0  0.8195618E-07  0.3209974E+04  0.7818609E-02  0.8186188E-01
       -2   -1    0    0    0  501  0.00000000000E+00  0.00000000000E+00  0.10581839864E+04  0.10581839864E+04  0.25500000920E-02 0.  1.
        2   -1    0    0  501    0  0.00000000000E+00  0.00000000000E+00 -0.24343428161E+04  0.24343428161E+04  0.25500000920E-02 0. -1.
    10030    2    1    2    0    0  0.00000000000E+00  0.00000000000E+00 -0.13761588297E+04  0.34925268025E+04  0.32099735734E+04 0.  0.
        1    1    3    3  502    0  0.86524872471E+03  0.56424751558E+03 -0.20246010673E+04  0.22728924516E+04  0.50400001928E-02 0. -1.
       -1    1    3    3    0  502 -0.86524872471E+03 -0.56424751558E+03  0.64844223762E+03  0.12196343509E+04  0.50400001928E-02 0.  1.
</event>
<event>
 5   0  0.3075756E-07  0.3206530E+04  0.7818609E-02  0.8187095E-01
       -1   -1    0    0    0  501  0.00000000000E+00  0.00000000000E+00  0.17852158938E+04  0.17852158938E+04  0.50400001928E-02 0. -1.
        1   -1    0    0  501    0  0.00000000000E+00  0.00000000000E+00 -0.14398590955E+04  0.14398590955E+04  0.50400001928E-02 0.  1.
    10030    2    1    2    0    0  0.00000000000E+00  0.00000000000E+00  0.34535679829E+03  0.32250749893E+04  0.32065304253E+04 0.  0.
        5    1    3    3  502    0 -0.10512907866E+04 -0.32235252715E+03  0.13461796934E+04  0.17382017509E+04  0.46999998093E+01 0. -1.
       -5    1    3    3    0  502  0.10512907866E+04  0.32235252715E+03 -0.10008228952E+04  0.14868732384E+04  0.46999998093E+01 0.  1.
</event>
<event>
 5   0  0.2783875E-07  0.3191822E+04  0.7818609E-02  0.8190980E-01
        1   -1    0    0  501    0  0.00000000000E+00  0.00000000000E+00  0.16024820026E+04  0.16024820026E+04  0.50400001928E-02 0.  1.
       -1   -1    0    0    0  501  0.00000000000E+00  0.00000000000E+00 -0.15893673122E+04  0.15893673123E+04  0.50400001928E-02 0. -1.
    10030    2    1    2    0    0  0.00000000000E+00  0.00000000000E+00  0.13114690375E+02  0.31918493149E+04  0.31918223719E+04 0.  0.
        2    1    3    3  502    0 -0.11524925743E+04  0.96084219012E+03 -0.53702397698E+03  0.15936911871E+04  0.25500000920E-02 0. -1.
       -2    1    3    3    0  502  0.11524925743E+04 -0.96084219012E+03  0.55013866736E+03  0.15981581278E+04  0.25500000920E-02 0.  1.
</event>
<event>
 5   0  0.8838951E-07  0.3135764E+04  0.7818609E-02  0.8205991E-01
       -2   -1    0    0    0  501  0.00000000000E+00  0.00000000000E+00  0.12756311122E+04  0.12756311122E+04  0.25500000920E-02 0. -1.
        2   -1    0    0  501    0  0.00000000000E+00  0.00000000000E+00 -0.19270887597E+04  0.19270887597E+04  0.25500000920E-02 0.  1.
    10030    2    1    2    0    0  0.00000000000E+00  0.00000000000E+00 -0.65145764746E+03  0.32027198719E+04  0.31357642627E+04 0.  0.
        2    1    3    3  502    0 -0.13312940467E+04  0.25109851548E+03 -0.11317951800E+04  0.17653199803E+04  0.25500000920E-02 0.  1.
       -2    1    3    3    0  502  0.13312940467E+04 -0.25109851548E+03  0.48033753250E+03  0.14373998916E+04  0.25500000920E-02 0. -1.
</event>
<event>
 5   0  0.8838951E-07  0.3173749E+04  0.7818609E-02  0.8195785E-01
       -2   -1    0    0    0  501  0.00000000000E+00  0.00000000000E+00  0.13990302210E+04  0.13990302210E+04  0.25500000920E-02 0. -1.
        2   -1    0    0  501    0  0.00000000000E+00  0.00000000000E+00 -0.17999404064E+04  0.17999404064E+04  0.25500000920E-02 0.  1.
    10030    2    1    2    0    0  0.00000000000E+00  0.00000000000E+00 -0.40091018539E+03  0.31989706274E+04  0.31737492179E+04 0.  0.
        2    1    3    3  502    0 -0.15391964739E+04 -0.17356243709E+03  0.14713509286E+03  0.15559236615E+04  0.25500000920E-02 0.  1.
       -2    1    3    3    0  502  0.15391964739E+04  0.17356243709E+03 -0.54804527825E+03  0.16430469658E+04  0.25500000920E-02 0. -1.
</event>
<event>
 5   0  0.8335929E-07  0.3200213E+04  0.7818609E-02  0.8188761E-01
       -2   -1    0    0    0  501  0.00000000000E+00  0.00000000000E+00  0.73002404028E+03  0.73002404028E+03  0.25500000920E-02 0. -1.
        2   -1    0    0  501    0  0.00000000000E+00  0.00000000000E+00 -0.35072012796E+04  0.35072012796E+04  0.25500000920E-02 0.  1.
    10030    2    1    2    0    0  0.00000000000E+00  0.00000000000E+00 -0.27771772393E+04  0.42372253199E+04  0.32002132730E+04 0.  0.
        4    1    3    3  502    0  0.92485135917E+03 -0.10925904494E+04 -0.44188676709E+03  0.14981219758E+04  0.12699999809E+01 0. -1.
       -4    1    3    3    0  502 -0.92485135917E+03  0.10925904494E+04 -0.23352904722E+04  0.27391033440E+04  0.12699999809E+01 0.  1.
</event>
<event>
 5   0  0.8838951E-07  0.3205916E+04  0.7818609E-02  0.8187257E-01
       -2   -1    0    0    0  501  0.00000000000E+00  0.00000000000E+00  0.12367876884E+04  0.12367876884E+04  0.25500000920E-02 0.  1.
        2   -1    0    0  501    0  0.00000000000E+00  0.00000000000E+00 -0.20775386405E+04  0.20775386406E+04  0.25500000920E-02 0. -1.
    10030    2    1    2    0    0  0.00000000000E+00  0.00000000000E+00 -0.84075095214E+03  0.33143263290E+04  0.32059159146E+04 0.  0.
        2    1    3    3  502    0 -0.40113466223E+03 -0.47706270242E+03  0.11063769540E+04  0.12698692073E+04  0.25500000920E-02 0.  1.
       -2    1    3    3    0  502  0.40113466223E+03  0.47706270242E+03 -0.19471279062E+04  0.20444571216E+04  0.25500000920E-02 0. -1.
</event>
<event>
 5   0  0.8838951E-07  0.3197657E+04  0.7818609E-02  0.8189436E-01
       -2   -1    0    0    0  501  0.00000000000E+00  0.00000000000E+00  0.15721145203E+04  0.15721145203E+04  0.25500000920E-02 0. -1.
        2   -1    0    0  501    0  0.00000000000E+00  0.00000000000E+00 -0.16259964276E+04  0.16259964276E+04  0.25500000920E-02 0.  1.
    10030    2    1    2    0    0  0.00000000000E+00  0.00000000000E+00 -0.53881907343E+02  0.31981109479E+04  0.31976570134E+04 0.  0.
        2    1    3    3  502    0  0.15836013757E+04 -0.74309864879E+01  0.19309949906E+03  0.15953482232E+04  0.25500000920E-02 0. -1.
       -2    1    3    3    0  502 -0.15836013757E+04  0.74309864879E+01 -0.24698140640E+03  0.16027627247E+04  0.25500000920E-02 0.  1.
</event>
<event>
 5   0  0.8488469E-07  0.3206269E+04  0.7818609E-02  0.8187163E-01
       -2   -1    0    0    0  501  0.00000000000E+00  0.00000000000E+00  0.12357998876E+04  0.12357998876E+04  0.25500000920E-02 0. -1.
        2   -1    0    0  501    0  0.00000000000E+00  0.00000000000E+00 -0.20796577890E+04  0.20796577890E+04  0.25500000920E-02 0.  1.
    10030    2    1    2    0    0  0.00000000000E+00  0.00000000000E+00 -0.84385790136E+03  0.33154576766E+04  0.32062693972E+04 0.  0.
        3    1    3    3  502    0  0.11665508997E+04 -0.10234628533E+04 -0.60851517323E+01  0.15518873197E+04  0.10100000352E+00 0. -1.
       -3    1    3    3    0  502 -0.11665508997E+04  0.10234628533E+04 -0.83777274963E+03  0.17635703569E+04  0.10100000352E+00 0.  1.
</event>
<event>
 5   0  0.2891204E-07  0.3199859E+04  0.7818609E-02  0.8188854E-01
       -1   -1    0    0    0  501  0.00000000000E+00  0.00000000000E+00  0.10516134703E+04  0.10516134703E+04  0.50400001928E-02 0.  1.
        1   -1    0    0  501    0  0.00000000000E+00  0.00000000000E+00 -0.24341400125E+04  0.24341400125E+04  0.50400001928E-02 0. -1.
    10030    2    1    2    0    0  0.00000000000E+00  0.00000000000E+00 -0.13825265422E+04  0.34857534828E+04  0.31998590130E+04 0.  0.
        4    1    3    3  502    0  0.10733695483E+04  0.64681162092E+02 -0.19817897653E+04  0.22547279496E+04  0.12699999809E+01 0. -1.
       -4    1    3    3    0  502 -0.10733695483E+04 -0.64681162092E+02  0.59926322312E+03  0.12310255332E+04  0.12699999809E+01 0.  1.
</event>
<event>
 5   0  0.3013888E-07  0.3214579E+04  0.7818609E-02  0.8184977E-01
        1   -1    0    0  501    0  0.00000000000E+00  0.00000000000E+00  0.98140076907E+03  0.98140076908E+03  0.50400001928E-02 0. -1.
       -1   -1    0    0    0  501  0.00000000000E+00  0.00000000000E+00 -0.26323394357E+04  0.26323394358E+04  0.50400001928E-02 0.  1.
    10030    2    1    2    0    0  0.00000000000E+00  0.00000000000E+00 -0.16509386667E+04  0.36137402048E+04  0.32145792550E+04 0.  0.
        1    1    3    3  502    0  0.19217024714E+03 -0.14326470573E+04 -0.16155735407E+04  0.21678295275E+04  0.50400001928E-02 0.  1.
       -1    1    3    3    0  502 -0.19217024714E+03  0.14326470573E+04 -0.35365125957E+02  0.14459106774E+04  0.50400001928E-02 0. -1.
</event>
<event>
 5   0  0.2997105E-07  0.3221771E+04  0.7818609E-02  0.8183091E-01
        1   -1    0    0  501    0  0.00000000000E+00  0.00000000000E+00  0.82381653076E+03  0.82381653078E+03  0.50400001928E-02 0. -1.
       -1   -1    0    0    0  501  0.00000000000E+00  0.00000000000E+00 -0.31499146192E+04  0.31499146192E+04  0.50400001928E-02 0.  1.
    10030    2    1    2    0    0  0.00000000000E+00  0.00000000000E+00 -0.23260980884E+04  0.39737311500E+04  0.32217707763E+04 0.  0.
        3    1    3    3  502    0 -0.33915479020E+03 -0.76446825220E+03  0.53506692484E+03  0.99284153046E+03  0.10100000352E+00 0. -1.
       -3    1    3    3    0  502  0.33915479020E+03  0.76446825220E+03 -0.28611650133E+04  0.29808896195E+04  0.10100000352E+00 0.  1.
</event>
<event>
 5   0  0.2783875E-07  0.3203405E+04  0.7818609E-02  0.8187919E-01
        1   -1    0    0  501    0  0.00000000000E+00  0.00000000000E+00  0.19319897046E+04  0.19319897046E+04  0.50400001928E-02 0. -1.
       -1   -1    0    0    0  501  0.00000000000E+00  0.00000000000E+00 -0.13278800819E+04  0.13278800820E+04  0.50400001928E-02 0.  1.
    10030    2    1    2    0    0  0.00000000000E+00  0.00000000000E+00  0.60410962262E+03  0.32598697865E+04  0.32034048431E+04 0.  0.
        2    1    3    3  502    0  0.23159040118E+03 -0.14816584108E+04  0.87455895575E+03  0.17360297023E+04  0.25500000920E-02 0. -1.
       -2    1    3    3    0  502 -0.23159040118E+03  0.14816584108E+04 -0.27044933313E+03  0.15238400842E+04  0.25500000920E-02 0.  1.
</event>
<event>
 5   0  0.3013888E-07  0.3142450E+04  0.7818609E-02  0.8204184E-01
       -1   -1    0    0    0  501  0.00000000000E+00  0.00000000000E+00  0.11783799410E+04  0.11783799410E+04  0.50400001928E-02 0.  1.
        1   -1    0    0  501    0  0.00000000000E+00  0.00000000000E+00 -0.20950353154E+04  0.20950353154E+04  0.50400001928E-02 0. -1.
    10030    2    1    2    0    0  0.00000000000E+00  0.00000000000E+00 -0.91665537434E+03  0.32734152564E+04  0.31424497395E+04 0.  0.
        1    1    3    3  502    0 -0.14504974811E+04  0.38444083395E+03  0.26930117740E+02  0.15008207517E+04  0.50400001928E-02 0.  1.
       -1    1    3    3    0  502  0.14504974811E+04 -0.38444083395E+03 -0.94358549208E+03  0.17725945047E+04  0.50400001928E-02 0. -1.
</event>
<event>
 5   0  0.8335929E-07  0.3195810E+04  0.7818609E-02  0.8189925E-01
        2   -1    0    0  501    0  0.00000000000E+00  0.00000000000E+00  0.17224678653E+04  0.17224678653E+04  0.25500000920E-02 0. -1.
       -2   -1    0    0    0  501  0.00000000000E+00  0.00000000000E+00 -0.14823502934E+04  0.14823502934E+04  0.25500000920E-02 0.  1.
    10030    2    1    2    0    0  0.00000000000E+00  0.00000000000E+00  0.24011757189E+03  0.32048181587E+04  0.31958102230E+04 0.  0.
        4    1    3    3  502    0 -0.15816438211E+04 -0.22457163760E+03  0.84327818363E+02  0.15997319748E+04  0.12699999809E+01 0. -1.
       -4    1    3    3    0  502  0.15816438211E+04  0.22457163760E+03  0.15578975353E+03  0.16050861838E+04  0.12699999809E+01 0.  1.
</event>
<event>
 5   0  0.8335929E-07  0.3202446E+04  0.7818609E-02  0.8188172E-01
        2   -1    0    0  501    0  0.00000000000E+00  0.00000000000E+00  0.15652097188E+04  0.15652097188E+04  0.25500000920E-02 0. -1.
       -2   -1    0    0    0  501  0.00000000000E+00  0.00000000000E+00 -0.16380645452E+04  0.16380645452E+04  0.25500000920E-02 0.  1.
    10030    2    1    2    0    0  0.00000000000E+00  0.00000000000E+00 -0.72854826366E+02  0.32032742640E+04  0.32024456568E+04 0.  0.
        4    1    3    3  502    0 -0.82617983509E+03  0.20148897899E+03  0.13206631079E+04  0.15707716531E+04  0.12699999809E+01 0. -1.
       -4    1    3    3    0  502  0.82617983509E+03 -0.20148897899E+03 -0.13935179343E+04  0.16325026109E+04  0.12699999809E+01 0.  1.
</event>
<event>
 5   0  0.8838951E-07  0.3194615E+04  0.7818609E-02  0.8190241E-01
       -2   -1    0    0    0  501  0.00000000000E+00  0.00000000000E+00  0.24632417573E+04  0.24632417573E+04  0.25500000920E-02 0.  1.
        2   -1    0    0  501    0  0.00000000000E+00  0.00000000000E+00 -0.10357860157E+04  0.10357860157E+04  0.25500000920E-02 0. -1.
    10030    2    1    2    0    0  0.00000000000E+00  0.00000000000E+00  0.14274557416E+04  0.34990277731E+04  0.31946150726E+04 0.  0.
        2    1    3    3  502    0 -0.12959169193E+04  0.92202639934E+03  0.87566047084E+03  0.18155755570E+04  0.25500000920E-02 0. -1.
       -2    1    3    3    0  502  0.12959169193E+04 -0.92202639934E+03  0.55179527076E+03  0.16834522161E+04  0.25500000920E-02 0.  1.
</event>
<event>
 5   0  0.2783875E-07  0.3244087E+04  0.7818609E-02  0.8177270E-01
        3   -1    0    0  501    0  0.00000000000E+00  0.00000000000E+00  0.91450542827E+03  0.91450543385E+03  0.10100000352E+00 0.  1.
       -3   -1    0    0    0  501  0.00000000000E+00  0.00000000000E+00 -0.28769915311E+04  0.28769915329E+04  0.10100000352E+00 0. -1.
    10030    2    1    2    0    0  0.00000000000E+00  0.00000000000E+00 -0.19624861029E+04  0.37914969668E+04  0.32440865502E+04 0.  0.
        2    1    3    3  502    0  0.13297594434E+04 -0.22061236609E+03 -0.20357650941E+04  0.24415711155E+04  0.25500000920E-02 0. -1.
       -2    1    3    3    0  502 -0.13297594434E+04  0.22061236609E+03  0.73278991283E+02  0.13499258513E+04  0.25500000920E-02 0.  1.
</event>
<event>
 5   0  0.2891204E-07  0.3204836E+04  0.7818609E-02  0.8187541E-01
       -1   -1    0    0    0  501  0.00000000000E+00  0.00000000000E+00  0.15297726254E+04  0.15297726254E+04  0.50400001928E-02 0.  1.
        1   -1    0    0  501    0  0.00000000000E+00  0.00000000000E+00 -0.16785135664E+04  0.16785135664E+04  0.50400001928E-02 0. -1.
    10030    2    1    2    0    0  0.00000000000E+00  0.00000000000E+00 -0.14874094099E+03  0.32082861918E+04  0.32048364110E+04 0.  0.
        4    1    3    3  502    0 -0.77947844911E+02  0.11045875994E+03 -0.16727937820E+04  0.16782483887E+04  0.12699999809E+01 0. -1.
       -4    1    3    3    0  502  0.77947844911E+02 -0.11045875994E+03  0.15240528410E+04  0.15300378032E+04  0.12699999809E+01 0.  1.
</event>
<event>
 5   0  0.2997105E-07  0.3239625E+04  0.7818609E-02  0.8178430E-01
        1   -1    0    0  501    0  0.00000000000E+00  0.00000000000E+00  0.12459810080E+04  0.12459810080E+04  0.50400001928E-02 0. -1.
       -1   -1    0    0    0  501  0.00000000000E+00  0.00000000000E+00 -0.21058045232E+04  0.21058045232E+04  0.50400001928E-02 0.  1.
    10030    2    1    2    0    0  0.00000000000E+00  0.00000000000E+00 -0.85982351515E+03  0.33517855312E+04  0.32396249428E+04 0.  0.
        3    1    3    3  502    0 -0.34166896584E+03 -0.15592159910E+04 -0.71494996103E+03  0.17490127632E+04  0.10100000352E+00 0.  1.
       -3    1    3    3    0  502  0.34166896584E+03  0.15592159910E+04 -0.14487355412E+03  0.16027727680E+04  0.10100000352E+00 0. -1.
</event>
<event>
 5   0  0.2891204E-07  0.3199546E+04  0.7818609E-02  0.8188937E-01
       -1   -1    0    0    0  501  0.00000000000E+00  0.00000000000E+00  0.18580190679E+04  0.18580190679E+04  0.50400001928E-02 0. -1.
        1   -1    0    0  501    0  0.00000000000E+00  0.00000000000E+00 -0.13774203959E+04  0.13774203959E+04  0.50400001928E-02 0.  1.
    10030    2    1    2    0    0  0.00000000000E+00  0.00000000000E+00  0.48059867204E+03  0.32354394638E+04  0.31995458178E+04 0.  0.
        4    1    3    3  502    0  0.52879224120E+03  0.14858236031E+04 -0.30998946570E+02  0.15774205404E+04  0.12699999809E+01 0.  1.
       -4    1    3    3    0  502 -0.52879224120E+03 -0.14858236031E+04  0.51159761861E+03  0.16580189233E+04  0.12699999809E+01 0. -1.
</event>
<event>
 5   0  0.2891204E-07  0.3213245E+04  0.7818609E-02  0.8185328E-01
       -1   -1    0    0    0  501  0.00000000000E+00  0.00000000000E+00  0.14209222471E+04  0.14209222471E+04  0.50400001928E-02 0.  1.
        1   -1    0    0  501    0  0.00000000000E+00  0.00000000000E+00 -0.18165922116E+04  0.18165922116E+04  0.50400001928E-02 0. -1.
    10030    2    1    2    0    0  0.00000000000E+00  0.00000000000E+00 -0.39566996459E+03  0.32375144587E+04  0.32132452676E+04 0.  0.
        4    1    3    3  502    0 -0.39016290173E+03 -0.93396361663E+03 -0.14549442539E+04  0.17723937265E+04  0.12699999809E+01 0. -1.
       -4    1    3    3    0  502  0.39016290173E+03  0.93396361663E+03  0.10592742893E+04  0.14651207322E+04  0.12699999809E+01 0.  1.
</event>
<event>
 5   0  0.8195618E-07  0.3172241E+04  0.7818609E-02  0.8196187E-01
       -2   -1    0    0    0  501  0.00000000000E+00  0.00000000000E+00  0.11645735964E+04  0.11645735964E+04  0.25500000920E-02 0. -1.
        2   -1    0    0  501    0  0.00000000000E+00  0.00000000000E+00 -0.21602575935E+04  0.21602575935E+04  0.25500000920E-02 0.  1.
    10030    2    1    2    0    0  0.00000000000E+00  0.00000000000E+00 -0.99568399713E+03  0.33248311899E+04  0.31722414503E+04 0.  0.
        1    1    3    3  502    0  0.56004048900E+03  0.12939875792E+04  0.26355148117E+03  0.14344018222E+04  0.50400001928E-02 0. -1.
       -1    1    3    3    0  502 -0.56004048900E+03 -0.12939875792E+04 -0.12592354783E+04  0.18904293677E+04  0.50400001928E-02 0.  1.
</event>
<event>
 5   0  0.8838951E-07  0.3204950E+04  0.7818609E-02  0.8187511E-01
       -2   -1    0    0    0  501  0.00000000000E+00  0.00000000000E+00  0.14819022972E+04  0.14819022972E+04  0.25500000920E-02 0. -1.
        2   -1    0    0  501    0  0.00000000000E+00  0.00000000000E+00 -0.17328580399E+04  0.17328580399E+04  0.25500000920E-02 0.  1.
    10030    2    1    2    0    0  0.00000000000E+00  0.00000000000E+00 -0.25095574266E+03  0.32147603371E+04  0.32049501151E+04 0.  0.
        2    1    3    3  502    0 -0.58898188461E+03 -0.14197201354E+04 -0.58009956517E+03  0.16428695714E+04  0.25500000920E-02 0.  1.
       -2    1    3    3    0  502  0.58898188461E+03  0.14197201354E+04  0.32914382251E+03  0.15718907656E+04  0.25500000920E-02 0. -1.
</event>
<event>
 5   0  0.8488469E-07  0.3186734E+04  0.7818609E-02  0.8192329E-01
       -2   -1    0    0    0  501  0.00000000000E+00  0.00000000000E+00  0.10775771109E+04  0.10775771109E+04  0.25500000920E-02 0.  1.
        2   -1    0    0  501    0  0.00000000000E+00  0.00000000000E+00 -0.23560434227E+04  0.23560434227E+04  0.25500000920E-02 0. -1.
    10030    2    1    2    0    0  0.00000000000E+00  0.00000000000E+00 -0.12784663118E+04  0.34336205335E+04  0.31867340425E+04 0.  0.
        3    1    3    3  502    0 -0.14678044278E+03  0.65482653317E+03 -0.21963501319E+04  0.22965835929E+04  0.10100000352E+00 0. -1.
       -3    1    3    3    0  502  0.14678044278E+03 -0.65482653317E+03  0.91788382013E+03  0.11370369406E+04  0.10100000352E+00 0.  1.
</event>
<event>
 5   0  0.8802800E-07  0.3194686E+04  0.7818609E-02  0.8190222E-01
        2   -1    0    0  501    0  0.00000000000E+00  0.00000000000E+00  0.22138092787E+04  0.22138092787E+04  0.25500000920E-02 0. -1.
       -2   -1    0    0    0  501  0.00000000000E+00  0.00000000000E+00 -0.11525402604E+04  0.11525402604E+04  0.25500000920E-02 0.  1.
    10030    2    1    2    0    0  0.00000000000E+00  0.00000000000E+00  0.10612690183E+04  0.33663495391E+04  0.31946857890E+04 0.  0.
        5    1    3    3  502    0 -0.90817706826E+02  0.10342533058E+04  0.18097629527E+04  0.20864303946E+04  0.46999998093E+01 0. -1.
       -5    1    3    3    0  502  0.90817706826E+02 -0.10342533058E+04 -0.74849393446E+03  0.12799191445E+04  0.46999998093E+01 0.  1.
</event>
<event>
 5   0  0.3075756E-07  0.3198584E+04  0.7818609E-02  0.8189191E-01
        1   -1    0    0  501    0  0.00000000000E+00  0.00000000000E+00  0.26870686816E+04  0.26870686816E+04  0.50400001928E-02 0.  1.
       -1   -1    0    0    0  501  0.00000000000E+00  0.00000000000E+00 -0.95186792040E+03  0.95186792042E+03  0.50400001928E-02 0. -1.
    10030    2    1    2    0    0  0.00000000000E+00  0.00000000000E+00  0.17352007612E+04  0.36389366020E+04  0.31985837353E+04 0.  0.
        5    1    3    3  502    0 -0.14554131719E+03 -0.15925738330E+04  0.85002347144E+03  0.18110868782E+04  0.46999998093E+01 0. -1.
       -5    1    3    3    0  502  0.14554131719E+03  0.15925738330E+04  0.88517728973E+03  0.18278497238E+04  0.46999998093E+01 0.  1.
</event>
<event>
 5   0  0.2783875E-07  0.3197834E+04  0.7818609E-02  0.8189389E-01
       -1   -1    0    0    0  501  0.00000000000E+00  0.00000000000E+00  0.10646746760E+04  0.10646746760E+04  0.50400001928E-02 0. -1.
        1   -1    0    0  501    0  0.00000000000E+00  0.00000000000E+00 -0.24012369626E+04  0.24012369626E+04  0.50400001928E-02 0.  1.
    10030    2    1    2    0    0  0.00000000000E+00  0.00000000000E+00 -0.13365622866E+04  0.34659116386E+04  0.31978343830E+04 0.  0.
        2    1    3    3  502    0  0.95233304745E+03 -0.10118038253E+04  0.18914551863E+03  0.14023056876E+04  0.25500000920E-02 0. -1.
       -2    1    3    3    0  502 -0.95233304745E+03  0.10118038253E+04 -0.15257078052E+04  0.20636059510E+04  0.25500000920E-02 0.  1.
</event>
<event>
 5   0  0.3075756E-07  0.3196434E+04  0.7818609E-02  0.8189760E-01
        1   -1    0    0  501    0  0.00000000000E+00  0.00000000000E+00  0.11931571228E+04  0.11931571228E+04  0.50400001928E-02 0.  1.
       -1   -1    0    0    0  501  0.00000000000E+00  0.00000000000E+00 -0.21407888281E+04  0.21407888281E+04  0.50400001928E-02 0. -1.
    10030    2    1    2    0    0  0.00000000000E+00  0.00000000000E+00 -0.94763170529E+03  0.33339459510E+04  0.31964339122E+04 0.  0.
        5    1    3    3  502    0  0.14894426708E+04  0.57277934103E+03 -0.56569468052E+03  0.16930883630E+04  0.46999998093E+01 0. -1.
       -5    1    3    3    0  502 -0.14894426708E+04 -0.57277934103E+03 -0.38193702477E+03  0.16408575880E+04  0.46999998093E+01 0.  1.
</event>
<event>
 5   0  0.8838951E-07  0.3204882E+04  0.7818609E-02  0.8187529E-01
       -2   -1    0    0    0  501  0.00000000000E+00  0.00000000000E+00  0.99920086578E+03  0.99920086579E+03  0.25500000920E-02 0.  1.
        2   -1    0    0  501    0  0.00000000000E+00  0.00000000000E+00 -0.25698706020E+04  0.25698706020E+04  0.25500000920E-02 0. -1.
    10030    2    1    2    0    0  0.00000000000E+00  0.00000000000E+00 -0.15706697363E+04  0.35690714678E+04  0.32048818577E+04 0.  0.
        2    1    3    3  502    0 -0.13353975118E+04 -0.72744809910E+03 -0.13480788744E+04  0.20321869754E+04  0.25500000920E-02 0. -1.
       -2    1    3    3    0  502  0.13353975118E+04  0.72744809910E+03 -0.22259086188E+03  0.15368844925E+04  0.25500000920E-02 0.  1.
</event>
<event>
 5   0  0.8195618E-07  0.3184458E+04  0.7818609E-02  0.8192934E-01
        2   -1    0    0  501    0  0.00000000000E+00  0.00000000000E+00  0.20926657416E+04  0.20926657416E+04  0.25500000920E-02 0.  1.
       -2   -1    0    0    0  501  0.00000000000E+00  0.00000000000E+00 -0.12114655301E+04  0.12114655301E+04  0.25500000920E-02 0. -1.
    10030    2    1    2    0    0  0.00000000000E+00  0.00000000000E+00  0.88120021149E+03  0.33041312717E+04  0.31844575124E+04 0.  0.
        1    1    3    3  502    0  0.15219730213E+03  0.51496093425E+03 -0.11146787178E+04  0.12372782332E+04  0.50400001928E-02 0. -1.
       -1    1    3    3    0  502 -0.15219730213E+03 -0.51496093425E+03  0.19958789292E+04  0.20668530385E+04  0.50400001928E-02 0.  1.
</event>
<event>
 5   0  0.8195618E-07  0.3233308E+04  0.7818609E-02  0.8180076E-01
        2   -1    0    0  501    0  0.00000000000E+00  0.00000000000E+00  0.19382233912E+04  0.19382233912E+04  0.25500000920E-02 0.  1.
       -2   -1    0    0    0  501  0.00000000000E+00  0.00000000000E+00 -0.13484356902E+04  0.13484356902E+04  0.25500000920E-02 0. -1.
    10030    2    1    2    0    0  0.00000000000E+00  0.00000000000E+00  0.58978770097E+03  0.32866590813E+04  0.32333076539E+04 0.  0.
        1    1    3    3  502    0  0.75778531779E+03  0.74223144193E+03  0.15350343369E+04  0.18658715167E+04  0.50400001928E-02 0.  1.
       -1    1    3    3    0  502 -0.75778531779E+03 -0.74223144193E+03 -0.94524663591E+03  0.14207875647E+04  0.50400001928E-02 0. -1.
</event>
<event>
 5   0  0.8488469E-07  0.3196915E+04  0.7818609E-02  0.8189632E-01
        2   -1    0    0  501    0  0.00000000000E+00  0.00000000000E+00  0.26142127841E+04  0.26142127841E+04  0.25500000920E-02 0.  1.
       -2   -1    0    0    0  501  0.00000000000E+00  0.00000000000E+00 -0.97737521639E+03  0.97737521639E+03  0.25500000920E-02 0. -1.
    10030    2    1    2    0    0  0.00000000000E+00  0.00000000000E+00  0.16368375677E+04  0.35915880005E+04  0.31969152541E+04 0.  0.
        3    1    3    3  502    0  0.14338246076E+04 -0.63286471598E+03  0.11713623022E+04  0.19566451920E+04  0.10100000352E+00 0. -1.
       -3    1    3    3    0  502 -0.14338246076E+04  0.63286471598E+03  0.46547526548E+03  0.16349428085E+04  0.10100000352E+00 0.  1.
</event>
<event>
 5   0  0.2891204E-07  0.3204702E+04  0.7818609E-02  0.8187576E-01
       -1   -1    0    0    0  501  0.00000000000E+00  0.00000000000E+00  0.22378995188E+04  0.22378995188E+04  0.50400001928E-02 0. -1.
        1   -1    0    0  501    0  0.00000000000E+00  0.00000000000E+00 -0.11472940961E+04  0.11472940961E+04  0.50400001928E-02 0.  1.
    10030    2    1    2    0    0  0.00000000000E+00  0.00000000000E+00  0.10906054227E+04  0.33851936149E+04  0.32047021113E+04 0.  0.
        4    1    3    3  502    0 -0.36487154017E+03 -0.72936128223E+03  0.20022706024E+04  0.21619871181E+04  0.12699999809E+01 0. -1.
       -4    1    3    3    0  502  0.36487154017E+03  0.72936128223E+03 -0.91166517972E+03  0.12232064967E+04  0.12699999809E+01 0.  1.
</event>
<event>
 5   0  0.8195618E-07  0.3187099E+04  0.7818609E-02  0.8192233E-01
        2   -1    0    0  501    0  0.00000000000E+00  0.00000000000E+00  0.15562906038E+04  0.15562906038E+04  0.25500000920E-02 0. -1.
       -2   -1    0    0    0  501  0.00000000000E+00  0.00000000000E+00 -0.16317005211E+04  0.16317005211E+04  0.25500000920E-02 0.  1.
    10030    2    1    2    0    0  0.00000000000E+00  0.00000000000E+00 -0.75409917253E+02  0.31879911249E+04  0.31870991131E+04 0.  0.
        1    1    3    3  502    0 -0.83579039226E+03  0.13205799634E+04  0.27370703751E+03  0.15866293083E+04  0.50400001928E-02 0. -1.
       -1    1    3    3    0  502  0.83579039226E+03 -0.13205799634E+04 -0.34911695476E+03  0.16013618166E+04  0.50400001928E-02 0.  1.
</event>
<event>
 5   0  0.2783875E-07  0.3197060E+04  0.7818609E-02  0.8189594E-01
       -1   -1    0    0    0  501  0.00000000000E+00  0.00000000000E+00  0.15599611176E+04  0.15599611176E+04  0.50400001928E-02 0. -1.
        1   -1    0    0  501    0  0.00000000000E+00  0.00000000000E+00 -0.16380523845E+04  0.16380523845E+04  0.50400001928E-02 0.  1.
    10030    2    1    2    0    0  0.00000000000E+00  0.00000000000E+00 -0.78091266882E+02  0.31980135022E+04  0.31970599172E+04 0.  0.
        2    1    3    3  502    0  0.25454240184E+03 -0.15666364560E+04  0.15115946824E+03  0.15943621937E+04  0.25500000920E-02 0. -1.
       -2    1    3    3    0  502 -0.25454240184E+03  0.15666364560E+04 -0.22925073512E+03  0.16036513085E+04  0.25500000920E-02 0.  1.
</event>
<event>
 5   0  0.8802800E-07  0.3175028E+04  0.7818609E-02  0.8195443E-01
        2   -1    0    0  501    0  0.00000000000E+00  0.00000000000E+00  0.20351434598E+04  0.20351434598E+04  0.25500000920E-02 0. -1.
       -2   -1    0    0    0  501  0.00000000000E+00  0.00000000000E+00 -0.12383407724E+04  0.12383407724E+04  0.25500000920E-02 0.  1.
    10030    2    1    2    0    0  0.00000000000E+00  0.00000000000E+00  0.79680268744E+03  0.32734842322E+04  0.31750282670E+04 0.  0.
        5    1    3    3  502    0  0.31782938867E+03 -0.13175729648E+04 -0.45376712396E+03  0.14293147766E+04  0.46999998093E+01 0.  1.
       -5    1    3    3    0  502 -0.31782938867E+03  0.13175729648E+04  0.12505698114E+04  0.18441694556E+04  0.46999998093E+01 0. -1.
</event>
<event>
 5   0  0.8488469E-07  0.3198880E+04  0.7818609E-02  0.8189113E-01
        2   -1    0    0  501    0  0.00000000000E+00  0.00000000000E+00  0.10878300045E+04  0.10878300045E+04  0.25500000920E-02 0. -1.
       -2   -1    0    0    0  501  0.00000000000E+00  0.00000000000E+00 -0.23516624183E+04  0.23516624183E+04  0.25500000920E-02 0.  1.
    10030    2    1    2    0    0  0.00000000000E+00  0.00000000000E+00 -0.12638324139E+04  0.34394924228E+04  0.31988803910E+04 0.  0.
        3    1    3    3  502    0  0.13686835587E+04 -0.11046519119E+03  0.24996653050E+03  0.13957007268E+04  0.10100000352E+00 0. -1.
       -3    1    3    3    0  502 -0.13686835587E+04  0.11046519119E+03 -0.15137989444E+04  0.20437916960E+04  0.10100000352E+00 0.  1.
</event>
<event>
 5   0  0.2783875E-07  0.3208256E+04  0.7818609E-02  0.8186640E-01
        1   -1    0    0  501    0  0.00000000000E+00  0.00000000000E+00  0.20022861631E+04  0.20022861631E+04  0.50400001928E-02 0.  1.
       -1   -1    0    0    0  501  0.00000000000E+00  0.00000000000E+00 -0.12851440869E+04  0.12851440869E+04  0.50400001928E-02 0. -1.
    10030    2    1    2    0    0  0.00000000000E+00  0.00000000000E+00  0.71714207626E+03  0.32874302500E+04  0.32082557397E+04 0.  0.
        2    1    3    3  502    0 -0.14742906971E+04  0.11283107313E+03  0.99598548413E+03  0.17827649860E+04  0.25500000920E-02 0.  1.
       -2    1    3    3    0  502  0.14742906971E+04 -0.11283107313E+03 -0.27884340787E+03  0.15046652640E+04  0.25500000920E-02 0. -1.
</event>
<event>
 5   0  0.2783875E-07  0.3202310E+04  0.7818609E-02  0.8188207E-01
        1   -1    0    0  501    0  0.00000000000E+00  0.00000000000E+00  0.24712433289E+04  0.24712433289E+04  0.50400001928E-02 0.  1.
       -1   -1    0    0    0  501  0.00000000000E+00  0.00000000000E+00 -0.10374120111E+04  0.10374120111E+04  0.50400001928E-02 0. -1.
    10030    2    1    2    0    0  0.00000000000E+00  0.00000000000E+00  0.14338313178E+04  0.35086553400E+04  0.32023101110E+04 0.  0.
        2    1    3    3  502    0 -0.12419503652E+04  0.96878354566E+03  0.40179991705E+03  0.16255538876E+04  0.25500000920E-02 0. -1.
       -2    1    3    3    0  502  0.12419503652E+04 -0.96878354566E+03  0.10320314008E+04  0.18831014525E+04  0.25500000920E-02 0.  1.
</event>
<event>
 5   0  0.3075756E-07  0.3204013E+04  0.7818609E-02  0.8187758E-01
       -1   -1    0    0    0  501  0.00000000000E+00  0.00000000000E+00  0.95560968106E+03  0.95560968107E+03  0.50400001928E-02 0.  1.
        1   -1    0    0  501    0  0.00000000000E+00  0.00000000000E+00 -0.26856411250E+04  0.26856411250E+04  0.50400001928E-02 0. -1.
    10030    2    1    2    0    0  0.00000000000E+00  0.00000000000E+00 -0.17300314439E+04  0.36412508061E+04  0.32040128957E+04 0.  0.
        5    1    3    3  502    0  0.77329921178E+03  0.42357503288E+03 -0.23850763584E+04  0.25428367633E+04  0.46999998093E+01 0. -1.
       -5    1    3    3    0  502 -0.77329921178E+03 -0.42357503288E+03  0.65504491446E+03  0.10984140428E+04  0.46999998093E+01 0.  1.
</event>
<event>
 5   0  0.8838951E-07  0.3189645E+04  0.7818609E-02  0.8191557E-01
       -2   -1    0    0    0  501  0.00000000000E+00  0.00000000000E+00  0.11654308773E+04  0.11654308773E+04  0.25500000920E-02 0.  1.
        2   -1    0    0  501    0  0.00000000000E+00  0.00000000000E+00 -0.21824186312E+04  0.21824186312E+04  0.25500000920E-02 0. -1.
    10030    2    1    2    0    0  0.00000000000E+00  0.00000000000E+00 -0.10169877539E+04  0.33478495084E+04  0.31896445319E+04 0.  0.
        2    1    3    3  502    0 -0.81260890336E+03  0.10230876606E+04 -0.14684136312E+04  0.19655228778E+04  0.25500000920E-02 0. -1.
       -2    1    3    3    0  502  0.81260890336E+03 -0.10230876606E+04  0.45142587727E+03  0.13823266306E+04  0.25500000920E-02 0.  1.
</event>
<event>
 5   0  0.8838951E-07  0.3235423E+04  0.7818609E-02  0.8179524E-01
       -2   -1    0    0    0  501  0.00000000000E+00  0.00000000000E+00  0.15332247375E+04  0.15332247375E+04  0.25500000920E-02 0.  1.
        2   -1    0    0  501    0  0.00000000000E+00  0.00000000000E+00 -0.17068537532E+04  0.17068537532E+04  0.25500000920E-02 0. -1.
    10030    2    1    2    0    0  0.00000000000E+00  0.00000000000E+00 -0.17362901564E+03  0.32400784907E+04  0.32354229385E+04 0.  0.
        2    1    3    3  502    0  0.15920170385E+04 -0.16764116760E+03  0.14669173147E+03  0.16075261354E+04  0.25500000920E-02 0.  1.
       -2    1    3    3    0  502 -0.15920170385E+04  0.16764116760E+03 -0.32032074711E+03  0.16325523553E+04  0.25500000920E-02 0. -1.
</event>
<event>
 5   0  0.2997105E-07  0.3203545E+04  0.7818609E-02  0.8187882E-01
       -1   -1    0    0    0  501  0.00000000000E+00  0.00000000000E+00  0.11052172343E+04  0.11052172343E+04  0.50400001928E-02 0.  1.
        1   -1    0    0  501    0  0.00000000000E+00  0.00000000000E+00 -0.23214217964E+04  0.23214217964E+04  0.50400001928E-02 0. -1.
    10030    2    1    2    0    0  0.00000000000E+00  0.00000000000E+00 -0.12162045620E+04  0.34266390307E+04  0.32035451472E+04 0.  0.
        3    1    3    3  502    0  0.75140094907E+03  0.10247650503E+04 -0.16511674830E+04  0.20835308641E+04  0.10100000352E+00 0. -1.
       -3    1    3    3    0  502 -0.75140094907E+03 -0.10247650503E+04  0.43496292096E+03  0.13431081666E+04  0.10100000352E+00 0.  1.
</event>
<event>
 5   0  0.8335929E-07  0.3206802E+04  0.7818609E-02  0.8187023E-01
        2   -1    0    0  501    0  0.00000000000E+00  0.00000000000E+00  0.21838782683E+04  0.21838782683E+04  0.25500000920E-02 0.  1.
       -2   -1    0    0    0  501  0.00000000000E+00  0.00000000000E+00 -0.11772151991E+04  0.11772151992E+04  0.25500000920E-02 0. -1.
    10030    2    1    2    0    0  0.00000000000E+00  0.00000000000E+00  0.10066630691E+04  0.33610934674E+04  0.32068019524E+04 0.  0.
        4    1    3    3  502    0  0.75457344830E+03 -0.94679732065E+03 -0.59847831530E+03  0.13505495778E+04  0.12699999809E+01 0. -1.
       -4    1    3    3    0  502 -0.75457344830E+03  0.94679732065E+03  0.16051413844E+04  0.20105438896E+04  0.12699999809E+01 0.  1.
</event>
<event>
 5   0  0.3013888E-07  0.3194174E+04  0.7818609E-02  0.8190358E-01
       -1   -1    0    0    0  501  0.00000000000E+00  0.00000000000E+00  0.24906502111E+04  0.24906502111E+04  0.50400001928E-02 0.  1.
        1   -1    0    0  501    0  0.00000000000E+00  0.00000000000E+00 -0.10241047320E+04  0.10241047320E+04  0.50400001928E-02 0. -1.
    10030    2    1    2    0    0  0.00000000000E+00  0.00000000000E+00  0.14665454792E+04  0.35147549431E+04  0.31941738631E+04 0.  0.
        1    1    3    3  502    0  0.90733905331E+02 -0.63358248172E+03 -0.87680778771E+03  0.10855649678E+04  0.50400001928E-02 0. -1.
       -1    1    3    3    0  502 -0.90733905331E+02  0.63358248172E+03  0.23433532669E+04  0.24291899753E+04  0.50400001928E-02 0.  1.
</event>
<event>
 5   0  0.8838951E-07  0.3127823E+04  0.7818609E-02  0.8208143E-01
        2   -1    0    0  501    0  0.00000000000E+00  0.00000000000E+00  0.14090265684E+04  0.14090265684E+04  0.25500000920E-02 0.  1.
       -2   -1    0    0    0  501  0.00000000000E+00  0.00000000000E+00 -0.17358215722E+04  0.17358215722E+04  0.25500000920E-02 0. -1.
    10030    2    1    2    0    0  0.00000000000E+00  0.00000000000E+00 -0.32679500382E+03  0.31448481406E+04  0.31278227016E+04 0.  0.
        2    1    3    3  502    0  0.81382746594E+03  0.99386819577E+03  0.73349481220E+03  0.14792240447E+04  0.25500000920E-02 0.  1.
       -2    1    3    3    0  502 -0.81382746594E+03 -0.99386819577E+03 -0.10602898160E+04  0.16656240959E+04  0.25500000920E-02 0. -1.
</event>
<event>
 5   0  0.2997105E-07  0.3201838E+04  0.7818609E-02  0.8188332E-01
       -1   -1    0    0    0  501  0.00000000000E+00  0.00000000000E+00  0.32559173983E+04  0.32559173983E+04  0.50400001928E-02 0.  1.
        1   -1    0    0  501    0  0.00000000000E+00  0.00000000000E+00 -0.78716396578E+03  0.78716396580E+03  0.50400001928E-02 0. -1.
    10030    2    1    2    0    0  0.00000000000E+00  0.00000000000E+00  0.24687534325E+04  0.40430813641E+04  0.32018375046E+04 0.  0.
        3    1    3    3  502    0  0.38451713564E+03 -0.11265609149E+04 -0.11737096714E+03  0.11961475146E+04  0.10100000352E+00 0. -1.
       -3    1    3    3    0  502 -0.38451713564E+03  0.11265609149E+04  0.25861243996E+04  0.28469338495E+04  0.10100000352E+00 0.  1.
</event>
<event>
 5   0  0.8195618E-07  0.3214639E+04  0.7818609E-02  0.8184962E-01
       -2   -1    0    0    0  501  0.00000000000E+00  0.00000000000E+00  0.16257845752E+04  0.16257845752E+04  0.25500000920E-02 0. -1.
        2   -1    0    0  501    0  0.00000000000E+00  0.00000000000E+00 -0.15890639128E+04  0.15890639128E+04  0.25500000920E-02 0.  1.
    10030    2    1    2    0    0  0.00000000000E+00  0.00000000000E+00  0.36720662342E+02  0.32148484880E+04  0.32146387657E+04 0.  0.
        1    1    3    3  502    0  0.14056803079E+04  0.77771724776E+03  0.70270875087E+02  0.16080171769E+04  0.50400001928E-02 0. -1.
       -1    1    3    3    0  502 -0.14056803079E+04 -0.77771724776E+03 -0.33550212745E+02  0.16068313111E+04  0.50400001928E-02 0.  1.
</event>
<event>
 5   0  0.8802800E-07  0.3260388E+04  0.7818609E-02  0.8173048E-01
       -2   -1    0    0    0  501  0.00000000000E+00  0.00000000000E+00  0.96462835183E+03  0.96462835183E+03  0.25500000920E-02 0.  1.
        2   -1    0    0  501    0  0.00000000000E+00  0.00000000000E+00 -0.27549806949E+04  0.27549806949E+04  0.25500000920E-02 0. -1.
    10030    2    1    2    0    0  0.00000000000E+00  0.00000000000E+00 -0.17903523430E+04  0.37196090467E+04  0.32603880058E+04 0.  0.
        5    1    3    3  502    0 -0.13111279336E+03 -0.63938023845E+02 -0.27475123221E+04  0.27513859572E+04  0.46999998093E+01 0. -1.
       -5    1    3    3    0  502  0.13111279336E+03  0.63938023845E+02  0.95715997907E+03  0.96822308948E+03  0.46999998093E+01 0.  1.
</event>
<event>
 5   0  0.3013888E-07  0.3100359E+04  0.7818609E-02  0.8215639E-01
       -1   -1    0    0    0  501  0.00000000000E+00  0.00000000000E+00  0.28524087093E+04  0.28524087093E+04  0.50400001928E-02 0. -1.
        1   -1    0    0  501    0  0.00000000000E+00  0.00000000000E+00 -0.84246571002E+03  0.84246571004E+03  0.50400001928E-02 0.  1.
    10030    2    1    2    0    0  0.00000000000E+00  0.00000000000E+00  0.20099429992E+04  0.36948744193E+04  0.31003590299E+04 0.  0.
        1    1    3    3  502    0 -0.63871955692E+03  0.13199015464E+04  0.40558319317E+03  0.15213811131E+04  0.50400001928E-02 0.  1.
       -1    1    3    3    0  502  0.63871955692E+03 -0.13199015464E+04  0.16043598061E+04  0.21734933062E+04  0.50400001928E-02 0. -1.
</event>
<event>
 5   0  0.2891204E-07  0.3202175E+04  0.7818609E-02  0.8188243E-01
       -1   -1    0    0    0  501  0.00000000000E+00  0.00000000000E+00  0.16123903122E+04  0.16123903122E+04  0.50400001928E-02 0.  1.
        1   -1    0    0  501    0  0.00000000000E+00  0.00000000000E+00 -0.15898640005E+04  0.15898640006E+04  0.50400001928E-02 0. -1.
    10030    2    1    2    0    0  0.00000000000E+00  0.00000000000E+00  0.22526311608E+02  0.32022543127E+04  0.32021750809E+04 0.  0.
        4    1    3    3  502    0 -0.40998164611E+03 -0.10917256585E+04  0.11083453745E+04  0.16088445996E+04  0.12699999809E+01 0.  1.
       -4    1    3    3    0  502  0.40998164611E+03  0.10917256585E+04 -0.10858190629E+04  0.15934097131E+04  0.12699999809E+01 0. -1.
</event>
<event>
 5   0  0.2891204E-07  0.3219215E+04  0.7818609E-02  0.8183761E-01
        1   -1    0    0  501    0  0.00000000000E+00  0.00000000000E+00  0.12401943713E+04  0.12401943713E+04  0.50400001928E-02 0.  1.
       -1   -1    0    0    0  501  0.00000000000E+00  0.00000000000E+00 -0.20890572234E+04  0.20890572234E+04  0.50400001928E-02 0. -1.
    10030    2    1    2    0    0  0.00000000000E+00  0.00000000000E+00 -0.84886285209E+03  0.33292515948E+04  0.32192154385E+04 0.  0.
        4    1    3    3  502    0  0.87751463230E+03  0.52679641807E+03 -0.17091860965E+04  0.19922010745E+04  0.12699999809E+01 0. -1.
       -4    1    3    3    0  502 -0.87751463230E+03 -0.52679641807E+03  0.86032324439E+03  0.13370505203E+04  0.12699999809E+01 0.  1.
</event>
<event>
 5   0  0.8838951E-07  0.3219973E+04  0.7818609E-02  0.8183562E-01
        2   -1    0    0  501    0  0.00000000000E+00  0.00000000000E+00  0.24294451547E+04  0.24294451547E+04  0.25500000920E-02 0.  1.
       -2   -1    0    0    0  501  0.00000000000E+00  0.00000000000E+00 -0.10669338698E+04  0.10669338698E+04  0.25500000920E-02 0. -1.
    10030    2    1    2    0    0  0.00000000000E+00  0.00000000000E+00  0.13625112850E+04  0.34963790245E+04  0.32199734907E+04 0.  0.
        2    1    3    3  502    0  0.15604532671E+04 -0.36960530442E+03  0.52603415673E+03  0.16877009255E+04  0.25500000920E-02 0. -1.
       -2    1    3    3    0  502 -0.15604532671E+04  0.36960530442E+03  0.83647712823E+03  0.18086780990E+04  0.25500000920E-02 0.  1.
</event>
<event>
 5   0  0.8838951E-07  0.3209906E+04  0.7818609E-02  0.8186206E-01
       -2   -1    0    0    0  501  0.00000000000E+00  0.00000000000E+00  0.82819232798E+03  0.82819232799E+03  0.25500000920E-02 0.  1.
        2   -1    0    0  501    0  0.00000000000E+00  0.00000000000E+00 -0.31102361747E+04  0.31102361747E+04  0.25500000920E-02 0. -1.
    10030    2    1    2    0    0  0.00000000000E+00  0.00000000000E+00 -0.22820438467E+04  0.39384285027E+04  0.32099057545E+04 0.  0.
        2    1    3    3  502    0 -0.18998319495E+03 -0.11874162933E+04  0.16315294437E+03  0.12135361351E+04  0.25500000920E-02 0.  1.
       -2    1    3    3    0  502  0.18998319495E+03  0.11874162933E+04 -0.24451967911E+04  0.27248923676E+04  0.25500000920E-02 0. -1.
</event>
<event>
 5   0  0.8335929E-07  0.3204246E+04  0.7818609E-02  0.8187697E-01
       -2   -1    0    0    0  501  0.00000000000E+00  0.00000000000E+00  0.21665591225E+04  0.21665591225E+04  0.25500000920E-02 0. -1.
        2   -1    0    0  501    0  0.00000000000E+00  0.00000000000E+00 -0.11847345517E+04  0.11847345517E+04  0.25500000920E-02 0.  1.
    10030    2    1    2    0    0  0.00000000000E+00  0.00000000000E+00  0.98182457080E+03  0.33512936742E+04  0.32042455903E+04 0.  0.
        4    1    3    3  502    0  0.17148030298E+01  0.14648657734E+04  0.11695026784E+04  0.18744526674E+04  0.12699999809E+01 0. -1.
       -4    1    3    3    0  502 -0.17148030298E+01 -0.14648657734E+04 -0.18767810760E+03  0.14768410069E+04  0.12699999809E+01 0.  1.
</event>
<event>
 5   0  0.8802800E-07  0.3191489E+04  0.7818609E-02  0.8191068E-01
        2   -1    0    0  501    0  0.00000000000E+00  0.00000000000E+00  0.19175400465E+04  0.19175400465E+04  0.25500000920E-02 0. -1.
       -2   -1    0    0    0  501  0.00000000000E+00  0.00000000000E+00 -0.13279517514E+04  0.13279517514E+04  0.25500000920E-02 0.  1.
    10030    2    1    2    0    0  0.00000000000E+00  0.00000000000E+00  0.58958829511E+03  0.32454917979E+04  0.31914890964E+04 0.  0.
        5    1    3    3  502    0 -0.12089668489E+04 -0.65989091299E+03 -0.52464576655E+03  0.14738833499E+04  0.46999998093E+01 0.  1.
       -5    1    3    3    0  502  0.12089668489E+04  0.65989091299E+03  0.11142340617E+04  0.17716084480E+04  0.46999998093E+01 0. -1.
</event>
<event>
 5   0  0.8838951E-07  0.3215683E+04  0.7818609E-02  0.8184687E-01
       -2   -1    0    0    0  501  0.00000000000E+00  0.00000000000E+00  0.19174286090E+04  0.19174286090E+04  0.25500000920E-02 0. -1.
        2   -1    0    0  501    0  0.00000000000E+00  0.00000000000E+00 -0.13482404803E+04  0.13482404803E+04  0.25500000920E-02 0.  1.
    10030    2    1    2    0    0  0.00000000000E+00  0.00000000000E+00  0.56918812870E+03  0.32656690892E+04  0.32156833604E+04 0.  0.
        2    1    3    3  502    0 -0.65876607757E+02  0.10835187379E+04  0.14891179869E+04  0.18427764275E+04  0.25500000920E-02 0. -1.
       -2    1    3    3    0  502  0.65876607757E+02 -0.10835187379E+04 -0.91992985820E+03  0.14228926617E+04  0.25500000920E-02 0.  1.
</event>
<event>
 5   0  0.8195618E-07  0.3223874E+04  0.7818609E-02  0.8182541E-01
        2   -1    0    0  501    0  0.00000000000E+00  0.00000000000E+00  0.23716886414E+04  0.23716886414E+04  0.25500000920E-02 0.  1.
       -2   -1    0    0    0  501  0.00000000000E+00  0.00000000000E+00 -0.10955654722E+04  0.10955654722E+04  0.25500000920E-02 0. -1.
    10030    2    1    2    0    0  0.00000000000E+00  0.00000000000E+00  0.12761231692E+04  0.34672541136E+04  0.32238735622E+04 0.  0.
        1    1    3    3  502    0  0.15123647526E+04  0.91665778013E+02  0.46354166513E+02  0.15158490916E+04  0.50400001928E-02 0. -1.
       -1    1    3    3    0  502 -0.15123647526E+04 -0.91665778013E+02  0.12297690027E+04  0.19514050220E+04  0.50400001928E-02 0.  1.
</event>
<event>
 5   0  0.8335929E-07  0.3205186E+04  0.7818609E-02  0.8187449E-01
       -2   -1    0    0    0  501  0.00000000000E+00  0.00000000000E+00  0.12015355205E+04  0.12015355205E+04  0.25500000920E-02 0.  1.
        2   -1    0    0  501    0  0.00000000000E+00  0.00000000000E+00 -0.21375189353E+04  0.21375189353E+04  0.25500000920E-02 0. -1.
    10030    2    1    2    0    0  0.00000000000E+00  0.00000000000E+00 -0.93598341481E+03  0.33390544558E+04  0.32051863762E+04 0.  0.
        4    1    3    3  502    0 -0.10298260214E+04 -0.12225305756E+04 -0.34838956032E+03  0.16360010822E+04  0.12699999809E+01 0.  1.
       -4    1    3    3    0  502  0.10298260214E+04  0.12225305756E+04 -0.58759385449E+03  0.17030533736E+04  0.12699999809E+01 0. -1.
</event>
<event>
 5   0  0.8335929E-07  0.3205126E+04  0.7818609E-02  0.8187465E-01
        2   -1    0    0  501    0  0.00000000000E+00  0.00000000000E+00  0.16775702020E+04  0.16775702020E+04  0.25500000920E-02 0.  1.
       -2   -1    0    0    0  501  0.00000000000E+00  0.00000000000E+00 -0.15309090332E+04  0.15309090332E+04  0.25500000920E-02 0. -1.
    10030    2    1    2    0    0  0.00000000000E+00  0.00000000000E+00  0.14666116882E+03  0.32084792353E+04  0.32051255053E+04 0.  0.
        4    1    3    3  502    0 -0.79425166595E+03 -0.12670947345E+04  0.64998976013E+03  0.16305989931E+04  0.12699999809E+01 0.  1.
       -4    1    3    3    0  502  0.79425166595E+03  0.12670947345E+04 -0.50332859131E+03  0.15778802422E+04  0.12699999809E+01 0. -1.
</event>
<event>
 5   0  0.8802800E-07  0.3205404E+04  0.7818609E-02  0.8187391E-01
        2   -1    0    0  501    0  0.00000000000E+00  0.00000000000E+00  0.28734966635E+04  0.28734966635E+04  0.25500000920E-02 0. -1.
       -2   -1    0    0    0  501  0.00000000000E+00  0.00000000000E+00 -0.89391241194E+03  0.89391241194E+03  0.25500000920E-02 0.  1.
    10030    2    1    2    0    0  0.00000000000E+00  0.00000000000E+00  0.19795842516E+04  0.37674090754E+04  0.32054043946E+04 0.  0.
        5    1    3    3  502    0  0.13800123266E+03 -0.12793605980E+04 -0.13314014585E+03  0.12936600281E+04  0.46999998093E+01 0.  1.
       -5    1    3    3    0  502 -0.13800123266E+03  0.12793605980E+04  0.21127243974E+04  0.24737490473E+04  0.46999998093E+01 0. -1.
</event>
<event>
 5   0  0.2891204E-07  0.3213944E+04  0.7818609E-02  0.8185144E-01
       -1   -1    0    0    0  501  0.00000000000E+00  0.00000000000E+00  0.18929844957E+04  0.18929844957E+04  0.50400001928E-02 0.  1.
        1   -1    0    0  501    0  0.00000000000E+00  0.00000000000E+00 -0.13641729301E+04  0.13641729301E+04  0.50400001928E-02 0. -1.
    10030    2    1    2    0    0  0.00000000000E+00  0.00000000000E+00  0.52881156562E+03  0.32571574258E+04  0.32139435006E+04 0.  0.
        4    1    3    3  502    0  0.27493805369E+03  0.14642175710E+04 -0.34604919720E+03  0.15294690871E+04  0.12699999809E+01 0.  1.
       -4    1    3    3    0  502 -0.27493805369E+03 -0.14642175710E+04  0.87486076283E+03  0.17276883387E+04  0.12699999809E+01 0. -1.
</event>
<event>
 5   0  0.8802800E-07  0.3193771E+04  0.7818609E-02  0.8190464E-01
        2   -1    0    0  501    0  0.00000000000E+00  0.00000000000E+00  0.21253964052E+04  0.21253964052E+04  0.25500000920E-02 0. -1.
       -2   -1    0    0    0  501  0.00000000000E+00  0.00000000000E+00 -0.11997964204E+04  0.11997964204E+04  0.25500000920E-02 0.  1.
    10030    2    1    2    0    0  0.00000000000E+00  0.00000000000E+00  0.92559998481E+03  0.33251928256E+04  0.31937708113E+04 0.  0.
        5    1    3    3  502    0  0.16976114830E+03  0.66089540238E+03 -0.10403614709E+04  0.12441766998E+04  0.46999998093E+01 0.  1.
       -5    1    3    3    0  502 -0.16976114830E+03 -0.66089540238E+03  0.19659614557E+04  0.20810161257E+04  0.46999998093E+01 0. -1.
</event>
<event>
 5   0  0.8488469E-07  0.3240054E+04  0.7818609E-02  0.8178318E-01
        2   -1    0    0  501    0  0.00000000000E+00  0.00000000000E+00  0.10669107960E+04  0.10669107960E+04  0.25500000920E-02 0. -1.
       -2   -1    0    0    0  501  0.00000000000E+00  0.00000000000E+00 -0.24598936863E+04  0.24598936863E+04  0.25500000920E-02 0.  1.
    10030    2    1    2    0    0  0.00000000000E+00  0.00000000000E+00 -0.13929828903E+04  0.35268044824E+04  0.32400537841E+04 0.  0.
        3    1    3    3  502    0 -0.87912370192E+03 -0.28912164521E+03 -0.21438458180E+04  0.23350641770E+04  0.10100000352E+00 0.  1.
       -3    1    3    3    0  502  0.87912370192E+03  0.28912164521E+03  0.75086292770E+03  0.11917403054E+04  0.10100000352E+00 0. -1.
</event>
<event>
 5   0  0.8802800E-07  0.3218048E+04  0.7818609E-02  0.8184067E-01
        2   -1    0    0  501    0  0.00000000000E+00  0.00000000000E+00  0.23079372073E+04  0.23079372073E+04  0.25500000920E-02 0. -1.
       -2   -1    0    0    0  501  0.00000000000E+00  0.00000000000E+00 -0.11217627067E+04  0.11217627067E+04  0.25500000920E-02 0.  1.
    10030    2    1    2    0    0  0.00000000000E+00  0.00000000000E+00  0.11861745007E+04  0.34296999140E+04  0.32180477862E+04 0.  0.
        5    1    3    3  502    0  0.55745495778E+02 -0.16051847964E+04  0.49080656530E+03  0.16794758008E+04  0.46999998093E+01 0.  1.
       -5    1    3    3    0  502 -0.55745495778E+02  0.16051847964E+04  0.69536793535E+03  0.17502241132E+04  0.46999998093E+01 0. -1.
</event>
<event>
 5   0  0.3013888E-07  0.3192986E+04  0.7818609E-02  0.8190672E-01
        1   -1    0    0  501    0  0.00000000000E+00  0.00000000000E+00  0.19369016848E+04  0.19369016848E+04  0.50400001928E-02 0. -1.
       -1   -1    0    0    0  501  0.00000000000E+00  0.00000000000E+00 -0.13159109046E+04  0.13159109046E+04  0.50400001928E-02 0.  1.
    10030    2    1    2    0    0  0.00000000000E+00  0.00000000000E+00  0.62099078020E+03  0.32528125894E+04  0.31929860934E+04 0.  0.
        1    1    3    3  502    0 -0.79554709070E+03  0.90050494909E+03 -0.76038347199E+03  0.14219660198E+04  0.50400001928E-02 0.  1.
       -1    1    3    3    0  502  0.79554709070E+03 -0.90050494909E+03  0.13813742522E+04  0.18308465696E+04  0.50400001928E-02 0. -1.
</event>
<event>
 5   0  0.3075756E-07  0.3342599E+04  0.7818609E-02  0.8152140E-01
       -1   -1    0    0    0  501  0.00000000000E+00  0.00000000000E+00  0.18680786055E+04  0.18680786055E+04  0.50400001928E-02 0. -1.
        1   -1    0    0  501    0  0.00000000000E+00  0.00000000000E+00 -0.14952482609E+04  0.14952482610E+04  0.50400001928E-02 0.  1.
    10030    2    1    2    0    0  0.00000000000E+00  0.00000000000E+00  0.37283034456E+03  0.33633268665E+04  0.33425985617E+04 0.  0.
        5    1    3    3  502    0 -0.33341885080E+03  0.85411300444E+02  0.18320252478E+04  0.18640820312E+04  0.46999998093E+01 0. -1.
       -5    1    3    3    0  502  0.33341885080E+03 -0.85411300444E+02 -0.14591949033E+04  0.14992448353E+04  0.46999998093E+01 0.  1.
</event>
<event>
 5   0  0.3075756E-07  0.3197797E+04  0.7818609E-02  0.8189399E-01
        1   -1    0    0  501    0  0.00000000000E+00  0.00000000000E+00  0.21405249910E+04  0.21405249910E+04  0.50400001928E-02 0. -1.
       -1   -1    0    0    0  501  0.00000000000E+00  0.00000000000E+00 -0.11943219248E+04  0.11943219248E+04  0.50400001928E-02 0.  1.
    10030    2    1    2    0    0  0.00000000000E+00  0.00000000000E+00  0.94620306614E+03  0.33348469158E+04  0.31977966961E+04 0.  0.
        5    1    3    3  502    0 -0.97140200058E+03 -0.31253735649E+03  0.17567709992E+04  0.20316416710E+04  0.46999998093E+01 0. -1.
       -5    1    3    3    0  502  0.97140200058E+03  0.31253735649E+03 -0.81056793304E+03  0.13032052448E+04  0.46999998093E+01 0.  1.
</event>
<event>
 5   0  0.8195618E-07  0.3198365E+04  0.7818609E-02  0.8189249E-01
        2   -1    0    0  501    0  0.00000000000E+00  0.00000000000E+00  0.18480923720E+04  0.18480923720E+04  0.25500000920E-02 0.  1.
       -2   -1    0    0    0  501  0.00000000000E+00  0.00000000000E+00 -0.13837972382E+04  0.13837972382E+04  0.25500000920E-02 0. -1.
    10030    2    1    2    0    0  0.00000000000E+00  0.00000000000E+00  0.46429513379E+03  0.32318896102E+04  0.31983652826E+04 0.  0.
        1    1    3    3  502    0 -0.13088997494E+04 -0.58911839609E+03  0.94459527538E+03  0.17182954556E+04  0.50400001928E-02 0. -1.
       -1    1    3    3    0  502  0.13088997494E+04  0.58911839609E+03 -0.48030014159E+03  0.15135941545E+04  0.50400001928E-02 0.  1.
</event>
<event>
 5   0  0.8195618E-07  0.3191447E+04  0.7818609E-02  0.8191080E-01
       -2   -1    0    0    0  501  0.00000000000E+00  0.00000000000E+00  0.11466533823E+04  0.11466533823E+04  0.25500000920E-02 0.  1.
        2   -1    0    0  501    0  0.00000000000E+00  0.00000000000E+00 -0.22206660187E+04  0.22206660187E+04  0.25500000920E-02 0. -1.
    10030    2    1    2    0    0  0.00000000000E+00  0.00000000000E+00 -0.10740126364E+04  0.33673194010E+04  0.31914474467E+04 0.  0.
        1    1    3    3  502    0  0.10735504928E+04 -0.52472890043E+03 -0.16528704879E+04  0.20395666033E+04  0.50400001928E-02 0. -1.
       -1    1    3    3    0  502 -0.10735504928E+04  0.52472890043E+03  0.57885785146E+03  0.13277527977E+04  0.50400001928E-02 0.  1.
</event>
<event>
 5   0  0.2891204E-07  0.3206372E+04  0.7818609E-02  0.8187136E-01
        1   -1    0    0  501    0  0.00000000000E+00  0.00000000000E+00  0.16642441155E+04  0.16642441155E+04  0.50400001928E-02 0.  1.
       -1   -1    0    0    0  501  0.00000000000E+00  0.00000000000E+00 -0.15443681468E+04  0.15443681468E+04  0.50400001928E-02 0. -1.
    10030    2    1    2    0    0  0.00000000000E+00  0.00000000000E+00  0.11987596875E+03  0.32086122623E+04  0.32063721558E+04 0.  0.
        4    1    3    3  502    0 -0.95250352659E+03  0.70370171407E+03  0.11413154200E+04  0.16447071385E+04  0.12699999809E+01 0.  1.
       -4    1    3    3    0  502  0.95250352659E+03 -0.70370171407E+03 -0.10214394513E+04  0.15639051238E+04  0.12699999809E+01 0. -1.
</event>
<event>
 5   0  0.8838951E-07  0.3236388E+04  0.7818609E-02  0.8179273E-01
       -2   -1    0    0    0  501  0.00000000000E+00  0.00000000000E+00  0.15316828543E+04  0.15316828543E+04  0.25500000920E-02 0. -1.
        2   -1    0    0  501    0  0.00000000000E+00  0.00000000000E+00 -0.17095912973E+04  0.17095912973E+04  0.25500000920E-02 0.  1.
    10030    2    1    2    0    0  0.00000000000E+00  0.00000000000E+00 -0.17790844301E+03  0.32412741515E+04  0.32363879111E+04 0.  0.
        2    1    3    3  502    0  0.16146467837E+04 -0.48228104692E+02  0.68012783203E+01  0.16153812069E+04  0.25500000920E-02 0.  1.
       -2    1    3    3    0  502 -0.16146467837E+04  0.48228104692E+02 -0.18470972133E+03  0.16258929446E+04  0.25500000920E-02 0. -1.
</event>
<event>
 5   0  0.2783875E-07  0.3294364E+04  0.7818609E-02  0.8164331E-01
       -3   -1    0    0    0  501  0.00000000000E+00  0.00000000000E+00  0.18350817723E+04  0.18350817751E+04  0.10100000352E+00 0.  1.
        3   -1    0    0  501    0  0.00000000000E+00  0.00000000000E+00 -0.14785215806E+04  0.14785215840E+04  0.10100000352E+00 0. -1.
    10030    2    1    2    0    0  0.00000000000E+00  0.00000000000E+00  0.35656019174E+03  0.33136033591E+04  0.32943636792E+04 0.  0.
        3    1    3    3  502    0  0.40003408375E+03  0.18313731984E+03  0.17748882881E+04  0.18286046570E+04  0.10100000352E+00 0.  1.
       -3    1    3    3    0  502 -0.40003408375E+03 -0.18313731984E+03 -0.14183280964E+04  0.14849987021E+04  0.10100000352E+00 0. -1.
</event>
<event>
 5   0  0.8802800E-07  0.3197493E+04  0.7818609E-02  0.8189479E-01
        2   -1    0    0  501    0  0.00000000000E+00  0.00000000000E+00  0.22843857893E+04  0.22843857893E+04  0.25500000920E-02 0. -1.
       -2   -1    0    0    0  501  0.00000000000E+00  0.00000000000E+00 -0.11188963970E+04  0.11188963970E+04  0.25500000920E-02 0.  1.
    10030    2    1    2    0    0  0.00000000000E+00  0.00000000000E+00  0.11654893923E+04  0.34032821863E+04  0.31974934114E+04 0.  0.
        5    1    3    3  502    0  0.10011411704E+04 -0.13389722612E+01  0.19094350745E+04  0.21559800160E+04  0.46999998093E+01 0. -1.
       -5    1    3    3    0  502 -0.10011411704E+04  0.13389722612E+01 -0.74394568220E+03  0.12473021703E+04  0.46999998093E+01 0.  1.
</event>
<event>
 5   0  0.8802800E-07  0.3190077E+04  0.7818609E-02  0.8191443E-01
       -2   -1    0    0    0  501  0.00000000000E+00  0.00000000000E+00  0.10936837347E+04  0.10936837347E+04  0.25500000920E-02 0. -1.
        2   -1    0    0  501    0  0.00000000000E+00  0.00000000000E+00 -0.23262186027E+04  0.23262186027E+04  0.25500000920E-02 0.  1.
    10030    2    1    2    0    0  0.00000000000E+00  0.00000000000E+00 -0.12325348680E+04  0.34199023374E+04  0.31900767697E+04 0.  0.
        5    1    3    3  502    0  0.10674564978E+04 -0.11737489897E+04 -0.79234160802E+03  0.17734084074E+04  0.46999998093E+01 0.  1.
       -5    1    3    3    0  502 -0.10674564978E+04  0.11737489897E+04 -0.44019325995E+03  0.16464939300E+04  0.46999998093E+01 0. -1.
</event>
<event>
 5   0  0.3013888E-07  0.3226229E+04  0.7818609E-02  0.8181924E-01
        1   -1    0    0  501    0  0.00000000000E+00  0.00000000000E+00  0.23561381267E+04  0.23561381268E+04  0.50400001928E-02 0. -1.
       -1   -1    0    0    0  501  0.00000000000E+00  0.00000000000E+00 -0.11044080386E+04  0.11044080386E+04  0.50400001928E-02 0.  1.
    10030    2    1    2    0    0  0.00000000000E+00  0.00000000000E+00  0.12517300881E+04  0.34605461654E+04  0.32262286883E+04 0.  0.
        1    1    3    3  502    0  0.77305341746E+03  0.94706787643E+02  0.21411055067E+04  0.22783576876E+04  0.50400001928E-02 0. -1.
       -1    1    3    3    0  502 -0.77305341746E+03 -0.94706787643E+02 -0.88937541853E+03  0.11821884778E+04  0.50400001928E-02 0.  1.
</event>
<event>
 5   0  0.2891204E-07  0.3159528E+04  0.7818609E-02  0.8199588E-01
        1   -1    0    0  501    0  0.00000000000E+00  0.00000000000E+00  0.19999420928E+04  0.19999420928E+04  0.50400001928E-02 0.  1.
       -1   -1    0    0    0  501  0.00000000000E+00  0.00000000000E+00 -0.12478633500E+04  0.12478633500E+04  0.50400001928E-02 0. -1.
    10030    2    1    2    0    0  0.00000000000E+00  0.00000000000E+00  0.75207874281E+03  0.32478054428E+04  0.31595280912E+04 0.  0.
        4    1    3    3  502    0  0.41133658025E+03 -0.14952305905E+04  0.66391263910E+02  0.15521989930E+04  0.12699999809E+01 0.  1.
       -4    1    3    3    0  502 -0.41133658025E+03  0.14952305905E+04  0.68568747890E+03  0.16956064498E+04  0.12699999809E+01 0. -1.
</event>
<event>
 5   0  0.8488469E-07  0.3204511E+04  0.7818609E-02  0.8187627E-01
       -2   -1    0    0    0  501  0.00000000000E+00  0.00000000000E+00  0.13845076011E+04  0.13845076011E+04  0.25500000920E-02 0.  1.
        2   -1    0    0  501    0  0.00000000000E+00  0.00000000000E+00 -0.18542500883E+04  0.18542500883E+04  0.25500000920E-02 0. -1.
    10030    2    1    2    0    0  0.00000000000E+00  0.00000000000E+00 -0.46974248722E+03  0.32387576894E+04  0.32045114084E+04 0.  0.
        3    1    3    3  502    0  0.59251337829E+03  0.85322974788E+03  0.99806330485E+03  0.14405566552E+04  0.10100000352E+00 0.  1.
       -3    1    3    3    0  502 -0.59251337829E+03 -0.85322974788E+03 -0.14678057921E+04  0.17982010342E+04  0.10100000352E+00 0. -1.
</event>
<event>
 5   0  0.8195618E-07  0.3198190E+04  0.7818609E-02  0.8189295E-01
        2   -1    0    0  501    0  0.00000000000E+00  0.00000000000E+00  0.12888586037E+04  0.12888586037E+04  0.25500000920E-02 0.  1.
       -2   -1    0    0    0  501  0.00000000000E+00  0.00000000000E+00 -0.19840075207E+04  0.19840075207E+04  0.25500000920E-02 0. -1.
    10030    2    1    2    0    0  0.00000000000E+00  0.00000000000E+00 -0.69514891691E+03  0.32728661244E+04  0.31981902150E+04 0.  0.
        1    1    3    3  502    0  0.13276469270E+04  0.37041684890E+03 -0.11772137280E+04  0.18126464537E+04  0.50400001928E-02 0. -1.
       -1    1    3    3    0  502 -0.13276469270E+04 -0.37041684890E+03  0.48206481106E+03  0.14602196707E+04  0.50400001928E-02 0.  1.
</event>
<event>
 5   0  0.8802800E-07  0.3193291E+04  0.7818609E-02  0.8190591E-01
        2   -1    0    0  501    0  0.00000000000E+00  0.00000000000E+00  0.22546291709E+04  0.22546291709E+04  0.25500000920E-02 0. -1.
       -2   -1    0    0    0  501  0.00000000000E+00  0.00000000000E+00 -0.11306855063E+04  0.11306855063E+04  0.25500000920E-02 0.  1.
    10030    2    1    2    0    0  0.00000000000E+00  0.00000000000E+00  0.11239436646E+04  0.33853146773E+04  0.31932907952E+04 0.  0.
        5    1    3    3  502    0  0.83085879628E+03 -0.24453159965E+03 -0.86000374230E+03  0.12205533865E+04  0.46999998093E+01 0.  1.
       -5    1    3    3    0  502 -0.83085879628E+03  0.24453159965E+03  0.19839474069E+04  0.21647612908E+04  0.46999998093E+01 0. -1.
</event>
<event>
 5   0  0.2783875E-07  0.3204257E+04  0.7818609E-02  0.8187694E-01
        4   -1    0    0  501    0  0.00000000000E+00  0.00000000000E+00  0.10914501202E+04  0.10914508590E+04  0.12699999809E+01 0.  1.
       -4   -1    0    0    0  501  0.00000000000E+00  0.00000000000E+00 -0.23517457943E+04  0.23517461372E+04  0.12699999809E+01 0. -1.
    10030    2    1    2    0    0  0.00000000000E+00  0.00000000000E+00 -0.12602956741E+04  0.34431969962E+04  0.32042566016E+04 0.  0.
        1    1    3    3  502    0 -0.74096715862E+03  0.86958456772E+03  0.57682184122E+03  0.12798175992E+04  0.50400001928E-02 0.  1.
       -1    1    3    3    0  502  0.74096715862E+03 -0.86958456772E+03 -0.18371175153E+04  0.21633793971E+04  0.50400001928E-02 0. -1.
</event>
<event>
 5   0  0.8488469E-07  0.2982924E+04  0.7818609E-02  0.8248624E-01
       -2   -1    0    0    0  501  0.00000000000E+00  0.00000000000E+00  0.12617960813E+04  0.12617960813E+04  0.25500000920E-02 0.  1.
        2   -1    0    0  501    0  0.00000000000E+00  0.00000000000E+00 -0.17629308924E+04  0.17629308924E+04  0.25500000920E-02 0. -1.
    10030    2    1    2    0    0  0.00000000000E+00  0.00000000000E+00 -0.50113481107E+03  0.30247269737E+04  0.29829242643E+04 0.  0.
        3    1    3    3  502    0 -0.13128828417E+04  0.50182465295E+03  0.25539402575E+03  0.14285361238E+04  0.10100000352E+00 0.  1.
       -3    1    3    3    0  502  0.13128828417E+04 -0.50182465295E+03 -0.75652883682E+03  0.15961908500E+04  0.10100000352E+00 0. -1.
</event>
<event>
 5   0  0.8335929E-07  0.3195065E+04  0.7818609E-02  0.8190122E-01
       -2   -1    0    0    0  501  0.00000000000E+00  0.00000000000E+00  0.11885359184E+04  0.11885359184E+04  0.25500000920E-02 0.  1.
        2   -1    0    0  501    0  0.00000000000E+00  0.00000000000E+00 -0.21472725619E+04  0.21472725619E+04  0.25500000920E-02 0. -1.
    10030    2    1    2    0    0  0.00000000000E+00  0.00000000000E+00 -0.95873664354E+03  0.33358084803E+04  0.31950652992E+04 0.  0.
        4    1    3    3  502    0 -0.51533648745E+03  0.12361136919E+04 -0.13886875944E+04  0.19292494920E+04  0.12699999809E+01 0. -1.
       -4    1    3    3    0  502  0.51533648745E+03 -0.12361136919E+04  0.42995095085E+03  0.14065589883E+04  0.12699999809E+01 0.  1.
</event>
<event>
 5   0  0.2783875E-07  0.3218980E+04  0.7818609E-02  0.8183823E-01
        3   -1    0    0  501    0  0.00000000000E+00  0.00000000000E+00  0.15136640444E+04  0.15136640478E+04  0.10100000352E+00 0.  1.
       -3   -1    0    0    0  501  0.00000000000E+00  0.00000000000E+00 -0.17113822677E+04  0.17113822707E+04  0.10100000352E+00 0. -1.
    10030    2    1    2    0    0  0.00000000000E+00  0.00000000000E+00 -0.19771822329E+03  0.32250463185E+04  0.32189798478E+04 0.  0.
        2    1    3    3  502    0 -0.14238797594E+04 -0.13416618167E+03  0.64078939566E+03  0.15671774574E+04  0.25500000920E-02 0.  1.
       -2    1    3    3    0  502  0.14238797594E+04  0.13416618167E+03 -0.83850761895E+03  0.16578688611E+04  0.25500000920E-02 0. -1.
</event>
<event>
 5   0  0.8488469E-07  0.3209679E+04  0.7818609E-02  0.8186266E-01
        2   -1    0    0  501    0  0.00000000000E+00  0.00000000000E+00  0.16481452201E+04  0.16481452201E+04  0.25500000920E-02 0. -1.
       -2   -1    0    0    0  501  0.00000000000E+00  0.00000000000E+00 -0.15626720655E+04  0.15626720655E+04  0.25500000920E-02 0.  1.
    10030    2    1    2    0    0  0.00000000000E+00  0.00000000000E+00  0.85473154552E+02  0.32108172857E+04  0.32096794204E+04 0.  0.
        3    1    3    3  502    0  0.12846582142E+04  0.64846283163E+03 -0.66790932025E+03  0.15864909838E+04  0.10100000352E+00 0.  1.
       -3    1    3    3    0  502 -0.12846582142E+04 -0.64846283163E+03  0.75338247481E+03  0.16243263019E+04  0.10100000352E+00 0. -1.
</event>
<event>
 5   0  0.8335929E-07  0.3190496E+04  0.7818609E-02  0.8191332E-01
       -2   -1    0    0    0  501  0.00000000000E+00  0.00000000000E+00  0.25315153186E+04  0.25315153186E+04  0.25500000920E-02 0.  1.
        2   -1    0    0  501    0  0.00000000000E+00  0.00000000000E+00 -0.10052539222E+04  0.10052539222E+04  0.25500000920E-02 0. -1.
    10030    2    1    2    0    0  0.00000000000E+00  0.00000000000E+00  0.15262613964E+04  0.35367692408E+04  0.31904957001E+04 0.  0.
        4    1    3    3  502    0  0.72323789958E+03 -0.38483640900E+03  0.22805019938E+04  0.24231927447E+04  0.12699999809E+01 0.  1.
       -4    1    3    3    0  502 -0.72323789958E+03  0.38483640900E+03 -0.75424059737E+03  0.11135764961E+04  0.12699999809E+01 0. -1.
</event>
<event>
 5   0  0.8195618E-07  0.3202242E+04  0.7818609E-02  0.8188225E-01
       -2   -1    0    0    0  501  0.00000000000E+00  0.00000000000E+00  0.21197390946E+04  0.21197390946E+04  0.25500000920E-02 0. -1.
        2   -1    0    0  501    0  0.00000000000E+00  0.00000000000E+00 -0.12093884643E+04  0.12093884643E+04  0.25500000920E-02 0.  1.
    10030    2    1    2    0    0  0.00000000000E+00  0.00000000000E+00  0.91035063032E+03  0.33291275589E+04  0.32022417200E+04 0.  0.
        1    1    3    3  502    0  0.13416807678E+04 -0.25435590637E+03 -0.41388063655E+03  0.14269202469E+04  0.50400001928E-02 0.  1.
       -1    1    3    3    0  502 -0.13416807678E+04  0.25435590637E+03  0.13242312669E+04  0.19022073120E+04  0.50400001928E-02 0. -1.
</event>
<event>
 5   0  0.2891204E-07  0.3171886E+04  0.7818609E-02  0.8196282E-01
       -1   -1    0    0    0  501  0.00000000000E+00  0.00000000000E+00  0.15762958722E+04  0.15762958722E+04  0.50400001928E-02 0. -1.
        1   -1    0    0  501    0  0.00000000000E+00  0.00000000000E+00 -0.15956488219E+04  0.15956488219E+04  0.50400001928E-02 0.  1.
    10030    2    1    2    0    0  0.00000000000E+00  0.00000000000E+00 -0.19352949687E+02  0.31719446941E+04  0.31718856546E+04 0.  0.
        4    1    3    3  502    0 -0.57522405744E+03  0.60579686806E+03  0.13384363288E+04  0.15777471219E+04  0.12699999809E+01 0. -1.
       -4    1    3    3    0  502  0.57522405744E+03 -0.60579686806E+03 -0.13577892785E+04  0.15941975722E+04  0.12699999809E+01 0.  1.
</event>
<event>
 5   0  0.8488469E-07  0.3204027E+04  0.7818609E-02  0.8187754E-01
       -2   -1    0    0    0  501  0.00000000000E+00  0.00000000000E+00  0.23625091238E+04  0.23625091238E+04  0.25500000920E-02 0. -1.
        2   -1    0    0  501    0  0.00000000000E+00  0.00000000000E+00 -0.10863226900E+04  0.10863226900E+04  0.25500000920E-02 0.  1.
    10030    2    1    2    0    0  0.00000000000E+00  0.00000000000E+00  0.12761864338E+04  0.34488318139E+04  0.32040270078E+04 0.  0.
        3    1    3    3  502    0 -0.47755317060E+03  0.53676797692E+03  0.21793727626E+04  0.22947423691E+04  0.10100000352E+00 0. -1.
       -3    1    3    3    0  502  0.47755317060E+03 -0.53676797692E+03 -0.90318632882E+03  0.11540894448E+04  0.10100000352E+00 0.  1.
</event>
<event>
 5   0  0.8802800E-07  0.3204063E+04  0.7818609E-02  0.8187745E-01
       -2   -1    0    0    0  501  0.00000000000E+00  0.00000000000E+00  0.11127715423E+04  0.11127715423E+04  0.25500000920E-02 0.  1.
        2   -1    0    0  501    0  0.00000000000E+00  0.00000000000E+00 -0.23064077940E+04  0.23064077940E+04  0.25500000920E-02 0. -1.
    10030    2    1    2    0    0  0.00000000000E+00  0.00000000000E+00 -0.11936362517E+04  0.34191793364E+04  0.32040630195E+04 0.  0.
        5    1    3    3  502    0  0.15359362613E+04  0.41595788452E+03 -0.39900359006E+03  0.16405325706E+04  0.46999998093E+01 0.  1.
       -5    1    3    3    0  502 -0.15359362613E+04 -0.41595788452E+03 -0.79463266165E+03  0.17786467658E+04  0.46999998093E+01 0. -1.
</event>
<event>
 5   0  0.2997105E-07  0.3202470E+04  0.7818609E-02  0.8188165E-01
       -1   -1    0    0    0  501  0.00000000000E+00  0.00000000000E+00  0.82976522546E+03  0.82976522548E+03  0.50400001928E-02 0. -1.
        1   -1    0    0  501    0  0.00000000000E+00  0.00000000000E+00 -0.30899748089E+04  0.30899748089E+04  0.50400001928E-02 0.  1.
    10030    2    1    2    0    0  0.00000000000E+00  0.00000000000E+00 -0.22602095834E+04  0.39197400344E+04  0.32024700742E+04 0.  0.
        3    1    3    3  502    0 -0.96315115001E+03 -0.98611392509E+03 -0.13283048652E+03  0.13848193959E+04  0.10100000352E+00 0. -1.
       -3    1    3    3    0  502  0.96315115001E+03  0.98611392509E+03 -0.21273790969E+04  0.25349206384E+04  0.10100000352E+00 0.  1.
</event>
<event>
 5   0  0.2891204E-07  0.3207061E+04  0.7818609E-02  0.8186955E-01
       -1   -1    0    0    0  501  0.00000000000E+00  0.00000000000E+00  0.17231111558E+04  0.17231111558E+04  0.50400001928E-02 0. -1.
        1   -1    0    0  501    0  0.00000000000E+00  0.00000000000E+00 -0.14922487898E+04  0.14922487898E+04  0.50400001928E-02 0.  1.
    10030    2    1    2    0    0  0.00000000000E+00  0.00000000000E+00  0.23086236602E+03  0.32153599456E+04  0.32070612947E+04 0.  0.
        4    1    3    3  502    0 -0.84610451384E+03  0.14755731281E+03  0.14730558473E+04  0.17051572218E+04  0.12699999809E+01 0.  1.
       -4    1    3    3    0  502  0.84610451384E+03 -0.14755731281E+03 -0.12421934813E+04  0.15102027238E+04  0.12699999809E+01 0. -1.
</event>
<event>
 5   0  0.8335929E-07  0.3194410E+04  0.7818609E-02  0.8190295E-01
        2   -1    0    0  501    0  0.00000000000E+00  0.00000000000E+00  0.17903320594E+04  0.17903320594E+04  0.25500000920E-02 0.  1.
       -2   -1    0    0    0  501  0.00000000000E+00  0.00000000000E+00 -0.14249105468E+04  0.14249105468E+04  0.25500000920E-02 0. -1.
    10030    2    1    2    0    0  0.00000000000E+00  0.00000000000E+00  0.36542151253E+03  0.32152426062E+04  0.31944095127E+04 0.  0.
        4    1    3    3  502    0 -0.12897819794E+04  0.61648408643E+03  0.89972680079E+03  0.16891122260E+04  0.12699999809E+01 0.  1.
       -4    1    3    3    0  502  0.12897819794E+04 -0.61648408643E+03 -0.53430528827E+03  0.15261303801E+04  0.12699999809E+01 0. -1.
</event>
<event>
 5   0  0.2997105E-07  0.3177623E+04  0.7818609E-02  0.8194752E-01
       -1   -1    0    0    0  501  0.00000000000E+00  0.00000000000E+00  0.83571046049E+03  0.83571046051E+03  0.50400001928E-02 0. -1.
        1   -1    0    0  501    0  0.00000000000E+00  0.00000000000E+00 -0.30205707833E+04  0.30205707833E+04  0.50400001928E-02 0.  1.
    10030    2    1    2    0    0  0.00000000000E+00  0.00000000000E+00 -0.21848603228E+04  0.38562812438E+04  0.31776233888E+04 0.  0.
        3    1    3    3  502    0  0.43886229592E+03 -0.55168684825E+03  0.63552374035E+03  0.94913061696E+03  0.10100000352E+00 0. -1.
       -3    1    3    3    0  502 -0.43886229592E+03  0.55168684825E+03 -0.28203840632E+04  0.29071506269E+04  0.10100000352E+00 0.  1.
</event>
<event>
 5   0  0.8802800E-07  0.3253224E+04  0.7818609E-02  0.8174901E-01
        2   -1    0    0  501    0  0.00000000000E+00  0.00000000000E+00  0.11123737670E+04  0.11123737670E+04  0.25500000920E-02 0.  1.
       -2   -1    0    0    0  501  0.00000000000E+00  0.00000000000E+00 -0.23785765544E+04  0.23785765544E+04  0.25500000920E-02 0. -1.
    10030    2    1    2    0    0  0.00000000000E+00  0.00000000000E+00 -0.12662027874E+04  0.34909503214E+04  0.32532237316E+04 0.  0.
        5    1    3    3  502    0  0.31892641825E+03  0.14735562094E+04  0.22055955703E+02  0.15078430016E+04  0.46999998093E+01 0. -1.
       -5    1    3    3    0  502 -0.31892641825E+03 -0.14735562094E+04 -0.12882587431E+04  0.19831073197E+04  0.46999998093E+01 0.  1.
</event>
<event>
 5   0  0.8838951E-07  0.3208353E+04  0.7818609E-02  0.8186615E-01
        2   -1    0    0  501    0  0.00000000000E+00  0.00000000000E+00  0.12367438467E+04  0.12367438468E+04  0.25500000920E-02 0.  1.
       -2   -1    0    0    0  501  0.00000000000E+00  0.00000000000E+00 -0.20807722824E+04  0.20807722824E+04  0.25500000920E-02 0. -1.
    10030    2    1    2    0    0  0.00000000000E+00  0.00000000000E+00 -0.84402843568E+03  0.33175161292E+04  0.32083530459E+04 0.  0.
        2    1    3    3  502    0  0.10492076831E+04  0.30380935812E+03  0.79279771665E+03  0.13496907453E+04  0.25500000920E-02 0.  1.
       -2    1    3    3    0  502 -0.10492076831E+04 -0.30380935812E+03 -0.16368261523E+04  0.19678253839E+04  0.25500000920E-02 0. -1.
</event>
<event>
 5   0  0.8802800E-07  0.3201901E+04  0.7818609E-02  0.8188315E-01
       -2   -1    0    0    0  501  0.00000000000E+00  0.00000000000E+00  0.10769372334E+04  0.10769372334E+04  0.25500000920E-02 0. -1.
        2   -1    0    0  501    0  0.00000000000E+00  0.00000000000E+00 -0.23799367518E+04  0.23799367518E+04  0.25500000920E-02 0.  1.
    10030    2    1    2    0    0  0.00000000000E+00  0.00000000000E+00 -0.13029995184E+04  0.34568739852E+04  0.32019009986E+04 0.  0.
        5    1    3    3  502    0 -0.25434504597E+03  0.88196564657E+03  0.76461564303E+03  0.11946606111E+04  0.46999998093E+01 0. -1.
       -5    1    3    3    0  502  0.25434504597E+03 -0.88196564657E+03 -0.20676151614E+04  0.22622133741E+04  0.46999998093E+01 0.  1.
</event>
<event>
 5   0  0.3075756E-07  0.3192777E+04  0.7818609E-02  0.8190727E-01
        1   -1    0    0  501    0  0.00000000000E+00  0.00000000000E+00  0.91323414789E+03  0.91323414790E+03  0.50400001928E-02 0.  1.
       -1   -1    0    0    0  501  0.00000000000E+00  0.00000000000E+00 -0.27905833552E+04  0.27905833552E+04  0.50400001928E-02 0. -1.
    10030    2    1    2    0    0  0.00000000000E+00  0.00000000000E+00 -0.18773492073E+04  0.37038175031E+04  0.31927768557E+04 0.  0.
        5    1    3    3  502    0  0.12255155634E+04  0.97655876064E+03 -0.12922146715E+04  0.20311071504E+04  0.46999998093E+01 0. -1.
       -5    1    3    3    0  502 -0.12255155634E+04 -0.97655876064E+03 -0.58513453582E+03  0.16727103527E+04  0.46999998093E+01 0.  1.
</event>
<event>
 5   0  0.2891204E-07  0.3196329E+04  0.7818609E-02  0.8189787E-01
        1   -1    0    0  501    0  0.00000000000E+00  0.00000000000E+00  0.14319449900E+04  0.14319449900E+04  0.50400001928E-02 0.  1.
       -1   -1    0    0    0  501  0.00000000000E+00  0.00000000000E+00 -0.17836786575E+04  0.17836786575E+04  0.50400001928E-02 0. -1.
    10030    2    1    2    0    0  0.00000000000E+00  0.00000000000E+00 -0.35173366743E+03  0.32156236475E+04  0.31963289677E+04 0.  0.
        4    1    3    3  502    0  0.31196828661E+03 -0.11645152330E+04 -0.12313464172E+04  0.17232630536E+04  0.12699999809E+01 0. -1.
       -4    1    3    3    0  502 -0.31196828661E+03  0.11645152330E+04  0.87961274975E+03  0.14923605939E+04  0.12699999809E+01 0.  1.
</event>
<event>
 5   0  0.8488469E-07  0.3189533E+04  0.7818609E-02  0.8191587E-01
        2   -1    0    0  501    0  0.00000000000E+00  0.00000000000E+00  0.15927732264E+04  0.15927732264E+04  0.25500000920E-02 0. -1.
       -2   -1    0    0    0  501  0.00000000000E+00  0.00000000000E+00 -0.15967622367E+04  0.15967622367E+04  0.25500000920E-02 0.  1.
    10030    2    1    2    0    0  0.00000000000E+00  0.00000000000E+00 -0.39890103544E+01  0.31895354631E+04  0.31895329687E+04 0.  0.
        3    1    3    3  502    0 -0.11263416561E+04 -0.11192953075E+04  0.14569656364E+03  0.15945830209E+04  0.10100000352E+00 0.  1.
       -3    1    3    3    0  502  0.11263416561E+04  0.11192953075E+04 -0.14968557400E+03  0.15949524422E+04  0.10100000352E+00 0. -1.
</event>
<event>
 5   0  0.2783875E-07  0.3198282E+04  0.7818609E-02  0.8189271E-01
       -1   -1    0    0    0  501  0.00000000000E+00  0.00000000000E+00  0.12195686891E+04  0.12195686891E+04  0.50400001928E-02 0. -1.
        1   -1    0    0  501    0  0.00000000000E+00  0.00000000000E+00 -0.20968489232E+04  0.20968489233E+04  0.50400001928E-02 0.  1.
    10030    2    1    2    0    0  0.00000000000E+00  0.00000000000E+00 -0.87728023417E+03  0.33164176123E+04  0.31982815965E+04 0.  0.
        2    1    3    3  502    0 -0.13935718102E+04  0.77259064738E+03 -0.29831757377E+03  0.16210897795E+04  0.25500000920E-02 0. -1.
       -2    1    3    3    0  502  0.13935718102E+04 -0.77259064738E+03 -0.57896266040E+03  0.16953278328E+04  0.25500000920E-02 0.  1.
</event>
<event>
 5   0  0.8335929E-07  0.3192815E+04  0.7818609E-02  0.8190717E-01
        2   -1    0    0  501    0  0.00000000000E+00  0.00000000000E+00  0.13631523302E+04  0.13631523302E+04  0.25500000920E-02 0. -1.
       -2   -1    0    0    0  501  0.00000000000E+00  0.00000000000E+00 -0.18695765076E+04  0.18695765076E+04  0.25500000920E-02 0.  1.
    10030    2    1    2    0    0  0.00000000000E+00  0.00000000000E+00 -0.50642417740E+03  0.32327288377E+04  0.31928154176E+04 0.  0.
        4    1    3    3  502    0 -0.82878831648E+03  0.64896424441E+03  0.96198793612E+03  0.14259968675E+04  0.12699999809E+01 0. -1.
       -4    1    3    3    0  502  0.82878831648E+03 -0.64896424441E+03 -0.14684121135E+04  0.18067319702E+04  0.12699999809E+01 0.  1.
</event>
<event>
 5   0  0.2891204E-07  0.3183117E+04  0.7818609E-02  0.8193290E-01
       -1   -1    0    0    0  501  0.00000000000E+00  0.00000000000E+00  0.84692729957E+03  0.84692729958E+03  0.50400001928E-02 0.  1.
        1   -1    0    0  501    0  0.00000000000E+00  0.00000000000E+00 -0.29908802971E+04  0.29908802971E+04  0.50400001928E-02 0. -1.
    10030    2    1    2    0    0  0.00000000000E+00  0.00000000000E+00 -0.21439529975E+04  0.38378075967E+04  0.31831168206E+04 0.  0.
        4    1    3    3  502    0  0.12469876549E+04 -0.47066968796E+03 -0.21206709677E+04  0.25047465207E+04  0.12699999809E+01 0. -1.
       -4    1    3    3    0  502 -0.12469876549E+04  0.47066968796E+03 -0.23282029800E+02  0.13330610760E+04  0.12699999809E+01 0.  1.
</event>
<event>
 5   0  0.3013888E-07  0.3170846E+04  0.7818609E-02  0.8196559E-01
       -1   -1    0    0    0  501  0.00000000000E+00  0.00000000000E+00  0.15730786444E+04  0.15730786444E+04  0.50400001928E-02 0.  1.
        1   -1    0    0  501    0  0.00000000000E+00  0.00000000000E+00 -0.15978638684E+04  0.15978638684E+04  0.50400001928E-02 0. -1.
    10030    2    1    2    0    0  0.00000000000E+00  0.00000000000E+00 -0.24785224023E+02  0.31709425128E+04  0.31708456463E+04 0.  0.
        1    1    3    3  502    0  0.40875717986E+03 -0.51304797278E+03  0.14310034388E+04  0.15741891552E+04  0.50400001928E-02 0.  1.
       -1    1    3    3    0  502 -0.40875717986E+03  0.51304797278E+03 -0.14557886628E+04  0.15967533577E+04  0.50400001928E-02 0. -1.
</event>
<event>
 5   0  0.3075756E-07  0.3210061E+04  0.7818609E-02  0.8186165E-01
        1   -1    0    0  501    0  0.00000000000E+00  0.00000000000E+00  0.26202318260E+04  0.26202318260E+04  0.50400001928E-02 0.  1.
       -1   -1    0    0    0  501  0.00000000000E+00  0.00000000000E+00 -0.98316609479E+03  0.98316609480E+03  0.50400001928E-02 0. -1.
    10030    2    1    2    0    0  0.00000000000E+00  0.00000000000E+00  0.16370657312E+04  0.36033979208E+04  0.32100611158E+04 0.  0.
        5    1    3    3  502    0  0.52456365785E+03  0.86464371941E+03 -0.58050709041E+03  0.11660987800E+04  0.46999998093E+01 0. -1.
       -5    1    3    3    0  502 -0.52456365785E+03 -0.86464371941E+03  0.22175728216E+04  0.24372991408E+04  0.46999998093E+01 0.  1.
</event>
<event>
 5   0  0.2997105E-07  0.3193464E+04  0.7818609E-02  0.8190546E-01
       -1   -1    0    0    0  501  0.00000000000E+00  0.00000000000E+00  0.11765568310E+04  0.11765568311E+04  0.50400001928E-02 0. -1.
        1   -1    0    0  501    0  0.00000000000E+00  0.00000000000E+00 -0.21669609784E+04  0.21669609784E+04  0.50400001928E-02 0.  1.
    10030    2    1    2    0    0  0.00000000000E+00  0.00000000000E+00 -0.99040414737E+03  0.33435178095E+04  0.31934637883E+04 0.  0.
        3    1    3    3  502    0  0.14953497593E+04 -0.33608266700E+03 -0.26354563308E+02  0.15328786758E+04  0.10100000352E+00 0. -1.
       -3    1    3    3    0  502 -0.14953497593E+04  0.33608266700E+03 -0.96404958407E+03  0.18106391337E+04  0.10100000352E+00 0.  1.
</event>
<event>
 5   0  0.8838951E-07  0.3202066E+04  0.7818609E-02  0.8188272E-01
        2   -1    0    0  501    0  0.00000000000E+00  0.00000000000E+00  0.11770366310E+04  0.11770366311E+04  0.25500000920E-02 0. -1.
       -2   -1    0    0    0  501  0.00000000000E+00  0.00000000000E+00 -0.21777632739E+04  0.21777632739E+04  0.25500000920E-02 0.  1.
    10030    2    1    2    0    0  0.00000000000E+00  0.00000000000E+00 -0.10007266429E+04  0.33547999050E+04  0.32020662998E+04 0.  0.
        2    1    3    3  502    0  0.12056234297E+04  0.65881391099E+03 -0.13616093815E+04  0.19343070417E+04  0.25500000920E-02 0.  1.
       -2    1    3    3    0  502 -0.12056234297E+04 -0.65881391099E+03  0.36088273865E+03  0.14204928633E+04  0.25500000920E-02 0. -1.
</event>
<event>
 5   0  0.2891204E-07  0.3193079E+04  0.7818609E-02  0.8190647E-01
       -1   -1    0    0    0  501  0.00000000000E+00  0.00000000000E+00  0.15897206351E+04  0.15897206351E+04  0.50400001928E-02 0.  1.
        1   -1    0    0  501    0  0.00000000000E+00  0.00000000000E+00 -0.16033876100E+04  0.16033876100E+04  0.50400001928E-02 0. -1.
    10030    2    1    2    0    0  0.00000000000E+00  0.00000000000E+00 -0.13666974866E+02  0.31931082451E+04  0.31930789967E+04 0.  0.
        4    1    3    3  502    0 -0.16551213170E+03  0.43614042712E+03 -0.15337148609E+04  0.16030894003E+04  0.12699999809E+01 0. -1.
       -4    1    3    3    0  502  0.16551213170E+03 -0.43614042712E+03  0.15200478861E+04  0.15900188448E+04  0.12699999809E+01 0.  1.
</event>
<event>
 5   0  0.8488469E-07  0.3199074E+04  0.7818609E-02  0.8189062E-01
        2   -1    0    0  501    0  0.00000000000E+00  0.00000000000E+00  0.21017507724E+04  0.21017507724E+04  0.25500000920E-02 0.  1.
       -2   -1    0    0    0  501  0.00000000000E+00  0.00000000000E+00 -0.12173273207E+04  0.12173273207E+04  0.25500000920E-02 0. -1.
    10030    2    1    2    0    0  0.00000000000E+00  0.00000000000E+00  0.88442345167E+03  0.33190780931E+04  0.31990740139E+04 0.  0.
        3    1    3    3  502    0 -0.38133947376E+03 -0.18798867569E+03 -0.11576303263E+04  0.12332345758E+04  0.10100000352E+00 0. -1.
       -3    1    3    3    0  502  0.38133947376E+03  0.18798867569E+03  0.20420537780E+04  0.20858435173E+04  0.10100000352E+00 0.  1.
</event>
<event>
 5   0  0.8335929E-07  0.3199669E+04  0.7818609E-02  0.8188905E-01
        2   -1    0    0  501    0  0.00000000000E+00  0.00000000000E+00  0.22774241923E+04  0.22774241923E+04  0.25500000920E-02 0.  1.
       -2   -1    0    0    0  501  0.00000000000E+00  0.00000000000E+00 -0.11238444199E+04  0.11238444199E+04  0.25500000920E-02 0. -1.
    10030    2    1    2    0    0  0.00000000000E+00  0.00000000000E+00  0.11535797724E+04  0.34012686122E+04  0.31996690268E+04 0.  0.
        4    1    3    3  502    0 -0.70031735221E+03 -0.14053711012E+04  0.90262610860E+03  0.18111454471E+04  0.12699999809E+01 0. -1.
       -4    1    3    3    0  502  0.70031735221E+03  0.14053711012E+04  0.25095366379E+03  0.15901231651E+04  0.12699999809E+01 0.  1.
</event>
<event>
 5   0  0.3013888E-07  0.3201589E+04  0.7818609E-02  0.8188398E-01
       -1   -1    0    0    0  501  0.00000000000E+00  0.00000000000E+00  0.14545220932E+04  0.14545220932E+04  0.50400001928E-02 0.  1.
        1   -1    0    0  501    0  0.00000000000E+00  0.00000000000E+00 -0.17617761655E+04  0.17617761655E+04  0.50400001928E-02 0. -1.
    10030    2    1    2    0    0  0.00000000000E+00  0.00000000000E+00 -0.30725407228E+03  0.32162982587E+04  0.32015885782E+04 0.  0.
        1    1    3    3  502    0 -0.64912267383E+03  0.14445138296E+04  0.81031070075E+02  0.15857321603E+04  0.50400001928E-02 0.  1.
       -1    1    3    3    0  502  0.64912267383E+03 -0.14445138296E+04 -0.38828514236E+03  0.16305660985E+04  0.50400001928E-02 0. -1.
</event>
<event>
 5   0  0.8802800E-07  0.3017200E+04  0.7818609E-02  0.8238836E-01
       -2   -1    0    0    0  501  0.00000000000E+00  0.00000000000E+00  0.14566685770E+04  0.14566685770E+04  0.25500000920E-02 0.  1.
        2   -1    0    0  501    0  0.00000000000E+00  0.00000000000E+00 -0.15623832794E+04  0.15623832794E+04  0.25500000920E-02 0. -1.
    10030    2    1    2    0    0  0.00000000000E+00  0.00000000000E+00 -0.10571470248E+03  0.30190518564E+04  0.30172004430E+04 0.  0.
        5    1    3    3  502    0 -0.36318145288E+03  0.78681967711E+02  0.14101482084E+04  0.14582975278E+04  0.46999998093E+01 0.  1.
       -5    1    3    3    0  502  0.36318145288E+03 -0.78681967711E+02 -0.15158629109E+04  0.15607543286E+04  0.46999998093E+01 0. -1.
</event>
<event>
 5   0  0.8195618E-07  0.3194657E+04  0.7818609E-02  0.8190230E-01
       -2   -1    0    0    0  501  0.00000000000E+00  0.00000000000E+00  0.13497102974E+04  0.13497102974E+04  0.25500000920E-02 0.  1.
        2   -1    0    0  501    0  0.00000000000E+00  0.00000000000E+00 -0.18903749463E+04  0.18903749463E+04  0.25500000920E-02 0. -1.
    10030    2    1    2    0    0  0.00000000000E+00  0.00000000000E+00 -0.54066464889E+03  0.32400852437E+04  0.31946571215E+04 0.  0.
        1    1    3    3  502    0  0.47907079052E+03  0.51975538320E+03 -0.17231132360E+04  0.18624644171E+04  0.50400001928E-02 0. -1.
       -1    1    3    3    0  502 -0.47907079052E+03 -0.51975538320E+03  0.11824485872E+04  0.13776208266E+04  0.50400001928E-02 0.  1.
</event>
<event>
 5   0  0.8488469E-07  0.3173597E+04  0.7818609E-02  0.8195825E-01
        2   -1    0    0  501    0  0.00000000000E+00  0.00000000000E+00  0.19618745230E+04  0.19618745230E+04  0.25500000920E-02 0. -1.
       -2   -1    0    0    0  501  0.00000000000E+00  0.00000000000E+00 -0.12834306764E+04  0.12834306764E+04  0.25500000920E-02 0.  1.
    10030    2    1    2    0    0  0.00000000000E+00  0.00000000000E+00  0.67844384659E+03  0.32453051994E+04  0.31735972940E+04 0.  0.
        3    1    3    3  502    0 -0.12461549012E+04 -0.46751641143E+03  0.12227206404E+04  0.18073514897E+04  0.10100000352E+00 0. -1.
       -3    1    3    3    0  502  0.12461549012E+04  0.46751641143E+03 -0.54427679378E+03  0.14379537097E+04  0.10100000352E+00 0.  1.
</event>
<event>
 5   0  0.3013888E-07  0.3201325E+04  0.7818609E-02  0.8188467E-01
        1   -1    0    0  501    0  0.00000000000E+00  0.00000000000E+00  0.17183885425E+04  0.17183885425E+04  0.50400001928E-02 0.  1.
       -1   -1    0    0    0  501  0.00000000000E+00  0.00000000000E+00 -0.14910018723E+04  0.14910018723E+04  0.50400001928E-02 0. -1.
    10030    2    1    2    0    0  0.00000000000E+00  0.00000000000E+00  0.22738667015E+03  0.32093904148E+04  0.32013250595E+04 0.  0.
        1    1    3    3  502    0  0.12162310665E+04  0.21537720314E+03 -0.90696552973E+03  0.15323810945E+04  0.50400001928E-02 0. -1.
       -1    1    3    3    0  502 -0.12162310665E+04 -0.21537720314E+03  0.11343521999E+04  0.16770093202E+04  0.50400001928E-02 0.  1.
</event>
<event>
 5   0  0.2783875E-07  0.3197661E+04  0.7818609E-02  0.8189435E-01
        1   -1    0    0  501    0  0.00000000000E+00  0.00000000000E+00  0.20721762624E+04  0.20721762624E+04  0.50400001928E-02 0. -1.
       -1   -1    0    0    0  501  0.00000000000E+00  0.00000000000E+00 -0.12336105918E+04  0.12336105918E+04  0.50400001928E-02 0.  1.
    10030    2    1    2    0    0  0.00000000000E+00  0.00000000000E+00  0.83856567060E+03  0.33057868543E+04  0.31976607609E+04 0.  0.
        2    1    3    3  502    0  0.28953442397E+03  0.13998467783E+04 -0.32107346059E+03  0.14650902199E+04  0.25500000920E-02 0.  1.
       -2    1    3    3    0  502 -0.28953442397E+03 -0.13998467783E+04  0.11596391312E+04  0.18406966344E+04  0.25500000920E-02 0. -1.
</event>
<event>
 5   0  0.8195618E-07  0.3144271E+04  0.7818609E-02  0.8203692E-01
       -2   -1    0    0    0  501  0.00000000000E+00  0.00000000000E+00  0.10359787914E+04  0.10359787914E+04  0.25500000920E-02 0.  1.
        2   -1    0    0  501    0  0.00000000000E+00  0.00000000000E+00 -0.23857732443E+04  0.23857732443E+04  0.25500000920E-02 0. -1.
    10030    2    1    2    0    0  0.00000000000E+00  0.00000000000E+00 -0.13497944530E+04  0.34217520357E+04  0.31442712873E+04 0.  0.
        1    1    3    3  502    0 -0.59354432949E+03  0.13591844670E+04 -0.12423890881E+04  0.19347371740E+04  0.50400001928E-02 0.  1.
       -1    1    3    3    0  502  0.59354432949E+03 -0.13591844670E+04 -0.10740536489E+03  0.14870148617E+04  0.50400001928E-02 0. -1.
</event>
<event>
 5   0  0.8488469E-07  0.3199298E+04  0.7818609E-02  0.8189003E-01
       -2   -1    0    0    0  501  0.00000000000E+00  0.00000000000E+00  0.10555182530E+04  0.10555182530E+04  0.25500000920E-02 0. -1.
        2   -1    0    0  501    0  0.00000000000E+00  0.00000000000E+00 -0.24242851666E+04  0.24242851666E+04  0.25500000920E-02 0.  1.
    10030    2    1    2    0    0  0.00000000000E+00  0.00000000000E+00 -0.13687669137E+04  0.34798034196E+04  0.31992982004E+04 0.  0.
        3    1    3    3  502    0  0.52963205498E+03 -0.39541003977E+03  0.90005189087E+03  0.11166703317E+04  0.10100000352E+00 0. -1.
       -3    1    3    3    0  502 -0.52963205498E+03  0.39541003977E+03 -0.22688188045E+04  0.23631330879E+04  0.10100000352E+00 0.  1.
</event>
<event>
 5   0  0.3075756E-07  0.3199309E+04  0.7818609E-02  0.8189000E-01
        1   -1    0    0  501    0  0.00000000000E+00  0.00000000000E+00  0.14504966711E+04  0.14504966711E+04  0.50400001928E-02 0.  1.
       -1   -1    0    0    0  501  0.00000000000E+00  0.00000000000E+00 -0.17641500274E+04  0.17641500274E+04  0.50400001928E-02 0. -1.
    10030    2    1    2    0    0  0.00000000000E+00  0.00000000000E+00 -0.31365335632E+03  0.32146466986E+04  0.31993085142E+04 0.  0.
        5    1    3    3  502    0 -0.65072227691E+03 -0.94396514074E+03  0.96403106100E+03  0.14979611628E+04  0.46999998093E+01 0.  1.
       -5    1    3    3    0  502  0.65072227691E+03  0.94396514074E+03 -0.12776844173E+04  0.17166855358E+04  0.46999998093E+01 0. -1.
</event>
<event>
 5   0  0.8488469E-07  0.3185395E+04  0.7818609E-02  0.8192685E-01
        2   -1    0    0  501    0  0.00000000000E+00  0.00000000000E+00  0.22099177668E+04  0.22099177668E+04  0.25500000920E-02 0.  1.
       -2   -1    0    0    0  501  0.00000000000E+00  0.00000000000E+00 -0.11478637850E+04  0.11478637850E+04  0.25500000920E-02 0. -1.
    10030    2    1    2    0    0  0.00000000000E+00  0.00000000000E+00  0.10620539818E+04  0.33577815518E+04  0.31853945265E+04 0.  0.
        3    1    3    3  502    0 -0.12384108112E+04 -0.82125787114E+03  0.11352478548E+04  0.18700036177E+04  0.10100000352E+00 0.  1.
       -3    1    3    3    0  502  0.12384108112E+04  0.82125787114E+03 -0.73193873005E+02  0.14877779342E+04  0.10100000352E+00 0. -1.
</event>
<event>
 5   0  0.2891204E-07  0.3198680E+04  0.7818609E-02  0.8189166E-01
       -1   -1    0    0    0  501  0.00000000000E+00  0.00000000000E+00  0.15687267754E+04  0.15687267754E+04  0.50400001928E-02 0.  1.
        1   -1    0    0  501    0  0.00000000000E+00  0.00000000000E+00 -0.16305510969E+04  0.16305510969E+04  0.50400001928E-02 0. -1.
    10030    2    1    2    0    0  0.00000000000E+00  0.00000000000E+00 -0.61824321472E+02  0.31992778724E+04  0.31986804557E+04 0.  0.
        4    1    3    3  502    0  0.22658287280E+03 -0.12269948948E+04  0.96979021317E+03  0.15803009019E+04  0.12699999809E+01 0.  1.
       -4    1    3    3    0  502 -0.22658287280E+03  0.12269948948E+04 -0.10316145346E+04  0.16189769705E+04  0.12699999809E+01 0. -1.
</event>
<event>
 5   0  0.2891204E-07  0.3201207E+04  0.7818609E-02  0.8188499E-01
       -1   -1    0    0    0  501  0.00000000000E+00  0.00000000000E+00  0.99717930783E+03  0.99717930785E+03  0.50400001928E-02 0.  1.
        1   -1    0    0  501    0  0.00000000000E+00  0.00000000000E+00 -0.25691782080E+04  0.25691782080E+04  0.50400001928E-02 0. -1.
    10030    2    1    2    0    0  0.00000000000E+00  0.00000000000E+00 -0.15719989002E+04  0.35663575158E+04  0.32012068644E+04 0.  0.
        4    1    3    3  502    0  0.69863638582E+03 -0.43361124670E+03  0.74389353051E+03  0.11088240214E+04  0.12699999809E+01 0.  1.
       -4    1    3    3    0  502 -0.69863638582E+03  0.43361124670E+03 -0.23158924307E+04  0.24575334944E+04  0.12699999809E+01 0. -1.
</event>
<event>
 5   0  0.8488469E-07  0.3205206E+04  0.7818609E-02  0.8187444E-01
       -2   -1    0    0    0  501  0.00000000000E+00  0.00000000000E+00  0.14441315988E+04  0.14441315988E+04  0.25500000920E-02 0.  1.
        2   -1    0    0  501    0  0.00000000000E+00  0.00000000000E+00 -0.17784645496E+04  0.17784645496E+04  0.25500000920E-02 0. -1.
    10030    2    1    2    0    0  0.00000000000E+00  0.00000000000E+00 -0.33433295083E+03  0.32225961484E+04  0.32052062981E+04 0.  0.
        3    1    3    3  502    0 -0.52025880388E+03 -0.34907004856E+03  0.13159018209E+04  0.14574349846E+04  0.10100000352E+00 0.  1.
       -3    1    3    3    0  502  0.52025880388E+03  0.34907004856E+03 -0.16502347718E+04  0.17651611637E+04  0.10100000352E+00 0. -1.
</event>
<event>
 5   0  0.2997105E-07  0.3208329E+04  0.7818609E-02  0.8186621E-01
        1   -1    0    0  501    0  0.00000000000E+00  0.00000000000E+00  0.18105760447E+04  0.18105760447E+04  0.50400001928E-02 0.  1.
       -1   -1    0    0    0  501  0.00000000000E+00  0.00000000000E+00 -0.14212842817E+04  0.14212842817E+04  0.50400001928E-02 0. -1.
    10030    2    1    2    0    0  0.00000000000E+00  0.00000000000E+00  0.38929176299E+03  0.32318603263E+04  0.32083287070E+04 0.  0.
        3    1    3    3  502    0  0.24736192783E+03  0.22761148809E+03  0.17747002346E+04  0.18062546459E+04  0.10100000352E+00 0.  1.
       -3    1    3    3    0  502 -0.24736192783E+03 -0.22761148809E+03 -0.13854084716E+04  0.14256056805E+04  0.10100000352E+00 0. -1.
</event>
<event>
 5   0  0.3013888E-07  0.3131264E+04  0.7818609E-02  0.8207210E-01
        1   -1    0    0  501    0  0.00000000000E+00  0.00000000000E+00  0.14036227679E+04  0.14036227679E+04  0.50400001928E-02 0.  1.
       -1   -1    0    0    0  501  0.00000000000E+00  0.00000000000E+00 -0.17463403674E+04  0.17463403674E+04  0.50400001928E-02 0. -1.
    10030    2    1    2    0    0  0.00000000000E+00  0.00000000000E+00 -0.34271759948E+03  0.31499631353E+04  0.31312637067E+04 0.  0.
        1    1    3    3  502    0  0.12466574648E+04 -0.50340429642E+03  0.63569924180E+03  0.14871732402E+04  0.50400001928E-02 0.  1.
       -1    1    3    3    0  502 -0.12466574648E+04  0.50340429642E+03 -0.97841684128E+03  0.16627898952E+04  0.50400001928E-02 0. -1.
</event>
<event>
 5   0  0.2891204E-07  0.3206319E+04  0.7818609E-02  0.8187150E-01
        1   -1    0    0  501    0  0.00000000000E+00  0.00000000000E+00  0.22081448876E+04  0.22081448876E+04  0.50400001928E-02 0. -1.
       -1   -1    0    0    0  501  0.00000000000E+00  0.00000000000E+00 -0.11639275612E+04  0.11639275612E+04  0.50400001928E-02 0.  1.
    10030    2    1    2    0    0  0.00000000000E+00  0.00000000000E+00  0.10442173264E+04  0.33720724488E+04  0.32063191942E+04 0.  0.
        4    1    3    3  502    0  0.61720538381E+03 -0.11416922559E+04 -0.46766806161E+03  0.13795356907E+04  0.12699999809E+01 0.  1.
       -4    1    3    3    0  502 -0.61720538381E+03  0.11416922559E+04  0.15118853880E+04  0.19925367581E+04  0.12699999809E+01 0. -1.
</event>
<event>
 5   0  0.8838951E-07  0.3209945E+04  0.7818609E-02  0.8186196E-01
        2   -1    0    0  501    0  0.00000000000E+00  0.00000000000E+00  0.19782213444E+04  0.19782213444E+04  0.25500000920E-02 0. -1.
       -2   -1    0    0    0  501  0.00000000000E+00  0.00000000000E+00 -0.13021478635E+04  0.13021478635E+04  0.25500000920E-02 0.  1.
    10030    2    1    2    0    0  0.00000000000E+00  0.00000000000E+00  0.67607348092E+03  0.32803692079E+04  0.32099449822E+04 0.  0.
        2    1    3    3  502    0 -0.15001811774E+03  0.93704101196E+03 -0.98472767015E+03  0.13675671384E+04  0.25500000920E-02 0.  1.
       -2    1    3    3    0  502  0.15001811774E+03 -0.93704101196E+03  0.16608011511E+04  0.19128020695E+04  0.25500000920E-02 0. -1.
</event>
<event>
 5   0  0.8838951E-07  0.3168977E+04  0.7818609E-02  0.8197059E-01
       -2   -1    0    0    0  501  0.00000000000E+00  0.00000000000E+00  0.25586000314E+04  0.25586000314E+04  0.25500000920E-02 0. -1.
        2   -1    0    0  501    0  0.00000000000E+00  0.00000000000E+00 -0.98124102619E+03  0.98124102619E+03  0.25500000920E-02 0.  1.
    10030    2    1    2    0    0  0.00000000000E+00  0.00000000000E+00  0.15773590052E+04  0.35398410576E+04  0.31689766932E+04 0.  0.
        2    1    3    3  502    0  0.95677020413E+02 -0.15649009958E+04  0.10447062694E+04  0.18840064778E+04  0.25500000920E-02 0.  1.
       -2    1    3    3    0  502 -0.95677020413E+02  0.15649009958E+04  0.53265273581E+03  0.16558345799E+04  0.25500000920E-02 0. -1.
</event>
<event>
 5   0  0.8838951E-07  0.3212916E+04  0.7818609E-02  0.8185414E-01
        2   -1    0    0  501    0  0.00000000000E+00  0.00000000000E+00  0.15468624403E+04  0.15468624403E+04  0.25500000920E-02 0.  1.
       -2   -1    0    0    0  501  0.00000000000E+00  0.00000000000E+00 -0.16683493912E+04  0.16683493912E+04  0.25500000920E-02 0. -1.
    10030    2    1    2    0    0  0.00000000000E+00  0.00000000000E+00 -0.12148695096E+03  0.32152118315E+04  0.32129158162E+04 0.  0.
        2    1    3    3  502    0 -0.20604340736E+03 -0.43662967736E+02  0.15329858038E+04  0.15473867697E+04  0.25500000920E-02 0.  1.
       -2    1    3    3    0  502  0.20604340736E+03  0.43662967736E+02 -0.16544727547E+04  0.16678250618E+04  0.25500000920E-02 0. -1.
</event>
<event>
 5   0  0.2783875E-07  0.3201900E+04  0.7818609E-02  0.8188315E-01
       -1   -1    0    0    0  501  0.00000000000E+00  0.00000000000E+00  0.11984407989E+04  0.11984407990E+04  0.50400001928E-02 0.  1.
        1   -1    0    0  501    0  0.00000000000E+00  0.00000000000E+00 -0.21386468290E+04  0.21386468290E+04  0.50400001928E-02 0. -1.
    10030    2    1    2    0    0  0.00000000000E+00  0.00000000000E+00 -0.94020603003E+03  0.33370876279E+04  0.32019004447E+04 0.  0.
        2    1    3    3  502    0  0.60392171388E+03  0.11206878549E+04  0.54164547627E+03  0.13834892579E+04  0.25500000920E-02 0.  1.
       -2    1    3    3    0  502 -0.60392171388E+03 -0.11206878549E+04 -0.14818515063E+04  0.19535983700E+04  0.25500000920E-02 0. -1.
</event>
<event>
 5   0  0.2891204E-07  0.3067132E+04  0.7818609E-02  0.8224816E-01
        1   -1    0    0  501    0  0.00000000000E+00  0.00000000000E+00  0.26306198908E+04  0.26306198908E+04  0.50400001928E-02 0.  1.
       -1   -1    0    0    0  501  0.00000000000E+00  0.00000000000E+00 -0.89401947495E+03  0.89401947496E+03  0.50400001928E-02 0. -1.
    10030    2    1    2    0    0  0.00000000000E+00  0.00000000000E+00  0.17366004158E+04  0.35246393657E+04  0.30671324807E+04 0.  0.
        4    1    3    3  502    0 -0.14468318315E+03  0.89594955839E+03 -0.55228494633E+03  0.10623931050E+04  0.12699999809E+01 0. -1.
       -4    1    3    3    0  502  0.14468318315E+03 -0.89594955839E+03  0.22888853621E+04  0.24622462608E+04  0.12699999809E+01 0.  1.
</event>
<event>
 5   0  0.2997105E-07  0.3188507E+04  0.7818609E-02  0.8191859E-01
       -1   -1    0    0    0  501  0.00000000000E+00  0.00000000000E+00  0.12987754026E+04  0.12987754026E+04  0.50400001928E-02 0. -1.
        1   -1    0    0  501    0  0.00000000000E+00  0.00000000000E+00 -0.19569546521E+04  0.19569546521E+04  0.50400001928E-02 0.  1.
    10030    2    1    2    0    0  0.00000000000E+00  0.00000000000E+00 -0.65817924947E+03  0.32557300547E+04  0.31885072157E+04 0.  0.
        3    1    3    3  502    0 -0.59707634197E+03 -0.12968681711E+04 -0.10534666622E+04  0.17743052809E+04  0.10100000352E+00 0.  1.
       -3    1    3    3    0  502  0.59707634197E+03  0.12968681711E+04  0.39528741271E+03  0.14814247737E+04  0.10100000352E+00 0. -1.
</event>
<event>
 5   0  0.8802800E-07  0.3205089E+04  0.7818609E-02  0.8187474E-01
       -2   -1    0    0    0  501  0.00000000000E+00  0.00000000000E+00  0.97950022405E+03  0.97950022406E+03  0.25500000920E-02 0.  1.
        2   -1    0    0  501    0  0.00000000000E+00  0.00000000000E+00 -0.26218971451E+04  0.26218971451E+04  0.25500000920E-02 0. -1.
    10030    2    1    2    0    0  0.00000000000E+00  0.00000000000E+00 -0.16423969210E+04  0.36013973691E+04  0.32050889791E+04 0.  0.
        5    1    3    3  502    0  0.30902566314E+03  0.78826946674E+03  0.70765124669E+03  0.11034754141E+04  0.46999998093E+01 0.  1.
       -5    1    3    3    0  502 -0.30902566314E+03 -0.78826946674E+03 -0.23500481677E+04  0.24979219550E+04  0.46999998093E+01 0. -1.
</event>
<event>
 5   0  0.2891204E-07  0.3208876E+04  0.7818609E-02  0.8186477E-01
        1   -1    0    0  501    0  0.00000000000E+00  0.00000000000E+00  0.11761539019E+04  0.11761539019E+04  0.50400001928E-02 0.  1.
       -1   -1    0    0    0  501  0.00000000000E+00  0.00000000000E+00 -0.21886768951E+04  0.21886768951E+04  0.50400001928E-02 0. -1.
    10030    2    1    2    0    0  0.00000000000E+00  0.00000000000E+00 -0.10125229933E+04  0.33648307970E+04  0.32088757347E+04 0.  0.
        4    1    3    3  502    0 -0.12921972661E+04 -0.57480510405E+03 -0.13007418091E+04  0.19214852456E+04  0.12699999809E+01 0. -1.
       -4    1    3    3    0  502  0.12921972661E+04  0.57480510405E+03  0.28821881585E+03  0.14433455514E+04  0.12699999809E+01 0.  1.
</event>
<event>
 5   0  0.8802800E-07  0.3195387E+04  0.7818609E-02  0.8190036E-01
        2   -1    0    0  501    0  0.00000000000E+00  0.00000000000E+00  0.12874539099E+04  0.12874539099E+04  0.25500000920E-02 0.  1.
       -2   -1    0    0    0  501  0.00000000000E+00  0.00000000000E+00 -0.19826924323E+04  0.19826924323E+04  0.25500000920E-02 0. -1.
    10030    2    1    2    0    0  0.00000000000E+00  0.00000000000E+00 -0.69523852238E+03  0.32701463422E+04  0.31953873781E+04 0.  0.
        5    1    3    3  502    0  0.75107263401E+03 -0.28345487241E+02  0.10952199649E+04  0.13283231646E+04  0.46999998093E+01 0.  1.
       -5    1    3    3    0  502 -0.75107263401E+03  0.28345487241E+02 -0.17904584873E+04  0.19418231776E+04  0.46999998093E+01 0. -1.
</event>
<event>
 5   0  0.2891204E-07  0.3192162E+04  0.7818609E-02  0.8190890E-01
       -1   -1    0    0    0  501  0.00000000000E+00  0.00000000000E+00  0.12311636870E+04  0.12311636871E+04  0.50400001928E-02 0.  1.
        1   -1    0    0  501    0  0.00000000000E+00  0.00000000000E+00 -0.20691593361E+04  0.20691593361E+04  0.50400001928E-02 0. -1.
    10030    2    1    2    0    0  0.00000000000E+00  0.00000000000E+00 -0.83799564909E+03  0.33003230232E+04  0.31921615482E+04 0.  0.
        4    1    3    3  502    0 -0.81815436818E+03 -0.36039818760E+03 -0.17859969548E+04  0.19972606638E+04  0.12699999809E+01 0. -1.
       -4    1    3    3    0  502  0.81815436818E+03  0.36039818760E+03  0.94800130573E+03  0.13030623594E+04  0.12699999809E+01 0.  1.
</event>
<event>
 5   0  0.3075756E-07  0.3189119E+04  0.7818609E-02  0.8191697E-01
        1   -1    0    0  501    0  0.00000000000E+00  0.00000000000E+00  0.14497315262E+04  0.14497315262E+04  0.50400001928E-02 0.  1.
       -1   -1    0    0    0  501  0.00000000000E+00  0.00000000000E+00 -0.17538558692E+04  0.17538558692E+04  0.50400001928E-02 0. -1.
    10030    2    1    2    0    0  0.00000000000E+00  0.00000000000E+00 -0.30412434301E+03  0.32035873955E+04  0.31891190923E+04 0.  0.
        5    1    3    3  502    0 -0.10271928005E+04 -0.56160502272E+02 -0.13759157520E+04  0.17179770947E+04  0.46999998093E+01 0. -1.
       -5    1    3    3    0  502  0.10271928005E+04  0.56160502272E+02  0.10717914090E+04  0.14856103008E+04  0.46999998093E+01 0.  1.
</event>
<event>
 5   0  0.2997105E-07  0.3198619E+04  0.7818609E-02  0.8189182E-01
       -1   -1    0    0    0  501  0.00000000000E+00  0.00000000000E+00  0.14927867673E+04  0.14927867673E+04  0.50400001928E-02 0.  1.
        1   -1    0    0  501    0  0.00000000000E+00  0.00000000000E+00 -0.17134331483E+04  0.17134331483E+04  0.50400001928E-02 0. -1.
    10030    2    1    2    0    0  0.00000000000E+00  0.00000000000E+00 -0.22064638097E+03  0.32062199156E+04  0.31986186584E+04 0.  0.
        3    1    3    3  502    0 -0.49242776760E+03 -0.42238469404E+02 -0.16349641255E+04  0.17080330490E+04  0.10100000352E+00 0. -1.
       -3    1    3    3    0  502  0.49242776760E+03  0.42238469404E+02  0.14143177445E+04  0.14981868666E+04  0.10100000352E+00 0.  1.
</event>
<event>
 5   0  0.3013888E-07  0.3201699E+04  0.7818609E-02  0.8188369E-01
       -1   -1    0    0    0  501  0.00000000000E+00  0.00000000000E+00  0.13732409499E+04  0.13732409499E+04  0.50400001928E-02 0. -1.
        1   -1    0    0  501    0  0.00000000000E+00  0.00000000000E+00 -0.18661834166E+04  0.18661834166E+04  0.50400001928E-02 0.  1.
    10030    2    1    2    0    0  0.00000000000E+00  0.00000000000E+00 -0.49294246677E+03  0.32394243665E+04  0.32016992287E+04 0.  0.
        1    1    3    3  502    0  0.22530368606E+03  0.48446894876E+03 -0.17733073952E+04  0.18520504936E+04  0.50400001928E-02 0.  1.
       -1    1    3    3    0  502 -0.22530368606E+03 -0.48446894876E+03  0.12803649284E+04  0.13873738729E+04  0.50400001928E-02 0. -1.
</event>
<event>
 5   0  0.8335929E-07  0.3178533E+04  0.7818609E-02  0.8194510E-01
        2   -1    0    0  501    0  0.00000000000E+00  0.00000000000E+00  0.21952949143E+04  0.21952949143E+04  0.25500000920E-02 0. -1.
       -2   -1    0    0    0  501  0.00000000000E+00  0.00000000000E+00 -0.11505372190E+04  0.11505372190E+04  0.25500000920E-02 0.  1.
    10030    2    1    2    0    0  0.00000000000E+00  0.00000000000E+00  0.10447576953E+04  0.33458321333E+04  0.31785333131E+04 0.  0.
        4    1    3    3  502    0  0.62888022131E+03 -0.11898727960E+04  0.14121374642E+04  0.19507489419E+04  0.12699999809E+01 0. -1.
       -4    1    3    3    0  502 -0.62888022131E+03  0.11898727960E+04 -0.36737976889E+03  0.13950831914E+04  0.12699999809E+01 0.  1.
</event>
<event>
 5   0  0.8838951E-07  0.3181343E+04  0.7818609E-02  0.8193762E-01
       -2   -1    0    0    0  501  0.00000000000E+00  0.00000000000E+00  0.13005702262E+04  0.13005702262E+04  0.25500000920E-02 0. -1.
        2   -1    0    0  501    0  0.00000000000E+00  0.00000000000E+00 -0.19454820039E+04  0.19454820039E+04  0.25500000920E-02 0.  1.
    10030    2    1    2    0    0  0.00000000000E+00  0.00000000000E+00 -0.64491177772E+03  0.32460522302E+04  0.31813430937E+04 0.  0.
        2    1    3    3  502    0  0.32795086415E+03  0.40603281653E+03 -0.18556240872E+04  0.19276294172E+04  0.25500000920E-02 0.  1.
       -2    1    3    3    0  502 -0.32795086415E+03 -0.40603281653E+03  0.12107123094E+04  0.13184228129E+04  0.25500000920E-02 0. -1.
</event>
<event>
 5   0  0.2997105E-07  0.3097756E+04  0.7818609E-02  0.8216354E-01
        1   -1    0    0  501    0  0.00000000000E+00  0.00000000000E+00  0.20510786085E+04  0.20510786085E+04  0.50400001928E-02 0. -1.
       -1   -1    0    0    0  501  0.00000000000E+00  0.00000000000E+00 -0.11696400229E+04  0.11696400230E+04  0.50400001928E-02 0.  1.
    10030    2    1    2    0    0  0.00000000000E+00  0.00000000000E+00  0.88143858556E+03  0.32207186315E+04  0.30977563692E+04 0.  0.
        3    1    3    3  502    0  0.10000957699E+04 -0.11402600025E+04  0.76725471058E+03  0.16997247493E+04  0.10100000352E+00 0. -1.
       -3    1    3    3    0  502 -0.10000957699E+04  0.11402600025E+04  0.11418387498E+03  0.15209938822E+04  0.10100000352E+00 0.  1.
</event>
<event>
 5   0  0.8488469E-07  0.3193316E+04  0.7818609E-02  0.8190585E-01
        2   -1    0    0  501    0  0.00000000000E+00  0.00000000000E+00  0.17162299203E+04  0.17162299203E+04  0.25500000920E-02 0.  1.
       -2   -1    0    0    0  501  0.00000000000E+00  0.00000000000E+00 -0.14854167037E+04  0.14854167037E+04  0.25500000920E-02 0. -1.
    10030    2    1    2    0    0  0.00000000000E+00  0.00000000000E+00  0.23081321668E+03  0.32016466240E+04  0.31933158885E+04 0.  0.
        3    1    3    3  502    0 -0.11952461435E+04 -0.31838597190E+03 -0.89684782160E+03  0.15278478314E+04  0.10100000352E+00 0. -1.
       -3    1    3    3    0  502  0.11952461435E+04  0.31838597190E+03  0.11276610383E+04  0.16737987926E+04  0.10100000352E+00 0.  1.
</event>
<event>
 5   0  0.3013888E-07  0.3206312E+04  0.7818609E-02  0.8187152E-01
       -1   -1    0    0    0  501  0.00000000000E+00  0.00000000000E+00  0.15228966058E+04  0.15228966058E+04  0.50400001928E-02 0. -1.
        1   -1    0    0  501    0  0.00000000000E+00  0.00000000000E+00 -0.16876453150E+04  0.16876453150E+04  0.50400001928E-02 0.  1.
    10030    2    1    2    0    0  0.00000000000E+00  0.00000000000E+00 -0.16474870918E+03  0.32105419208E+04  0.32063121009E+04 0.  0.
        1    1    3    3  502    0 -0.12247473160E+04  0.10182243457E+04 -0.26515972854E+03  0.16146505777E+04  0.50400001928E-02 0. -1.
       -1    1    3    3    0  502  0.12247473160E+04 -0.10182243457E+04  0.10041101936E+03  0.15958913431E+04  0.50400001928E-02 0.  1.
</event>
<event>
 5   0  0.2891204E-07  0.3138179E+04  0.7818609E-02  0.8205337E-01
        1   -1    0    0  501    0  0.00000000000E+00  0.00000000000E+00  0.17709589327E+04  0.17709589328E+04  0.50400001928E-02 0.  1.
       -1   -1    0    0    0  501  0.00000000000E+00  0.00000000000E+00 -0.13902313480E+04  0.13902313480E+04  0.50400001928E-02 0. -1.
    10030    2    1    2    0    0  0.00000000000E+00  0.00000000000E+00  0.38072758475E+03  0.31611902808E+04  0.31381794878E+04 0.  0.
        4    1    3    3  502    0  0.15113633159E+04  0.29954319502E+03  0.48934954428E+03  0.16166044005E+04  0.12699999809E+01 0.  1.
       -4    1    3    3    0  502 -0.15113633159E+04 -0.29954319502E+03 -0.10862195954E+03  0.15445858802E+04  0.12699999809E+01 0. -1.
</event>
<event>
 5   0  0.3075756E-07  0.3200235E+04  0.7818609E-02  0.8188755E-01
        1   -1    0    0  501    0  0.00000000000E+00  0.00000000000E+00  0.15938728864E+04  0.15938728864E+04  0.50400001928E-02 0.  1.
       -1   -1    0    0    0  501  0.00000000000E+00  0.00000000000E+00 -0.16063867799E+04  0.16063867799E+04  0.50400001928E-02 0. -1.
    10030    2    1    2    0    0  0.00000000000E+00  0.00000000000E+00 -0.12513893532E+02  0.32002596663E+04  0.32002351998E+04 0.  0.
        5    1    3    3  502    0  0.11445816765E+04  0.83296676745E+03 -0.75222068718E+03  0.16030467561E+04  0.46999998093E+01 0.  1.
       -5    1    3    3    0  502 -0.11445816765E+04 -0.83296676745E+03  0.73970679364E+03  0.15972129102E+04  0.46999998093E+01 0. -1.
</event>
<event>
 5   0  0.8488469E-07  0.3204961E+04  0.7818609E-02  0.8187508E-01
        2   -1    0    0  501    0  0.00000000000E+00  0.00000000000E+00  0.73000540883E+03  0.73000540884E+03  0.25500000920E-02 0.  1.
       -2   -1    0    0    0  501  0.00000000000E+00  0.00000000000E+00 -0.35177046538E+04  0.35177046538E+04  0.25500000920E-02 0. -1.
    10030    2    1    2    0    0  0.00000000000E+00  0.00000000000E+00 -0.27876992450E+04  0.42477100627E+04  0.32049607948E+04 0.  0.
        3    1    3    3  502    0 -0.61323792858E+03  0.96466987984E+03 -0.28823207878E+04  0.31007131225E+04  0.10100000352E+00 0. -1.
       -3    1    3    3    0  502  0.61323792858E+03 -0.96466987984E+03  0.94621542825E+02  0.11469969401E+04  0.10100000352E+00 0.  1.
</event>
<event>
 5   0  0.3013888E-07  0.3205299E+04  0.7818609E-02  0.8187419E-01
        1   -1    0    0  501    0  0.00000000000E+00  0.00000000000E+00  0.17626350901E+04  0.17626350901E+04  0.50400001928E-02 0. -1.
       -1   -1    0    0    0  501  0.00000000000E+00  0.00000000000E+00 -0.14571847920E+04  0.14571847921E+04  0.50400001928E-02 0.  1.
    10030    2    1    2    0    0  0.00000000000E+00  0.00000000000E+00  0.30545029806E+03  0.32198198822E+04  0.32052987675E+04 0.  0.
        1    1    3    3  502    0 -0.13757816701E+04 -0.93162656960E+02  0.97314456149E+03  0.16877395599E+04  0.50400001928E-02 0. -1.
       -1    1    3    3    0  502  0.13757816701E+04  0.93162656960E+02 -0.66769426343E+03  0.15320803223E+04  0.50400001928E-02 0.  1.
</event>
<event>
 5   0  0.8195618E-07  0.3190518E+04  0.7818609E-02  0.8191326E-01
       -2   -1    0    0    0  501  0.00000000000E+00  0.00000000000E+00  0.91545385960E+03  0.91545385960E+03  0.25500000920E-02 0.  1.
        2   -1    0    0  501    0  0.00000000000E+00  0.00000000000E+00 -0.27798787947E+04  0.27798787947E+04  0.25500000920E-02 0. -1.
    10030    2    1    2    0    0  0.00000000000E+00  0.00000000000E+00 -0.18644249351E+04  0.36953326543E+04  0.31905176833E+04 0.  0.
        1    1    3    3  502    0 -0.13939356313E+04  0.45347870719E+03 -0.20322020150E+03  0.14798641601E+04  0.50400001928E-02 0.  1.
       -1    1    3    3    0  502  0.13939356313E+04 -0.45347870719E+03 -0.16612047336E+04  0.22154684942E+04  0.50400001928E-02 0. -1.
</event>
<event>
 5   0  0.2891204E-07  0.3198022E+04  0.7818609E-02  0.8189340E-01
       -1   -1    0    0    0  501  0.00000000000E+00  0.00000000000E+00  0.24529796596E+04  0.24529796596E+04  0.50400001928E-02 0.  1.
        1   -1    0    0  501    0  0.00000000000E+00  0.00000000000E+00 -0.10423391156E+04  0.10423391157E+04  0.50400001928E-02 0. -1.
    10030    2    1    2    0    0  0.00000000000E+00  0.00000000000E+00  0.14106405440E+04  0.34953187753E+04  0.31980222946E+04 0.  0.
        4    1    3    3  502    0 -0.15472226525E+03 -0.84767356443E+03 -0.76687462800E+03  0.11535110572E+04  0.12699999809E+01 0. -1.
       -4    1    3    3    0  502  0.15472226525E+03  0.84767356443E+03  0.21775151720E+04  0.23418077181E+04  0.12699999809E+01 0.  1.
</event>
<event>
 5   0  0.3075756E-07  0.3207451E+04  0.7818609E-02  0.8186852E-01
       -1   -1    0    0    0  501  0.00000000000E+00  0.00000000000E+00  0.10740798965E+04  0.10740798965E+04  0.50400001928E-02 0. -1.
        1   -1    0    0  501    0  0.00000000000E+00  0.00000000000E+00 -0.23945482936E+04  0.23945482936E+04  0.50400001928E-02 0.  1.
    10030    2    1    2    0    0  0.00000000000E+00  0.00000000000E+00 -0.13204683971E+04  0.34686281901E+04  0.32074514390E+04 0.  0.
        5    1    3    3  502    0  0.96521020434E+03 -0.12784854911E+04 -0.57817237345E+03  0.17030740656E+04  0.46999998093E+01 0. -1.
       -5    1    3    3    0  502 -0.96521020434E+03  0.12784854911E+04 -0.74229602361E+03  0.17655541244E+04  0.46999998093E+01 0.  1.
</event>
<event>
 5   0  0.2783875E-07  0.3199746E+04  0.7818609E-02  0.8188884E-01
       -1   -1    0    0    0  501  0.00000000000E+00  0.00000000000E+00  0.17059181083E+04  0.17059181083E+04  0.50400001928E-02 0.  1.
        1   -1    0    0  501    0  0.00000000000E+00  0.00000000000E+00 -0.15004197887E+04  0.15004197887E+04  0.50400001928E-02 0. -1.
    10030    2    1    2    0    0  0.00000000000E+00  0.00000000000E+00  0.20549831955E+03  0.32063378970E+04  0.31997457946E+04 0.  0.
        2    1    3    3  502    0 -0.33808662174E+03 -0.55936289476E+03 -0.13605345669E+04  0.15093852125E+04  0.25500000920E-02 0. -1.
       -2    1    3    3    0  502  0.33808662174E+03  0.55936289476E+03  0.15660328865E+04  0.16969526845E+04  0.25500000920E-02 0.  1.
</event>
<event>
 5   0  0.2783875E-07  0.3196877E+04  0.7818609E-02  0.8189642E-01
       -1   -1    0    0    0  501  0.00000000000E+00  0.00000000000E+00  0.15752390541E+04  0.15752390541E+04  0.50400001928E-02 0. -1.
        1   -1    0    0  501    0  0.00000000000E+00  0.00000000000E+00 -0.16219798956E+04  0.16219798957E+04  0.50400001928E-02 0.  1.
    10030    2    1    2    0    0  0.00000000000E+00  0.00000000000E+00 -0.46740841564E+02  0.31972189497E+04  0.31968772742E+04 0.  0.
        2    1    3    3  502    0  0.74644728728E+03 -0.13919930206E+04 -0.26870859272E+03  0.16021961271E+04  0.25500000920E-02 0.  1.
       -2    1    3    3    0  502 -0.74644728728E+03  0.13919930206E+04  0.22196775116E+03  0.15950228226E+04  0.25500000920E-02 0. -1.
</event>
<event>
 5   0  0.3075756E-07  0.3201399E+04  0.7818609E-02  0.8188448E-01
        1   -1    0    0  501    0  0.00000000000E+00  0.00000000000E+00  0.17794981206E+04  0.17794981206E+04  0.50400001928E-02 0. -1.
       -1   -1    0    0    0  501  0.00000000000E+00  0.00000000000E+00 -0.14398662168E+04  0.14398662168E+04  0.50400001928E-02 0.  1.
    10030    2    1    2    0    0  0.00000000000E+00  0.00000000000E+00  0.33963190381E+03  0.32193643374E+04  0.32013992108E+04 0.  0.
        5    1    3    3  502    0  0.59813228781E+02  0.15977816352E+04  0.24595981737E+03  0.16177150855E+04  0.46999998093E+01 0. -1.
       -5    1    3    3    0  502 -0.59813228781E+02 -0.15977816352E+04  0.93672086443E+02  0.16016492519E+04  0.46999998093E+01 0.  1.
</event>
<event>
 5   0  0.8838951E-07  0.3208146E+04  0.7818609E-02  0.8186669E-01
        2   -1    0    0  501    0  0.00000000000E+00  0.00000000000E+00  0.25377991594E+04  0.25377991594E+04  0.25500000920E-02 0.  1.
       -2   -1    0    0    0  501  0.00000000000E+00  0.00000000000E+00 -0.10138901547E+04  0.10138901547E+04  0.25500000920E-02 0. -1.
    10030    2    1    2    0    0  0.00000000000E+00  0.00000000000E+00  0.15239090047E+04  0.35516893141E+04  0.32081456215E+04 0.  0.
        2    1    3    3  502    0 -0.83564911923E+03 -0.30270393526E+03 -0.71637083066E+03  0.11415455707E+04  0.25500000920E-02 0. -1.
       -2    1    3    3    0  502  0.83564911923E+03  0.30270393526E+03  0.22402798354E+04  0.24101437434E+04  0.25500000920E-02 0.  1.
</event>
<event>
 5   0  0.2891204E-07  0.3200134E+04  0.7818609E-02  0.8188782E-01
       -1   -1    0    0    0  501  0.00000000000E+00  0.00000000000E+00  0.14783245699E+04  0.14783245700E+04  0.50400001928E-02 0.  1.
        1   -1    0    0  501    0  0.00000000000E+00  0.00000000000E+00 -0.17318356161E+04  0.17318356161E+04  0.50400001928E-02 0. -1.
    10030    2    1    2    0    0  0.00000000000E+00  0.00000000000E+00 -0.25351104615E+03  0.32101601860E+04  0.32001344612E+04 0.  0.
        4    1    3    3  502    0 -0.66989248745E+02 -0.12881570671E+04  0.82298268977E+03  0.15300778769E+04  0.12699999809E+01 0.  1.
       -4    1    3    3    0  502  0.66989248745E+02  0.12881570671E+04 -0.10764937359E+04  0.16800823091E+04  0.12699999809E+01 0. -1.
</event>
<event>
 5   0  0.3013888E-07  0.3215658E+04  0.7818609E-02  0.8184694E-01
       -1   -1    0    0    0  501  0.00000000000E+00  0.00000000000E+00  0.15191756428E+04  0.15191756429E+04  0.50400001928E-02 0. -1.
        1   -1    0    0  501    0  0.00000000000E+00  0.00000000000E+00 -0.17016553822E+04  0.17016553822E+04  0.50400001928E-02 0.  1.
    10030    2    1    2    0    0  0.00000000000E+00  0.00000000000E+00 -0.18247973940E+03  0.32208310251E+04  0.32156575746E+04 0.  0.
        1    1    3    3  502    0 -0.12374352506E+04 -0.65085222765E+03  0.70392576028E+03  0.15653645255E+04  0.50400001928E-02 0. -1.
       -1    1    3    3    0  502  0.12374352506E+04  0.65085222765E+03 -0.88640549968E+03  0.16554664996E+04  0.50400001928E-02 0.  1.
</event>
<event>
 5   0  0.3013888E-07  0.3208298E+04  0.7818609E-02  0.8186629E-01
       -1   -1    0    0    0  501  0.00000000000E+00  0.00000000000E+00  0.18076719944E+04  0.18076719944E+04  0.50400001928E-02 0.  1.
        1   -1    0    0  501    0  0.00000000000E+00  0.00000000000E+00 -0.14235406407E+04  0.14235406408E+04  0.50400001928E-02 0. -1.
    10030    2    1    2    0    0  0.00000000000E+00  0.00000000000E+00  0.38413135362E+03  0.32312126351E+04  0.32082983335E+04 0.  0.
        1    1    3    3  502    0  0.57493227130E+03  0.13482561475E+04  0.84860559531E+03  0.16936567575E+04  0.50400001928E-02 0.  1.
       -1    1    3    3    0  502 -0.57493227130E+03 -0.13482561475E+04 -0.46447424168E+03  0.15375558777E+04  0.50400001928E-02 0. -1.
</event>
<event>
 5   0  0.8335929E-07  0.3173392E+04  0.7818609E-02  0.8195880E-01
       -2   -1    0    0    0  501  0.00000000000E+00  0.00000000000E+00  0.19497729278E+04  0.19497729278E+04  0.25500000920E-02 0.  1.
        2   -1    0    0  501    0  0.00000000000E+00  0.00000000000E+00 -0.12912291655E+04  0.12912291655E+04  0.25500000920E-02 0. -1.
    10030    2    1    2    0    0  0.00000000000E+00  0.00000000000E+00  0.65854376232E+03  0.32410020933E+04  0.31733916686E+04 0.  0.
        4    1    3    3  502    0 -0.10993385410E+04  0.10747975349E+04  0.72988807742E+03  0.17019028136E+04  0.12699999809E+01 0.  1.
       -4    1    3    3    0  502  0.10993385410E+04 -0.10747975349E+04 -0.71344315099E+02  0.15390992797E+04  0.12699999809E+01 0. -1.
</event>
<event>
 5   0  0.2997105E-07  0.3204856E+04  0.7818609E-02  0.8187536E-01
       -1   -1    0    0    0  501  0.00000000000E+00  0.00000000000E+00  0.21192543209E+04  0.21192543209E+04  0.50400001928E-02 0.  1.
        1   -1    0    0  501    0  0.00000000000E+00  0.00000000000E+00 -0.12116413623E+04  0.12116413623E+04  0.50400001928E-02 0. -1.
    10030    2    1    2    0    0  0.00000000000E+00  0.00000000000E+00  0.90761295854E+03  0.33308956832E+04  0.32048564351E+04 0.  0.
        3    1    3    3  502    0  0.71068916477E+03 -0.14158082056E+04  0.20310606379E+03  0.15971362019E+04  0.10100000352E+00 0.  1.
       -3    1    3    3    0  502 -0.71068916477E+03  0.14158082056E+04  0.70450689474E+03  0.17337594813E+04  0.10100000352E+00 0. -1.
</event>
<event>
 5   0  0.8335929E-07  0.3161525E+04  0.7818609E-02  0.8199053E-01
        2   -1    0    0  501    0  0.00000000000E+00  0.00000000000E+00  0.22971963368E+04  0.22971963368E+04  0.25500000920E-02 0. -1.
       -2   -1    0    0    0  501  0.00000000000E+00  0.00000000000E+00 -0.10877652637E+04  0.10877652637E+04  0.25500000920E-02 0.  1.
    10030    2    1    2    0    0  0.00000000000E+00  0.00000000000E+00  0.12094310731E+04  0.33849616005E+04  0.31615251884E+04 0.  0.
        4    1    3    3  502    0 -0.15275181387E+03 -0.12496617049E+04  0.16282152655E+04  0.20581725042E+04  0.12699999809E+01 0. -1.
       -4    1    3    3    0  502  0.15275181387E+03  0.12496617049E+04 -0.41878419246E+03  0.13267890963E+04  0.12699999809E+01 0.  1.
</event>
<event>
 5   0  0.8488469E-07  0.3201653E+04  0.7818609E-02  0.8188381E-01
        2   -1    0    0  501    0  0.00000000000E+00  0.00000000000E+00  0.32138642350E+04  0.32138642350E+04  0.25500000920E-02 0.  1.
       -2   -1    0    0    0  501  0.00000000000E+00  0.00000000000E+00 -0.79737187530E+03  0.79737187531E+03  0.25500000920E-02 0. -1.
    10030    2    1    2    0    0  0.00000000000E+00  0.00000000000E+00  0.24164923597E+04  0.40112361103E+04  0.32016526682E+04 0.  0.
        3    1    3    3  502    0  0.15819470746E+03 -0.14106087300E+04  0.28095533733E+03  0.14469894493E+04  0.10100000352E+00 0. -1.
       -3    1    3    3    0  502 -0.15819470746E+03  0.14106087300E+04  0.21355370223E+04  0.25642466610E+04  0.10100000352E+00 0.  1.
</event>
<event>
 5   0  0.8195618E-07  0.3198785E+04  0.7818609E-02  0.8189138E-01
       -2   -1    0    0    0  501  0.00000000000E+00  0.00000000000E+00  0.12289350806E+04  0.12289350806E+04  0.25500000920E-02 0. -1.
        2   -1    0    0  501    0  0.00000000000E+00  0.00000000000E+00 -0.20815230357E+04  0.20815230357E+04  0.25500000920E-02 0.  1.
    10030    2    1    2    0    0  0.00000000000E+00  0.00000000000E+00 -0.85258795505E+03  0.33104581163E+04  0.31987851942E+04 0.  0.
        1    1    3    3  502    0  0.80667625970E+03 -0.57382997024E+03  0.87376572831E+03  0.13204067444E+04  0.50400001928E-02 0. -1.
       -1    1    3    3    0  502 -0.80667625970E+03  0.57382997024E+03 -0.17263536834E+04  0.19900513719E+04  0.50400001928E-02 0.  1.
</event>
<event>
 5   0  0.8335929E-07  0.3202377E+04  0.7818609E-02  0.8188190E-01
        2   -1    0    0  501    0  0.00000000000E+00  0.00000000000E+00  0.13834605894E+04  0.13834605894E+04  0.25500000920E-02 0. -1.
       -2   -1    0    0    0  501  0.00000000000E+00  0.00000000000E+00 -0.18531824787E+04  0.18531824787E+04  0.25500000920E-02 0.  1.
    10030    2    1    2    0    0  0.00000000000E+00  0.00000000000E+00 -0.46972188925E+03  0.32366430681E+04  0.32023771947E+04 0.  0.
        4    1    3    3  502    0  0.28815807446E+03 -0.14880094749E+04 -0.75671512894E+03  0.16940562778E+04  0.12699999809E+01 0.  1.
       -4    1    3    3    0  502 -0.28815807446E+03  0.14880094749E+04  0.28699323969E+03  0.15425867903E+04  0.12699999809E+01 0. -1.
</event>
<event>
 5   0  0.2997105E-07  0.3204014E+04  0.7818609E-02  0.8187758E-01
        1   -1    0    0  501    0  0.00000000000E+00  0.00000000000E+00  0.26513206507E+04  0.26513206507E+04  0.50400001928E-02 0.  1.
       -1   -1    0    0    0  501  0.00000000000E+00  0.00000000000E+00 -0.96798021932E+03  0.96798021933E+03  0.50400001928E-02 0. -1.
    10030    2    1    2    0    0  0.00000000000E+00  0.00000000000E+00  0.16833404314E+04  0.36193008701E+04  0.32040136985E+04 0.  0.
        3    1    3    3  502    0 -0.16137507385E+03  0.15887472484E+04  0.69760027086E+03  0.17426433605E+04  0.10100000352E+00 0. -1.
       -3    1    3    3    0  502  0.16137507385E+03 -0.15887472484E+04  0.98574016056E+03  0.18766575096E+04  0.10100000352E+00 0.  1.
</event>
<event>
 5   0  0.8488469E-07  0.3206185E+04  0.7818609E-02  0.8187186E-01
        2   -1    0    0  501    0  0.00000000000E+00  0.00000000000E+00  0.15730633436E+04  0.15730633436E+04  0.25500000920E-02 0. -1.
       -2   -1    0    0    0  501  0.00000000000E+00  0.00000000000E+00 -0.16336945622E+04  0.16336945622E+04  0.25500000920E-02 0.  1.
    10030    2    1    2    0    0  0.00000000000E+00  0.00000000000E+00 -0.60631218571E+02  0.32067579058E+04  0.32061846675E+04 0.  0.
        3    1    3    3  502    0 -0.11454137200E+03 -0.14606750005E+04 -0.68098079570E+03  0.16156812920E+04  0.10100000352E+00 0.  1.
       -3    1    3    3    0  502  0.11454137200E+03  0.14606750005E+04  0.62034957712E+03  0.15910766138E+04  0.10100000352E+00 0. -1.
</event>
<event>
 5   0  0.3013888E-07  0.3212364E+04  0.7818609E-02  0.8185560E-01
       -1   -1    0    0    0  501  0.00000000000E+00  0.00000000000E+00  0.14910494848E+04  0.14910494848E+04  0.50400001928E-02 0. -1.
        1   -1    0    0  501    0  0.00000000000E+00  0.00000000000E+00 -0.17302041432E+04  0.17302041432E+04  0.50400001928E-02 0.  1.
    10030    2    1    2    0    0  0.00000000000E+00  0.00000000000E+00 -0.23915465841E+03  0.32212536279E+04  0.32123636134E+04 0.  0.
        1    1    3    3  502    0 -0.15740255359E+04  0.24705861179E+03 -0.32318024050E+03  0.16257428496E+04  0.50400001928E-02 0. -1.
       -1    1    3    3    0  502  0.15740255359E+04 -0.24705861179E+03  0.84025582092E+02  0.15955107783E+04  0.50400001928E-02 0.  1.
</event>
<event>
 5   0  0.8335929E-07  0.3192588E+04  0.7818609E-02  0.8190777E-01
        2   -1    0    0  501    0  0.00000000000E+00  0.00000000000E+00  0.11580562585E+04  0.11580562585E+04  0.25500000920E-02 0. -1.
       -2   -1    0    0    0  501  0.00000000000E+00  0.00000000000E+00 -0.22003716155E+04  0.22003716155E+04  0.25500000920E-02 0.  1.
    10030    2    1    2    0    0  0.00000000000E+00  0.00000000000E+00 -0.10423153570E+04  0.33584278740E+04  0.31925877406E+04 0.  0.
        4    1    3    3  502    0  0.13425927916E+04 -0.14619005901E+03 -0.14163783693E+04  0.19570529465E+04  0.12699999809E+01 0.  1.
       -4    1    3    3    0  502 -0.13425927916E+04  0.14619005901E+03  0.37406301235E+03  0.14013749275E+04  0.12699999809E+01 0. -1.
</event>
<event>
 5   0  0.8838951E-07  0.3255278E+04  0.7818609E-02  0.8174369E-01
       -2   -1    0    0    0  501  0.00000000000E+00  0.00000000000E+00  0.14914635016E+04  0.14914635016E+04  0.25500000920E-02 0. -1.
        2   -1    0    0  501    0  0.00000000000E+00  0.00000000000E+00 -0.17762477922E+04  0.17762477922E+04  0.25500000920E-02 0.  1.
    10030    2    1    2    0    0  0.00000000000E+00  0.00000000000E+00 -0.28478429064E+03  0.32677112938E+04  0.32552780231E+04 0.  0.
        2    1    3    3  502    0  0.10406187856E+04 -0.52705399623E+03 -0.12818644311E+04  0.17331617904E+04  0.25500000920E-02 0.  1.
       -2    1    3    3    0  502 -0.10406187856E+04  0.52705399623E+03  0.99708014046E+03  0.15345495034E+04  0.25500000920E-02 0. -1.
</event>
<event>
 5   0  0.8195618E-07  0.3190144E+04  0.7818609E-02  0.8191425E-01
        2   -1    0    0  501    0  0.00000000000E+00  0.00000000000E+00  0.18690024820E+04  0.18690024820E+04  0.25500000920E-02 0.  1.
       -2   -1    0    0    0  501  0.00000000000E+00  0.00000000000E+00 -0.13612904516E+04  0.13612904516E+04  0.25500000920E-02 0. -1.
    10030    2    1    2    0    0  0.00000000000E+00  0.00000000000E+00  0.50771203045E+03  0.32302929336E+04  0.31901443433E+04 0.  0.
        1    1    3    3  502    0 -0.23322657764E+03 -0.82170882151E+03 -0.11101887818E+04  0.14007566366E+04  0.50400001928E-02 0. -1.
       -1    1    3    3    0  502  0.23322657764E+03  0.82170882151E+03  0.16179008122E+04  0.18295362970E+04  0.50400001928E-02 0.  1.
</event>
<event>
 5   0  0.8195618E-07  0.3168159E+04  0.7818609E-02  0.8197277E-01
       -2   -1    0    0    0  501  0.00000000000E+00  0.00000000000E+00  0.10485201837E+04  0.10485201837E+04  0.25500000920E-02 0. -1.
        2   -1    0    0  501    0  0.00000000000E+00  0.00000000000E+00 -0.23931894814E+04  0.23931894814E+04  0.25500000920E-02 0.  1.
    10030    2    1    2    0    0  0.00000000000E+00  0.00000000000E+00 -0.13446692977E+04  0.34417096651E+04  0.31681587553E+04 0.  0.
        1    1    3    3  502    0  0.49284943435E+03  0.63370622724E+03  0.81116054013E+03  0.11412561366E+04  0.50400001928E-02 0. -1.
       -1    1    3    3    0  502 -0.49284943435E+03 -0.63370622724E+03 -0.21558298378E+04  0.23004535286E+04  0.50400001928E-02 0.  1.
</event>
<event>
 5   0  0.8838951E-07  0.3195005E+04  0.7818609E-02  0.8190137E-01
       -2   -1    0    0    0  501  0.00000000000E+00  0.00000000000E+00  0.17716979129E+04  0.17716979129E+04  0.25500000920E-02 0.  1.
        2   -1    0    0  501    0  0.00000000000E+00  0.00000000000E+00 -0.14404345237E+04  0.14404345237E+04  0.25500000920E-02 0. -1.
    10030    2    1    2    0    0  0.00000000000E+00  0.00000000000E+00  0.33126338926E+03  0.32121324366E+04  0.31950053767E+04 0.  0.
        2    1    3    3  502    0  0.63548177642E+03 -0.91097322258E+03 -0.98869805365E+03  0.14870215673E+04  0.25500000920E-02 0. -1.
       -2    1    3    3    0  502 -0.63548177642E+03  0.91097322258E+03  0.13199614429E+04  0.17251108692E+04  0.25500000920E-02 0.  1.
</event>
<event>
 5   0  0.2783875E-07  0.3200362E+04  0.7818609E-02  0.8188722E-01
        1   -1    0    0  501    0  0.00000000000E+00  0.00000000000E+00  0.20626871421E+04  0.20626871421E+04  0.50400001928E-02 0. -1.
       -1   -1    0    0    0  501  0.00000000000E+00  0.00000000000E+00 -0.12413803668E+04  0.12413803668E+04  0.50400001928E-02 0.  1.
    10030    2    1    2    0    0  0.00000000000E+00  0.00000000000E+00  0.82130677536E+03  0.33040675089E+04  0.32003620552E+04 0.  0.
        2    1    3    3  502    0 -0.16764752153E+03  0.77220124918E+03  0.18472093094E+04  0.20091248576E+04  0.25500000920E-02 0. -1.
       -2    1    3    3    0  502  0.16764752153E+03 -0.77220124918E+03 -0.10259025341E+04  0.12949426513E+04  0.25500000920E-02 0.  1.
</event>
<event>
 5   0  0.2783875E-07  0.3201679E+04  0.7818609E-02  0.8188374E-01
        1   -1    0    0  501    0  0.00000000000E+00  0.00000000000E+00  0.19929977915E+04  0.19929977916E+04  0.50400001928E-02 0.  1.
       -1   -1    0    0    0  501  0.00000000000E+00  0.00000000000E+00 -0.12858455985E+04  0.12858455985E+04  0.50400001928E-02 0. -1.
    10030    2    1    2    0    0  0.00000000000E+00  0.00000000000E+00  0.70715219301E+03  0.32788433901E+04  0.32016792083E+04 0.  0.
        2    1    3    3  502    0 -0.12773381487E+04  0.42181155041E+00  0.13417644744E+04  0.18525454998E+04  0.25500000920E-02 0.  1.
       -2    1    3    3    0  502  0.12773381487E+04 -0.42181155041E+00 -0.63461228141E+03  0.14262978903E+04  0.25500000920E-02 0. -1.
</event>
<event>
 5   0  0.2891204E-07  0.3200105E+04  0.7818609E-02  0.8188789E-01
        1   -1    0    0  501    0  0.00000000000E+00  0.00000000000E+00  0.20414312447E+04  0.20414312447E+04  0.50400001928E-02 0. -1.
       -1   -1    0    0    0  501  0.00000000000E+00  0.00000000000E+00 -0.12541043328E+04  0.12541043328E+04  0.50400001928E-02 0.  1.
    10030    2    1    2    0    0  0.00000000000E+00  0.00000000000E+00  0.78732691185E+03  0.32955355775E+04  0.32001048540E+04 0.  0.
        4    1    3    3  502    0 -0.13190301774E+04  0.23000260106E+02 -0.53876353229E+03  0.14250043429E+04  0.12699999809E+01 0.  1.
       -4    1    3    3    0  502  0.13190301774E+04 -0.23000260106E+02  0.13260904441E+04  0.18705312346E+04  0.12699999809E+01 0. -1.
</event>
<event>
 5   0  0.3075756E-07  0.3181090E+04  0.7818609E-02  0.8193829E-01
       -1   -1    0    0    0  501  0.00000000000E+00  0.00000000000E+00  0.20363658123E+04  0.20363658123E+04  0.50400001928E-02 0. -1.
        1   -1    0    0  501    0  0.00000000000E+00  0.00000000000E+00 -0.12423278373E+04  0.12423278373E+04  0.50400001928E-02 0.  1.
    10030    2    1    2    0    0  0.00000000000E+00  0.00000000000E+00  0.79403797501E+03  0.32786936496E+04  0.31810903385E+04 0.  0.
        5    1    3    3  502    0 -0.15245304657E+03 -0.15515028060E+04  0.72053233954E+02  0.15606462274E+04  0.46999998093E+01 0. -1.
       -5    1    3    3    0  502  0.15245304657E+03  0.15515028060E+04  0.72198474106E+03  0.17180474222E+04  0.46999998093E+01 0.  1.
</event>
<event>
 5   0  0.3075756E-07  0.3188559E+04  0.7818609E-02  0.8191845E-01
       -1   -1    0    0    0  501  0.00000000000E+00  0.00000000000E+00  0.12353640039E+04  0.12353640039E+04  0.50400001928E-02 0.  1.
        1   -1    0    0  501    0  0.00000000000E+00  0.00000000000E+00 -0.20574723432E+04  0.20574723432E+04  0.50400001928E-02 0. -1.
    10030    2    1    2    0    0  0.00000000000E+00  0.00000000000E+00 -0.82210833932E+03  0.32928363471E+04  0.31885590927E+04 0.  0.
        5    1    3    3  502    0 -0.34581661575E+03 -0.25433048829E+03 -0.19966601274E+04  0.20422896179E+04  0.46999998093E+01 0. -1.
       -5    1    3    3    0  502  0.34581661575E+03  0.25433048829E+03  0.11745517881E+04  0.12505467292E+04  0.46999998093E+01 0.  1.
</event>
<event>
 5   0  0.8488469E-07  0.3198577E+04  0.7818609E-02  0.8189193E-01
        2   -1    0    0  501    0  0.00000000000E+00  0.00000000000E+00  0.19767900297E+04  0.19767900297E+04  0.25500000920E-02 0. -1.
       -2   -1    0    0    0  501  0.00000000000E+00  0.00000000000E+00 -0.12938769611E+04  0.12938769611E+04  0.25500000920E-02 0.  1.
    10030    2    1    2    0    0  0.00000000000E+00  0.00000000000E+00  0.68291306858E+03  0.32706669908E+04  0.31985766061E+04 0.  0.
        3    1    3    3  502    0  0.82382166652E+03  0.10995855287E+04 -0.49549750069E+03  0.14605780556E+04  0.10100000352E+00 0.  1.
       -3    1    3    3    0  502 -0.82382166652E+03 -0.10995855287E+04  0.11784105693E+04  0.18100889351E+04  0.10100000352E+00 0. -1.
</event>
<event>
 5   0  0.8488469E-07  0.3212059E+04  0.7818609E-02  0.8185640E-01
       -2   -1    0    0    0  501  0.00000000000E+00  0.00000000000E+00  0.10004893929E+04  0.10004893929E+04  0.25500000920E-02 0.  1.
        2   -1    0    0  501    0  0.00000000000E+00  0.00000000000E+00 -0.25780696460E+04  0.25780696460E+04  0.25500000920E-02 0. -1.
    10030    2    1    2    0    0  0.00000000000E+00  0.00000000000E+00 -0.15775802532E+04  0.35785590389E+04  0.32120593612E+04 0.  0.
        3    1    3    3  502    0  0.92361731281E+03  0.42936189443E+03  0.59463048411E+03  0.11794091740E+04  0.10100000352E+00 0.  1.
       -3    1    3    3    0  502 -0.92361731281E+03 -0.42936189443E+03 -0.21722107373E+04  0.23991498649E+04  0.10100000352E+00 0. -1.
</event>
<event>
 5   0  0.3075756E-07  0.3206479E+04  0.7818609E-02  0.8187108E-01
        1   -1    0    0  501    0  0.00000000000E+00  0.00000000000E+00  0.21511050303E+04  0.21511050303E+04  0.50400001928E-02 0. -1.
       -1   -1    0    0    0  501  0.00000000000E+00  0.00000000000E+00 -0.11949103131E+04  0.11949103131E+04  0.50400001928E-02 0.  1.
    10030    2    1    2    0    0  0.00000000000E+00  0.00000000000E+00  0.95619471724E+03  0.33460153434E+04  0.32064794309E+04 0.  0.
        5    1    3    3  502    0  0.77739002025E+03 -0.13015240018E+04  0.10223847132E+04  0.18285493054E+04  0.46999998093E+01 0. -1.
       -5    1    3    3    0  502 -0.77739002025E+03  0.13015240018E+04 -0.66189995917E+02  0.15174660379E+04  0.46999998093E+01 0.  1.
</event>
<event>
 5   0  0.8195618E-07  0.3285642E+04  0.7818609E-02  0.8166558E-01
       -2   -1    0    0    0  501  0.00000000000E+00  0.00000000000E+00  0.24065101945E+04  0.24065101945E+04  0.25500000920E-02 0. -1.
        2   -1    0    0  501    0  0.00000000000E+00  0.00000000000E+00 -0.11214833791E+04  0.11214833791E+04  0.25500000920E-02 0.  1.
    10030    2    1    2    0    0  0.00000000000E+00  0.00000000000E+00  0.12850268155E+04  0.35279935736E+04  0.32856422110E+04 0.  0.
        1    1    3    3  502    0  0.11724488564E+04 -0.19769238515E+03  0.18597729098E+04  0.22073680880E+04  0.50400001928E-02 0. -1.
       -1    1    3    3    0  502 -0.11724488564E+04  0.19769238515E+03 -0.57474609437E+03  0.13206254855E+04  0.50400001928E-02 0.  1.
</event>
<event>
 5   0  0.2783875E-07  0.3208118E+04  0.7818609E-02  0.8186677E-01
        1   -1    0    0  501    0  0.00000000000E+00  0.00000000000E+00  0.28244923783E+04  0.28244923783E+04  0.50400001928E-02 0.  1.
       -1   -1    0    0    0  501  0.00000000000E+00  0.00000000000E+00 -0.91096196687E+03  0.91096196688E+03  0.50400001928E-02 0. -1.
    10030    2    1    2    0    0  0.00000000000E+00  0.00000000000E+00  0.19135304114E+04  0.37354543452E+04  0.32081179108E+04 0.  0.
        2    1    3    3  502    0  0.92781657260E+03 -0.68310531857E+03 -0.34271591458E+03  0.12020526888E+04  0.25500000920E-02 0. -1.
       -2    1    3    3    0  502 -0.92781657260E+03  0.68310531857E+03  0.22562463260E+04  0.25334016563E+04  0.25500000920E-02 0.  1.
</event>
<event>
 5   0  0.8488469E-07  0.3194286E+04  0.7818609E-02  0.8190328E-01
       -2   -1    0    0    0  501  0.00000000000E+00  0.00000000000E+00  0.28392624862E+04  0.28392624862E+04  0.25500000920E-02 0. -1.
        2   -1    0    0  501    0  0.00000000000E+00  0.00000000000E+00 -0.89842564521E+03  0.89842564521E+03  0.25500000920E-02 0.  1.
    10030    2    1    2    0    0  0.00000000000E+00  0.00000000000E+00  0.19408368410E+04  0.37376881314E+04  0.31942862934E+04 0.  0.
        3    1    3    3  502    0 -0.39411960157E+03  0.48115042334E+03  0.26917355288E+04  0.27626574448E+04  0.10100000352E+00 0. -1.
       -3    1    3    3    0  502  0.39411960157E+03 -0.48115042334E+03 -0.75089868782E+03  0.97503068659E+03  0.10100000352E+00 0.  1.
</event>
<event>
 5   0  0.8335929E-07  0.3209543E+04  0.7818609E-02  0.8186301E-01
       -2   -1    0    0    0  501  0.00000000000E+00  0.00000000000E+00  0.15209813992E+04  0.15209813993E+04  0.25500000920E-02 0. -1.
        2   -1    0    0  501    0  0.00000000000E+00  0.00000000000E+00 -0.16931777320E+04  0.16931777320E+04  0.25500000920E-02 0.  1.
    10030    2    1    2    0    0  0.00000000000E+00  0.00000000000E+00 -0.17219633278E+03  0.32141591313E+04  0.32095431675E+04 0.  0.
        4    1    3    3  502    0  0.10933184288E+02  0.15393050113E+04 -0.54030395965E+03  0.16314133241E+04  0.12699999809E+01 0.  1.
       -4    1    3    3    0  502 -0.10933184288E+02 -0.15393050113E+04  0.36810762687E+03  0.15827458072E+04  0.12699999809E+01 0. -1.
</event>
<event>
 5   0  0.8802800E-07  0.3197354E+04  0.7818609E-02  0.8189516E-01
        2   -1    0    0  501    0  0.00000000000E+00  0.00000000000E+00  0.24005721815E+04  0.24005721815E+04  0.25500000920E-02 0.  1.
       -2   -1    0    0    0  501  0.00000000000E+00  0.00000000000E+00 -0.10646494041E+04  0.10646494041E+04  0.25500000920E-02 0. -1.
    10030    2    1    2    0    0  0.00000000000E+00  0.00000000000E+00  0.13359227774E+04  0.34652215856E+04  0.31973537449E+04 0.  0.
        5    1    3    3  502    0 -0.12001873653E+04  0.32418215562E+03 -0.42133084523E+03  0.13126635338E+04  0.46999998093E+01 0. -1.
       -5    1    3    3    0  502  0.12001873653E+04 -0.32418215562E+03  0.17572536227E+04  0.21525580518E+04  0.46999998093E+01 0.  1.
</event>
<event>
 5   0  0.3013888E-07  0.3193828E+04  0.7818609E-02  0.8190449E-01
        1   -1    0    0  501    0  0.00000000000E+00  0.00000000000E+00  0.19695239571E+04  0.19695239571E+04  0.50400001928E-02 0. -1.
       -1   -1    0    0    0  501  0.00000000000E+00  0.00000000000E+00 -0.12947973007E+04  0.12947973007E+04  0.50400001928E-02 0.  1.
    10030    2    1    2    0    0  0.00000000000E+00  0.00000000000E+00  0.67472665638E+03  0.32643212578E+04  0.31938279874E+04 0.  0.
        1    1    3    3  502    0  0.88421852479E+03 -0.11761456152E+04 -0.29679358295E+03  0.15010820559E+04  0.50400001928E-02 0.  1.
       -1    1    3    3    0  502 -0.88421852479E+03  0.11761456152E+04  0.97152023933E+03  0.17632392019E+04  0.50400001928E-02 0. -1.
</event>
<event>
 5   0  0.2997105E-07  0.3192714E+04  0.7818609E-02  0.8190744E-01
        1   -1    0    0  501    0  0.00000000000E+00  0.00000000000E+00  0.22942225583E+04  0.22942225583E+04  0.50400001928E-02 0.  1.
       -1   -1    0    0    0  501  0.00000000000E+00  0.00000000000E+00 -0.11107706087E+04  0.11107706087E+04  0.50400001928E-02 0. -1.
    10030    2    1    2    0    0  0.00000000000E+00  0.00000000000E+00  0.11834519496E+04  0.34049931670E+04  0.31927135716E+04 0.  0.
        3    1    3    3  502    0 -0.13114087161E+04 -0.64460709138E+03 -0.93690231316E+02  0.14642708058E+04  0.10100000352E+00 0.  1.
       -3    1    3    3    0  502  0.13114087161E+04  0.64460709138E+03  0.12771421809E+04  0.19407223613E+04  0.10100000352E+00 0. -1.
</event>
<event>
 5   0  0.2891204E-07  0.3207786E+04  0.7818609E-02  0.8186764E-01
       -1   -1    0    0    0  501  0.00000000000E+00  0.00000000000E+00  0.18725569828E+04  0.18725569828E+04  0.50400001928E-02 0.  1.
        1   -1    0    0  501    0  0.00000000000E+00  0.00000000000E+00 -0.13737753097E+04  0.13737753097E+04  0.50400001928E-02 0. -1.
    10030    2    1    2    0    0  0.00000000000E+00  0.00000000000E+00  0.49878167310E+03  0.32463322926E+04  0.32077858713E+04 0.  0.
        4    1    3    3  502    0 -0.13884968423E+04 -0.59163591684E+03  0.79860390973E+03  0.17075498109E+04  0.12699999809E+01 0.  1.
       -4    1    3    3    0  502  0.13884968423E+04  0.59163591684E+03 -0.29982223663E+03  0.15387824816E+04  0.12699999809E+01 0. -1.
</event>
<event>
 5   0  0.3075756E-07  0.3182908E+04  0.7818609E-02  0.8193346E-01
       -1   -1    0    0    0  501  0.00000000000E+00  0.00000000000E+00  0.11721688535E+04  0.11721688536E+04  0.50400001928E-02 0.  1.
        1   -1    0    0  501    0  0.00000000000E+00  0.00000000000E+00 -0.21607181021E+04  0.21607181021E+04  0.50400001928E-02 0. -1.
    10030    2    1    2    0    0  0.00000000000E+00  0.00000000000E+00 -0.98854924856E+03  0.33328869557E+04  0.31829083937E+04 0.  0.
        5    1    3    3  502    0 -0.11199768252E+04 -0.92921739299E+03  0.18021315460E+03  0.14663873716E+04  0.46999998093E+01 0.  1.
       -5    1    3    3    0  502  0.11199768252E+04  0.92921739299E+03 -0.11687624032E+04  0.18664995841E+04  0.46999998093E+01 0. -1.
</event>
<event>
 5   0  0.8488469E-07  0.3177718E+04  0.7818609E-02  0.8194727E-01
       -2   -1    0    0    0  501  0.00000000000E+00  0.00000000000E+00  0.21161714156E+04  0.21161714156E+04  0.25500000920E-02 0. -1.
        2   -1    0    0  501    0  0.00000000000E+00  0.00000000000E+00 -0.11929435467E+04  0.11929435467E+04  0.25500000920E-02 0.  1.
    10030    2    1    2    0    0  0.00000000000E+00  0.00000000000E+00  0.92322786890E+03  0.33091149624E+04  0.31777180706E+04 0.  0.
        3    1    3    3  502    0 -0.68805971510E+03 -0.14254193992E+04  0.60600667226E+03  0.16948423915E+04  0.10100000352E+00 0. -1.
       -3    1    3    3    0  502  0.68805971510E+03  0.14254193992E+04  0.31722119664E+03  0.16142725708E+04  0.10100000352E+00 0.  1.
</event>
<event>
 5   0  0.2783875E-07  0.3200507E+04  0.7818609E-02  0.8188683E-01
        1   -1    0    0  501    0  0.00000000000E+00  0.00000000000E+00  0.18295950809E+04  0.18295950809E+04  0.50400001928E-02 0.  1.
       -1   -1    0    0    0  501  0.00000000000E+00  0.00000000000E+00 -0.13996601360E+04  0.13996601360E+04  0.50400001928E-02 0. -1.
    10030    2    1    2    0    0  0.00000000000E+00  0.00000000000E+00  0.42993494483E+03  0.32292552169E+04  0.32005070222E+04 0.  0.
        2    1    3    3  502    0  0.91754820179E+03 -0.16535229410E+02 -0.11077784925E+04  0.14385205264E+04  0.25500000920E-02 0. -1.
       -2    1    3    3    0  502 -0.91754820179E+03  0.16535229410E+02  0.15377134373E+04  0.17907346905E+04  0.25500000920E-02 0.  1.
</event>
<event>
 5   0  0.2891204E-07  0.3208998E+04  0.7818609E-02  0.8186445E-01
       -1   -1    0    0    0  501  0.00000000000E+00  0.00000000000E+00  0.16138546263E+04  0.16138546263E+04  0.50400001928E-02 0.  1.
        1   -1    0    0  501    0  0.00000000000E+00  0.00000000000E+00 -0.15951980555E+04  0.15951980555E+04  0.50400001928E-02 0. -1.
    10030    2    1    2    0    0  0.00000000000E+00  0.00000000000E+00  0.18656570816E+02  0.32090526818E+04  0.32089984492E+04 0.  0.
        4    1    3    3  502    0  0.11876665328E+04  0.22700590559E+03  0.10640179422E+04  0.16106580234E+04  0.12699999809E+01 0.  1.
       -4    1    3    3    0  502 -0.11876665328E+04 -0.22700590559E+03 -0.10453613714E+04  0.15983946584E+04  0.12699999809E+01 0. -1.
</event>
<event>
 5   0  0.2997105E-07  0.3205465E+04  0.7818609E-02  0.8187375E-01
       -1   -1    0    0    0  501  0.00000000000E+00  0.00000000000E+00  0.15904496614E+04  0.15904496614E+04  0.50400001928E-02 0. -1.
        1   -1    0    0  501    0  0.00000000000E+00  0.00000000000E+00 -0.16151099231E+04  0.16151099231E+04  0.50400001928E-02 0.  1.
    10030    2    1    2    0    0  0.00000000000E+00  0.00000000000E+00 -0.24660261695E+02  0.32055595846E+04  0.32054647279E+04 0.  0.
        3    1    3    3  502    0  0.11389071345E+04  0.98868929828E+03 -0.55468835111E+03  0.16069521358E+04  0.10100000352E+00 0.  1.
       -3    1    3    3    0  502 -0.11389071345E+04 -0.98868929828E+03  0.53002808941E+03  0.15986074488E+04  0.10100000352E+00 0. -1.
</event>
<event>
 5   0  0.2891204E-07  0.3204081E+04  0.7818609E-02  0.8187740E-01
       -1   -1    0    0    0  501  0.00000000000E+00  0.00000000000E+00  0.14300782976E+04  0.14300782976E+04  0.50400001928E-02 0.  1.
        1   -1    0    0  501    0  0.00000000000E+00  0.00000000000E+00 -0.17946805651E+04  0.17946805651E+04  0.50400001928E-02 0. -1.
    10030    2    1    2    0    0  0.00000000000E+00  0.00000000000E+00 -0.36460226749E+03  0.32247588626E+04  0.32040809772E+04 0.  0.
        4    1    3    3  502    0 -0.51015208776E+03  0.91246800870E+03 -0.14040873544E+04  0.17505187606E+04  0.12699999809E+01 0.  1.
       -4    1    3    3    0  502  0.51015208776E+03 -0.91246800870E+03  0.10394850869E+04  0.14742401020E+04  0.12699999809E+01 0. -1.
</event>
<event>
 5   0  0.8838951E-07  0.3197109E+04  0.7818609E-02  0.8189581E-01
       -2   -1    0    0    0  501  0.00000000000E+00  0.00000000000E+00  0.14532227426E+04  0.14532227427E+04  0.25500000920E-02 0. -1.
        2   -1    0    0  501    0  0.00000000000E+00  0.00000000000E+00 -0.17584206672E+04  0.17584206672E+04  0.25500000920E-02 0.  1.
    10030    2    1    2    0    0  0.00000000000E+00  0.00000000000E+00 -0.30519792460E+03  0.32116434099E+04  0.31971092598E+04 0.  0.
        2    1    3    3  502    0  0.24224281569E+03  0.11986406297E+04  0.88162299136E+03  0.15075410575E+04  0.25500000920E-02 0. -1.
       -2    1    3    3    0  502 -0.24224281569E+03 -0.11986406297E+04 -0.11868209160E+04  0.17041023524E+04  0.25500000920E-02 0.  1.
</event>
<event>
 5   0  0.8802800E-07  0.3217208E+04  0.7818609E-02  0.8184287E-01
        2   -1    0    0  501    0  0.00000000000E+00  0.00000000000E+00  0.18424488619E+04  0.18424488619E+04  0.25500000920E-02 0. -1.
       -2   -1    0    0    0  501  0.00000000000E+00  0.00000000000E+00 -0.14044393033E+04  0.14044393033E+04  0.25500000920E-02 0.  1.
    10030    2    1    2    0    0  0.00000000000E+00  0.00000000000E+00  0.43800955855E+03  0.32468881652E+04  0.32172084770E+04 0.  0.
        5    1    3    3  502    0  0.11730317528E+04  0.10968475079E+04  0.12591745035E+03  0.16108864774E+04  0.46999998093E+01 0. -1.
       -5    1    3    3    0  502 -0.11730317528E+04 -0.10968475079E+04  0.31209210820E+03  0.16360016879E+04  0.46999998093E+01 0.  1.
</event>
<event>
 5   0  0.8488469E-07  0.3205099E+04  0.7818609E-02  0.8187472E-01
       -2   -1    0    0    0  501  0.00000000000E+00  0.00000000000E+00  0.93752286526E+03  0.93752286526E+03  0.25500000920E-02 0.  1.
        2   -1    0    0  501    0  0.00000000000E+00  0.00000000000E+00 -0.27393095143E+04  0.27393095143E+04  0.25500000920E-02 0. -1.
    10030    2    1    2    0    0  0.00000000000E+00  0.00000000000E+00 -0.18017866491E+04  0.36768323796E+04  0.32050992526E+04 0.  0.
        3    1    3    3  502    0  0.26899043589E+03 -0.30187355976E+03  0.87804608508E+03  0.96666873251E+03  0.10100000352E+00 0.  1.
       -3    1    3    3    0  502 -0.26899043589E+03  0.30187355976E+03 -0.26798327341E+04  0.27101636471E+04  0.10100000352E+00 0. -1.
</event>
<event>
 5   0  0.8802800E-07  0.3197696E+04  0.7818609E-02  0.8189426E-01
       -2   -1    0    0    0  501  0.00000000000E+00  0.00000000000E+00  0.93438374236E+03  0.93438374237E+03  0.25500000920E-02 0.  1.
        2   -1    0    0  501    0  0.00000000000E+00  0.00000000000E+00 -0.27358301374E+04  0.27358301374E+04  0.25500000920E-02 0. -1.
    10030    2    1    2    0    0  0.00000000000E+00  0.00000000000E+00 -0.18014463950E+04  0.36702138798E+04  0.31976961721E+04 0.  0.
        5    1    3    3  502    0  0.10934390943E+04  0.78979314249E+03 -0.18860077007E+04  0.23187128752E+04  0.46999998093E+01 0. -1.
       -5    1    3    3    0  502 -0.10934390943E+04 -0.78979314249E+03  0.84561305656E+02  0.13515010045E+04  0.46999998093E+01 0.  1.
</event>
<event>
 5   0  0.2891204E-07  0.3204958E+04  0.7818609E-02  0.8187509E-01
        1   -1    0    0  501    0  0.00000000000E+00  0.00000000000E+00  0.22288290220E+04  0.22288290220E+04  0.50400001928E-02 0. -1.
       -1   -1    0    0    0  501  0.00000000000E+00  0.00000000000E+00 -0.11521474213E+04  0.11521474213E+04  0.50400001928E-02 0.  1.
    10030    2    1    2    0    0  0.00000000000E+00  0.00000000000E+00  0.10766816007E+04  0.33809764433E+04  0.32049584149E+04 0.  0.
        4    1    3    3  502    0 -0.48353741370E+03  0.14305252521E+04  0.11042022498E+04  0.18706884157E+04  0.12699999809E+01 0. -1.
       -4    1    3    3    0  502  0.48353741370E+03 -0.14305252521E+04 -0.27520649127E+02  0.15102880276E+04  0.12699999809E+01 0.  1.
</event>
<event>
 5   0  0.2997105E-07  0.3046262E+04  0.7818609E-02  0.8230642E-01
       -1   -1    0    0    0  501  0.00000000000E+00  0.00000000000E+00  0.15558041882E+04  0.15558041882E+04  0.50400001928E-02 0.  1.
        1   -1    0    0  501    0  0.00000000000E+00  0.00000000000E+00 -0.14911443141E+04  0.14911443141E+04  0.50400001928E-02 0. -1.
    10030    2    1    2    0    0  0.00000000000E+00  0.00000000000E+00  0.64659874030E+02  0.30469485023E+04  0.30462623453E+04 0.  0.
        3    1    3    3  502    0 -0.48204744379E+03  0.12454447542E+04 -0.70024624849E+03  0.15079281125E+04  0.10100000352E+00 0.  1.
       -3    1    3    3    0  502  0.48204744379E+03 -0.12454447542E+04  0.76490612252E+03  0.15390203898E+04  0.10100000352E+00 0. -1.
</event>
<event>
 5   0  0.2997105E-07  0.3196072E+04  0.7818609E-02  0.8189855E-01
        1   -1    0    0  501    0  0.00000000000E+00  0.00000000000E+00  0.16397126700E+04  0.16397126700E+04  0.50400001928E-02 0. -1.
       -1   -1    0    0    0  501  0.00000000000E+00  0.00000000000E+00 -0.15574188179E+04  0.15574188179E+04  0.50400001928E-02 0.  1.
    10030    2    1    2    0    0  0.00000000000E+00  0.00000000000E+00  0.82293852033E+02  0.31971314879E+04  0.31960721946E+04 0.  0.
        3    1    3    3  502    0  0.77556667281E+03 -0.69548132536E+03 -0.11710803724E+04  0.15673631318E+04  0.10100000352E+00 0.  1.
       -3    1    3    3    0  502 -0.77556667281E+03  0.69548132536E+03  0.12533742245E+04  0.16297683561E+04  0.10100000352E+00 0. -1.
</event>
<event>
 5   0  0.3075756E-07  0.3167896E+04  0.7818609E-02  0.8197348E-01
       -1   -1    0    0    0  501  0.00000000000E+00  0.00000000000E+00  0.12114023082E+04  0.12114023082E+04  0.50400001928E-02 0. -1.
        1   -1    0    0  501    0  0.00000000000E+00  0.00000000000E+00 -0.20710633502E+04  0.20710633503E+04  0.50400001928E-02 0.  1.
    10030    2    1    2    0    0  0.00000000000E+00  0.00000000000E+00 -0.85966104204E+03  0.32824656585E+04  0.31678957830E+04 0.  0.
        5    1    3    3  502    0 -0.10066881766E+04  0.10030365834E+02 -0.16968996724E+04  0.19730717882E+04  0.46999998093E+01 0.  1.
       -5    1    3    3    0  502  0.10066881766E+04 -0.10030365834E+02  0.83723863039E+03  0.13093938702E+04  0.46999998093E+01 0. -1.
</event>
<event>
 5   0  0.8838951E-07  0.3197258E+04  0.7818609E-02  0.8189542E-01
        2   -1    0    0  501    0  0.00000000000E+00  0.00000000000E+00  0.20777957442E+04  0.20777957442E+04  0.25500000920E-02 0.  1.
       -2   -1    0    0    0  501  0.00000000000E+00  0.00000000000E+00 -0.12299646931E+04  0.12299646931E+04  0.25500000920E-02 0. -1.
    10030    2    1    2    0    0  0.00000000000E+00  0.00000000000E+00  0.84783105104E+03  0.33077604373E+04  0.31972584536E+04 0.  0.
        2    1    3    3  502    0  0.38525148125E+03  0.21776544356E+03 -0.11653321834E+04  0.12465310224E+04  0.25500000920E-02 0. -1.
       -2    1    3    3    0  502 -0.38525148125E+03 -0.21776544356E+03  0.20131632344E+04  0.20612294149E+04  0.25500000920E-02 0.  1.
</event>
<event>
 5   0  0.8488469E-07  0.3051158E+04  0.7818609E-02  0.8229271E-01
        2   -1    0    0  501    0  0.00000000000E+00  0.00000000000E+00  0.14510493330E+04  0.14510493330E+04  0.25500000920E-02 0.  1.
       -2   -1    0    0    0  501  0.00000000000E+00  0.00000000000E+00 -0.16039367781E+04  0.16039367781E+04  0.25500000920E-02 0. -1.
    10030    2    1    2    0    0  0.00000000000E+00  0.00000000000E+00 -0.15288744512E+03  0.30549861112E+04  0.30511580701E+04 0.  0.
        3    1    3    3  502    0  0.64706712061E+03  0.12760310510E+04 -0.60667425077E+03  0.15540285578E+04  0.10100000352E+00 0.  1.
       -3    1    3    3    0  502 -0.64706712061E+03 -0.12760310510E+04  0.45378680565E+03  0.15009575534E+04  0.10100000352E+00 0. -1.
</event>
<event>
 5   0  0.8488469E-07  0.3187768E+04  0.7818609E-02  0.8192055E-01
        2   -1    0    0  501    0  0.00000000000E+00  0.00000000000E+00  0.16201215914E+04  0.16201215914E+04  0.25500000920E-02 0. -1.
       -2   -1    0    0    0  501  0.00000000000E+00  0.00000000000E+00 -0.15680712258E+04  0.15680712258E+04  0.25500000920E-02 0.  1.
    10030    2    1    2    0    0  0.00000000000E+00  0.00000000000E+00  0.52050365601E+02  0.31881928172E+04  0.31877679023E+04 0.  0.
        3    1    3    3  502    0 -0.91494132461E+03 -0.10515125006E+04 -0.74716898235E+03  0.15814732577E+04  0.10100000352E+00 0.  1.
       -3    1    3    3    0  502  0.91494132461E+03  0.10515125006E+04  0.79921934795E+03  0.16067195595E+04  0.10100000352E+00 0. -1.
</event>
<event>
 5   0  0.2783875E-07  0.3191204E+04  0.7818609E-02  0.8191144E-01
        1   -1    0    0  501    0  0.00000000000E+00  0.00000000000E+00  0.10155112506E+04  0.10155112506E+04  0.50400001928E-02 0. -1.
       -1   -1    0    0    0  501  0.00000000000E+00  0.00000000000E+00 -0.25070577980E+04  0.25070577980E+04  0.50400001928E-02 0.  1.
    10030    2    1    2    0    0  0.00000000000E+00  0.00000000000E+00 -0.14915465474E+04  0.35225690486E+04  0.31912037853E+04 0.  0.
        2    1    3    3  502    0  0.20300748294E+02  0.60589497995E+03  0.88343361594E+03  0.10714363261E+04  0.25500000920E-02 0. -1.
       -2    1    3    3    0  502 -0.20300748294E+02 -0.60589497995E+03 -0.23749801633E+04  0.24511327225E+04  0.25500000920E-02 0.  1.
</event>
<event>
 5   0  0.8335929E-07  0.3203914E+04  0.7818609E-02  0.8187784E-01
        2   -1    0    0  501    0  0.00000000000E+00  0.00000000000E+00  0.21108248608E+04  0.21108248608E+04  0.25500000920E-02 0.  1.
       -2   -1    0    0    0  501  0.00000000000E+00  0.00000000000E+00 -0.12157645452E+04  0.12157645452E+04  0.25500000920E-02 0. -1.
    10030    2    1    2    0    0  0.00000000000E+00  0.00000000000E+00  0.89506031562E+03  0.33265894060E+04  0.32039138733E+04 0.  0.
        4    1    3    3  502    0  0.17353434439E+03  0.65386279287E+03 -0.10601765894E+04  0.12576274227E+04  0.12699999809E+01 0. -1.
       -4    1    3    3    0  502 -0.17353434439E+03 -0.65386279287E+03  0.19552369051E+04  0.20689619833E+04  0.12699999809E+01 0.  1.
</event>
<event>
 5   0  0.8488469E-07  0.3198957E+04  0.7818609E-02  0.8189093E-01
       -2   -1    0    0    0  501  0.00000000000E+00  0.00000000000E+00  0.90618407340E+03  0.90618407340E+03  0.25500000920E-02 0. -1.
        2   -1    0    0  501    0  0.00000000000E+00  0.00000000000E+00 -0.28231924270E+04  0.28231924270E+04  0.25500000920E-02 0.  1.
    10030    2    1    2    0    0  0.00000000000E+00  0.00000000000E+00 -0.19170083536E+04  0.37293765004E+04  0.31989573385E+04 0.  0.
        3    1    3    3  502    0  0.36990446403E+03  0.13699766726E+03 -0.27655978206E+04  0.27935871185E+04  0.10100000352E+00 0.  1.
       -3    1    3    3    0  502 -0.36990446403E+03 -0.13699766726E+03  0.84858946705E+03  0.93578938182E+03  0.10100000352E+00 0. -1.
</event>
<event>
 5   0  0.8488469E-07  0.3198959E+04  0.7818609E-02  0.8189092E-01
       -2   -1    0    0    0  501  0.00000000000E+00  0.00000000000E+00  0.93072557902E+03  0.93072557902E+03  0.25500000920E-02 0.  1.
        2   -1    0    0  501    0  0.00000000000E+00  0.00000000000E+00 -0.27487531698E+04  0.27487531698E+04  0.25500000920E-02 0. -1.
    10030    2    1    2    0    0  0.00000000000E+00  0.00000000000E+00 -0.18180275908E+04  0.36794787489E+04  0.31989591342E+04 0.  0.
        3    1    3    3  502    0 -0.14846845370E+03  0.12795677682E+04 -0.19995925850E+04  0.23785935070E+04  0.10100000352E+00 0.  1.
       -3    1    3    3    0  502  0.14846845370E+03 -0.12795677682E+04  0.18156499415E+03  0.13008852419E+04  0.10100000352E+00 0. -1.
</event>
<event>
 5   0  0.8488469E-07  0.3199500E+04  0.7818609E-02  0.8188949E-01
       -2   -1    0    0    0  501  0.00000000000E+00  0.00000000000E+00  0.15186268671E+04  0.15186268671E+04  0.25500000920E-02 0.  1.
        2   -1    0    0  501    0  0.00000000000E+00  0.00000000000E+00 -0.16852071246E+04  0.16852071246E+04  0.25500000920E-02 0. -1.
    10030    2    1    2    0    0  0.00000000000E+00  0.00000000000E+00 -0.16658025749E+03  0.32038339917E+04  0.31995004711E+04 0.  0.
        3    1    3    3  502    0 -0.15974584581E+04 -0.80403199020E+02 -0.11270006442E+03  0.16034461371E+04  0.10100000352E+00 0.  1.
       -3    1    3    3    0  502  0.15974584581E+04  0.80403199020E+02 -0.53880193075E+02  0.16003878546E+04  0.10100000352E+00 0. -1.
</event>
<event>
 5   0  0.8802800E-07  0.3209952E+04  0.7818609E-02  0.8186194E-01
        2   -1    0    0  501    0  0.00000000000E+00  0.00000000000E+00  0.15590503347E+04  0.15590503347E+04  0.25500000920E-02 0.  1.
       -2   -1    0    0    0  501  0.00000000000E+00  0.00000000000E+00 -0.16522546257E+04  0.16522546257E+04  0.25500000920E-02 0. -1.
    10030    2    1    2    0    0  0.00000000000E+00  0.00000000000E+00 -0.93204290925E+02  0.32113049604E+04  0.32099521038E+04 0.  0.
        5    1    3    3  502    0 -0.52307152500E+01  0.13736521205E+04 -0.87699927977E+03  0.16297537652E+04  0.46999998093E+01 0. -1.
       -5    1    3    3    0  502  0.52307152500E+01 -0.13736521205E+04  0.78379498885E+03  0.15815511952E+04  0.46999998093E+01 0.  1.
</event>
<event>
 5   0  0.2997105E-07  0.3216590E+04  0.7818609E-02  0.8184449E-01
        1   -1    0    0  501    0  0.00000000000E+00  0.00000000000E+00  0.24831805265E+04  0.24831805265E+04  0.50400001928E-02 0.  1.
       -1   -1    0    0    0  501  0.00000000000E+00  0.00000000000E+00 -0.10416532467E+04  0.10416532467E+04  0.50400001928E-02 0. -1.
    10030    2    1    2    0    0  0.00000000000E+00  0.00000000000E+00  0.14415272798E+04  0.35248337732E+04  0.32165901557E+04 0.  0.
        3    1    3    3  502    0 -0.58556346957E+02 -0.21167869938E+03  0.24666698800E+04  0.24764282798E+04  0.10100000352E+00 0.  1.
       -3    1    3    3    0  502  0.58556346957E+02  0.21167869938E+03 -0.10251426003E+04  0.10484054934E+04  0.10100000352E+00 0. -1.
</event>
<event>
 5   0  0.2783875E-07  0.3194778E+04  0.7818609E-02  0.8190198E-01
       -1   -1    0    0    0  501  0.00000000000E+00  0.00000000000E+00  0.21689943224E+04  0.21689943224E+04  0.50400001928E-02 0.  1.
        1   -1    0    0  501    0  0.00000000000E+00  0.00000000000E+00 -0.11764218749E+04  0.11764218750E+04  0.50400001928E-02 0. -1.
    10030    2    1    2    0    0  0.00000000000E+00  0.00000000000E+00  0.99257244742E+03  0.33454161973E+04  0.31947784696E+04 0.  0.
        2    1    3    3  502    0 -0.84728937333E+03 -0.10644759634E+04  0.13727987210E+04  0.19327660715E+04  0.25500000920E-02 0.  1.
       -2    1    3    3    0  502  0.84728937333E+03  0.10644759634E+04 -0.38022627362E+03  0.14126501258E+04  0.25500000920E-02 0. -1.
</event>
<event>
 5   0  0.2891204E-07  0.3169900E+04  0.7818609E-02  0.8196812E-01
        1   -1    0    0  501    0  0.00000000000E+00  0.00000000000E+00  0.16239996032E+04  0.16239996032E+04  0.50400001928E-02 0. -1.
       -1   -1    0    0    0  501  0.00000000000E+00  0.00000000000E+00 -0.15468394133E+04  0.15468394133E+04  0.50400001928E-02 0.  1.
    10030    2    1    2    0    0  0.00000000000E+00  0.00000000000E+00  0.77160189883E+02  0.31708390165E+04  0.31699000573E+04 0.  0.
        4    1    3    3  502    0 -0.14150688533E+04  0.13432964016E+03 -0.66276999367E+03  0.15683526355E+04  0.12699999809E+01 0.  1.
       -4    1    3    3    0  502  0.14150688533E+04 -0.13432964016E+03  0.73993018356E+03  0.16024863810E+04  0.12699999809E+01 0. -1.
</event>
<event>
 5   0  0.8488469E-07  0.3191215E+04  0.7818609E-02  0.8191141E-01
        2   -1    0    0  501    0  0.00000000000E+00  0.00000000000E+00  0.15942616698E+04  0.15942616698E+04  0.25500000920E-02 0. -1.
       -2   -1    0    0    0  501  0.00000000000E+00  0.00000000000E+00 -0.15969546502E+04  0.15969546502E+04  0.25500000920E-02 0.  1.
    10030    2    1    2    0    0  0.00000000000E+00  0.00000000000E+00 -0.26929803532E+01  0.31912163200E+04  0.31912151838E+04 0.  0.
        3    1    3    3  502    0 -0.13528484565E+04  0.79925889909E+03 -0.27874493616E+03  0.15958422490E+04  0.10100000352E+00 0.  1.
       -3    1    3    3    0  502  0.13528484565E+04 -0.79925889909E+03  0.27605195581E+03  0.15953740710E+04  0.10100000352E+00 0. -1.
</event>
<event>
 5   0  0.8488469E-07  0.3191132E+04  0.7818609E-02  0.8191163E-01
        2   -1    0    0  501    0  0.00000000000E+00  0.00000000000E+00  0.21097121575E+04  0.21097121575E+04  0.25500000920E-02 0.  1.
       -2   -1    0    0    0  501  0.00000000000E+00  0.00000000000E+00 -0.12067198531E+04  0.12067198531E+04  0.25500000920E-02 0. -1.
    10030    2    1    2    0    0  0.00000000000E+00  0.00000000000E+00  0.90299230439E+03  0.33164320106E+04  0.31911324289E+04 0.  0.
        3    1    3    3  502    0 -0.10627212801E+04 -0.57516859078E+03 -0.63135412135E+03  0.13633794277E+04  0.10100000352E+00 0.  1.
       -3    1    3    3    0  502  0.10627212801E+04  0.57516859078E+03  0.15343464257E+04  0.19530525829E+04  0.10100000352E+00 0. -1.
</event>
<event>
 5   0  0.8195618E-07  0.3127415E+04  0.7818609E-02  0.8208254E-01
        2   -1    0    0  501    0  0.00000000000E+00  0.00000000000E+00  0.23657008829E+04  0.23657008829E+04  0.25500000920E-02 0.  1.
       -2   -1    0    0    0  501  0.00000000000E+00  0.00000000000E+00 -0.10335966417E+04  0.10335966417E+04  0.25500000920E-02 0. -1.
    10030    2    1    2    0    0  0.00000000000E+00  0.00000000000E+00  0.13321042412E+04  0.33992975247E+04  0.31274145794E+04 0.  0.
        1    1    3    3  502    0  0.80444338395E+02  0.10483510643E+04 -0.59201124147E+03  0.12066435081E+04  0.50400001928E-02 0. -1.
       -1    1    3    3    0  502 -0.80444338395E+02 -0.10483510643E+04  0.19241154827E+04  0.21926540166E+04  0.50400001928E-02 0.  1.
</event>
<event>
 5   0  0.3013888E-07  0.3185609E+04  0.7818609E-02  0.8192628E-01
       -1   -1    0    0    0  501  0.00000000000E+00  0.00000000000E+00  0.12832806375E+04  0.12832806375E+04  0.50400001928E-02 0. -1.
        1   -1    0    0  501    0  0.00000000000E+00  0.00000000000E+00 -0.19769846203E+04  0.19769846203E+04  0.50400001928E-02 0.  1.
    10030    2    1    2    0    0  0.00000000000E+00  0.00000000000E+00 -0.69370398278E+03  0.32602652578E+04  0.31856089426E+04 0.  0.
        1    1    3    3  502    0 -0.10345619795E+04 -0.42946632101E+03  0.81205767137E+03  0.13835452548E+04  0.50400001928E-02 0.  1.
       -1    1    3    3    0  502  0.10345619795E+04  0.42946632101E+03 -0.15057616542E+04  0.18767200030E+04  0.50400001928E-02 0. -1.
</event>
<event>
 5   0  0.8838951E-07  0.3182164E+04  0.7818609E-02  0.8193544E-01
        2   -1    0    0  501    0  0.00000000000E+00  0.00000000000E+00  0.19608978120E+04  0.19608978120E+04  0.25500000920E-02 0. -1.
       -2   -1    0    0    0  501  0.00000000000E+00  0.00000000000E+00 -0.12910117658E+04  0.12910117658E+04  0.25500000920E-02 0.  1.
    10030    2    1    2    0    0  0.00000000000E+00  0.00000000000E+00  0.66988604621E+03  0.32519095778E+04  0.31821641358E+04 0.  0.
        2    1    3    3  502    0  0.16776634072E+03 -0.27761593010E+03 -0.12568641600E+04  0.12980460957E+04  0.25500000920E-02 0.  1.
       -2    1    3    3    0  502 -0.16776634072E+03  0.27761593010E+03  0.19267502062E+04  0.19538634821E+04  0.25500000920E-02 0. -1.
</event>
<event>
 5   0  0.8488469E-07  0.3189162E+04  0.7818609E-02  0.8191685E-01
       -2   -1    0    0    0  501  0.00000000000E+00  0.00000000000E+00  0.13068177418E+04  0.13068177418E+04  0.25500000920E-02 0.  1.
        2   -1    0    0  501    0  0.00000000000E+00  0.00000000000E+00 -0.19457100787E+04  0.19457100787E+04  0.25500000920E-02 0. -1.
    10030    2    1    2    0    0  0.00000000000E+00  0.00000000000E+00 -0.63889233687E+03  0.32525278205E+04  0.31891619283E+04 0.  0.
        3    1    3    3  502    0 -0.48942227000E+03  0.11776132893E+04  0.65685214731E+03  0.14344901432E+04  0.10100000352E+00 0.  1.
       -3    1    3    3    0  502  0.48942227000E+03 -0.11776132893E+04 -0.12957444842E+04  0.18180376772E+04  0.10100000352E+00 0. -1.
</event>
<event>
 5   0  0.3013888E-07  0.3201422E+04  0.7818609E-02  0.8188442E-01
        1   -1    0    0  501    0  0.00000000000E+00  0.00000000000E+00  0.20134907189E+04  0.20134907189E+04  0.50400001928E-02 0.  1.
       -1   -1    0    0    0  501  0.00000000000E+00  0.00000000000E+00 -0.12725541217E+04  0.12725541217E+04  0.50400001928E-02 0. -1.
    10030    2    1    2    0    0  0.00000000000E+00  0.00000000000E+00  0.74093659717E+03  0.32860448406E+04  0.32014221298E+04 0.  0.
        1    1    3    3  502    0 -0.11597706435E+04 -0.21956653435E+03 -0.73931330288E+03  0.13927891328E+04  0.50400001928E-02 0. -1.
       -1    1    3    3    0  502  0.11597706435E+04  0.21956653435E+03  0.14802499001E+04  0.18932557078E+04  0.50400001928E-02 0.  1.
</event>
<event>
 5   0  0.8335929E-07  0.3201823E+04  0.7818609E-02  0.8188336E-01
        2   -1    0    0  501    0  0.00000000000E+00  0.00000000000E+00  0.19255721399E+04  0.19255721399E+04  0.25500000920E-02 0. -1.
       -2   -1    0    0    0  501  0.00000000000E+00  0.00000000000E+00 -0.13309902169E+04  0.13309902169E+04  0.25500000920E-02 0.  1.
    10030    2    1    2    0    0  0.00000000000E+00  0.00000000000E+00  0.59458192299E+03  0.32565623567E+04  0.32018230307E+04 0.  0.
        4    1    3    3  502    0  0.70403467899E+03 -0.13521535142E+04  0.79445457422E+03  0.17190531227E+04  0.12699999809E+01 0. -1.
       -4    1    3    3    0  502 -0.70403467899E+03  0.13521535142E+04 -0.19987265123E+03  0.15375092340E+04  0.12699999809E+01 0.  1.
</event>
<event>
 5   0  0.3075756E-07  0.3199153E+04  0.7818609E-02  0.8189041E-01
       -1   -1    0    0    0  501  0.00000000000E+00  0.00000000000E+00  0.12484623237E+04  0.12484623238E+04  0.50400001928E-02 0.  1.
        1   -1    0    0  501    0  0.00000000000E+00  0.00000000000E+00 -0.20494366559E+04  0.20494366560E+04  0.50400001928E-02 0. -1.
    10030    2    1    2    0    0  0.00000000000E+00  0.00000000000E+00 -0.80097433220E+03  0.32978989797E+04  0.31991526690E+04 0.  0.
        5    1    3    3  502    0 -0.60514520508E+03  0.11451281139E+04 -0.13681315546E+04  0.18839652750E+04  0.46999998093E+01 0. -1.
       -5    1    3    3    0  502  0.60514520508E+03 -0.11451281139E+04  0.56715722242E+03  0.14139337048E+04  0.46999998093E+01 0.  1.
</event>
<event>
 5   0  0.8802800E-07  0.3179127E+04  0.7818609E-02  0.8194352E-01
       -2   -1    0    0    0  501  0.00000000000E+00  0.00000000000E+00  0.19215065166E+04  0.19215065166E+04  0.25500000920E-02 0. -1.
        2   -1    0    0  501    0  0.00000000000E+00  0.00000000000E+00 -0.13149637106E+04  0.13149637106E+04  0.25500000920E-02 0.  1.
    10030    2    1    2    0    0  0.00000000000E+00  0.00000000000E+00  0.60654280606E+03  0.32364702272E+04  0.31791265084E+04 0.  0.
        5    1    3    3  502    0 -0.73806501100E+03 -0.13883352400E+04  0.54087916919E+03  0.16627648856E+04  0.46999998093E+01 0. -1.
       -5    1    3    3    0  502  0.73806501100E+03  0.13883352400E+04  0.65663636871E+02  0.15737053416E+04  0.46999998093E+01 0.  1.
</event>
<event>
 5   0  0.8335929E-07  0.3191912E+04  0.7818609E-02  0.8190956E-01
       -2   -1    0    0    0  501  0.00000000000E+00  0.00000000000E+00  0.16084297428E+04  0.16084297428E+04  0.25500000920E-02 0.  1.
        2   -1    0    0  501    0  0.00000000000E+00  0.00000000000E+00 -0.15835791538E+04  0.15835791538E+04  0.25500000920E-02 0. -1.
    10030    2    1    2    0    0  0.00000000000E+00  0.00000000000E+00  0.24850589065E+02  0.31920088966E+04  0.31919121611E+04 0.  0.
        4    1    3    3  502    0  0.11172099696E+04 -0.10867842503E+04 -0.33082857124E+03  0.15933321309E+04  0.12699999809E+01 0. -1.
       -4    1    3    3    0  502 -0.11172099696E+04  0.10867842503E+04  0.35567916030E+03  0.15986767657E+04  0.12699999809E+01 0.  1.
</event>
<event>
 5   0  0.8488469E-07  0.3209779E+04  0.7818609E-02  0.8186239E-01
       -2   -1    0    0    0  501  0.00000000000E+00  0.00000000000E+00  0.14293060172E+04  0.14293060172E+04  0.25500000920E-02 0. -1.
        2   -1    0    0  501    0  0.00000000000E+00  0.00000000000E+00 -0.18020426688E+04  0.18020426688E+04  0.25500000920E-02 0.  1.
    10030    2    1    2    0    0  0.00000000000E+00  0.00000000000E+00 -0.37273665154E+03  0.32313486860E+04  0.32097790764E+04 0.  0.
        3    1    3    3  502    0 -0.54720928223E+03 -0.47889077163E+03 -0.16266803168E+04  0.17818145900E+04  0.10100000352E+00 0.  1.
       -3    1    3    3    0  502  0.54720928223E+03  0.47889077163E+03  0.12539436653E+04  0.14495340961E+04  0.10100000352E+00 0. -1.
</event>
<event>
 5   0  0.8488469E-07  0.3171500E+04  0.7818609E-02  0.8196385E-01
       -2   -1    0    0    0  501  0.00000000000E+00  0.00000000000E+00  0.80126230586E+03  0.80126230586E+03  0.25500000920E-02 0. -1.
        2   -1    0    0  501    0  0.00000000000E+00  0.00000000000E+00 -0.31383017367E+04  0.31383017367E+04  0.25500000920E-02 0.  1.
    10030    2    1    2    0    0  0.00000000000E+00  0.00000000000E+00 -0.23370394309E+04  0.39395640426E+04  0.31714998887E+04 0.  0.
        3    1    3    3  502    0 -0.25980670781E+03  0.12247934340E+04 -0.23773208961E+04  0.26868705095E+04  0.10100000352E+00 0.  1.
       -3    1    3    3    0  502  0.25980670781E+03 -0.12247934340E+04  0.40281465229E+02  0.12526935331E+04  0.10100000352E+00 0. -1.
</event>
<event>
 5   0  0.8335929E-07  0.3229247E+04  0.7818609E-02  0.8181136E-01
        2   -1    0    0  501    0  0.00000000000E+00  0.00000000000E+00  0.13157274658E+04  0.13157274658E+04  0.25500000920E-02 0.  1.
       -2   -1    0    0    0  501  0.00000000000E+00  0.00000000000E+00 -0.19814197784E+04  0.19814197784E+04  0.25500000920E-02 0. -1.
    10030    2    1    2    0    0  0.00000000000E+00  0.00000000000E+00 -0.66569231266E+03  0.32971472442E+04  0.32292466141E+04 0.  0.
        4    1    3    3  502    0 -0.10521424518E+04 -0.12239896177E+04 -0.28890061979E+03  0.16397010411E+04  0.12699999809E+01 0.  1.
       -4    1    3    3    0  502  0.10521424518E+04  0.12239896177E+04 -0.37679169287E+03  0.16574462030E+04  0.12699999809E+01 0. -1.
</event>
<event>
 5   0  0.8488469E-07  0.3205233E+04  0.7818609E-02  0.8187437E-01
       -2   -1    0    0    0  501  0.00000000000E+00  0.00000000000E+00  0.18812528534E+04  0.18812528534E+04  0.25500000920E-02 0. -1.
        2   -1    0    0  501    0  0.00000000000E+00  0.00000000000E+00 -0.13652492918E+04  0.13652492918E+04  0.25500000920E-02 0.  1.
    10030    2    1    2    0    0  0.00000000000E+00  0.00000000000E+00  0.51600356162E+03  0.32465021453E+04  0.32052326754E+04 0.  0.
        3    1    3    3  502    0  0.15470351899E+04  0.37337929794E+03  0.66760941551E+02  0.15928549879E+04  0.10100000352E+00 0.  1.
       -3    1    3    3    0  502 -0.15470351899E+04 -0.37337929794E+03  0.44924262007E+03  0.16536471573E+04  0.10100000352E+00 0. -1.
</event>
<event>
 5   0  0.3075756E-07  0.3230790E+04  0.7818609E-02  0.8180733E-01
        1   -1    0    0  501    0  0.00000000000E+00  0.00000000000E+00  0.14591218589E+04  0.14591218589E+04  0.50400001928E-02 0.  1.
       -1   -1    0    0    0  501  0.00000000000E+00  0.00000000000E+00 -0.17884051571E+04  0.17884051571E+04  0.50400001928E-02 0. -1.
    10030    2    1    2    0    0  0.00000000000E+00  0.00000000000E+00 -0.32928329823E+03  0.32475270160E+04  0.32307900318E+04 0.  0.
        5    1    3    3  502    0  0.15581455779E+04 -0.42252832033E+03 -0.10839514349E+03  0.16180603884E+04  0.46999998093E+01 0.  1.
       -5    1    3    3    0  502 -0.15581455779E+04  0.42252832033E+03 -0.22088815474E+03  0.16294666276E+04  0.46999998093E+01 0. -1.
</event>
<event>
 5   0  0.8195618E-07  0.3212640E+04  0.7818609E-02  0.8185487E-01
       -2   -1    0    0    0  501  0.00000000000E+00  0.00000000000E+00  0.15507392743E+04  0.15507392743E+04  0.25500000920E-02 0. -1.
        2   -1    0    0  501    0  0.00000000000E+00  0.00000000000E+00 -0.16638924869E+04  0.16638924869E+04  0.25500000920E-02 0.  1.
    10030    2    1    2    0    0  0.00000000000E+00  0.00000000000E+00 -0.11315321258E+03  0.32146317612E+04  0.32126396796E+04 0.  0.
        1    1    3    3  502    0 -0.52481834891E+03  0.15140930206E+04 -0.16778261199E+03  0.16112302689E+04  0.50400001928E-02 0.  1.
       -1    1    3    3    0  502  0.52481834891E+03 -0.15140930206E+04  0.54629399412E+02  0.16034014924E+04  0.50400001928E-02 0. -1.
</event>
<event>
 5   0  0.3013888E-07  0.3194944E+04  0.7818609E-02  0.8190154E-01
        1   -1    0    0  501    0  0.00000000000E+00  0.00000000000E+00  0.30023523392E+04  0.30023523392E+04  0.50400001928E-02 0.  1.
       -1   -1    0    0    0  501  0.00000000000E+00  0.00000000000E+00 -0.84997261488E+03  0.84997261490E+03  0.50400001928E-02 0. -1.
    10030    2    1    2    0    0  0.00000000000E+00  0.00000000000E+00  0.21523797243E+04  0.38523249541E+04  0.31949442991E+04 0.  0.
        1    1    3    3  502    0 -0.54147749612E+03  0.85847640676E+03 -0.41121609189E+03  0.10951156533E+04  0.50400001928E-02 0. -1.
       -1    1    3    3    0  502  0.54147749612E+03 -0.85847640676E+03  0.25635958162E+04  0.27572093008E+04  0.50400001928E-02 0.  1.
</event>
<event>
 5   0  0.8335929E-07  0.3254417E+04  0.7818609E-02  0.8174592E-01
        2   -1    0    0  501    0  0.00000000000E+00  0.00000000000E+00  0.15616076356E+04  0.15616076356E+04  0.25500000920E-02 0.  1.
       -2   -1    0    0    0  501  0.00000000000E+00  0.00000000000E+00 -0.16955649489E+04  0.16955649489E+04  0.25500000920E-02 0. -1.
    10030    2    1    2    0    0  0.00000000000E+00  0.00000000000E+00 -0.13395731335E+03  0.32571725845E+04  0.32544167962E+04 0.  0.
        4    1    3    3  502    0  0.21344642764E+03 -0.15541711625E+04  0.36558887281E+03  0.16107961437E+04  0.12699999809E+01 0.  1.
       -4    1    3    3    0  502 -0.21344642764E+03  0.15541711625E+04 -0.49954618616E+03  0.16463764408E+04  0.12699999809E+01 0. -1.
</event>
<event>
 5   0  0.8335929E-07  0.3191646E+04  0.7818609E-02  0.8191027E-01
        2   -1    0    0  501    0  0.00000000000E+00  0.00000000000E+00  0.19896125212E+04  0.19896125212E+04  0.25500000920E-02 0. -1.
       -2   -1    0    0    0  501  0.00000000000E+00  0.00000000000E+00 -0.12799731492E+04  0.12799731492E+04  0.25500000920E-02 0.  1.
    10030    2    1    2    0    0  0.00000000000E+00  0.00000000000E+00  0.70963937197E+03  0.32695856703E+04  0.31916457224E+04 0.  0.
        4    1    3    3  502    0  0.15661714510E+04 -0.28782755187E+03  0.46182758910E+03  0.16580181086E+04  0.12699999809E+01 0.  1.
       -4    1    3    3    0  502 -0.15661714510E+04  0.28782755187E+03  0.24781178286E+03  0.16115675618E+04  0.12699999809E+01 0. -1.
</event>
<event>
 5   0  0.2783875E-07  0.3190894E+04  0.7818609E-02  0.8191226E-01
       -3   -1    0    0    0  501  0.00000000000E+00  0.00000000000E+00  0.87478322132E+03  0.87478322715E+03  0.10100000352E+00 0. -1.
        3   -1    0    0  501    0  0.00000000000E+00  0.00000000000E+00 -0.29098081468E+04  0.29098081486E+04  0.10100000352E+00 0.  1.
    10030    2    1    2    0    0  0.00000000000E+00  0.00000000000E+00 -0.20350249255E+04  0.37845913757E+04  0.31908941433E+04 0.  0.
        5    1    3    3  502    0  0.63989045784E+03 -0.10145806183E+04  0.23016139569E+03  0.12214049235E+04  0.46999998093E+01 0. -1.
       -5    1    3    3    0  502 -0.63989045784E+03  0.10145806183E+04 -0.22651863212E+04  0.25631864522E+04  0.46999998093E+01 0.  1.
</event>
<event>
 5   0  0.8335929E-07  0.3203597E+04  0.7818609E-02  0.8187868E-01
        2   -1    0    0  501    0  0.00000000000E+00  0.00000000000E+00  0.17742577625E+04  0.17742577625E+04  0.25500000920E-02 0. -1.
       -2   -1    0    0    0  501  0.00000000000E+00  0.00000000000E+00 -0.14461024445E+04  0.14461024445E+04  0.25500000920E-02 0.  1.
    10030    2    1    2    0    0  0.00000000000E+00  0.00000000000E+00  0.32815531800E+03  0.32203602071E+04  0.32035970331E+04 0.  0.
        4    1    3    3  502    0  0.63050110461E+03 -0.12142340091E+04 -0.67326421206E+03  0.15248548075E+04  0.12699999809E+01 0.  1.
       -4    1    3    3    0  502 -0.63050110461E+03  0.12142340091E+04  0.10014195301E+04  0.16955053996E+04  0.12699999809E+01 0. -1.
</event>
<event>
 5   0  0.8195618E-07  0.3056539E+04  0.7818609E-02  0.8227768E-01
        2   -1    0    0  501    0  0.00000000000E+00  0.00000000000E+00  0.18057525341E+04  0.18057525341E+04  0.25500000920E-02 0. -1.
       -2   -1    0    0    0  501  0.00000000000E+00  0.00000000000E+00 -0.12934264454E+04  0.12934264454E+04  0.25500000920E-02 0.  1.
    10030    2    1    2    0    0  0.00000000000E+00  0.00000000000E+00  0.51232608862E+03  0.30991789795E+04  0.30565392727E+04 0.  0.
        1    1    3    3  502    0 -0.10261160675E+04  0.11064852205E+04  0.50116238636E+03  0.15900903951E+04  0.50400001928E-02 0.  1.
       -1    1    3    3    0  502  0.10261160675E+04 -0.11064852205E+04  0.11163702265E+02  0.15090885844E+04  0.50400001928E-02 0. -1.
</event>
<event>
 5   0  0.2891204E-07  0.3193217E+04  0.7818609E-02  0.8190611E-01
       -1   -1    0    0    0  501  0.00000000000E+00  0.00000000000E+00  0.13149354016E+04  0.13149354016E+04  0.50400001928E-02 0.  1.
        1   -1    0    0  501    0  0.00000000000E+00  0.00000000000E+00 -0.19386186163E+04  0.19386186163E+04  0.50400001928E-02 0. -1.
    10030    2    1    2    0    0  0.00000000000E+00  0.00000000000E+00 -0.62368321473E+03  0.32535540179E+04  0.31932167160E+04 0.  0.
        4    1    3    3  502    0 -0.62811228788E+03  0.91333620211E+03  0.85897904137E+03  0.14023389999E+04  0.12699999809E+01 0.  1.
       -4    1    3    3    0  502  0.62811228788E+03 -0.91333620211E+03 -0.14826622561E+04  0.18512150180E+04  0.12699999809E+01 0. -1.
</event>
<event>
 5   0  0.3075756E-07  0.3182273E+04  0.7818609E-02  0.8193514E-01
        1   -1    0    0  501    0  0.00000000000E+00  0.00000000000E+00  0.86443699840E+03  0.86443699842E+03  0.50400001928E-02 0.  1.
       -1   -1    0    0    0  501  0.00000000000E+00  0.00000000000E+00 -0.29287453422E+04  0.29287453422E+04  0.50400001928E-02 0. -1.
    10030    2    1    2    0    0  0.00000000000E+00  0.00000000000E+00 -0.20643083438E+04  0.37931823406E+04  0.31822732961E+04 0.  0.
        5    1    3    3  502    0 -0.17016314434E+03  0.15166035742E+04 -0.49556546603E+03  0.16045713191E+04  0.46999998093E+01 0.  1.
       -5    1    3    3    0  502  0.17016314434E+03 -0.15166035742E+04 -0.15687428777E+04  0.21886110215E+04  0.46999998093E+01 0. -1.
</event>
<event>
 5   0  0.8335929E-07  0.3206277E+04  0.7818609E-02  0.8187162E-01
        2   -1    0    0  501    0  0.00000000000E+00  0.00000000000E+00  0.89299772266E+03  0.89299772267E+03  0.25500000920E-02 0. -1.
       -2   -1    0    0    0  501  0.00000000000E+00  0.00000000000E+00 -0.28780055301E+04  0.28780055301E+04  0.25500000920E-02 0.  1.
    10030    2    1    2    0    0  0.00000000000E+00  0.00000000000E+00 -0.19850078074E+04  0.37710032528E+04  0.32062765846E+04 0.  0.
        4    1    3    3  502    0 -0.24568590973E+03  0.92841425955E+02  0.86752125640E+03  0.90640820816E+03  0.12699999809E+01 0. -1.
       -4    1    3    3    0  502  0.24568590973E+03 -0.92841425955E+02 -0.28525290638E+04  0.28645950446E+04  0.12699999809E+01 0.  1.
</event>
<event>
 5   0  0.8195618E-07  0.3160534E+04  0.7818609E-02  0.8199318E-01
        2   -1    0    0  501    0  0.00000000000E+00  0.00000000000E+00  0.12774776094E+04  0.12774776094E+04  0.25500000920E-02 0.  1.
       -2   -1    0    0    0  501  0.00000000000E+00  0.00000000000E+00 -0.19548241231E+04  0.19548241231E+04  0.25500000920E-02 0. -1.
    10030    2    1    2    0    0  0.00000000000E+00  0.00000000000E+00 -0.67734651372E+03  0.32323017325E+04  0.31605341621E+04 0.  0.
        1    1    3    3  502    0 -0.61304952989E+03 -0.13786063333E+04 -0.81930102411E+03  0.17168690446E+04  0.50400001928E-02 0. -1.
       -1    1    3    3    0  502  0.61304952989E+03  0.13786063333E+04  0.14195451039E+03  0.15154326878E+04  0.50400001928E-02 0.  1.
</event>
<event>
 5   0  0.8838951E-07  0.3200412E+04  0.7818609E-02  0.8188708E-01
        2   -1    0    0  501    0  0.00000000000E+00  0.00000000000E+00  0.21357361665E+04  0.21357361665E+04  0.25500000920E-02 0.  1.
       -2   -1    0    0    0  501  0.00000000000E+00  0.00000000000E+00 -0.11989584526E+04  0.11989584526E+04  0.25500000920E-02 0. -1.
    10030    2    1    2    0    0  0.00000000000E+00  0.00000000000E+00  0.93677771392E+03  0.33346946191E+04  0.32004118043E+04 0.  0.
        2    1    3    3  502    0  0.68041349742E+03  0.26047534915E+03 -0.10161175304E+04  0.12503218668E+04  0.25500000920E-02 0. -1.
       -2    1    3    3    0  502 -0.68041349742E+03 -0.26047534915E+03  0.19528952443E+04  0.20843727522E+04  0.25500000920E-02 0.  1.
</event>
<event>
 5   0  0.8802800E-07  0.3181903E+04  0.7818609E-02  0.8193613E-01
       -2   -1    0    0    0  501  0.00000000000E+00  0.00000000000E+00  0.18388336417E+04  0.18388336417E+04  0.25500000920E-02 0.  1.
        2   -1    0    0  501    0  0.00000000000E+00  0.00000000000E+00 -0.13764845098E+04  0.13764845098E+04  0.25500000920E-02 0. -1.
    10030    2    1    2    0    0  0.00000000000E+00  0.00000000000E+00  0.46234913192E+03  0.32153181516E+04  0.31819025906E+04 0.  0.
        5    1    3    3  502    0  0.10243791515E+04  0.95557554593E+03  0.99316704073E+03  0.17172303663E+04  0.46999998093E+01 0.  1.
       -5    1    3    3    0  502 -0.10243791515E+04 -0.95557554593E+03 -0.53081790881E+03  0.14980877853E+04  0.46999998093E+01 0. -1.
</event>
<event>
 5   0  0.8838951E-07  0.3207219E+04  0.7818609E-02  0.8186913E-01
       -2   -1    0    0    0  501  0.00000000000E+00  0.00000000000E+00  0.14993935740E+04  0.14993935740E+04  0.25500000920E-02 0.  1.
        2   -1    0    0  501    0  0.00000000000E+00  0.00000000000E+00 -0.17150686326E+04  0.17150686326E+04  0.25500000920E-02 0. -1.
    10030    2    1    2    0    0  0.00000000000E+00  0.00000000000E+00 -0.21567505867E+03  0.32144622066E+04  0.32072186622E+04 0.  0.
        2    1    3    3  502    0 -0.96201674274E+03 -0.12158631845E+04  0.30267682754E+03  0.15796875510E+04  0.25500000920E-02 0. -1.
       -2    1    3    3    0  502  0.96201674274E+03  0.12158631845E+04 -0.51835188621E+03  0.16347746556E+04  0.25500000920E-02 0.  1.
</event>
<event>
 5   0  0.2997105E-07  0.3278626E+04  0.7818609E-02  0.8168355E-01
        1   -1    0    0  501    0  0.00000000000E+00  0.00000000000E+00  0.19236811149E+04  0.19236811149E+04  0.50400001928E-02 0.  1.
       -1   -1    0    0    0  501  0.00000000000E+00  0.00000000000E+00 -0.13969819908E+04  0.13969819908E+04  0.50400001928E-02 0. -1.
    10030    2    1    2    0    0  0.00000000000E+00  0.00000000000E+00  0.52669912407E+03  0.33206631057E+04  0.32786264645E+04 0.  0.
        3    1    3    3  502    0 -0.26597288622E+03 -0.77829518285E+02 -0.13730855498E+04  0.14007722682E+04  0.10100000352E+00 0. -1.
       -3    1    3    3    0  502  0.26597288622E+03  0.77829518285E+02  0.18997846739E+04  0.19198908374E+04  0.10100000352E+00 0.  1.
</event>
<event>
 5   0  0.8195618E-07  0.3140513E+04  0.7818609E-02  0.8204707E-01
        2   -1    0    0  501    0  0.00000000000E+00  0.00000000000E+00  0.17790204849E+04  0.17790204849E+04  0.25500000920E-02 0. -1.
       -2   -1    0    0    0  501  0.00000000000E+00  0.00000000000E+00 -0.13859907264E+04  0.13859907264E+04  0.25500000920E-02 0.  1.
    10030    2    1    2    0    0  0.00000000000E+00  0.00000000000E+00  0.39302975844E+03  0.31650112113E+04  0.31405132664E+04 0.  0.
        1    1    3    3  502    0 -0.10948584934E+04  0.41048481849E+03  0.12527807922E+04  0.17136722616E+04  0.50400001928E-02 0. -1.
       -1    1    3    3    0  502  0.10948584934E+04 -0.41048481849E+03 -0.85975103381E+03  0.14513389497E+04  0.50400001928E-02 0.  1.
</event>
<event>
 5   0  0.2783875E-07  0.3195300E+04  0.7818609E-02  0.8190060E-01
       -1   -1    0    0    0  501  0.00000000000E+00  0.00000000000E+00  0.18890189382E+04  0.18890189382E+04  0.50400001928E-02 0. -1.
        1   -1    0    0  501    0  0.00000000000E+00  0.00000000000E+00 -0.13512229363E+04  0.13512229363E+04  0.50400001928E-02 0.  1.
    10030    2    1    2    0    0  0.00000000000E+00  0.00000000000E+00  0.53779600190E+03  0.32402418746E+04  0.31953001215E+04 0.  0.
        2    1    3    3  502    0 -0.64253239151E+03  0.14627217571E+04  0.27813121508E+03  0.16216534110E+04  0.25500000920E-02 0. -1.
       -2    1    3    3    0  502  0.64253239151E+03 -0.14627217571E+04  0.25966478682E+03  0.16185884635E+04  0.25500000920E-02 0.  1.
</event>
<event>
 5   0  0.2891204E-07  0.3226962E+04  0.7818609E-02  0.8181733E-01
       -1   -1    0    0    0  501  0.00000000000E+00  0.00000000000E+00  0.11073160442E+04  0.11073160442E+04  0.50400001928E-02 0. -1.
        1   -1    0    0  501    0  0.00000000000E+00  0.00000000000E+00 -0.23510189399E+04  0.23510189399E+04  0.50400001928E-02 0.  1.
    10030    2    1    2    0    0  0.00000000000E+00  0.00000000000E+00 -0.12437028957E+04  0.34583349840E+04  0.32269620340E+04 0.  0.
        4    1    3    3  502    0 -0.33602508457E+03  0.38892292530E+03  0.10172348457E+04  0.11397114738E+04  0.12699999809E+01 0. -1.
       -4    1    3    3    0  502  0.33602508457E+03 -0.38892292530E+03 -0.22609377414E+04  0.23186235103E+04  0.12699999809E+01 0.  1.
</event>
<event>
 5   0  0.8488469E-07  0.3184451E+04  0.7818609E-02  0.8192936E-01
       -2   -1    0    0    0  501  0.00000000000E+00  0.00000000000E+00  0.12082171435E+04  0.12082171435E+04  0.25500000920E-02 0. -1.
        2   -1    0    0  501    0  0.00000000000E+00  0.00000000000E+00 -0.20982836437E+04  0.20982836437E+04  0.25500000920E-02 0.  1.
    10030    2    1    2    0    0  0.00000000000E+00  0.00000000000E+00 -0.89006650022E+03  0.33065007872E+04  0.31844511428E+04 0.  0.
        3    1    3    3  502    0  0.10784302626E+04  0.46290562190E+03  0.67226075732E+03  0.13524895497E+04  0.10100000352E+00 0.  1.
       -3    1    3    3    0  502 -0.10784302626E+04 -0.46290562190E+03 -0.15623272575E+04  0.19540112374E+04  0.10100000352E+00 0. -1.
</event>
<event>
 5   0  0.8802800E-07  0.3220802E+04  0.7818609E-02  0.8183345E-01
        2   -1    0    0  501    0  0.00000000000E+00  0.00000000000E+00  0.13524470800E+04  0.13524470800E+04  0.25500000920E-02 0.  1.
       -2   -1    0    0    0  501  0.00000000000E+00  0.00000000000E+00 -0.19175547860E+04  0.19175547860E+04  0.25500000920E-02 0. -1.
    10030    2    1    2    0    0  0.00000000000E+00  0.00000000000E+00 -0.56510770600E+03  0.32700018660E+04  0.32208019940E+04 0.  0.
        5    1    3    3  502    0 -0.10966555323E+04 -0.88035310334E+03 -0.10792020067E+04  0.17726742522E+04  0.46999998093E+01 0. -1.
       -5    1    3    3    0  502  0.10966555323E+04  0.88035310334E+03  0.51409430068E+03  0.14973276138E+04  0.46999998093E+01 0.  1.
</event>
<event>
 5   0  0.8802800E-07  0.3203288E+04  0.7818609E-02  0.8187949E-01
        2   -1    0    0  501    0  0.00000000000E+00  0.00000000000E+00  0.24095353163E+04  0.24095353163E+04  0.25500000920E-02 0.  1.
       -2   -1    0    0    0  501  0.00000000000E+00  0.00000000000E+00 -0.10646298450E+04  0.10646298450E+04  0.25500000920E-02 0. -1.
    10030    2    1    2    0    0  0.00000000000E+00  0.00000000000E+00  0.13449054712E+04  0.34741651613E+04  0.32032878174E+04 0.  0.
        5    1    3    3  502    0  0.38175396876E+03 -0.65255426411E+03  0.22038293219E+04  0.23299032020E+04  0.46999998093E+01 0.  1.
       -5    1    3    3    0  502 -0.38175396876E+03  0.65255426411E+03 -0.85892385069E+03  0.11442619593E+04  0.46999998093E+01 0. -1.
</event>
<event>
 5   0  0.8195618E-07  0.3207540E+04  0.7818609E-02  0.8186829E-01
        2   -1    0    0  501    0  0.00000000000E+00  0.00000000000E+00  0.93115107114E+03  0.93115107114E+03  0.25500000920E-02 0. -1.
       -2   -1    0    0    0  501  0.00000000000E+00  0.00000000000E+00 -0.27622572835E+04  0.27622572835E+04  0.25500000920E-02 0.  1.
    10030    2    1    2    0    0  0.00000000000E+00  0.00000000000E+00 -0.18311062123E+04  0.36934083546E+04  0.32075403837E+04 0.  0.
        1    1    3    3  502    0 -0.14477009889E+04  0.40617602330E+03 -0.15579716165E+04  0.21652003771E+04  0.50400001928E-02 0.  1.
       -1    1    3    3    0  502  0.14477009889E+04 -0.40617602330E+03 -0.27313459583E+03  0.15282079775E+04  0.50400001928E-02 0. -1.
</event>
<event>
 5   0  0.2891204E-07  0.3194862E+04  0.7818609E-02  0.8190175E-01
        1   -1    0    0  501    0  0.00000000000E+00  0.00000000000E+00  0.13970024129E+04  0.13970024129E+04  0.50400001928E-02 0. -1.
       -1   -1    0    0    0  501  0.00000000000E+00  0.00000000000E+00 -0.18266153180E+04  0.18266153180E+04  0.50400001928E-02 0.  1.
    10030    2    1    2    0    0  0.00000000000E+00  0.00000000000E+00 -0.42961290511E+03  0.32236177308E+04  0.31948621295E+04 0.  0.
        4    1    3    3  502    0  0.36720116202E+02  0.13843056700E+04 -0.10182990478E+04  0.17188906651E+04  0.12699999809E+01 0.  1.
       -4    1    3    3    0  502 -0.36720116202E+02 -0.13843056700E+04  0.58868614274E+03  0.15047270657E+04  0.12699999809E+01 0. -1.
</event>
<event>
 5   0  0.3075756E-07  0.3031075E+04  0.7818609E-02  0.8234912E-01
       -1   -1    0    0    0  501  0.00000000000E+00  0.00000000000E+00  0.17541209732E+04  0.17541209732E+04  0.50400001928E-02 0.  1.
        1   -1    0    0  501    0  0.00000000000E+00  0.00000000000E+00 -0.13094047527E+04  0.13094047528E+04  0.50400001928E-02 0. -1.
    10030    2    1    2    0    0  0.00000000000E+00  0.00000000000E+00  0.44471622046E+03  0.30635257260E+04  0.30310752806E+04 0.  0.
        5    1    3    3  502    0  0.48880193772E+03 -0.10810738214E+04 -0.73070290183E+03  0.13934119141E+04  0.46999998093E+01 0. -1.
       -5    1    3    3    0  502 -0.48880193772E+03  0.10810738214E+04  0.11754191223E+04  0.16701138119E+04  0.46999998093E+01 0.  1.
</event>
<event>
 5   0  0.8802800E-07  0.3198051E+04  0.7818609E-02  0.8189332E-01
        2   -1    0    0  501    0  0.00000000000E+00  0.00000000000E+00  0.21129431899E+04  0.21129431899E+04  0.25500000920E-02 0. -1.
       -2   -1    0    0    0  501  0.00000000000E+00  0.00000000000E+00 -0.12101047467E+04  0.12101047467E+04  0.25500000920E-02 0.  1.
    10030    2    1    2    0    0  0.00000000000E+00  0.00000000000E+00  0.90283844326E+03  0.33230479366E+04  0.31980510212E+04 0.  0.
        5    1    3    3  502    0 -0.73177873431E+03  0.74276482906E+03 -0.80825943603E+03  0.13192820446E+04  0.46999998093E+01 0.  1.
       -5    1    3    3    0  502  0.73177873431E+03 -0.74276482906E+03  0.17110978793E+04  0.20037658920E+04  0.46999998093E+01 0. -1.
</event>
<event>
 5   0  0.8838951E-07  0.3216198E+04  0.7818609E-02  0.8184552E-01
        2   -1    0    0  501    0  0.00000000000E+00  0.00000000000E+00  0.13884088706E+04  0.13884088706E+04  0.25500000920E-02 0. -1.
       -2   -1    0    0    0  501  0.00000000000E+00  0.00000000000E+00 -0.18625510526E+04  0.18625510526E+04  0.25500000920E-02 0.  1.
    10030    2    1    2    0    0  0.00000000000E+00  0.00000000000E+00 -0.47414218197E+03  0.32509599232E+04  0.32161980059E+04 0.  0.
        2    1    3    3  502    0 -0.55486431434E+03  0.12848696135E+04 -0.10376020260E+04  0.17422348565E+04  0.25500000920E-02 0.  1.
       -2    1    3    3    0  502  0.55486431434E+03 -0.12848696135E+04  0.56345984399E+03  0.15087250667E+04  0.25500000920E-02 0. -1.
</event>
<event>
 5   0  0.8488469E-07  0.3189592E+04  0.7818609E-02  0.8191571E-01
        2   -1    0    0  501    0  0.00000000000E+00  0.00000000000E+00  0.26096270837E+04  0.26096270837E+04  0.25500000920E-02 0.  1.
       -2   -1    0    0    0  501  0.00000000000E+00  0.00000000000E+00 -0.97461198262E+03  0.97461198262E+03  0.25500000920E-02 0. -1.
    10030    2    1    2    0    0  0.00000000000E+00  0.00000000000E+00  0.16350151011E+04  0.35842390663E+04  0.31895917143E+04 0.  0.
        3    1    3    3  502    0 -0.66934554174E+03 -0.14950708985E+03  0.24354434644E+04  0.25301700937E+04  0.10100000352E+00 0.  1.
       -3    1    3    3    0  502  0.66934554174E+03  0.14950708985E+03 -0.80042836333E+03  0.10540689727E+04  0.10100000352E+00 0. -1.
</event>
<event>
 5   0  0.3013888E-07  0.3202481E+04  0.7818609E-02  0.8188162E-01
       -1   -1    0    0    0  501  0.00000000000E+00  0.00000000000E+00  0.13429250030E+04  0.13429250030E+04  0.50400001928E-02 0. -1.
        1   -1    0    0  501    0  0.00000000000E+00  0.00000000000E+00 -0.19092440757E+04  0.19092440757E+04  0.50400001928E-02 0.  1.
    10030    2    1    2    0    0  0.00000000000E+00  0.00000000000E+00 -0.56631907270E+03  0.32521690788E+04  0.32024812919E+04 0.  0.
        1    1    3    3  502    0  0.95289153062E+03 -0.38820291214E+03  0.96276978311E+03  0.14091236374E+04  0.50400001928E-02 0. -1.
       -1    1    3    3    0  502 -0.95289153062E+03  0.38820291214E+03 -0.15290888558E+04  0.18430454414E+04  0.50400001928E-02 0.  1.
</event>
<event>
 5   0  0.8488469E-07  0.3223434E+04  0.7818609E-02  0.8182656E-01
       -2   -1    0    0    0  501  0.00000000000E+00  0.00000000000E+00  0.16359436370E+04  0.16359436370E+04  0.25500000920E-02 0. -1.
        2   -1    0    0  501    0  0.00000000000E+00  0.00000000000E+00 -0.15878488088E+04  0.15878488088E+04  0.25500000920E-02 0.  1.
    10030    2    1    2    0    0  0.00000000000E+00  0.00000000000E+00  0.48094828137E+02  0.32237924458E+04  0.32234336694E+04 0.  0.
        3    1    3    3  502    0  0.12124957522E+04 -0.79670770827E+02 -0.10349083683E+04  0.15960979675E+04  0.10100000352E+00 0.  1.
       -3    1    3    3    0  502 -0.12124957522E+04  0.79670770827E+02  0.10830031965E+04  0.16276944783E+04  0.10100000352E+00 0. -1.
</event>
<event>
 5   0  0.8802800E-07  0.3225154E+04  0.7818609E-02  0.8182206E-01
       -2   -1    0    0    0  501  0.00000000000E+00  0.00000000000E+00  0.14513159704E+04  0.14513159704E+04  0.25500000920E-02 0. -1.
        2   -1    0    0  501    0  0.00000000000E+00  0.00000000000E+00 -0.17917561723E+04  0.17917561723E+04  0.25500000920E-02 0.  1.
    10030    2    1    2    0    0  0.00000000000E+00  0.00000000000E+00 -0.34044020191E+03  0.32430721426E+04  0.32251538555E+04 0.  0.
        5    1    3    3  502    0  0.13463189997E+04  0.85189889418E+03 -0.42075424686E+03  0.16478357931E+04  0.46999998093E+01 0.  1.
       -5    1    3    3    0  502 -0.13463189997E+04 -0.85189889418E+03  0.80314044945E+02  0.15952363495E+04  0.46999998093E+01 0. -1.
</event>
<event>
 5   0  0.3013888E-07  0.3152601E+04  0.7818609E-02  0.8201448E-01
       -1   -1    0    0    0  501  0.00000000000E+00  0.00000000000E+00  0.22579165016E+04  0.22579165016E+04  0.50400001928E-02 0. -1.
        1   -1    0    0  501    0  0.00000000000E+00  0.00000000000E+00 -0.11004497208E+04  0.11004497208E+04  0.50400001928E-02 0.  1.
    10030    2    1    2    0    0  0.00000000000E+00  0.00000000000E+00  0.11574667808E+04  0.33583662224E+04  0.31526012013E+04 0.  0.
        1    1    3    3  502    0  0.15463808253E+04  0.27450538179E+03  0.72195839883E+03  0.17285458603E+04  0.50400001928E-02 0.  1.
       -1    1    3    3    0  502 -0.15463808253E+04 -0.27450538179E+03  0.43550838198E+03  0.16298203620E+04  0.50400001928E-02 0. -1.
</event>
<event>
 5   0  0.2783875E-07  0.3202414E+04  0.7818609E-02  0.8188180E-01
       -1   -1    0    0    0  501  0.00000000000E+00  0.00000000000E+00  0.91468246906E+03  0.91468246907E+03  0.50400001928E-02 0. -1.
        1   -1    0    0  501    0  0.00000000000E+00  0.00000000000E+00 -0.28030092062E+04  0.28030092062E+04  0.50400001928E-02 0.  1.
    10030    2    1    2    0    0  0.00000000000E+00  0.00000000000E+00 -0.18883267372E+04  0.37176916753E+04  0.32024137032E+04 0.  0.
        2    1    3    3  502    0 -0.82628518311E+02  0.72230998654E+03 -0.26003550430E+04  0.27000750987E+04  0.25500000920E-02 0.  1.
       -2    1    3    3    0  502  0.82628518311E+02 -0.72230998654E+03  0.71202830586E+03  0.10176165766E+04  0.25500000920E-02 0. -1.
</event>
<event>
 5   0  0.8335929E-07  0.3202046E+04  0.7818609E-02  0.8188277E-01
       -2   -1    0    0    0  501  0.00000000000E+00  0.00000000000E+00  0.10445800475E+04  0.10445800475E+04  0.25500000920E-02 0.  1.
        2   -1    0    0  501    0  0.00000000000E+00  0.00000000000E+00 -0.24538811497E+04  0.24538811497E+04  0.25500000920E-02 0. -1.
    10030    2    1    2    0    0  0.00000000000E+00  0.00000000000E+00 -0.14093011022E+04  0.34984611972E+04  0.32020464006E+04 0.  0.
        4    1    3    3  502    0  0.88777541424E+03  0.12038627613E+04 -0.13283187486E+04  0.20004657070E+04  0.12699999809E+01 0. -1.
       -4    1    3    3    0  502 -0.88777541424E+03 -0.12038627613E+04 -0.80982353663E+02  0.14979954902E+04  0.12699999809E+01 0.  1.
</event>
<event>
 5   0  0.8335929E-07  0.3209113E+04  0.7818609E-02  0.8186415E-01
       -2   -1    0    0    0  501  0.00000000000E+00  0.00000000000E+00  0.33606828863E+04  0.33606828863E+04  0.25500000920E-02 0. -1.
        2   -1    0    0  501    0  0.00000000000E+00  0.00000000000E+00 -0.76609484198E+03  0.76609484198E+03  0.25500000920E-02 0.  1.
    10030    2    1    2    0    0  0.00000000000E+00  0.00000000000E+00  0.25945880443E+04  0.41267777283E+04  0.32091131639E+04 0.  0.
        4    1    3    3  502    0  0.10906140809E+04  0.52134474324E+03 -0.59593999445E+02  0.12102861118E+04  0.12699999809E+01 0.  1.
       -4    1    3    3    0  502 -0.10906140809E+04 -0.52134474324E+03  0.26541820438E+04  0.29164916165E+04  0.12699999809E+01 0. -1.
</event>
<event>
 5   0  0.8838951E-07  0.3162630E+04  0.7818609E-02  0.8198757E-01
       -2   -1    0    0    0  501  0.00000000000E+00  0.00000000000E+00  0.18596639477E+04  0.18596639477E+04  0.25500000920E-02 0. -1.
        2   -1    0    0  501    0  0.00000000000E+00  0.00000000000E+00 -0.13446288127E+04  0.13446288127E+04  0.25500000920E-02 0.  1.
    10030    2    1    2    0    0  0.00000000000E+00  0.00000000000E+00  0.51503513502E+03  0.32042927604E+04  0.31626303774E+04 0.  0.
        2    1    3    3  502    0  0.49038408717E+03  0.10425267997E+04 -0.83990352382E+03  0.14257547511E+04  0.25500000920E-02 0.  1.
       -2    1    3    3    0  502 -0.49038408717E+03 -0.10425267997E+04  0.13549386588E+04  0.17785380092E+04  0.25500000920E-02 0. -1.
</event>
<event>
 5   0  0.8195618E-07  0.3197905E+04  0.7818609E-02  0.8189371E-01
        2   -1    0    0  501    0  0.00000000000E+00  0.00000000000E+00  0.17909290984E+04  0.17909290984E+04  0.25500000920E-02 0. -1.
       -2   -1    0    0    0  501  0.00000000000E+00  0.00000000000E+00 -0.14275544370E+04  0.14275544370E+04  0.25500000920E-02 0.  1.
    10030    2    1    2    0    0  0.00000000000E+00  0.00000000000E+00  0.36337466142E+03  0.32184835354E+04  0.31979048020E+04 0.  0.
        1    1    3    3  502    0  0.37910235209E+03 -0.60011546897E+03 -0.12602892027E+04  0.14464390909E+04  0.50400001928E-02 0.  1.
       -1    1    3    3    0  502 -0.37910235209E+03  0.60011546897E+03  0.16236638641E+04  0.17720444444E+04  0.50400001928E-02 0. -1.
</event>
<event>
 5   0  0.8335929E-07  0.3220704E+04  0.7818609E-02  0.8183371E-01
       -2   -1    0    0    0  501  0.00000000000E+00  0.00000000000E+00  0.11368550421E+04  0.11368550421E+04  0.25500000920E-02 0. -1.
        2   -1    0    0  501    0  0.00000000000E+00  0.00000000000E+00 -0.22810584343E+04  0.22810584343E+04  0.25500000920E-02 0.  1.
    10030    2    1    2    0    0  0.00000000000E+00  0.00000000000E+00 -0.11442033921E+04  0.34179134764E+04  0.32207035147E+04 0.  0.
        4    1    3    3  502    0 -0.12032916944E+04  0.92690578307E+03 -0.11398022081E+04  0.18990039281E+04  0.12699999809E+01 0.  1.
       -4    1    3    3    0  502  0.12032916944E+04 -0.92690578307E+03 -0.44011840013E+01  0.15189095483E+04  0.12699999809E+01 0. -1.
</event>
<event>
 5   0  0.8488469E-07  0.3156874E+04  0.7818609E-02  0.8200300E-01
       -2   -1    0    0    0  501  0.00000000000E+00  0.00000000000E+00  0.11514922982E+04  0.11514922982E+04  0.25500000920E-02 0. -1.
        2   -1    0    0  501    0  0.00000000000E+00  0.00000000000E+00 -0.21636824406E+04  0.21636824406E+04  0.25500000920E-02 0.  1.
    10030    2    1    2    0    0  0.00000000000E+00  0.00000000000E+00 -0.10121901424E+04  0.33151747388E+04  0.31568741921E+04 0.  0.
        3    1    3    3  502    0 -0.14907674705E+04  0.50546370705E+03 -0.38370726843E+03  0.16202198889E+04  0.10100000352E+00 0. -1.
       -3    1    3    3    0  502  0.14907674705E+04 -0.50546370705E+03 -0.62848287394E+03  0.16949548499E+04  0.10100000352E+00 0.  1.
</event>
<event>
 5   0  0.3013888E-07  0.3217722E+04  0.7818609E-02  0.8184153E-01
       -1   -1    0    0    0  501  0.00000000000E+00  0.00000000000E+00  0.12488303239E+04  0.12488303240E+04  0.50400001928E-02 0. -1.
        1   -1    0    0  501    0  0.00000000000E+00  0.00000000000E+00 -0.20726861679E+04  0.20726861679E+04  0.50400001928E-02 0.  1.
    10030    2    1    2    0    0  0.00000000000E+00  0.00000000000E+00 -0.82385584395E+03  0.33215164919E+04  0.32177217646E+04 0.  0.
        1    1    3    3  502    0  0.87307679902E+02 -0.15831399889E+04 -0.69363861790E+03  0.17306326553E+04  0.50400001928E-02 0. -1.
       -1    1    3    3    0  502 -0.87307679902E+02  0.15831399889E+04 -0.13021722605E+03  0.15908838365E+04  0.50400001928E-02 0.  1.
</event>
<event>
 5   0  0.2997105E-07  0.3200343E+04  0.7818609E-02  0.8188727E-01
        1   -1    0    0  501    0  0.00000000000E+00  0.00000000000E+00  0.87998892590E+03  0.87998892591E+03  0.50400001928E-02 0. -1.
       -1   -1    0    0    0  501  0.00000000000E+00  0.00000000000E+00 -0.29097513993E+04  0.29097513994E+04  0.50400001928E-02 0.  1.
    10030    2    1    2    0    0  0.00000000000E+00  0.00000000000E+00 -0.20297624735E+04  0.37897403253E+04  0.32003431120E+04 0.  0.
        3    1    3    3  502    0 -0.10453224512E+04 -0.11646973658E+04 -0.14099921720E+04  0.21064892395E+04  0.10100000352E+00 0. -1.
       -3    1    3    3    0  502  0.10453224512E+04  0.11646973658E+04 -0.61977030145E+03  0.16832510857E+04  0.10100000352E+00 0.  1.
</event>
<event>
 5   0  0.2891204E-07  0.3183364E+04  0.7818609E-02  0.8193224E-01
        1   -1    0    0  501    0  0.00000000000E+00  0.00000000000E+00  0.99785139690E+03  0.99785139691E+03  0.50400001928E-02 0.  1.
       -1   -1    0    0    0  501  0.00000000000E+00  0.00000000000E+00 -0.25389071122E+04  0.25389071122E+04  0.50400001928E-02 0. -1.
    10030    2    1    2    0    0  0.00000000000E+00  0.00000000000E+00 -0.15410557153E+04  0.35367585091E+04  0.31833642635E+04 0.  0.
        4    1    3    3  502    0  0.10909878957E+04  0.17364210600E+03 -0.20436168048E+04  0.23230965170E+04  0.12699999809E+01 0. -1.
       -4    1    3    3    0  502 -0.10909878957E+04 -0.17364210600E+03  0.50256108953E+03  0.12136619921E+04  0.12699999809E+01 0.  1.
</event>
<event>
 5   0  0.3013888E-07  0.3206689E+04  0.7818609E-02  0.8187053E-01
       -1   -1    0    0    0  501  0.00000000000E+00  0.00000000000E+00  0.10921465228E+04  0.10921465228E+04  0.50400001928E-02 0. -1.
        1   -1    0    0  501    0  0.00000000000E+00  0.00000000000E+00 -0.23538171913E+04  0.23538171913E+04  0.50400001928E-02 0.  1.
    10030    2    1    2    0    0  0.00000000000E+00  0.00000000000E+00 -0.12616706685E+04  0.34459637142E+04  0.32066887974E+04 0.  0.
        1    1    3    3  502    0  0.21635508158E+03 -0.12346853803E+04  0.44348963873E+03  0.13296392629E+04  0.50400001928E-02 0. -1.
       -1    1    3    3    0  502 -0.21635508158E+03  0.12346853803E+04 -0.17051603072E+04  0.21163244513E+04  0.50400001928E-02 0.  1.
</event>
<event>
 5   0  0.8195618E-07  0.3202522E+04  0.7818609E-02  0.8188151E-01
        2   -1    0    0  501    0  0.00000000000E+00  0.00000000000E+00  0.18511754441E+04  0.18511754441E+04  0.25500000920E-02 0.  1.
       -2   -1    0    0    0  501  0.00000000000E+00  0.00000000000E+00 -0.13850857690E+04  0.13850857690E+04  0.25500000920E-02 0. -1.
    10030    2    1    2    0    0  0.00000000000E+00  0.00000000000E+00  0.46608967512E+03  0.32362612131E+04  0.32025219834E+04 0.  0.
        1    1    3    3  502    0  0.95947614672E+03 -0.11892698828E+04 -0.25061998147E+03  0.15484727009E+04  0.50400001928E-02 0. -1.
       -1    1    3    3    0  502 -0.95947614672E+03  0.11892698828E+04  0.71670965659E+03  0.16877885123E+04  0.50400001928E-02 0.  1.
</event>
<event>
 5   0  0.8335929E-07  0.3202962E+04  0.7818609E-02  0.8188035E-01
       -2   -1    0    0    0  501  0.00000000000E+00  0.00000000000E+00  0.29117245164E+04  0.29117245164E+04  0.25500000920E-02 0.  1.
        2   -1    0    0  501    0  0.00000000000E+00  0.00000000000E+00 -0.88083229969E+03  0.88083229970E+03  0.25500000920E-02 0. -1.
    10030    2    1    2    0    0  0.00000000000E+00  0.00000000000E+00  0.20308922167E+04  0.37925568161E+04  0.32029617556E+04 0.  0.
        4    1    3    3  502    0 -0.21245785332E+02 -0.95751499231E+03 -0.50435537927E+03  0.10824335108E+04  0.12699999809E+01 0. -1.
       -4    1    3    3    0  502  0.21245785332E+02  0.95751499231E+03  0.25352475960E+04  0.27101233053E+04  0.12699999809E+01 0.  1.
</event>
<event>
 5   0  0.8838951E-07  0.3204804E+04  0.7818609E-02  0.8187549E-01
       -2   -1    0    0    0  501  0.00000000000E+00  0.00000000000E+00  0.19515384477E+04  0.19515384477E+04  0.25500000920E-02 0. -1.
        2   -1    0    0  501    0  0.00000000000E+00  0.00000000000E+00 -0.13157275060E+04  0.13157275060E+04  0.25500000920E-02 0.  1.
    10030    2    1    2    0    0  0.00000000000E+00  0.00000000000E+00  0.63581094169E+03  0.32672659537E+04  0.32048044026E+04 0.  0.
        2    1    3    3  502    0 -0.88493111297E+03  0.72158277042E+03  0.14640534628E+04  0.18566737224E+04  0.25500000920E-02 0. -1.
       -2    1    3    3    0  502  0.88493111297E+03 -0.72158277042E+03 -0.82824252116E+03  0.14105922313E+04  0.25500000920E-02 0.  1.
</event>
<event>
 5   0  0.3075756E-07  0.3163245E+04  0.7818609E-02  0.8198592E-01
        1   -1    0    0  501    0  0.00000000000E+00  0.00000000000E+00  0.17964212207E+04  0.17964212208E+04  0.50400001928E-02 0. -1.
       -1   -1    0    0    0  501  0.00000000000E+00  0.00000000000E+00 -0.13925076746E+04  0.13925076746E+04  0.50400001928E-02 0.  1.
    10030    2    1    2    0    0  0.00000000000E+00  0.00000000000E+00  0.40391354618E+03  0.31889288953E+04  0.31632453820E+04 0.  0.
        5    1    3    3  502    0 -0.45789016428E+03 -0.77538218231E+03 -0.11088416005E+04  0.14284371586E+04  0.46999998093E+01 0.  1.
       -5    1    3    3    0  502  0.45789016428E+03  0.77538218231E+03  0.15127551467E+04  0.17604917367E+04  0.46999998093E+01 0. -1.
</event>
<event>
 5   0  0.2997105E-07  0.3181557E+04  0.7818609E-02  0.8193705E-01
        1   -1    0    0  501    0  0.00000000000E+00  0.00000000000E+00  0.25293769052E+04  0.25293769052E+04  0.50400001928E-02 0.  1.
       -1   -1    0    0    0  501  0.00000000000E+00  0.00000000000E+00 -0.10004741470E+04  0.10004741471E+04  0.50400001928E-02 0. -1.
    10030    2    1    2    0    0  0.00000000000E+00  0.00000000000E+00  0.15289027582E+04  0.35298510523E+04  0.31815569785E+04 0.  0.
        3    1    3    3  502    0 -0.63379107438E+03  0.14586111700E+04  0.72386043406E+03  0.17473441589E+04  0.10100000352E+00 0. -1.
       -3    1    3    3    0  502  0.63379107438E+03 -0.14586111700E+04  0.80504232411E+03  0.17825068934E+04  0.10100000352E+00 0.  1.
</event>
<event>
 5   0  0.8195618E-07  0.3273847E+04  0.7818609E-02  0.8169582E-01
       -2   -1    0    0    0  501  0.00000000000E+00  0.00000000000E+00  0.14199370199E+04  0.14199370199E+04  0.25500000920E-02 0.  1.
        2   -1    0    0  501    0  0.00000000000E+00  0.00000000000E+00 -0.18870682774E+04  0.18870682774E+04  0.25500000920E-02 0. -1.
    10030    2    1    2    0    0  0.00000000000E+00  0.00000000000E+00 -0.46713125748E+03  0.33070052974E+04  0.32738467321E+04 0.  0.
        1    1    3    3  502    0 -0.10141667342E+04 -0.46267266661E+03 -0.14444217209E+04  0.18245422081E+04  0.50400001928E-02 0. -1.
       -1    1    3    3    0  502  0.10141667342E+04  0.46267266661E+03  0.97729046343E+03  0.14824630893E+04  0.50400001928E-02 0.  1.
</event>
<event>
 5   0  0.2891204E-07  0.3197495E+04  0.7818609E-02  0.8189479E-01
        1   -1    0    0  501    0  0.00000000000E+00  0.00000000000E+00  0.23147740055E+04  0.23147740055E+04  0.50400001928E-02 0.  1.
       -1   -1    0    0    0  501  0.00000000000E+00  0.00000000000E+00 -0.11042086625E+04  0.11042086625E+04  0.50400001928E-02 0. -1.
    10030    2    1    2    0    0  0.00000000000E+00  0.00000000000E+00  0.12105653430E+04  0.34189826681E+04  0.31974949625E+04 0.  0.
        4    1    3    3  502    0 -0.11102615403E+04  0.19260492308E+03  0.18179557593E+04  0.21388646755E+04  0.12699999809E+01 0.  1.
       -4    1    3    3    0  502  0.11102615403E+04 -0.19260492308E+03 -0.60739041634E+03  0.12801179926E+04  0.12699999809E+01 0. -1.
</event>
<event>
 5   0  0.2997105E-07  0.3214735E+04  0.7818609E-02  0.8184937E-01
        1   -1    0    0  501    0  0.00000000000E+00  0.00000000000E+00  0.18913235072E+04  0.18913235072E+04  0.50400001928E-02 0. -1.
       -1   -1    0    0    0  501  0.00000000000E+00  0.00000000000E+00 -0.13660434162E+04  0.13660434162E+04  0.50400001928E-02 0.  1.
    10030    2    1    2    0    0  0.00000000000E+00  0.00000000000E+00  0.52528009099E+03  0.32573669234E+04  0.32147348412E+04 0.  0.
        3    1    3    3  502    0 -0.15625747574E+04 -0.34415123129E+03  0.41813548163E+03  0.16537585173E+04  0.10100000352E+00 0.  1.
       -3    1    3    3    0  502  0.15625747574E+04  0.34415123129E+03  0.10714460937E+03  0.16036084061E+04  0.10100000352E+00 0. -1.
</event>
<event>
 5   0  0.3013888E-07  0.3158857E+04  0.7818609E-02  0.8199768E-01
        1   -1    0    0  501    0  0.00000000000E+00  0.00000000000E+00  0.23316737022E+04  0.23316737022E+04  0.50400001928E-02 0. -1.
       -1   -1    0    0    0  501  0.00000000000E+00  0.00000000000E+00 -0.10698729077E+04  0.10698729077E+04  0.50400001928E-02 0.  1.
    10030    2    1    2    0    0  0.00000000000E+00  0.00000000000E+00  0.12618007945E+04  0.34015466099E+04  0.31588570867E+04 0.  0.
        1    1    3    3  502    0 -0.15057575192E+04 -0.46450345637E+03  0.51529619465E+03  0.16578900253E+04  0.50400001928E-02 0.  1.
       -1    1    3    3    0  502  0.15057575192E+04  0.46450345637E+03  0.74650459989E+03  0.17436565847E+04  0.50400001928E-02 0. -1.
</event>
<event>
 5   0  0.3075756E-07  0.3197885E+04  0.7818609E-02  0.8189376E-01
        1   -1    0    0  501    0  0.00000000000E+00  0.00000000000E+00  0.22254914489E+04  0.22254914489E+04  0.50400001928E-02 0. -1.
       -1   -1    0    0    0  501  0.00000000000E+00  0.00000000000E+00 -0.11487876644E+04  0.11487876644E+04  0.50400001928E-02 0.  1.
    10030    2    1    2    0    0  0.00000000000E+00  0.00000000000E+00  0.10767037845E+04  0.33742791132E+04  0.31978850033E+04 0.  0.
        5    1    3    3  502    0  0.72147063912E+03  0.83492698217E+03 -0.68261509834E+03  0.12975393679E+04  0.46999998093E+01 0.  1.
       -5    1    3    3    0  502 -0.72147063912E+03 -0.83492698217E+03  0.17593188828E+04  0.20767397454E+04  0.46999998093E+01 0. -1.
</event>
<event>
 5   0  0.2997105E-07  0.3197146E+04  0.7818609E-02  0.8189571E-01
        1   -1    0    0  501    0  0.00000000000E+00  0.00000000000E+00  0.18422476018E+04  0.18422476018E+04  0.50400001928E-02 0.  1.
       -1   -1    0    0    0  501  0.00000000000E+00  0.00000000000E+00 -0.13871294369E+04  0.13871294369E+04  0.50400001928E-02 0. -1.
    10030    2    1    2    0    0  0.00000000000E+00  0.00000000000E+00  0.45511816484E+03  0.32293770387E+04  0.31971461515E+04 0.  0.
        3    1    3    3  502    0  0.15732949157E+04  0.23572069409E+03  0.69086618249E+02  0.15923548939E+04  0.10100000352E+00 0. -1.
       -3    1    3    3    0  502 -0.15732949157E+04 -0.23572069409E+03  0.38603154659E+03  0.16370221448E+04  0.10100000352E+00 0.  1.
</event>
<event>
 5   0  0.8335929E-07  0.3194183E+04  0.7818609E-02  0.8190355E-01
       -2   -1    0    0    0  501  0.00000000000E+00  0.00000000000E+00  0.84704112849E+03  0.84704112849E+03  0.25500000920E-02 0.  1.
        2   -1    0    0  501    0  0.00000000000E+00  0.00000000000E+00 -0.30113079932E+04  0.30113079932E+04  0.25500000920E-02 0. -1.
    10030    2    1    2    0    0  0.00000000000E+00  0.00000000000E+00 -0.21642668648E+04  0.38583491217E+04  0.31941832889E+04 0.  0.
        4    1    3    3  502    0 -0.12320163382E+04 -0.10065272446E+04 -0.12518411455E+04  0.20243688444E+04  0.12699999809E+01 0. -1.
       -4    1    3    3    0  502  0.12320163382E+04  0.10065272446E+04 -0.91242571923E+03  0.18339802773E+04  0.12699999809E+01 0.  1.
</event>
<event>
 5   0  0.8195618E-07  0.3218027E+04  0.7818609E-02  0.8184072E-01
        2   -1    0    0  501    0  0.00000000000E+00  0.00000000000E+00  0.19679136206E+04  0.19679136206E+04  0.25500000920E-02 0. -1.
       -2   -1    0    0    0  501  0.00000000000E+00  0.00000000000E+00 -0.13155681885E+04  0.13155681885E+04  0.25500000920E-02 0.  1.
    10030    2    1    2    0    0  0.00000000000E+00  0.00000000000E+00  0.65234543207E+03  0.32834818091E+04  0.32180270707E+04 0.  0.
        1    1    3    3  502    0 -0.16854324079E+03 -0.66167922964E+03 -0.11604099364E+04  0.13463942393E+04  0.50400001928E-02 0.  1.
       -1    1    3    3    0  502  0.16854324079E+03  0.66167922964E+03  0.18127553685E+04  0.19370875698E+04  0.50400001928E-02 0. -1.
</event>
<event>
 5   0  0.2891204E-07  0.3207915E+04  0.7818609E-02  0.8186730E-01
        1   -1    0    0  501    0  0.00000000000E+00  0.00000000000E+00  0.13764446558E+04  0.13764446558E+04  0.50400001928E-02 0. -1.
       -1   -1    0    0    0  501  0.00000000000E+00  0.00000000000E+00 -0.18690758455E+04  0.18690758455E+04  0.50400001928E-02 0.  1.
    10030    2    1    2    0    0  0.00000000000E+00  0.00000000000E+00 -0.49263118967E+03  0.32455205013E+04  0.32079148735E+04 0.  0.
        4    1    3    3  502    0 -0.32644266453E+03 -0.15564731595E+04 -0.35293564604E+02  0.15907296307E+04  0.12699999809E+01 0.  1.
       -4    1    3    3    0  502  0.32644266453E+03  0.15564731595E+04 -0.45733762506E+03  0.16547908706E+04  0.12699999809E+01 0. -1.
</event>
<event>
 5   0  0.8802800E-07  0.3225554E+04  0.7818609E-02  0.8182101E-01
        2   -1    0    0  501    0  0.00000000000E+00  0.00000000000E+00  0.16586665664E+04  0.16586665664E+04  0.25500000920E-02 0. -1.
       -2   -1    0    0    0  501  0.00000000000E+00  0.00000000000E+00 -0.15681568883E+04  0.15681568883E+04  0.25500000920E-02 0.  1.
    10030    2    1    2    0    0  0.00000000000E+00  0.00000000000E+00  0.90509678161E+02  0.32268234547E+04  0.32255538448E+04 0.  0.
        5    1    3    3  502    0  0.10752783238E+04 -0.61383745272E+03  0.10791060573E+04  0.16424103826E+04  0.46999998093E+01 0. -1.
       -5    1    3    3    0  502 -0.10752783238E+04  0.61383745272E+03 -0.98859637914E+03  0.15844130721E+04  0.46999998093E+01 0.  1.
</event>
<event>
 5   0  0.2891204E-07  0.3190282E+04  0.7818609E-02  0.8191388E-01
        1   -1    0    0  501    0  0.00000000000E+00  0.00000000000E+00  0.23002487720E+04  0.23002487720E+04  0.50400001928E-02 0.  1.
       -1   -1    0    0    0  501  0.00000000000E+00  0.00000000000E+00 -0.11061736792E+04  0.11061736792E+04  0.50400001928E-02 0. -1.
    10030    2    1    2    0    0  0.00000000000E+00  0.00000000000E+00  0.11940750928E+04  0.34064224511E+04  0.31902818979E+04 0.  0.
        4    1    3    3  502    0 -0.13462556679E+04 -0.16396345394E+02 -0.31637213619E+03  0.13830278757E+04  0.12699999809E+01 0. -1.
       -4    1    3    3    0  502  0.13462556679E+04  0.16396345394E+02  0.15104472290E+04  0.20233945755E+04  0.12699999809E+01 0.  1.
</event>
<event>
 5   0  0.3013888E-07  0.3149419E+04  0.7818609E-02  0.8202305E-01
        1   -1    0    0  501    0  0.00000000000E+00  0.00000000000E+00  0.13070970015E+04  0.13070970015E+04  0.50400001928E-02 0.  1.
       -1   -1    0    0    0  501  0.00000000000E+00  0.00000000000E+00 -0.18971119252E+04  0.18971119252E+04  0.50400001928E-02 0. -1.
    10030    2    1    2    0    0  0.00000000000E+00  0.00000000000E+00 -0.59001492366E+03  0.32042089267E+04  0.31494185552E+04 0.  0.
        1    1    3    3  502    0 -0.10842717875E+03 -0.14345916872E+04  0.35636465413E+03  0.14821624502E+04  0.50400001928E-02 0.  1.
       -1    1    3    3    0  502  0.10842717875E+03  0.14345916872E+04 -0.94637957780E+03  0.17220464765E+04  0.50400001928E-02 0. -1.
</event>
<event>
 5   0  0.3013888E-07  0.3198693E+04  0.7818609E-02  0.8189163E-01
        1   -1    0    0  501    0  0.00000000000E+00  0.00000000000E+00  0.19086338243E+04  0.19086338243E+04  0.50400001928E-02 0.  1.
       -1   -1    0    0    0  501  0.00000000000E+00  0.00000000000E+00 -0.13401777640E+04  0.13401777641E+04  0.50400001928E-02 0. -1.
    10030    2    1    2    0    0  0.00000000000E+00  0.00000000000E+00  0.56845606025E+03  0.32488115884E+04  0.31986926148E+04 0.  0.
        1    1    3    3  502    0  0.47775480860E+03  0.13536007775E+04  0.10005616546E+04  0.17497452234E+04  0.50400001928E-02 0.  1.
       -1    1    3    3    0  502 -0.47775480860E+03 -0.13536007775E+04 -0.43210559430E+03  0.14990663650E+04  0.50400001928E-02 0. -1.
</event>
<event>
 5   0  0.2997105E-07  0.3204056E+04  0.7818609E-02  0.8187747E-01
       -1   -1    0    0    0  501  0.00000000000E+00  0.00000000000E+00  0.85792114992E+03  0.85792114993E+03  0.50400001928E-02 0. -1.
        1   -1    0    0  501    0  0.00000000000E+00  0.00000000000E+00 -0.29915270360E+04  0.29915270361E+04  0.50400001928E-02 0.  1.
    10030    2    1    2    0    0  0.00000000000E+00  0.00000000000E+00 -0.21336058861E+04  0.38494481860E+04  0.32040563758E+04 0.  0.
        3    1    3    3  502    0  0.43829211270E+03 -0.18448927917E+03 -0.29047774377E+04  0.29434449618E+04  0.10100000352E+00 0.  1.
       -3    1    3    3    0  502 -0.43829211270E+03  0.18448927917E+03  0.77117155156E+03  0.90600322423E+03  0.10100000352E+00 0. -1.
</event>
<event>
 5   0  0.8802800E-07  0.3189333E+04  0.7818609E-02  0.8191640E-01
       -2   -1    0    0    0  501  0.00000000000E+00  0.00000000000E+00  0.16526775888E+04  0.16526775888E+04  0.25500000920E-02 0. -1.
        2   -1    0    0  501    0  0.00000000000E+00  0.00000000000E+00 -0.15386919992E+04  0.15386919992E+04  0.25500000920E-02 0.  1.
    10030    2    1    2    0    0  0.00000000000E+00  0.00000000000E+00  0.11398558961E+03  0.31913695879E+04  0.31893333366E+04 0.  0.
        5    1    3    3  502    0 -0.29956118232E+03  0.43507331749E+03 -0.14485986984E+04  0.15419098458E+04  0.46999998093E+01 0.  1.
       -5    1    3    3    0  502  0.29956118232E+03 -0.43507331749E+03  0.15625842881E+04  0.16494597421E+04  0.46999998093E+01 0. -1.
</event>
<event>
 5   0  0.8195618E-07  0.3191039E+04  0.7818609E-02  0.8191188E-01
        2   -1    0    0  501    0  0.00000000000E+00  0.00000000000E+00  0.17961597590E+04  0.17961597590E+04  0.25500000920E-02 0.  1.
       -2   -1    0    0    0  501  0.00000000000E+00  0.00000000000E+00 -0.14172918334E+04  0.14172918334E+04  0.25500000920E-02 0. -1.
    10030    2    1    2    0    0  0.00000000000E+00  0.00000000000E+00  0.37886792556E+03  0.32134515925E+04  0.31910390521E+04 0.  0.
        1    1    3    3  502    0  0.43507221347E+03 -0.44107758643E+03 -0.12912144601E+04  0.14321564336E+04  0.50400001928E-02 0. -1.
       -1    1    3    3    0  502 -0.43507221347E+03  0.44107758643E+03  0.16700823857E+04  0.17812951589E+04  0.50400001928E-02 0.  1.
</event>
<event>
 5   0  0.2891204E-07  0.3204374E+04  0.7818609E-02  0.8187663E-01
       -1   -1    0    0    0  501  0.00000000000E+00  0.00000000000E+00  0.13556155952E+04  0.13556155952E+04  0.50400001928E-02 0.  1.
        1   -1    0    0  501    0  0.00000000000E+00  0.00000000000E+00 -0.18936071008E+04  0.18936071008E+04  0.50400001928E-02 0. -1.
    10030    2    1    2    0    0  0.00000000000E+00  0.00000000000E+00 -0.53799150560E+03  0.32492226960E+04  0.32043740837E+04 0.  0.
        4    1    3    3  502    0  0.22154631026E+03  0.33328232408E+03  0.13041176921E+04  0.13641423836E+04  0.12699999809E+01 0.  1.
       -4    1    3    3    0  502 -0.22154631026E+03 -0.33328232408E+03 -0.18421091977E+04  0.18850803124E+04  0.12699999809E+01 0. -1.
</event>
<event>
 5   0  0.2997105E-07  0.3133434E+04  0.7818609E-02  0.8206622E-01
        1   -1    0    0  501    0  0.00000000000E+00  0.00000000000E+00  0.14419287759E+04  0.14419287759E+04  0.50400001928E-02 0.  1.
       -1   -1    0    0    0  501  0.00000000000E+00  0.00000000000E+00 -0.17023042498E+04  0.17023042498E+04  0.50400001928E-02 0. -1.
    10030    2    1    2    0    0  0.00000000000E+00  0.00000000000E+00 -0.26037547394E+03  0.31442330258E+04  0.31334335692E+04 0.  0.
        3    1    3    3  502    0  0.13993165816E+04  0.18945852293E+03  0.55084133276E+03  0.15157201627E+04  0.10100000352E+00 0.  1.
       -3    1    3    3    0  502 -0.13993165816E+04 -0.18945852293E+03 -0.81121680670E+03  0.16285128631E+04  0.10100000352E+00 0. -1.
</event>
<event>
 5   0  0.8802800E-07  0.3215423E+04  0.7818609E-02  0.8184756E-01
       -2   -1    0    0    0  501  0.00000000000E+00  0.00000000000E+00  0.15748154938E+04  0.15748154938E+04  0.25500000920E-02 0.  1.
        2   -1    0    0  501    0  0.00000000000E+00  0.00000000000E+00 -0.16412948020E+04  0.16412948020E+04  0.25500000920E-02 0. -1.
    10030    2    1    2    0    0  0.00000000000E+00  0.00000000000E+00 -0.66479308137E+02  0.32161102958E+04  0.32154231349E+04 0.  0.
        5    1    3    3  502    0  0.45899877566E+01 -0.16069807106E+04 -0.81274095051E+02  0.16090480543E+04  0.46999998093E+01 0.  1.
       -5    1    3    3    0  502 -0.45899877566E+01  0.16069807106E+04  0.14794786914E+02  0.16070622415E+04  0.46999998093E+01 0. -1.
</event>
<event>
 5   0  0.2997105E-07  0.3198459E+04  0.7818609E-02  0.8189224E-01
        1   -1    0    0  501    0  0.00000000000E+00  0.00000000000E+00  0.15600580248E+04  0.15600580248E+04  0.50400001928E-02 0. -1.
       -1   -1    0    0    0  501  0.00000000000E+00  0.00000000000E+00 -0.16393845023E+04  0.16393845023E+04  0.50400001928E-02 0.  1.
    10030    2    1    2    0    0  0.00000000000E+00  0.00000000000E+00 -0.79326477533E+02  0.31994425271E+04  0.31984589718E+04 0.  0.
        3    1    3    3  502    0 -0.48930011173E+03  0.88107600307E+02 -0.15601166317E+04  0.16374191471E+04  0.10100000352E+00 0.  1.
       -3    1    3    3    0  502  0.48930011173E+03 -0.88107600307E+02  0.14807901542E+04  0.15620233800E+04  0.10100000352E+00 0. -1.
</event>
<event>
 5   0  0.2997105E-07  0.3198392E+04  0.7818609E-02  0.8189242E-01
       -1   -1    0    0    0  501  0.00000000000E+00  0.00000000000E+00  0.19368340304E+04  0.19368340304E+04  0.50400001928E-02 0.  1.
        1   -1    0    0  501    0  0.00000000000E+00  0.00000000000E+00 -0.13204170239E+04  0.13204170239E+04  0.50400001928E-02 0. -1.
    10030    2    1    2    0    0  0.00000000000E+00  0.00000000000E+00  0.61641700650E+03  0.32572510543E+04  0.31983924876E+04 0.  0.
        3    1    3    3  502    0 -0.11079983334E+04  0.11281262643E+04  0.64856231748E+02  0.15825724363E+04  0.10100000352E+00 0.  1.
       -3    1    3    3    0  502  0.11079983334E+04 -0.11281262643E+04  0.55156077475E+03  0.16746786180E+04  0.10100000352E+00 0. -1.
</event>
<event>
 5   0  0.8335929E-07  0.3237107E+04  0.7818609E-02  0.8179086E-01
       -2   -1    0    0    0  501  0.00000000000E+00  0.00000000000E+00  0.17339249806E+04  0.17339249806E+04  0.25500000920E-02 0. -1.
        2   -1    0    0  501    0  0.00000000000E+00  0.00000000000E+00 -0.15108584394E+04  0.15108584394E+04  0.25500000920E-02 0.  1.
    10030    2    1    2    0    0  0.00000000000E+00  0.00000000000E+00  0.22306654127E+03  0.32447834200E+04  0.32371068504E+04 0.  0.
        4    1    3    3  502    0  0.50722148462E+03  0.47285208830E+03  0.15774824990E+04  0.17231701540E+04  0.12699999809E+01 0. -1.
       -4    1    3    3    0  502 -0.50722148462E+03 -0.47285208830E+03 -0.13544159578E+04  0.15216132660E+04  0.12699999809E+01 0.  1.
</event>
<event>
 5   0  0.8838951E-07  0.3196108E+04  0.7818609E-02  0.8189846E-01
       -2   -1    0    0    0  501  0.00000000000E+00  0.00000000000E+00  0.15806402371E+04  0.15806402371E+04  0.25500000920E-02 0.  1.
        2   -1    0    0  501    0  0.00000000000E+00  0.00000000000E+00 -0.16156595197E+04  0.16156595197E+04  0.25500000920E-02 0. -1.
    10030    2    1    2    0    0  0.00000000000E+00  0.00000000000E+00 -0.35019282541E+02  0.31962997568E+04  0.31961079120E+04 0.  0.
        2    1    3    3  502    0  0.57850677160E+03 -0.50578525234E+03  0.13837481287E+04  0.15827974254E+04  0.25500000920E-02 0.  1.
       -2    1    3    3    0  502 -0.57850677160E+03  0.50578525234E+03 -0.14187674112E+04  0.16135023314E+04  0.25500000920E-02 0. -1.
</event>
<event>
 5   0  0.2783875E-07  0.3232752E+04  0.7818609E-02  0.8180221E-01
        1   -1    0    0  501    0  0.00000000000E+00  0.00000000000E+00  0.18204540250E+04  0.18204540250E+04  0.50400001928E-02 0.  1.
       -1   -1    0    0    0  501  0.00000000000E+00  0.00000000000E+00 -0.14351758346E+04  0.14351758346E+04  0.50400001928E-02 0. -1.
    10030    2    1    2    0    0  0.00000000000E+00  0.00000000000E+00  0.38527819042E+03  0.32556298595E+04  0.32327521554E+04 0.  0.
        2    1    3    3  502    0 -0.88225874434E+03  0.13066890792E+04  0.55132642526E+03  0.16702627544E+04  0.25500000920E-02 0.  1.
       -2    1    3    3    0  502  0.88225874434E+03 -0.13066890792E+04 -0.16604823484E+03  0.15853671051E+04  0.25500000920E-02 0. -1.
</event>
<event>
 5   0  0.8838951E-07  0.3209281E+04  0.7818609E-02  0.8186370E-01
        2   -1    0    0  501    0  0.00000000000E+00  0.00000000000E+00  0.30891560576E+04  0.30891560576E+04  0.25500000920E-02 0.  1.
       -2   -1    0    0    0  501  0.00000000000E+00  0.00000000000E+00 -0.83351953713E+03  0.83351953713E+03  0.25500000920E-02 0. -1.
    10030    2    1    2    0    0  0.00000000000E+00  0.00000000000E+00  0.22556365205E+04  0.39226755947E+04  0.32092814942E+04 0.  0.
        2    1    3    3  502    0 -0.15439554526E+04  0.36757940523E+03  0.14169588373E+04  0.21276008567E+04  0.25500000920E-02 0.  1.
       -2    1    3    3    0  502  0.15439554526E+04 -0.36757940523E+03  0.83867768318E+03  0.17950747380E+04  0.25500000920E-02 0. -1.
</event>
<event>
 5   0  0.2783875E-07  0.3156421E+04  0.7818609E-02  0.8200422E-01
       -1   -1    0    0    0  501  0.00000000000E+00  0.00000000000E+00  0.10593965234E+04  0.10593965234E+04  0.50400001928E-02 0. -1.
        1   -1    0    0  501    0  0.00000000000E+00  0.00000000000E+00 -0.23511004216E+04  0.23511004216E+04  0.50400001928E-02 0.  1.
    10030    2    1    2    0    0  0.00000000000E+00  0.00000000000E+00 -0.12917038982E+04  0.34104969450E+04  0.31564205124E+04 0.  0.
        2    1    3    3  502    0 -0.72615056422E+03  0.40329346914E+03 -0.20958133293E+04  0.22544120687E+04  0.25500000920E-02 0.  1.
       -2    1    3    3    0  502  0.72615056422E+03 -0.40329346914E+03  0.80410943105E+03  0.11560848763E+04  0.25500000920E-02 0. -1.
</event>
<event>
 5   0  0.2783875E-07  0.3185247E+04  0.7818609E-02  0.8192724E-01
       -3   -1    0    0    0  501  0.00000000000E+00  0.00000000000E+00  0.95771200321E+03  0.95771200853E+03  0.10100000352E+00 0. -1.
        3   -1    0    0  501    0  0.00000000000E+00  0.00000000000E+00 -0.26484478232E+04  0.26484478251E+04  0.10100000352E+00 0.  1.
    10030    2    1    2    0    0  0.00000000000E+00  0.00000000000E+00 -0.16907358200E+04  0.36061598336E+04  0.31852474210E+04 0.  0.
        5    1    3    3  502    0  0.11211778988E+03  0.11004007856E+04  0.45190149944E+03  0.11948595495E+04  0.46999998093E+01 0. -1.
       -5    1    3    3    0  502 -0.11211778988E+03 -0.11004007856E+04 -0.21426373194E+04  0.24113002841E+04  0.46999998093E+01 0.  1.
</event>
<event>
 5   0  0.3013888E-07  0.3199699E+04  0.7818609E-02  0.8188897E-01
       -1   -1    0    0    0  501  0.00000000000E+00  0.00000000000E+00  0.22482971494E+04  0.22482971494E+04  0.50400001928E-02 0. -1.
        1   -1    0    0  501    0  0.00000000000E+00  0.00000000000E+00 -0.11384252721E+04  0.11384252721E+04  0.50400001928E-02 0.  1.
    10030    2    1    2    0    0  0.00000000000E+00  0.00000000000E+00  0.11098718772E+04  0.33867224215E+04  0.31996989197E+04 0.  0.
        1    1    3    3  502    0 -0.38153523363E+03  0.78281384294E+03 -0.86557842042E+03  0.12278406448E+04  0.50400001928E-02 0.  1.
       -1    1    3    3    0  502  0.38153523363E+03 -0.78281384294E+03  0.19754502976E+04  0.21588817767E+04  0.50400001928E-02 0. -1.
</event>
<event>
 5   0  0.8838951E-07  0.3201878E+04  0.7818609E-02  0.8188321E-01
       -2   -1    0    0    0  501  0.00000000000E+00  0.00000000000E+00  0.13298412931E+04  0.13298412931E+04  0.25500000920E-02 0. -1.
        2   -1    0    0  501    0  0.00000000000E+00  0.00000000000E+00 -0.19273024460E+04  0.19273024460E+04  0.25500000920E-02 0.  1.
    10030    2    1    2    0    0  0.00000000000E+00  0.00000000000E+00 -0.59746115289E+03  0.32571437390E+04  0.32018784342E+04 0.  0.
        2    1    3    3  502    0  0.33791014942E+03 -0.69816097469E+03  0.11259403011E+04  0.13672430572E+04  0.25500000920E-02 0. -1.
       -2    1    3    3    0  502 -0.33791014942E+03  0.69816097469E+03 -0.17234014540E+04  0.18899006819E+04  0.25500000920E-02 0.  1.
</event>
<event>
 5   0  0.8335929E-07  0.3193483E+04  0.7818609E-02  0.8190540E-01
       -2   -1    0    0    0  501  0.00000000000E+00  0.00000000000E+00  0.12378612568E+04  0.12378612568E+04  0.25500000920E-02 0.  1.
        2   -1    0    0  501    0  0.00000000000E+00  0.00000000000E+00 -0.20596686666E+04  0.20596686666E+04  0.25500000920E-02 0. -1.
    10030    2    1    2    0    0  0.00000000000E+00  0.00000000000E+00 -0.82180740979E+03  0.32975299233E+04  0.31934833922E+04 0.  0.
        4    1    3    3  502    0  0.14169753874E+04  0.73581384847E+03 -0.39183131879E+03  0.16440117589E+04  0.12699999809E+01 0. -1.
       -4    1    3    3    0  502 -0.14169753874E+04 -0.73581384847E+03 -0.42997609099E+03  0.16535181644E+04  0.12699999809E+01 0.  1.
</event>
<event>
 5   0  0.8195618E-07  0.3209141E+04  0.7818609E-02  0.8186407E-01
        2   -1    0    0  501    0  0.00000000000E+00  0.00000000000E+00  0.19577538032E+04  0.19577538032E+04  0.25500000920E-02 0.  1.
       -2   -1    0    0    0  501  0.00000000000E+00  0.00000000000E+00 -0.13151026091E+04  0.13151026091E+04  0.25500000920E-02 0. -1.
    10030    2    1    2    0    0  0.00000000000E+00  0.00000000000E+00  0.64265119407E+03  0.32728564123E+04  0.32091414021E+04 0.  0.
        1    1    3    3  502    0 -0.46256025545E+03  0.71661327861E+03  0.17074086254E+04  0.19085965512E+04  0.50400001928E-02 0.  1.
       -1    1    3    3    0  502  0.46256025545E+03 -0.71661327861E+03 -0.10647574314E+04  0.13642598611E+04  0.50400001928E-02 0. -1.
</event>
<event>
 5   0  0.8195618E-07  0.3195987E+04  0.7818609E-02  0.8189878E-01
       -2   -1    0    0    0  501  0.00000000000E+00  0.00000000000E+00  0.86925557725E+03  0.86925557726E+03  0.25500000920E-02 0. -1.
        2   -1    0    0  501    0  0.00000000000E+00  0.00000000000E+00 -0.29376659160E+04  0.29376659160E+04  0.25500000920E-02 0.  1.
    10030    2    1    2    0    0  0.00000000000E+00  0.00000000000E+00 -0.20684103388E+04  0.38069214933E+04  0.31959865342E+04 0.  0.
        1    1    3    3  502    0  0.61681430100E+03  0.43536356198E+02 -0.27893849775E+04  0.28571006018E+04  0.50400001928E-02 0.  1.
       -1    1    3    3    0  502 -0.61681430100E+03 -0.43536356198E+02  0.72097463870E+03  0.94982089149E+03  0.50400001928E-02 0. -1.
</event>
<event>
 5   0  0.2783875E-07  0.3217563E+04  0.7818609E-02  0.8184194E-01
        1   -1    0    0  501    0  0.00000000000E+00  0.00000000000E+00  0.19049807256E+04  0.19049807256E+04  0.50400001928E-02 0. -1.
       -1   -1    0    0    0  501  0.00000000000E+00  0.00000000000E+00 -0.13586372861E+04  0.13586372861E+04  0.50400001928E-02 0.  1.
    10030    2    1    2    0    0  0.00000000000E+00  0.00000000000E+00  0.54634343949E+03  0.32636180117E+04  0.32175629554E+04 0.  0.
        2    1    3    3  502    0  0.75235851164E+03  0.52109802319E+03 -0.10688658037E+04  0.14071462561E+04  0.25500000920E-02 0.  1.
       -2    1    3    3    0  502 -0.75235851164E+03 -0.52109802319E+03  0.16152092432E+04  0.18564717555E+04  0.25500000920E-02 0. -1.
</event>
<event>
 5   0  0.2783875E-07  0.3208871E+04  0.7818609E-02  0.8186478E-01
       -4   -1    0    0    0  501  0.00000000000E+00  0.00000000000E+00  0.13125149467E+04  0.13125155612E+04  0.12699999809E+01 0. -1.
        4   -1    0    0  501    0  0.00000000000E+00  0.00000000000E+00 -0.19612818112E+04  0.19612822224E+04  0.12699999809E+01 0.  1.
    10030    2    1    2    0    0  0.00000000000E+00  0.00000000000E+00 -0.64876686450E+03  0.32737977836E+04  0.32088710606E+04 0.  0.
        3    1    3    3  502    0  0.10309936296E+04  0.13521189611E+03  0.92221635934E+03  0.13898608364E+04  0.10100000352E+00 0. -1.
       -3    1    3    3    0  502 -0.10309936296E+04 -0.13521189611E+03 -0.15709832238E+04  0.18839369471E+04  0.10100000352E+00 0.  1.
</event>
<event>
 5   0  0.8195618E-07  0.3191112E+04  0.7818609E-02  0.8191168E-01
       -2   -1    0    0    0  501  0.00000000000E+00  0.00000000000E+00  0.13550850894E+04  0.13550850894E+04  0.25500000920E-02 0. -1.
        2   -1    0    0  501    0  0.00000000000E+00  0.00000000000E+00 -0.18787004393E+04  0.18787004393E+04  0.25500000920E-02 0.  1.
    10030    2    1    2    0    0  0.00000000000E+00  0.00000000000E+00 -0.52361534994E+03  0.32337855287E+04  0.31911120022E+04 0.  0.
        1    1    3    3  502    0 -0.10766761192E+04  0.15036488093E+03 -0.14453114483E+04  0.18085259870E+04  0.50400001928E-02 0.  1.
       -1    1    3    3    0  502  0.10766761192E+04 -0.15036488093E+03  0.92169609838E+03  0.14252595416E+04  0.50400001928E-02 0. -1.
</event>
<event>
 5   0  0.8802800E-07  0.3229010E+04  0.7818609E-02  0.8181197E-01
        2   -1    0    0  501    0  0.00000000000E+00  0.00000000000E+00  0.21396081634E+04  0.21396081634E+04  0.25500000920E-02 0. -1.
       -2   -1    0    0    0  501  0.00000000000E+00  0.00000000000E+00 -0.12182727858E+04  0.12182727858E+04  0.25500000920E-02 0.  1.
    10030    2    1    2    0    0  0.00000000000E+00  0.00000000000E+00  0.92133537757E+03  0.33578809491E+04  0.32290100016E+04 0.  0.
        5    1    3    3  502    0  0.59624807181E+03  0.12795273649E+03  0.20152278169E+04  0.21054806838E+04  0.46999998093E+01 0. -1.
       -5    1    3    3    0  502 -0.59624807181E+03 -0.12795273649E+03 -0.10938924393E+04  0.12524002654E+04  0.46999998093E+01 0.  1.
</event>
<event>
 5   0  0.8335929E-07  0.3192787E+04  0.7818609E-02  0.8190725E-01
        2   -1    0    0  501    0  0.00000000000E+00  0.00000000000E+00  0.18717552464E+04  0.18717552464E+04  0.25500000920E-02 0. -1.
       -2   -1    0    0    0  501  0.00000000000E+00  0.00000000000E+00 -0.13615417310E+04  0.13615417310E+04  0.25500000920E-02 0.  1.
    10030    2    1    2    0    0  0.00000000000E+00  0.00000000000E+00  0.51021351534E+03  0.32332969774E+04  0.31927874205E+04 0.  0.
        4    1    3    3  502    0  0.83611291290E+03  0.60896747393E+03 -0.97627545950E+03  0.14223366596E+04  0.12699999809E+01 0.  1.
       -4    1    3    3    0  502 -0.83611291290E+03 -0.60896747393E+03  0.14864889748E+04  0.18109603178E+04  0.12699999809E+01 0. -1.
</event>
<event>
 5   0  0.3013888E-07  0.3198043E+04  0.7818609E-02  0.8189334E-01
       -1   -1    0    0    0  501  0.00000000000E+00  0.00000000000E+00  0.13904584400E+04  0.13904584400E+04  0.50400001928E-02 0. -1.
        1   -1    0    0  501    0  0.00000000000E+00  0.00000000000E+00 -0.18388679434E+04  0.18388679434E+04  0.50400001928E-02 0.  1.
    10030    2    1    2    0    0  0.00000000000E+00  0.00000000000E+00 -0.44840950334E+03  0.32293263834E+04  0.31980428089E+04 0.  0.
        1    1    3    3  502    0  0.12824702387E+04 -0.15062686318E+03  0.72812796170E+03  0.14824266233E+04  0.50400001928E-02 0. -1.
       -1    1    3    3    0  502 -0.12824702387E+04  0.15062686318E+03 -0.11765374650E+04  0.17468997600E+04  0.50400001928E-02 0.  1.
</event>
<event>
 5   0  0.8488469E-07  0.3125759E+04  0.7818609E-02  0.8208704E-01
        2   -1    0    0  501    0  0.00000000000E+00  0.00000000000E+00  0.12453525232E+04  0.12453525232E+04  0.25500000920E-02 0. -1.
       -2   -1    0    0    0  501  0.00000000000E+00  0.00000000000E+00 -0.19613663716E+04  0.19613663716E+04  0.25500000920E-02 0.  1.
    10030    2    1    2    0    0  0.00000000000E+00  0.00000000000E+00 -0.71601384839E+03  0.32067188948E+04  0.31257591460E+04 0.  0.
        3    1    3    3  502    0 -0.27318278651E+02 -0.15373929460E+04 -0.70994430465E+02  0.15392737177E+04  0.10100000352E+00 0. -1.
       -3    1    3    3    0  502  0.27318278651E+02  0.15373929460E+04 -0.64501941792E+03  0.16674451770E+04  0.10100000352E+00 0.  1.
</event>
<event>
 5   0  0.8195618E-07  0.3177415E+04  0.7818609E-02  0.8194807E-01
       -2   -1    0    0    0  501  0.00000000000E+00  0.00000000000E+00  0.11910247747E+04  0.11910247747E+04  0.25500000920E-02 0. -1.
        2   -1    0    0  501    0  0.00000000000E+00  0.00000000000E+00 -0.21191758444E+04  0.21191758444E+04  0.25500000920E-02 0.  1.
    10030    2    1    2    0    0  0.00000000000E+00  0.00000000000E+00 -0.92815106979E+03  0.33102006191E+04  0.31774146299E+04 0.  0.
        1    1    3    3  502    0  0.13376761800E+04  0.47460741766E+01 -0.13569762698E+04  0.19054618035E+04  0.50400001928E-02 0.  1.
       -1    1    3    3    0  502 -0.13376761800E+04 -0.47460741766E+01  0.42882520000E+03  0.14047388156E+04  0.50400001928E-02 0. -1.
</event>
<event>
 5   0  0.2891204E-07  0.3065004E+04  0.7818609E-02  0.8225408E-01
        1   -1    0    0  501    0  0.00000000000E+00  0.00000000000E+00  0.22963455846E+04  0.22963455846E+04  0.50400001928E-02 0.  1.
       -1   -1    0    0    0  501  0.00000000000E+00  0.00000000000E+00 -0.10227388358E+04  0.10227388358E+04  0.50400001928E-02 0. -1.
    10030    2    1    2    0    0  0.00000000000E+00  0.00000000000E+00  0.12736067488E+04  0.33190844203E+04  0.30650036279E+04 0.  0.
        4    1    3    3  502    0  0.82506790736E+03  0.36681106087E+03  0.19777053179E+04  0.21740762046E+04  0.12699999809E+01 0.  1.
       -4    1    3    3    0  502 -0.82506790736E+03 -0.36681106087E+03 -0.70409856911E+03  0.11450082157E+04  0.12699999809E+01 0. -1.
</event>
<event>
 5   0  0.8488469E-07  0.3177135E+04  0.7818609E-02  0.8194882E-01
       -2   -1    0    0    0  501  0.00000000000E+00  0.00000000000E+00  0.11984464604E+04  0.11984464604E+04  0.25500000920E-02 0. -1.
        2   -1    0    0  501    0  0.00000000000E+00  0.00000000000E+00 -0.21056820223E+04  0.21056820223E+04  0.25500000920E-02 0.  1.
    10030    2    1    2    0    0  0.00000000000E+00  0.00000000000E+00 -0.90723556185E+03  0.33041284827E+04  0.31771352923E+04 0.  0.
        3    1    3    3  502    0 -0.35573223180E+03 -0.69307257264E+03  0.98615138209E+03  0.12567376696E+04  0.10100000352E+00 0. -1.
       -3    1    3    3    0  502  0.35573223180E+03  0.69307257264E+03 -0.18933869439E+04  0.20473908131E+04  0.10100000352E+00 0.  1.
</event>
<event>
 5   0  0.8195618E-07  0.3160001E+04  0.7818609E-02  0.8199461E-01
       -2   -1    0    0    0  501  0.00000000000E+00  0.00000000000E+00  0.15980080042E+04  0.15980080042E+04  0.25500000920E-02 0. -1.
        2   -1    0    0  501    0  0.00000000000E+00  0.00000000000E+00 -0.15621961331E+04  0.15621961331E+04  0.25500000920E-02 0.  1.
    10030    2    1    2    0    0  0.00000000000E+00  0.00000000000E+00  0.35811871092E+02  0.31602041373E+04  0.31600012182E+04 0.  0.
        1    1    3    3  502    0 -0.69334807464E+03  0.79064351897E+03 -0.11613869849E+04  0.15667381579E+04  0.50400001928E-02 0.  1.
       -1    1    3    3    0  502  0.69334807464E+03 -0.79064351897E+03  0.11971988560E+04  0.15934659794E+04  0.50400001928E-02 0. -1.
</event>
<event>
 5   0  0.2783875E-07  0.3066550E+04  0.7818609E-02  0.8224978E-01
       -1   -1    0    0    0  501  0.00000000000E+00  0.00000000000E+00  0.12045381881E+04  0.12045381881E+04  0.50400001928E-02 0. -1.
        1   -1    0    0  501    0  0.00000000000E+00  0.00000000000E+00 -0.19517293162E+04  0.19517293162E+04  0.50400001928E-02 0.  1.
    10030    2    1    2    0    0  0.00000000000E+00  0.00000000000E+00 -0.74719112808E+03  0.31562675043E+04  0.30665501752E+04 0.  0.
        2    1    3    3  502    0  0.14021098419E+04  0.45583742429E+03  0.59711421038E+02  0.14755559020E+04  0.25500000920E-02 0. -1.
       -2    1    3    3    0  502 -0.14021098419E+04 -0.45583742429E+03 -0.80690254912E+03  0.16807116023E+04  0.25500000920E-02 0.  1.
</event>
<event>
 5   0  0.8802800E-07  0.3194769E+04  0.7818609E-02  0.8190200E-01
       -2   -1    0    0    0  501  0.00000000000E+00  0.00000000000E+00  0.11210890534E+04  0.11210890534E+04  0.25500000920E-02 0.  1.
        2   -1    0    0  501    0  0.00000000000E+00  0.00000000000E+00 -0.22760343598E+04  0.22760343598E+04  0.25500000920E-02 0. -1.
    10030    2    1    2    0    0  0.00000000000E+00  0.00000000000E+00 -0.11549453064E+04  0.33971234132E+04  0.31947689781E+04 0.  0.
        5    1    3    3  502    0  0.59284605973E+03 -0.11688356186E+04 -0.15485360649E+04  0.20287013551E+04  0.46999998093E+01 0. -1.
       -5    1    3    3    0  502 -0.59284605973E+03  0.11688356186E+04  0.39359075857E+03  0.13684220581E+04  0.46999998093E+01 0.  1.
</event>
<event>
 5   0  0.3013888E-07  0.3185623E+04  0.7818609E-02  0.8192624E-01
        1   -1    0    0  501    0  0.00000000000E+00  0.00000000000E+00  0.24808728985E+04  0.24808728985E+04  0.50400001928E-02 0.  1.
       -1   -1    0    0    0  501  0.00000000000E+00  0.00000000000E+00 -0.10226434762E+04  0.10226434762E+04  0.50400001928E-02 0. -1.
    10030    2    1    2    0    0  0.00000000000E+00  0.00000000000E+00  0.14582294223E+04  0.35035163747E+04  0.31856230066E+04 0.  0.
        1    1    3    3  502    0  0.87147061577E+03 -0.12876015748E+04  0.11095683626E+04  0.19101101541E+04  0.50400001928E-02 0.  1.
       -1    1    3    3    0  502 -0.87147061577E+03  0.12876015748E+04  0.34866105974E+03  0.15934062207E+04  0.50400001928E-02 0. -1.
</event>
<event>
 5   0  0.8195618E-07  0.3181825E+04  0.7818609E-02  0.8193634E-01
       -2   -1    0    0    0  501  0.00000000000E+00  0.00000000000E+00  0.28608072851E+04  0.28608072851E+04  0.25500000920E-02 0.  1.
        2   -1    0    0  501    0  0.00000000000E+00  0.00000000000E+00 -0.88471601730E+03  0.88471601731E+03  0.25500000920E-02 0. -1.
    10030    2    1    2    0    0  0.00000000000E+00  0.00000000000E+00  0.19760912678E+04  0.37455233024E+04  0.31818246511E+04 0.  0.
        1    1    3    3  502    0  0.33452496909E+03 -0.25933997056E+03 -0.81721515474E+03  0.92032862850E+03  0.50400001928E-02 0. -1.
       -1    1    3    3    0  502 -0.33452496909E+03  0.25933997056E+03  0.27933064226E+04  0.28251946739E+04  0.50400001928E-02 0.  1.
</event>
<event>
 5   0  0.8838951E-07  0.3155374E+04  0.7818609E-02  0.8200703E-01
        2   -1    0    0  501    0  0.00000000000E+00  0.00000000000E+00  0.24992614711E+04  0.24992614711E+04  0.25500000920E-02 0.  1.
       -2   -1    0    0    0  501  0.00000000000E+00  0.00000000000E+00 -0.99593273317E+03  0.99593273318E+03  0.25500000920E-02 0. -1.
    10030    2    1    2    0    0  0.00000000000E+00  0.00000000000E+00  0.15033287379E+04  0.34951942043E+04  0.31553740240E+04 0.  0.
        2    1    3    3  502    0 -0.13166686508E+04 -0.22938539958E+03  0.16803219179E+04  0.21470248590E+04  0.25500000920E-02 0.  1.
       -2    1    3    3    0  502  0.13166686508E+04  0.22938539958E+03 -0.17699317998E+03  0.13481693452E+04  0.25500000920E-02 0. -1.
</event>
<event>
 5   0  0.3075756E-07  0.3038811E+04  0.7818609E-02  0.8232734E-01
        1   -1    0    0  501    0  0.00000000000E+00  0.00000000000E+00  0.15644179408E+04  0.15644179408E+04  0.50400001928E-02 0. -1.
       -1   -1    0    0    0  501  0.00000000000E+00  0.00000000000E+00 -0.14756879766E+04  0.14756879766E+04  0.50400001928E-02 0.  1.
    10030    2    1    2    0    0  0.00000000000E+00  0.00000000000E+00  0.88729964217E+02  0.30401059173E+04  0.30388107842E+04 0.  0.
        5    1    3    3  502    0 -0.73096670249E+03 -0.13316105529E+04  0.11614647669E+02  0.15190970920E+04  0.46999998093E+01 0.  1.
       -5    1    3    3    0  502  0.73096670249E+03  0.13316105529E+04  0.77115316549E+02  0.15210088254E+04  0.46999998093E+01 0. -1.
</event>
<event>
 5   0  0.2997105E-07  0.3180774E+04  0.7818609E-02  0.8193913E-01
        1   -1    0    0  501    0  0.00000000000E+00  0.00000000000E+00  0.19390930801E+04  0.19390930801E+04  0.50400001928E-02 0.  1.
       -1   -1    0    0    0  501  0.00000000000E+00  0.00000000000E+00 -0.13043888190E+04  0.13043888191E+04  0.50400001928E-02 0. -1.
    10030    2    1    2    0    0  0.00000000000E+00  0.00000000000E+00  0.63470426108E+03  0.32434818992E+04  0.31807743289E+04 0.  0.
        3    1    3    3  502    0 -0.42670843026E+03  0.11148696863E+04 -0.75423000445E+03  0.14120472413E+04  0.10100000352E+00 0. -1.
       -3    1    3    3    0  502  0.42670843026E+03 -0.11148696863E+04  0.13889342655E+04  0.18314346579E+04  0.10100000352E+00 0.  1.
</event>
<event>
 5   0  0.8195618E-07  0.3197566E+04  0.7818609E-02  0.8189460E-01
        2   -1    0    0  501    0  0.00000000000E+00  0.00000000000E+00  0.27139886658E+04  0.27139886658E+04  0.25500000920E-02 0. -1.
       -2   -1    0    0    0  501  0.00000000000E+00  0.00000000000E+00 -0.94182645362E+03  0.94182645362E+03  0.25500000920E-02 0.  1.
    10030    2    1    2    0    0  0.00000000000E+00  0.00000000000E+00  0.17721622122E+04  0.36558151194E+04  0.31975655241E+04 0.  0.
        1    1    3    3  502    0 -0.12953034949E+04 -0.88330231213E+03  0.52803600628E+03  0.16543446263E+04  0.50400001928E-02 0. -1.
       -1    1    3    3    0  502  0.12953034949E+04  0.88330231213E+03  0.12441262059E+04  0.20014704931E+04  0.50400001928E-02 0.  1.
</event>
<event>
 5   0  0.8802800E-07  0.3208609E+04  0.7818609E-02  0.8186547E-01
        2   -1    0    0  501    0  0.00000000000E+00  0.00000000000E+00  0.21525291619E+04  0.21525291619E+04  0.25500000920E-02 0.  1.
       -2   -1    0    0    0  501  0.00000000000E+00  0.00000000000E+00 -0.11957065234E+04  0.11957065234E+04  0.25500000920E-02 0. -1.
    10030    2    1    2    0    0  0.00000000000E+00  0.00000000000E+00  0.95682263845E+03  0.33482356853E+04  0.32086091446E+04 0.  0.
        5    1    3    3  502    0  0.15963128138E+04 -0.13825061411E+03  0.39464849380E+03  0.16501810069E+04  0.46999998093E+01 0. -1.
       -5    1    3    3    0  502 -0.15963128138E+04  0.13825061411E+03  0.56217414465E+03  0.16980546784E+04  0.46999998093E+01 0.  1.
</event>
<event>
 5   0  0.3075756E-07  0.3194782E+04  0.7818609E-02  0.8190197E-01
       -1   -1    0    0    0  501  0.00000000000E+00  0.00000000000E+00  0.12022693009E+04  0.12022693009E+04  0.50400001928E-02 0.  1.
        1   -1    0    0  501    0  0.00000000000E+00  0.00000000000E+00 -0.21223678894E+04  0.21223678894E+04  0.50400001928E-02 0. -1.
    10030    2    1    2    0    0  0.00000000000E+00  0.00000000000E+00 -0.92009858845E+03  0.33246371903E+04  0.31947818446E+04 0.  0.
        5    1    3    3  502    0 -0.13037138439E+04  0.56425160835E+03  0.30011114821E+03  0.14519429932E+04  0.46999998093E+01 0.  1.
       -5    1    3    3    0  502  0.13037138439E+04 -0.56425160835E+03 -0.12202097367E+04  0.18726941971E+04  0.46999998093E+01 0. -1.
</event>
<event>
 5   0  0.8195618E-07  0.3208918E+04  0.7818609E-02  0.8186466E-01
       -2   -1    0    0    0  501  0.00000000000E+00  0.00000000000E+00  0.14711498293E+04  0.14711498293E+04  0.25500000920E-02 0. -1.
        2   -1    0    0  501    0  0.00000000000E+00  0.00000000000E+00 -0.17498479728E+04  0.17498479728E+04  0.25500000920E-02 0.  1.
    10030    2    1    2    0    0  0.00000000000E+00  0.00000000000E+00 -0.27869814345E+03  0.32209978021E+04  0.32089179151E+04 0.  0.
        1    1    3    3  502    0 -0.10295761841E+04 -0.12277762571E+04 -0.56413034802E+02  0.16033228268E+04  0.50400001928E-02 0.  1.
       -1    1    3    3    0  502  0.10295761841E+04  0.12277762571E+04 -0.22228510865E+03  0.16176749753E+04  0.50400001928E-02 0. -1.
</event>
<event>
 5   0  0.3013888E-07  0.3003792E+04  0.7818609E-02  0.8242649E-01
       -1   -1    0    0    0  501  0.00000000000E+00  0.00000000000E+00  0.14269276708E+04  0.14269276708E+04  0.50400001928E-02 0. -1.
        1   -1    0    0  501    0  0.00000000000E+00  0.00000000000E+00 -0.15808032463E+04  0.15808032463E+04  0.50400001928E-02 0.  1.
    10030    2    1    2    0    0  0.00000000000E+00  0.00000000000E+00 -0.15387557541E+03  0.30077309171E+04  0.30037921994E+04 0.  0.
        1    1    3    3  502    0 -0.12562515479E+04  0.54956119231E+02 -0.89929647544E+03  0.15459373459E+04  0.50400001928E-02 0.  1.
       -1    1    3    3    0  502  0.12562515479E+04 -0.54956119231E+02  0.74542090002E+03  0.14617935712E+04  0.50400001928E-02 0. -1.
</event>
<event>
 5   0  0.8488469E-07  0.3209849E+04  0.7818609E-02  0.8186221E-01
       -2   -1    0    0    0  501  0.00000000000E+00  0.00000000000E+00  0.11964137251E+04  0.11964137252E+04  0.25500000920E-02 0. -1.
        2   -1    0    0  501    0  0.00000000000E+00  0.00000000000E+00 -0.21529200490E+04  0.21529200490E+04  0.25500000920E-02 0.  1.
    10030    2    1    2    0    0  0.00000000000E+00  0.00000000000E+00 -0.95650632383E+03  0.33493337741E+04  0.32098492773E+04 0.  0.
        3    1    3    3  502    0 -0.63875999283E+03  0.20617510123E+03  0.10429243019E+04  0.12402473989E+04  0.10100000352E+00 0. -1.
       -3    1    3    3    0  502  0.63875999283E+03 -0.20617510123E+03 -0.19994306257E+04  0.21090863752E+04  0.10100000352E+00 0.  1.
</event>
<event>
 5   0  0.8335929E-07  0.3196552E+04  0.7818609E-02  0.8189728E-01
       -2   -1    0    0    0  501  0.00000000000E+00  0.00000000000E+00  0.11368139219E+04  0.11368139219E+04  0.25500000920E-02 0.  1.
        2   -1    0    0  501    0  0.00000000000E+00  0.00000000000E+00 -0.22470569243E+04  0.22470569243E+04  0.25500000920E-02 0. -1.
    10030    2    1    2    0    0  0.00000000000E+00  0.00000000000E+00 -0.11102430024E+04  0.33838708462E+04  0.31965516388E+04 0.  0.
        4    1    3    3  502    0  0.22865444634E+03 -0.14537976870E+04  0.10484891784E+03  0.14754001081E+04  0.12699999809E+01 0. -1.
       -4    1    3    3    0  502 -0.22865444634E+03  0.14537976870E+04 -0.12150919202E+04  0.19084707381E+04  0.12699999809E+01 0.  1.
</event>
<event>
 5   0  0.8838951E-07  0.3203777E+04  0.7818609E-02  0.8187820E-01
       -2   -1    0    0    0  501  0.00000000000E+00  0.00000000000E+00  0.13154938763E+04  0.13154938763E+04  0.25500000920E-02 0.  1.
        2   -1    0    0  501    0  0.00000000000E+00  0.00000000000E+00 -0.19506338766E+04  0.19506338766E+04  0.25500000920E-02 0. -1.
    10030    2    1    2    0    0  0.00000000000E+00  0.00000000000E+00 -0.63514000030E+03  0.32661277530E+04  0.32037770957E+04 0.  0.
        2    1    3    3  502    0  0.50693605154E+03  0.11326052087E+04  0.71519452532E+03  0.14322297051E+04  0.25500000920E-02 0.  1.
       -2    1    3    3    0  502 -0.50693605154E+03 -0.11326052087E+04 -0.13503345256E+04  0.18338980479E+04  0.25500000920E-02 0. -1.
</event>
<event>
 5   0  0.8838951E-07  0.3209825E+04  0.7818609E-02  0.8186227E-01
       -2   -1    0    0    0  501  0.00000000000E+00  0.00000000000E+00  0.13597758138E+04  0.13597758138E+04  0.25500000920E-02 0. -1.
        2   -1    0    0  501    0  0.00000000000E+00  0.00000000000E+00 -0.18942420878E+04  0.18942420878E+04  0.25500000920E-02 0.  1.
    10030    2    1    2    0    0  0.00000000000E+00  0.00000000000E+00 -0.53446627398E+03  0.32540179017E+04  0.32098252766E+04 0.  0.
        2    1    3    3  502    0  0.14728758775E+04 -0.19942779500E+03  0.34658620416E+03  0.15261902872E+04  0.25500000920E-02 0. -1.
       -2    1    3    3    0  502 -0.14728758775E+04  0.19942779500E+03 -0.88105247814E+03  0.17278276144E+04  0.25500000920E-02 0.  1.
</event>
<event>
 5   0  0.8195618E-07  0.3209809E+04  0.7818609E-02  0.8186231E-01
        2   -1    0    0  501    0  0.00000000000E+00  0.00000000000E+00  0.14308930194E+04  0.14308930194E+04  0.25500000920E-02 0.  1.
       -2   -1    0    0    0  501  0.00000000000E+00  0.00000000000E+00 -0.18000776153E+04  0.18000776153E+04  0.25500000920E-02 0. -1.
    10030    2    1    2    0    0  0.00000000000E+00  0.00000000000E+00 -0.36918459598E+03  0.32309706347E+04  0.32098090249E+04 0.  0.
        1    1    3    3  502    0  0.46992840268E+03 -0.48563915256E+03  0.12806971962E+04  0.14480550399E+04  0.50400001928E-02 0.  1.
       -1    1    3    3    0  502 -0.46992840268E+03  0.48563915256E+03 -0.16498817922E+04  0.17829155948E+04  0.50400001928E-02 0. -1.
</event>
<event>
 5   0  0.3075756E-07  0.3208338E+04  0.7818609E-02  0.8186619E-01
       -1   -1    0    0    0  501  0.00000000000E+00  0.00000000000E+00  0.11062607913E+04  0.11062607914E+04  0.50400001928E-02 0.  1.
        1   -1    0    0  501    0  0.00000000000E+00  0.00000000000E+00 -0.23261766861E+04  0.23261766861E+04  0.50400001928E-02 0. -1.
    10030    2    1    2    0    0  0.00000000000E+00  0.00000000000E+00 -0.12199158947E+04  0.34324374774E+04  0.32083379258E+04 0.  0.
        5    1    3    3  502    0  0.95662424719E+03  0.93045934574E+03  0.34241895930E+03  0.13777363239E+04  0.46999998093E+01 0.  1.
       -5    1    3    3    0  502 -0.95662424719E+03 -0.93045934574E+03 -0.15623348540E+04  0.20547011536E+04  0.46999998093E+01 0. -1.
</event>
<event>
 5   0  0.3013888E-07  0.3197554E+04  0.7818609E-02  0.8189463E-01
        1   -1    0    0  501    0  0.00000000000E+00  0.00000000000E+00  0.15287988318E+04  0.15287988318E+04  0.50400001928E-02 0. -1.
       -1   -1    0    0    0  501  0.00000000000E+00  0.00000000000E+00 -0.16719587729E+04  0.16719587730E+04  0.50400001928E-02 0.  1.
    10030    2    1    2    0    0  0.00000000000E+00  0.00000000000E+00 -0.14315994113E+03  0.32007576048E+04  0.31975544524E+04 0.  0.
        1    1    3    3  502    0 -0.83912051927E+03 -0.12370343143E+04  0.49618437356E+03  0.15749844676E+04  0.50400001928E-02 0.  1.
       -1    1    3    3    0  502  0.83912051927E+03  0.12370343143E+04 -0.63934431469E+03  0.16257731371E+04  0.50400001928E-02 0. -1.
</event>
<event>
 5   0  0.8195618E-07  0.3133920E+04  0.7818609E-02  0.8206490E-01
       -2   -1    0    0    0  501  0.00000000000E+00  0.00000000000E+00  0.12997904152E+04  0.12997904152E+04  0.25500000920E-02 0.  1.
        2   -1    0    0  501    0  0.00000000000E+00  0.00000000000E+00 -0.18890462324E+04  0.18890462324E+04  0.25500000920E-02 0. -1.
    10030    2    1    2    0    0  0.00000000000E+00  0.00000000000E+00 -0.58925581715E+03  0.31888366476E+04  0.31339203479E+04 0.  0.
        1    1    3    3  502    0  0.54981675646E+03  0.20129277844E+02 -0.17875326336E+04  0.18702878308E+04  0.50400001928E-02 0. -1.
       -1    1    3    3    0  502 -0.54981675646E+03 -0.20129277844E+02  0.11982768165E+04  0.13185488169E+04  0.50400001928E-02 0.  1.
</event>
<event>
 5   0  0.2783875E-07  0.3203971E+04  0.7818609E-02  0.8187769E-01
        1   -1    0    0  501    0  0.00000000000E+00  0.00000000000E+00  0.15989245094E+04  0.15989245094E+04  0.50400001928E-02 0.  1.
       -1   -1    0    0    0  501  0.00000000000E+00  0.00000000000E+00 -0.16050524447E+04  0.16050524447E+04  0.50400001928E-02 0. -1.
    10030    2    1    2    0    0  0.00000000000E+00  0.00000000000E+00 -0.61279352491E+01  0.32039769541E+04  0.32039710939E+04 0.  0.
        2    1    3    3  502    0 -0.31474975059E+03  0.28997925405E+03  0.15407012468E+04  0.15990358674E+04  0.25500000920E-02 0.  1.
       -2    1    3    3    0  502  0.31474975059E+03 -0.28997925405E+03 -0.15468291821E+04  0.16049410867E+04  0.25500000920E-02 0. -1.
</event>
<event>
 5   0  0.2997105E-07  0.3200365E+04  0.7818609E-02  0.8188721E-01
        1   -1    0    0  501    0  0.00000000000E+00  0.00000000000E+00  0.90739012654E+03  0.90739012655E+03  0.50400001928E-02 0.  1.
       -1   -1    0    0    0  501  0.00000000000E+00  0.00000000000E+00 -0.28219222932E+04  0.28219222932E+04  0.50400001928E-02 0. -1.
    10030    2    1    2    0    0  0.00000000000E+00  0.00000000000E+00 -0.19145321667E+04  0.37293124198E+04  0.32003652459E+04 0.  0.
        3    1    3    3  502    0  0.99469403502E+03  0.12460856114E+04 -0.11154987139E+04  0.19458887340E+04  0.10100000352E+00 0.  1.
       -3    1    3    3    0  502 -0.99469403502E+03 -0.12460856114E+04 -0.79903345272E+03  0.17834236858E+04  0.10100000352E+00 0. -1.
</event>
<event>
 5   0  0.2891204E-07  0.3104009E+04  0.7818609E-02  0.8214639E-01
        1   -1    0    0  501    0  0.00000000000E+00  0.00000000000E+00  0.27612532724E+04  0.27612532724E+04  0.50400001928E-02 0.  1.
       -1   -1    0    0    0  501  0.00000000000E+00  0.00000000000E+00 -0.87232755238E+03  0.87232755239E+03  0.50400001928E-02 0. -1.
    10030    2    1    2    0    0  0.00000000000E+00  0.00000000000E+00  0.18889257200E+04  0.36335808248E+04  0.31040085751E+04 0.  0.
        4    1    3    3  502    0  0.16749573792E+03 -0.10296203130E+04 -0.40074119372E+03  0.11174828537E+04  0.12699999809E+01 0. -1.
       -4    1    3    3    0  502 -0.16749573792E+03  0.10296203130E+04  0.22896669137E+04  0.25160979710E+04  0.12699999809E+01 0.  1.
</event>
<event>
 5   0  0.8195618E-07  0.3207307E+04  0.7818609E-02  0.8186890E-01
        2   -1    0    0  501    0  0.00000000000E+00  0.00000000000E+00  0.21121871451E+04  0.21121871451E+04  0.25500000920E-02 0.  1.
       -2   -1    0    0    0  501  0.00000000000E+00  0.00000000000E+00 -0.12175550529E+04  0.12175550529E+04  0.25500000920E-02 0. -1.
    10030    2    1    2    0    0  0.00000000000E+00  0.00000000000E+00  0.89463209222E+03  0.33297421980E+04  0.32073067400E+04 0.  0.
        1    1    3    3  502    0  0.17714675269E+03 -0.10588257904E+04 -0.78946725661E+03  0.13325732910E+04  0.50400001928E-02 0. -1.
       -1    1    3    3    0  502 -0.17714675269E+03  0.10588257904E+04  0.16840993488E+04  0.19971689070E+04  0.50400001928E-02 0.  1.
</event>
<event>
 5   0  0.2783875E-07  0.3195611E+04  0.7818609E-02  0.8189977E-01
        1   -1    0    0  501    0  0.00000000000E+00  0.00000000000E+00  0.16107463788E+04  0.16107463788E+04  0.50400001928E-02 0.  1.
       -1   -1    0    0    0  501  0.00000000000E+00  0.00000000000E+00 -0.15849685454E+04  0.15849685454E+04  0.50400001928E-02 0. -1.
    10030    2    1    2    0    0  0.00000000000E+00  0.00000000000E+00  0.25777833473E+02  0.31957149242E+04  0.31956109557E+04 0.  0.
        2    1    3    3  502    0  0.94208755458E+03 -0.53550433381E+03  0.11871027836E+04  0.16073291109E+04  0.25500000920E-02 0.  1.
       -2    1    3    3    0  502 -0.94208755458E+03  0.53550433381E+03 -0.11613249501E+04  0.15883858133E+04  0.25500000920E-02 0. -1.
</event>
<event>
 5   0  0.2997105E-07  0.3202644E+04  0.7818609E-02  0.8188119E-01
        1   -1    0    0  501    0  0.00000000000E+00  0.00000000000E+00  0.24605795478E+04  0.24605795479E+04  0.50400001928E-02 0.  1.
       -1   -1    0    0    0  501  0.00000000000E+00  0.00000000000E+00 -0.10421254701E+04  0.10421254701E+04  0.50400001928E-02 0. -1.
    10030    2    1    2    0    0  0.00000000000E+00  0.00000000000E+00  0.14184540778E+04  0.35027050179E+04  0.32026442937E+04 0.  0.
        3    1    3    3  502    0 -0.12016846924E+04 -0.90382479198E+03  0.13115396240E+04  0.19952647819E+04  0.10100000352E+00 0.  1.
       -3    1    3    3    0  502  0.12016846924E+04  0.90382479198E+03  0.10691445375E+03  0.15074402360E+04  0.10100000352E+00 0. -1.
</event>
<event>
 5   0  0.3075756E-07  0.3193503E+04  0.7818609E-02  0.8190535E-01
        1   -1    0    0  501    0  0.00000000000E+00  0.00000000000E+00  0.14934950098E+04  0.14934950098E+04  0.50400001928E-02 0. -1.
       -1   -1    0    0    0  501  0.00000000000E+00  0.00000000000E+00 -0.17071465033E+04  0.17071465033E+04  0.50400001928E-02 0.  1.
    10030    2    1    2    0    0  0.00000000000E+00  0.00000000000E+00 -0.21365149343E+03  0.32006415131E+04  0.31935026436E+04 0.  0.
        5    1    3    3  502    0  0.14766907223E+04 -0.50026379709E+03  0.23849248761E+03  0.15772698287E+04  0.46999998093E+01 0.  1.
       -5    1    3    3    0  502 -0.14766907223E+04  0.50026379709E+03 -0.45214398104E+03  0.16233716844E+04  0.46999998093E+01 0. -1.
</event>
<event>
 5   0  0.8195618E-07  0.3197442E+04  0.7818609E-02  0.8189493E-01
       -2   -1    0    0    0  501  0.00000000000E+00  0.00000000000E+00  0.12503248306E+04  0.12503248306E+04  0.25500000920E-02 0.  1.
        2   -1    0    0  501    0  0.00000000000E+00  0.00000000000E+00 -0.20441957760E+04  0.20441957760E+04  0.25500000920E-02 0. -1.
    10030    2    1    2    0    0  0.00000000000E+00  0.00000000000E+00 -0.79387094536E+03  0.32945206066E+04  0.31974419384E+04 0.  0.
        1    1    3    3  502    0 -0.28510758296E+03  0.45291251006E+03  0.11552869500E+04  0.12732258293E+04  0.50400001928E-02 0.  1.
       -1    1    3    3    0  502  0.28510758296E+03 -0.45291251006E+03 -0.19491578953E+04  0.20212947773E+04  0.50400001928E-02 0. -1.
</event>
<event>
 5   0  0.3075756E-07  0.3216052E+04  0.7818609E-02  0.8184591E-01
       -1   -1    0    0    0  501  0.00000000000E+00  0.00000000000E+00  0.86576850065E+03  0.86576850067E+03  0.50400001928E-02 0.  1.
        1   -1    0    0  501    0  0.00000000000E+00  0.00000000000E+00 -0.29866497922E+04  0.29866497923E+04  0.50400001928E-02 0. -1.
    10030    2    1    2    0    0  0.00000000000E+00  0.00000000000E+00 -0.21208812916E+04  0.38524182929E+04  0.32160518109E+04 0.  0.
        5    1    3    3  502    0 -0.86387922745E+02  0.11509763512E+04 -0.24015843152E+04  0.26645522602E+04  0.46999998093E+01 0. -1.
       -5    1    3    3    0  502  0.86387922745E+02 -0.11509763512E+04  0.28070302360E+03  0.11878660327E+04  0.46999998093E+01 0.  1.
</event>
<event>
 5   0  0.8838951E-07  0.3182941E+04  0.7818609E-02  0.8193337E-01
        2   -1    0    0  501    0  0.00000000000E+00  0.00000000000E+00  0.23915385018E+04  0.23915385018E+04  0.25500000920E-02 0.  1.
       -2   -1    0    0    0  501  0.00000000000E+00  0.00000000000E+00 -0.10590579894E+04  0.10590579894E+04  0.25500000920E-02 0. -1.
    10030    2    1    2    0    0  0.00000000000E+00  0.00000000000E+00  0.13324805124E+04  0.34505964912E+04  0.31829407517E+04 0.  0.
        2    1    3    3  502    0 -0.15734892037E+04 -0.17192217528E+03  0.84553341931E+03  0.17945339984E+04  0.25500000920E-02 0.  1.
       -2    1    3    3    0  502  0.15734892037E+04  0.17192217528E+03  0.48694709306E+03  0.16560624927E+04  0.25500000920E-02 0. -1.
</event>
<event>
 5   0  0.2783875E-07  0.3190759E+04  0.7818609E-02  0.8191262E-01
        1   -1    0    0  501    0  0.00000000000E+00  0.00000000000E+00  0.14980783271E+04  0.14980783271E+04  0.50400001928E-02 0. -1.
       -1   -1    0    0    0  501  0.00000000000E+00  0.00000000000E+00 -0.16990004306E+04  0.16990004306E+04  0.50400001928E-02 0.  1.
    10030    2    1    2    0    0  0.00000000000E+00  0.00000000000E+00 -0.20092210358E+03  0.31970787577E+04  0.31907589836E+04 0.  0.
        2    1    3    3  502    0  0.15038570854E+02  0.16616612349E+03 -0.16902347543E+04  0.16984495471E+04  0.25500000920E-02 0.  1.
       -2    1    3    3    0  502 -0.15038570854E+02 -0.16616612349E+03  0.14893126508E+04  0.14986292106E+04  0.25500000920E-02 0. -1.
</event>
<event>
 5   0  0.8802800E-07  0.3209362E+04  0.7818609E-02  0.8186349E-01
       -2   -1    0    0    0  501  0.00000000000E+00  0.00000000000E+00  0.14427319193E+04  0.14427319193E+04  0.25500000920E-02 0.  1.
        2   -1    0    0  501    0  0.00000000000E+00  0.00000000000E+00 -0.17848089836E+04  0.17848089836E+04  0.25500000920E-02 0. -1.
    10030    2    1    2    0    0  0.00000000000E+00  0.00000000000E+00 -0.34207706430E+03  0.32275409029E+04  0.32093618621E+04 0.  0.
        5    1    3    3  502    0  0.75292870218E+03  0.75516192525E+02  0.12520296797E+04  0.14629438591E+04  0.46999998093E+01 0.  1.
       -5    1    3    3    0  502 -0.75292870218E+03 -0.75516192525E+02 -0.15941067440E+04  0.17645970439E+04  0.46999998093E+01 0. -1.
</event>
<event>
 5   0  0.8335929E-07  0.3203776E+04  0.7818609E-02  0.8187821E-01
       -2   -1    0    0    0  501  0.00000000000E+00  0.00000000000E+00  0.12307121673E+04  0.12307121673E+04  0.25500000920E-02 0.  1.
        2   -1    0    0  501    0  0.00000000000E+00  0.00000000000E+00 -0.20850084460E+04  0.20850084460E+04  0.25500000920E-02 0. -1.
    10030    2    1    2    0    0  0.00000000000E+00  0.00000000000E+00 -0.85429627874E+03  0.33157206133E+04  0.32037760617E+04 0.  0.
        4    1    3    3  502    0  0.10844263206E+04  0.96630469673E+02  0.78895242664E+03  0.13445316794E+04  0.12699999809E+01 0.  1.
       -4    1    3    3    0  502 -0.10844263206E+04 -0.96630469673E+02 -0.16432487054E+04  0.19711889339E+04  0.12699999809E+01 0. -1.
</event>
<event>
 5   0  0.8335929E-07  0.3178081E+04  0.7818609E-02  0.8194630E-01
       -2   -1    0    0    0  501  0.00000000000E+00  0.00000000000E+00  0.99104179789E+03  0.99104179789E+03  0.25500000920E-02 0. -1.
        2   -1    0    0  501    0  0.00000000000E+00  0.00000000000E+00 -0.25478733573E+04  0.25478733573E+04  0.25500000920E-02 0.  1.
    10030    2    1    2    0    0  0.00000000000E+00  0.00000000000E+00 -0.15568315594E+04  0.35389151552E+04  0.31780805483E+04 0.  0.
        4    1    3    3  502    0  0.77435302720E+03  0.13173142435E+04 -0.12639338444E+04  0.19830455877E+04  0.12699999809E+01 0.  1.
       -4    1    3    3    0  502 -0.77435302720E+03 -0.13173142435E+04 -0.29289771503E+03  0.15558695675E+04  0.12699999809E+01 0. -1.
</event>
<event>
 5   0  0.3075756E-07  0.3196876E+04  0.7818609E-02  0.8189643E-01
        1   -1    0    0  501    0  0.00000000000E+00  0.00000000000E+00  0.22603410849E+04  0.22603410849E+04  0.50400001928E-02 0. -1.
       -1   -1    0    0    0  501  0.00000000000E+00  0.00000000000E+00 -0.11303622505E+04  0.11303622505E+04  0.50400001928E-02 0.  1.
    10030    2    1    2    0    0  0.00000000000E+00  0.00000000000E+00  0.11299788344E+04  0.33907033354E+04  0.31968761225E+04 0.  0.
        5    1    3    3  502    0 -0.44218922623E+03  0.15313442548E+04  0.69242230057E+03  0.17378196889E+04  0.46999998093E+01 0. -1.
       -5    1    3    3    0  502  0.44218922623E+03 -0.15313442548E+04  0.43755653384E+03  0.16528836465E+04  0.46999998093E+01 0.  1.
</event>
<event>
 5   0  0.2783875E-07  0.3214526E+04  0.7818609E-02  0.8184991E-01
       -3   -1    0    0    0  501  0.00000000000E+00  0.00000000000E+00  0.18265156925E+04  0.18265156953E+04  0.10100000352E+00 0.  1.
        3   -1    0    0  501    0  0.00000000000E+00  0.00000000000E+00 -0.14143290566E+04  0.14143290602E+04  0.10100000352E+00 0. -1.
    10030    2    1    2    0    0  0.00000000000E+00  0.00000000000E+00  0.41218663588E+03  0.32408447555E+04  0.32145259225E+04 0.  0.
        2    1    3    3  502    0  0.59268257672E+03  0.39381742896E+01 -0.13001286663E+04  0.14288536297E+04  0.25500000920E-02 0. -1.
       -2    1    3    3    0  502 -0.59268257672E+03 -0.39381742896E+01  0.17123153022E+04  0.18119911259E+04  0.25500000920E-02 0.  1.
</event>
<event>
 5   0  0.3075756E-07  0.3204055E+04  0.7818609E-02  0.8187747E-01
       -1   -1    0    0    0  501  0.00000000000E+00  0.00000000000E+00  0.30768672494E+04  0.30768672494E+04  0.50400001928E-02 0. -1.
        1   -1    0    0  501    0  0.00000000000E+00  0.00000000000E+00 -0.83412502540E+03  0.83412502541E+03  0.50400001928E-02 0.  1.
    10030    2    1    2    0    0  0.00000000000E+00  0.00000000000E+00  0.22427422240E+04  0.39109922748E+04  0.32040549138E+04 0.  0.
        5    1    3    3  502    0  0.12672514638E+04 -0.92540909577E+03  0.72742133298E+03  0.17295872781E+04  0.46999998093E+01 0.  1.
       -5    1    3    3    0  502 -0.12672514638E+04  0.92540909577E+03  0.15153208910E+04  0.21814049967E+04  0.46999998093E+01 0. -1.
</event>
<event>
 5   0  0.8335929E-07  0.3186545E+04  0.7818609E-02  0.8192380E-01
        2   -1    0    0  501    0  0.00000000000E+00  0.00000000000E+00  0.18540312483E+04  0.18540312483E+04  0.25500000920E-02 0. -1.
       -2   -1    0    0    0  501  0.00000000000E+00  0.00000000000E+00 -0.13691883579E+04  0.13691883579E+04  0.25500000920E-02 0.  1.
    10030    2    1    2    0    0  0.00000000000E+00  0.00000000000E+00  0.48484289045E+03  0.32232196062E+04  0.31865454652E+04 0.  0.
        4    1    3    3  502    0 -0.66049108691E+03  0.13635245094E+04 -0.25627285732E+03  0.15365952473E+04  0.12699999809E+01 0.  1.
       -4    1    3    3    0  502  0.66049108691E+03 -0.13635245094E+04  0.74111574776E+03  0.16866243589E+04  0.12699999809E+01 0. -1.
</event>
<event>
 5   0  0.8802800E-07  0.3212919E+04  0.7818609E-02  0.8185414E-01
       -2   -1    0    0    0  501  0.00000000000E+00  0.00000000000E+00  0.16632642611E+04  0.16632642611E+04  0.25500000920E-02 0.  1.
        2   -1    0    0  501    0  0.00000000000E+00  0.00000000000E+00 -0.15515943862E+04  0.15515943862E+04  0.25500000920E-02 0. -1.
    10030    2    1    2    0    0  0.00000000000E+00  0.00000000000E+00  0.11166987489E+03  0.32148586473E+04  0.32129186049E+04 0.  0.
        5    1    3    3  502    0  0.61878362289E+03  0.13685533131E+04  0.62614230318E+03  0.16272392622E+04  0.46999998093E+01 0.  1.
       -5    1    3    3    0  502 -0.61878362289E+03 -0.13685533131E+04 -0.51447242828E+03  0.15876193851E+04  0.46999998093E+01 0. -1.
</event>
<event>
 5   0  0.2997105E-07  0.3247138E+04  0.7818609E-02  0.8176478E-01
       -1   -1    0    0    0  501  0.00000000000E+00  0.00000000000E+00  0.11494295285E+04  0.11494295285E+04  0.50400001928E-02 0.  1.
        1   -1    0    0  501    0  0.00000000000E+00  0.00000000000E+00 -0.22932911459E+04  0.22932911460E+04  0.50400001928E-02 0. -1.
    10030    2    1    2    0    0  0.00000000000E+00  0.00000000000E+00 -0.11438616174E+04  0.34427206745E+04  0.32471381619E+04 0.  0.
        3    1    3    3  502    0  0.22060392787E+03  0.19034806836E+03  0.11214822114E+04  0.11587151681E+04  0.10100000352E+00 0.  1.
       -3    1    3    3    0  502 -0.22060392787E+03 -0.19034806836E+03 -0.22653438288E+04  0.22840055064E+04  0.10100000352E+00 0. -1.
</event>
<event>
 5   0  0.8335929E-07  0.3194907E+04  0.7818609E-02  0.8190163E-01
        2   -1    0    0  501    0  0.00000000000E+00  0.00000000000E+00  0.15795696713E+04  0.15795696713E+04  0.25500000920E-02 0.  1.
       -2   -1    0    0    0  501  0.00000000000E+00  0.00000000000E+00 -0.16155399029E+04  0.16155399029E+04  0.25500000920E-02 0. -1.
    10030    2    1    2    0    0  0.00000000000E+00  0.00000000000E+00 -0.35970231627E+02  0.31951095742E+04  0.31949070931E+04 0.  0.
        4    1    3    3  502    0 -0.11703188788E+04  0.78279201530E+02  0.10665569004E+04  0.15853451190E+04  0.12699999809E+01 0.  1.
       -4    1    3    3    0  502  0.11703188788E+04 -0.78279201530E+02 -0.11025271320E+04  0.16097644552E+04  0.12699999809E+01 0. -1.
</event>
<event>
 5   0  0.8195618E-07  0.3210012E+04  0.7818609E-02  0.8186178E-01
        2   -1    0    0  501    0  0.00000000000E+00  0.00000000000E+00  0.11478169272E+04  0.11478169272E+04  0.25500000920E-02 0. -1.
       -2   -1    0    0    0  501  0.00000000000E+00  0.00000000000E+00 -0.22442984636E+04  0.22442984636E+04  0.25500000920E-02 0.  1.
    10030    2    1    2    0    0  0.00000000000E+00  0.00000000000E+00 -0.10964815365E+04  0.33921153908E+04  0.32100116923E+04 0.  0.
        1    1    3    3  502    0 -0.54828799751E+03 -0.38872048407E+03 -0.20884297610E+04  0.21939148136E+04  0.50400001928E-02 0.  1.
       -1    1    3    3    0  502  0.54828799751E+03  0.38872048407E+03  0.99194822452E+03  0.11982005772E+04  0.50400001928E-02 0. -1.
</event>
<event>
 5   0  0.2997105E-07  0.3194894E+04  0.7818609E-02  0.8190167E-01
       -1   -1    0    0    0  501  0.00000000000E+00  0.00000000000E+00  0.12192104000E+04  0.12192104000E+04  0.50400001928E-02 0.  1.
        1   -1    0    0  501    0  0.00000000000E+00  0.00000000000E+00 -0.20930236138E+04  0.20930236138E+04  0.50400001928E-02 0. -1.
    10030    2    1    2    0    0  0.00000000000E+00  0.00000000000E+00 -0.87381321381E+03  0.33122340139E+04  0.31948935241E+04 0.  0.
        3    1    3    3  502    0  0.37926334142E+03  0.62312292299E+03 -0.19102686762E+04  0.20448103298E+04  0.10100000352E+00 0. -1.
       -3    1    3    3    0  502 -0.37926334142E+03 -0.62312292299E+03  0.10364554624E+04  0.12674236841E+04  0.10100000352E+00 0.  1.
</event>
<event>
 5   0  0.8488469E-07  0.3197894E+04  0.7818609E-02  0.8189373E-01
       -2   -1    0    0    0  501  0.00000000000E+00  0.00000000000E+00  0.18316590399E+04  0.18316590399E+04  0.25500000920E-02 0. -1.
        2   -1    0    0  501    0  0.00000000000E+00  0.00000000000E+00 -0.13958014161E+04  0.13958014161E+04  0.25500000920E-02 0.  1.
    10030    2    1    2    0    0  0.00000000000E+00  0.00000000000E+00  0.43585762386E+03  0.32274604560E+04  0.31978944834E+04 0.  0.
        3    1    3    3  502    0  0.78120098802E+03 -0.13768283628E+04  0.44517930628E+03  0.16444196390E+04  0.10100000352E+00 0. -1.
       -3    1    3    3    0  502 -0.78120098802E+03  0.13768283628E+04 -0.93216824185E+01  0.15830408170E+04  0.10100000352E+00 0.  1.
</event>
<event>
 5   0  0.2997105E-07  0.3135803E+04  0.7818609E-02  0.8205980E-01
        1   -1    0    0  501    0  0.00000000000E+00  0.00000000000E+00  0.18970790566E+04  0.18970790566E+04  0.50400001928E-02 0. -1.
       -1   -1    0    0    0  501  0.00000000000E+00  0.00000000000E+00 -0.12958423778E+04  0.12958423778E+04  0.50400001928E-02 0.  1.
    10030    2    1    2    0    0  0.00000000000E+00  0.00000000000E+00  0.60123667874E+03  0.31929214344E+04  0.31358032053E+04 0.  0.
        3    1    3    3  502    0 -0.13783843573E+04 -0.52423509435E+03 -0.24157467472E+03  0.14943641471E+04  0.10100000352E+00 0.  1.
       -3    1    3    3    0  502  0.13783843573E+04  0.52423509435E+03  0.84281135346E+03  0.16985572873E+04  0.10100000352E+00 0. -1.
</event>
<event>
 5   0  0.3075756E-07  0.3215470E+04  0.7818609E-02  0.8184743E-01
       -1   -1    0    0    0  501  0.00000000000E+00  0.00000000000E+00  0.10000800117E+04  0.10000800117E+04  0.50400001928E-02 0.  1.
        1   -1    0    0  501    0  0.00000000000E+00  0.00000000000E+00 -0.25846052619E+04  0.25846052619E+04  0.50400001928E-02 0. -1.
    10030    2    1    2    0    0  0.00000000000E+00  0.00000000000E+00 -0.15845252503E+04  0.35846852736E+04  0.32154701432E+04 0.  0.
        5    1    3    3  502    0 -0.74704418039E+03  0.13747180512E+04 -0.12046953679E+04  0.19746487655E+04  0.46999998093E+01 0. -1.
       -5    1    3    3    0  502  0.74704418039E+03 -0.13747180512E+04 -0.37982988239E+03  0.16100365081E+04  0.46999998093E+01 0.  1.
</event>
<event>
 5   0  0.3013888E-07  0.3202016E+04  0.7818609E-02  0.8188285E-01
       -1   -1    0    0    0  501  0.00000000000E+00  0.00000000000E+00  0.19449730036E+04  0.19449730036E+04  0.50400001928E-02 0.  1.
        1   -1    0    0  501    0  0.00000000000E+00  0.00000000000E+00 -0.13178725646E+04  0.13178725646E+04  0.50400001928E-02 0. -1.
    10030    2    1    2    0    0  0.00000000000E+00  0.00000000000E+00  0.62710043900E+03  0.32628455682E+04  0.32020159652E+04 0.  0.
        1    1    3    3  502    0  0.62625883591E+03 -0.85016355430E+03 -0.91274362679E+03  0.13957360520E+04  0.50400001928E-02 0. -1.
       -1    1    3    3    0  502 -0.62625883591E+03  0.85016355430E+03  0.15398440658E+04  0.18671095162E+04  0.50400001928E-02 0.  1.
</event>
<event>
 5   0  0.3013888E-07  0.3164434E+04  0.7818609E-02  0.8198274E-01
        1   -1    0    0  501    0  0.00000000000E+00  0.00000000000E+00  0.17664492353E+04  0.17664492353E+04  0.50400001928E-02 0.  1.
       -1   -1    0    0    0  501  0.00000000000E+00  0.00000000000E+00 -0.14171992268E+04  0.14171992268E+04  0.50400001928E-02 0. -1.
    10030    2    1    2    0    0  0.00000000000E+00  0.00000000000E+00  0.34925000850E+03  0.31836484621E+04  0.31644339086E+04 0.  0.
        1    1    3    3  502    0  0.41085515526E+03 -0.15267207081E+04  0.11316057946E+03  0.15850815108E+04  0.50400001928E-02 0. -1.
       -1    1    3    3    0  502 -0.41085515526E+03  0.15267207081E+04  0.23608942905E+03  0.15985669513E+04  0.50400001928E-02 0.  1.
</event>
<event>
 5   0  0.8488469E-07  0.3222464E+04  0.7818609E-02  0.8182910E-01
        2   -1    0    0  501    0  0.00000000000E+00  0.00000000000E+00  0.13615628805E+04  0.13615628805E+04  0.25500000920E-02 0. -1.
       -2   -1    0    0    0  501  0.00000000000E+00  0.00000000000E+00 -0.19066822604E+04  0.19066822604E+04  0.25500000920E-02 0.  1.
    10030    2    1    2    0    0  0.00000000000E+00  0.00000000000E+00 -0.54511937997E+03  0.32682451409E+04  0.32224635238E+04 0.  0.
        3    1    3    3  502    0  0.65367646931E+03  0.10735346053E+04 -0.12949982374E+04  0.18046578403E+04  0.10100000352E+00 0.  1.
       -3    1    3    3    0  502 -0.65367646931E+03 -0.10735346053E+04  0.74987885745E+03  0.14635873006E+04  0.10100000352E+00 0. -1.
</event>
<event>
 5   0  0.3013888E-07  0.3202509E+04  0.7818609E-02  0.8188155E-01
        1   -1    0    0  501    0  0.00000000000E+00  0.00000000000E+00  0.31240988403E+04  0.31240988403E+04  0.50400001928E-02 0.  1.
       -1   -1    0    0    0  501  0.00000000000E+00  0.00000000000E+00 -0.82072160435E+03  0.82072160436E+03  0.50400001928E-02 0. -1.
    10030    2    1    2    0    0  0.00000000000E+00  0.00000000000E+00  0.23033772359E+04  0.39448204446E+04  0.32025086494E+04 0.  0.
        1    1    3    3  502    0  0.93091993511E+03  0.11673610359E+04  0.43908762533E+03  0.15563231208E+04  0.50400001928E-02 0.  1.
       -1    1    3    3    0  502 -0.93091993511E+03 -0.11673610359E+04  0.18642896106E+04  0.23884973238E+04  0.50400001928E-02 0. -1.
</event>
<event>
 5   0  0.2783875E-07  0.3205341E+04  0.7818609E-02  0.8187408E-01
       -1   -1    0    0    0  501  0.00000000000E+00  0.00000000000E+00  0.14779492828E+04  0.14779492828E+04  0.50400001928E-02 0. -1.
        1   -1    0    0  501    0  0.00000000000E+00  0.00000000000E+00 -0.17379166431E+04  0.17379166431E+04  0.50400001928E-02 0.  1.
    10030    2    1    2    0    0  0.00000000000E+00  0.00000000000E+00 -0.25996736031E+03  0.32158659259E+04  0.32053409530E+04 0.  0.
        2    1    3    3  502    0  0.15434190485E+04 -0.86083591691E+02  0.29448935906E+03  0.15736189903E+04  0.25500000920E-02 0. -1.
       -2    1    3    3    0  502 -0.15434190485E+04  0.86083591691E+02 -0.55445671936E+03  0.16422469356E+04  0.25500000920E-02 0.  1.
</event>
<event>
 5   0  0.3075756E-07  0.3197018E+04  0.7818609E-02  0.8189605E-01
        1   -1    0    0  501    0  0.00000000000E+00  0.00000000000E+00  0.15728021009E+04  0.15728021009E+04  0.50400001928E-02 0. -1.
       -1   -1    0    0    0  501  0.00000000000E+00  0.00000000000E+00 -0.16246358026E+04  0.16246358026E+04  0.50400001928E-02 0.  1.
    10030    2    1    2    0    0  0.00000000000E+00  0.00000000000E+00 -0.51833701729E+02  0.31974379034E+04  0.31970177375E+04 0.  0.
        5    1    3    3  502    0  0.48948510965E+03 -0.14567707346E+04 -0.46578355154E+03  0.16058496357E+04  0.46999998093E+01 0.  1.
       -5    1    3    3    0  502 -0.48948510965E+03  0.14567707346E+04  0.41394984981E+03  0.15915882677E+04  0.46999998093E+01 0. -1.
</event>
<event>
 5   0  0.8335929E-07  0.3207155E+04  0.7818609E-02  0.8186930E-01
        2   -1    0    0  501    0  0.00000000000E+00  0.00000000000E+00  0.15833458405E+04  0.15833458405E+04  0.25500000920E-02 0. -1.
       -2   -1    0    0    0  501  0.00000000000E+00  0.00000000000E+00 -0.16240676416E+04  0.16240676416E+04  0.25500000920E-02 0.  1.
    10030    2    1    2    0    0  0.00000000000E+00  0.00000000000E+00 -0.40721801170E+02  0.32074134821E+04  0.32071549666E+04 0.  0.
        4    1    3    3  502    0 -0.48923700834E+02  0.10976809491E+04  0.11477067624E+04  0.15888767793E+04  0.12699999809E+01 0.  1.
       -4    1    3    3    0  502  0.48923700834E+02 -0.10976809491E+04 -0.11884285636E+04  0.16185367028E+04  0.12699999809E+01 0. -1.
</event>
<event>
 5   0  0.8488469E-07  0.3185112E+04  0.7818609E-02  0.8192760E-01
       -2   -1    0    0    0  501  0.00000000000E+00  0.00000000000E+00  0.12006734355E+04  0.12006734355E+04  0.25500000920E-02 0. -1.
        2   -1    0    0  501    0  0.00000000000E+00  0.00000000000E+00 -0.21123433374E+04  0.21123433374E+04  0.25500000920E-02 0.  1.
    10030    2    1    2    0    0  0.00000000000E+00  0.00000000000E+00 -0.91166990186E+03  0.33130167729E+04  0.31851119490E+04 0.  0.
        3    1    3    3  502    0  0.11440016416E+04  0.94458670567E+03  0.14642473533E+03  0.14907796665E+04  0.10100000352E+00 0. -1.
       -3    1    3    3    0  502 -0.11440016416E+04 -0.94458670567E+03 -0.10580946372E+04  0.18222371064E+04  0.10100000352E+00 0.  1.
</event>
<event>
 5   0  0.2891204E-07  0.3197100E+04  0.7818609E-02  0.8189584E-01
       -1   -1    0    0    0  501  0.00000000000E+00  0.00000000000E+00  0.11132667150E+04  0.11132667150E+04  0.50400001928E-02 0.  1.
        1   -1    0    0  501    0  0.00000000000E+00  0.00000000000E+00 -0.22953725316E+04  0.22953725316E+04  0.50400001928E-02 0. -1.
    10030    2    1    2    0    0  0.00000000000E+00  0.00000000000E+00 -0.11821058166E+04  0.34086392465E+04  0.31970998345E+04 0.  0.
        4    1    3    3  502    0 -0.10600601074E+03  0.62996425205E+03 -0.21533656231E+04  0.22461249637E+04  0.12699999809E+01 0. -1.
       -4    1    3    3    0  502  0.10600601074E+03 -0.62996425205E+03  0.97125980648E+03  0.11625142828E+04  0.12699999809E+01 0.  1.
</event>
<event>
 5   0  0.2783875E-07  0.3216369E+04  0.7818609E-02  0.8184508E-01
       -1   -1    0    0    0  501  0.00000000000E+00  0.00000000000E+00  0.12875449982E+04  0.12875449982E+04  0.50400001928E-02 0. -1.
        1   -1    0    0  501    0  0.00000000000E+00  0.00000000000E+00 -0.20086730157E+04  0.20086730157E+04  0.50400001928E-02 0.  1.
    10030    2    1    2    0    0  0.00000000000E+00  0.00000000000E+00 -0.72112801751E+03  0.32962180138E+04  0.32163686942E+04 0.  0.
        2    1    3    3  502    0  0.17001348093E+03  0.11591334361E+04 -0.14896236101E+04  0.18951183093E+04  0.25500000920E-02 0.  1.
       -2    1    3    3    0  502 -0.17001348093E+03 -0.11591334361E+04  0.76849559259E+03  0.14010997046E+04  0.25500000920E-02 0. -1.
</event>
<event>
 5   0  0.2891204E-07  0.3201580E+04  0.7818609E-02  0.8188400E-01
        1   -1    0    0  501    0  0.00000000000E+00  0.00000000000E+00  0.13778788792E+04  0.13778788792E+04  0.50400001928E-02 0. -1.
       -1   -1    0    0    0  501  0.00000000000E+00  0.00000000000E+00 -0.18597636614E+04  0.18597636614E+04  0.50400001928E-02 0.  1.
    10030    2    1    2    0    0  0.00000000000E+00  0.00000000000E+00 -0.48188478217E+03  0.32376425406E+04  0.32015802781E+04 0.  0.
        4    1    3    3  502    0  0.95712721361E+03  0.89591560244E+03  0.68797392218E+03  0.14805630686E+04  0.12699999809E+01 0. -1.
       -4    1    3    3    0  502 -0.95712721361E+03 -0.89591560244E+03 -0.11698587044E+04  0.17570794720E+04  0.12699999809E+01 0.  1.
</event>
<event>
 5   0  0.3013888E-07  0.3198858E+04  0.7818609E-02  0.8189119E-01
       -1   -1    0    0    0  501  0.00000000000E+00  0.00000000000E+00  0.11698982788E+04  0.11698982788E+04  0.50400001928E-02 0. -1.
        1   -1    0    0  501    0  0.00000000000E+00  0.00000000000E+00 -0.21866623812E+04  0.21866623813E+04  0.50400001928E-02 0.  1.
    10030    2    1    2    0    0  0.00000000000E+00  0.00000000000E+00 -0.10167641025E+04  0.33565606600E+04  0.31988576437E+04 0.  0.
        1    1    3    3  502    0 -0.65996846434E+03  0.12208613967E+04 -0.13426325557E+04  0.19309901873E+04  0.50400001928E-02 0.  1.
       -1    1    3    3    0  502  0.65996846434E+03 -0.12208613967E+04  0.32586845323E+03  0.14255704727E+04  0.50400001928E-02 0. -1.
</event>
<event>
 5   0  0.2783875E-07  0.3187056E+04  0.7818609E-02  0.8192244E-01
       -3   -1    0    0    0  501  0.00000000000E+00  0.00000000000E+00  0.10826430950E+04  0.10826430997E+04  0.10100000352E+00 0. -1.
        3   -1    0    0  501    0  0.00000000000E+00  0.00000000000E+00 -0.23454924256E+04  0.23454924278E+04  0.10100000352E+00 0.  1.
    10030    2    1    2    0    0  0.00000000000E+00  0.00000000000E+00 -0.12628493306E+04  0.34281355275E+04  0.31870558142E+04 0.  0.
        5    1    3    3  502    0  0.68256800700E+03  0.12548881507E+04  0.12815456683E+03  0.14342555693E+04  0.46999998093E+01 0. -1.
       -5    1    3    3    0  502 -0.68256800700E+03 -0.12548881507E+04 -0.13910038974E+04  0.19938799582E+04  0.46999998093E+01 0.  1.
</event>
<event>
 5   0  0.2891204E-07  0.3210101E+04  0.7818609E-02  0.8186155E-01
       -1   -1    0    0    0  501  0.00000000000E+00  0.00000000000E+00  0.10727967010E+04  0.10727967010E+04  0.50400001928E-02 0. -1.
        1   -1    0    0  501    0  0.00000000000E+00  0.00000000000E+00 -0.24013752490E+04  0.24013752490E+04  0.50400001928E-02 0.  1.
    10030    2    1    2    0    0  0.00000000000E+00  0.00000000000E+00 -0.13285785480E+04  0.34741719500E+04  0.32101012102E+04 0.  0.
        4    1    3    3  502    0  0.15841664753E+04  0.15608299784E+03 -0.44185733226E+03  0.16520244667E+04  0.12699999809E+01 0. -1.
       -4    1    3    3    0  502 -0.15841664753E+04 -0.15608299784E+03 -0.88672121578E+03  0.18221474833E+04  0.12699999809E+01 0.  1.
</event>
<event>
 5   0  0.8335929E-07  0.3195203E+04  0.7818609E-02  0.8190085E-01
       -2   -1    0    0    0  501  0.00000000000E+00  0.00000000000E+00  0.13368479267E+04  0.13368479267E+04  0.25500000920E-02 0. -1.
        2   -1    0    0  501    0  0.00000000000E+00  0.00000000000E+00 -0.19092158129E+04  0.19092158129E+04  0.25500000920E-02 0.  1.
    10030    2    1    2    0    0  0.00000000000E+00  0.00000000000E+00 -0.57236788621E+03  0.32460637396E+04  0.31952034058E+04 0.  0.
        4    1    3    3  502    0  0.12988087614E+04 -0.89330732749E+03 -0.22382743553E+02  0.15765166603E+04  0.12699999809E+01 0.  1.
       -4    1    3    3    0  502 -0.12988087614E+04  0.89330732749E+03 -0.54998514266E+03  0.16695470793E+04  0.12699999809E+01 0. -1.
</event>
<event>
 5   0  0.8335929E-07  0.3198783E+04  0.7818609E-02  0.8189139E-01
       -2   -1    0    0    0  501  0.00000000000E+00  0.00000000000E+00  0.13867061888E+04  0.13867061888E+04  0.25500000920E-02 0.  1.
        2   -1    0    0  501    0  0.00000000000E+00  0.00000000000E+00 -0.18446968442E+04  0.18446968442E+04  0.25500000920E-02 0. -1.
    10030    2    1    2    0    0  0.00000000000E+00  0.00000000000E+00 -0.45799065535E+03  0.32314030330E+04  0.31987825999E+04 0.  0.
        4    1    3    3  502    0  0.56924547262E+03  0.11862452906E+04 -0.11475715604E+04  0.17458924356E+04  0.12699999809E+01 0. -1.
       -4    1    3    3    0  502 -0.56924547262E+03 -0.11862452906E+04  0.68958090503E+03  0.14855105974E+04  0.12699999809E+01 0.  1.
</event>
<event>
 5   0  0.3013888E-07  0.3169782E+04  0.7818609E-02  0.8196843E-01
       -1   -1    0    0    0  501  0.00000000000E+00  0.00000000000E+00  0.98046654417E+03  0.98046654418E+03  0.50400001928E-02 0.  1.
        1   -1    0    0  501    0  0.00000000000E+00  0.00000000000E+00 -0.25619231323E+04  0.25619231323E+04  0.50400001928E-02 0. -1.
    10030    2    1    2    0    0  0.00000000000E+00  0.00000000000E+00 -0.15814565881E+04  0.35423896765E+04  0.31697822764E+04 0.  0.
        1    1    3    3  502    0  0.45367239750E+03  0.75457416077E+03 -0.22634703579E+04  0.24286825378E+04  0.50400001928E-02 0. -1.
       -1    1    3    3    0  502 -0.45367239750E+03 -0.75457416077E+03  0.68201376983E+03  0.11137071386E+04  0.50400001928E-02 0.  1.
</event>
<event>
 5   0  0.2891204E-07  0.3190904E+04  0.7818609E-02  0.8191224E-01
        1   -1    0    0  501    0  0.00000000000E+00  0.00000000000E+00  0.95027507585E+03  0.95027507586E+03  0.50400001928E-02 0. -1.
       -1   -1    0    0    0  501  0.00000000000E+00  0.00000000000E+00 -0.26786633360E+04  0.26786633360E+04  0.50400001928E-02 0.  1.
    10030    2    1    2    0    0  0.00000000000E+00  0.00000000000E+00 -0.17283882602E+04  0.36289384119E+04  0.31909039502E+04 0.  0.
        4    1    3    3  502    0 -0.12354232450E+04 -0.75483797002E+03 -0.16266055199E+04  0.21775899719E+04  0.12699999809E+01 0.  1.
       -4    1    3    3    0  502  0.12354232450E+04  0.75483797002E+03 -0.10178274028E+03  0.14513484400E+04  0.12699999809E+01 0. -1.
</event>
<event>
 5   0  0.8335929E-07  0.3223385E+04  0.7818609E-02  0.8182668E-01
       -2   -1    0    0    0  501  0.00000000000E+00  0.00000000000E+00  0.16863674886E+04  0.16863674886E+04  0.25500000920E-02 0.  1.
        2   -1    0    0  501    0  0.00000000000E+00  0.00000000000E+00 -0.15403243919E+04  0.15403243919E+04  0.25500000920E-02 0. -1.
    10030    2    1    2    0    0  0.00000000000E+00  0.00000000000E+00  0.14604309664E+03  0.32266918805E+04  0.32233851625E+04 0.  0.
        4    1    3    3  502    0  0.50449502552E+03 -0.13244613261E+04 -0.69512366636E+03  0.15785789684E+04  0.12699999809E+01 0. -1.
       -4    1    3    3    0  502 -0.50449502552E+03  0.13244613261E+04  0.84116676300E+03  0.16481129121E+04  0.12699999809E+01 0.  1.
</event>
<event>
 5   0  0.8335929E-07  0.3196903E+04  0.7818609E-02  0.8189636E-01
       -2   -1    0    0    0  501  0.00000000000E+00  0.00000000000E+00  0.14844915889E+04  0.14844915889E+04  0.25500000920E-02 0.  1.
        2   -1    0    0  501    0  0.00000000000E+00  0.00000000000E+00 -0.17211595342E+04  0.17211595342E+04  0.25500000920E-02 0. -1.
    10030    2    1    2    0    0  0.00000000000E+00  0.00000000000E+00 -0.23666794533E+03  0.32056511231E+04  0.31969027834E+04 0.  0.
        4    1    3    3  502    0  0.52238100974E+02 -0.15973063384E+04 -0.14889492015E+03  0.16050818260E+04  0.12699999809E+01 0.  1.
       -4    1    3    3    0  502 -0.52238100974E+02  0.15973063384E+04 -0.87773025183E+02  0.16005692971E+04  0.12699999809E+01 0. -1.
</event>
<event>
 5   0  0.8802800E-07  0.3200148E+04  0.7818609E-02  0.8188778E-01
       -2   -1    0    0    0  501  0.00000000000E+00  0.00000000000E+00  0.15200305157E+04  0.15200305157E+04  0.25500000920E-02 0.  1.
        2   -1    0    0  501    0  0.00000000000E+00  0.00000000000E+00 -0.16843326056E+04  0.16843326057E+04  0.25500000920E-02 0. -1.
    10030    2    1    2    0    0  0.00000000000E+00  0.00000000000E+00 -0.16430208991E+03  0.32043631214E+04  0.32001480961E+04 0.  0.
        5    1    3    3  502    0  0.47922821550E+03 -0.99620160177E+03  0.10761515455E+04  0.15427901843E+04  0.46999998093E+01 0.  1.
       -5    1    3    3    0  502 -0.47922821550E+03  0.99620160177E+03 -0.12404536354E+04  0.16615729371E+04  0.46999998093E+01 0. -1.
</event>
<event>
 5   0  0.8195618E-07  0.3194900E+04  0.7818609E-02  0.8190165E-01
       -2   -1    0    0    0  501  0.00000000000E+00  0.00000000000E+00  0.14464449133E+04  0.14464449133E+04  0.25500000920E-02 0. -1.
        2   -1    0    0  501    0  0.00000000000E+00  0.00000000000E+00 -0.17642201355E+04  0.17642201355E+04  0.25500000920E-02 0.  1.
    10030    2    1    2    0    0  0.00000000000E+00  0.00000000000E+00 -0.31777522215E+03  0.32106650488E+04  0.31949004623E+04 0.  0.
        1    1    3    3  502    0  0.14949843174E+04  0.24698358626E+03  0.34944252691E+03  0.15550206046E+04  0.50400001928E-02 0. -1.
       -1    1    3    3    0  502 -0.14949843174E+04 -0.24698358626E+03 -0.66721774906E+03  0.16556444443E+04  0.50400001928E-02 0.  1.
</event>
<event>
 5   0  0.3075756E-07  0.3195866E+04  0.7818609E-02  0.8189910E-01
        1   -1    0    0  501    0  0.00000000000E+00  0.00000000000E+00  0.11575145022E+04  0.11575145022E+04  0.50400001928E-02 0.  1.
       -1   -1    0    0    0  501  0.00000000000E+00  0.00000000000E+00 -0.22059246915E+04  0.22059246915E+04  0.50400001928E-02 0. -1.
    10030    2    1    2    0    0  0.00000000000E+00  0.00000000000E+00 -0.10484101894E+04  0.33634391937E+04  0.31958659679E+04 0.  0.
        5    1    3    3  502    0  0.54516783564E+03  0.15020496528E+04 -0.52150079896E+03  0.16808766468E+04  0.46999998093E+01 0. -1.
       -5    1    3    3    0  502 -0.54516783564E+03 -0.15020496528E+04 -0.52690939041E+03  0.16825625469E+04  0.46999998093E+01 0.  1.
</event>
<event>
 5   0  0.8802800E-07  0.3187205E+04  0.7818609E-02  0.8192205E-01
        2   -1    0    0  501    0  0.00000000000E+00  0.00000000000E+00  0.16606879468E+04  0.16606879468E+04  0.25500000920E-02 0. -1.
       -2   -1    0    0    0  501  0.00000000000E+00  0.00000000000E+00 -0.15292268810E+04  0.15292268810E+04  0.25500000920E-02 0.  1.
    10030    2    1    2    0    0  0.00000000000E+00  0.00000000000E+00  0.13146106575E+03  0.31899148278E+04  0.31872048250E+04 0.  0.
        5    1    3    3  502    0  0.20331536241E+02 -0.75249238582E+03  0.14715202830E+04  0.16528920701E+04  0.46999998093E+01 0. -1.
       -5    1    3    3    0  502 -0.20331536241E+02  0.75249238582E+03 -0.13400592172E+04  0.15370227577E+04  0.46999998093E+01 0.  1.
</event>
<event>
 5   0  0.2783875E-07  0.3220787E+04  0.7818609E-02  0.8183349E-01
        1   -1    0    0  501    0  0.00000000000E+00  0.00000000000E+00  0.10384378235E+04  0.10384378235E+04  0.50400001928E-02 0.  1.
       -1   -1    0    0    0  501  0.00000000000E+00  0.00000000000E+00 -0.24973728557E+04  0.24973728557E+04  0.50400001928E-02 0. -1.
    10030    2    1    2    0    0  0.00000000000E+00  0.00000000000E+00 -0.14589350322E+04  0.35358106792E+04  0.32207865081E+04 0.  0.
        2    1    3    3  502    0 -0.10971376922E+04  0.92331381890E+03 -0.15340556167E+04  0.20998919398E+04  0.25500000920E-02 0. -1.
       -2    1    3    3    0  502  0.10971376922E+04 -0.92331381890E+03  0.75120584469E+02  0.14359187394E+04  0.25500000920E-02 0.  1.
</event>
<event>
 5   0  0.8802800E-07  0.3222059E+04  0.7818609E-02  0.8183016E-01
        2   -1    0    0  501    0  0.00000000000E+00  0.00000000000E+00  0.21769619911E+04  0.21769619911E+04  0.25500000920E-02 0. -1.
       -2   -1    0    0    0  501  0.00000000000E+00  0.00000000000E+00 -0.11922191686E+04  0.11922191686E+04  0.25500000920E-02 0.  1.
    10030    2    1    2    0    0  0.00000000000E+00  0.00000000000E+00  0.98474282251E+03  0.33691811597E+04  0.32220588543E+04 0.  0.
        5    1    3    3  502    0 -0.27230238268E+03 -0.67680905773E+03  0.19943332195E+04  0.21235833322E+04  0.46999998093E+01 0. -1.
       -5    1    3    3    0  502  0.27230238268E+03  0.67680905773E+03 -0.10095903970E+04  0.12455978275E+04  0.46999998093E+01 0.  1.
</event>
<event>
 5   0  0.2997105E-07  0.3175325E+04  0.7818609E-02  0.8195364E-01
        1   -1    0    0  501    0  0.00000000000E+00  0.00000000000E+00  0.22041868469E+04  0.22041868469E+04  0.50400001928E-02 0.  1.
       -1   -1    0    0    0  501  0.00000000000E+00  0.00000000000E+00 -0.11435840612E+04  0.11435840612E+04  0.50400001928E-02 0. -1.
    10030    2    1    2    0    0  0.00000000000E+00  0.00000000000E+00  0.10606027857E+04  0.33477709081E+04  0.31753254612E+04 0.  0.
        3    1    3    3  502    0  0.13947430696E+04 -0.48999200970E+03  0.11407744131E+04  0.18672885882E+04  0.10100000352E+00 0.  1.
       -3    1    3    3    0  502 -0.13947430696E+04  0.48999200970E+03 -0.80171627431E+02  0.14804823200E+04  0.10100000352E+00 0. -1.
</event>
<event>
 5   0  0.2891204E-07  0.3201265E+04  0.7818609E-02  0.8188483E-01
        1   -1    0    0  501    0  0.00000000000E+00  0.00000000000E+00  0.85421370359E+03  0.85421370361E+03  0.50400001928E-02 0. -1.
       -1   -1    0    0    0  501  0.00000000000E+00  0.00000000000E+00 -0.29992788518E+04  0.29992788518E+04  0.50400001928E-02 0.  1.
    10030    2    1    2    0    0  0.00000000000E+00  0.00000000000E+00 -0.21450651482E+04  0.38534925554E+04  0.32012654349E+04 0.  0.
        4    1    3    3  502    0 -0.10115768471E+04 -0.79210244569E+03 -0.22216536318E+04  0.25664100364E+04  0.12699999809E+01 0.  1.
       -4    1    3    3    0  502  0.10115768471E+04  0.79210244569E+03  0.76588483606E+02  0.12870825190E+04  0.12699999809E+01 0. -1.
</event>
<event>
 5   0  0.2997105E-07  0.3198024E+04  0.7818609E-02  0.8189339E-01
       -1   -1    0    0    0  501  0.00000000000E+00  0.00000000000E+00  0.10919187729E+04  0.10919187729E+04  0.50400001928E-02 0. -1.
        1   -1    0    0  501    0  0.00000000000E+00  0.00000000000E+00 -0.23416015081E+04  0.23416015081E+04  0.50400001928E-02 0.  1.
    10030    2    1    2    0    0  0.00000000000E+00  0.00000000000E+00 -0.12496827352E+04  0.34335202810E+04  0.31980235430E+04 0.  0.
        3    1    3    3  502    0  0.91307047646E+03  0.98127280051E+03 -0.15609680872E+04  0.20574779181E+04  0.10100000352E+00 0.  1.
       -3    1    3    3    0  502 -0.91307047646E+03 -0.98127280051E+03  0.31128535198E+03  0.13760423629E+04  0.10100000352E+00 0. -1.
</event>
<event>
 5   0  0.2997105E-07  0.3195120E+04  0.7818609E-02  0.8190107E-01
       -1   -1    0    0    0  501  0.00000000000E+00  0.00000000000E+00  0.14858353391E+04  0.14858353391E+04  0.50400001928E-02 0.  1.
        1   -1    0    0  501    0  0.00000000000E+00  0.00000000000E+00 -0.17176857215E+04  0.17176857215E+04  0.50400001928E-02 0. -1.
    10030    2    1    2    0    0  0.00000000000E+00  0.00000000000E+00 -0.23185038240E+03  0.32035210607E+04  0.31951201208E+04 0.  0.
        3    1    3    3  502    0  0.44290195678E+03 -0.11886795477E+04  0.85774966018E+03  0.15312921668E+04  0.10100000352E+00 0. -1.
       -3    1    3    3    0  502 -0.44290195678E+03  0.11886795477E+04 -0.10896000426E+04  0.16722288938E+04  0.10100000352E+00 0.  1.
</event>
<event>
 5   0  0.8838951E-07  0.3162297E+04  0.7818609E-02  0.8198846E-01
       -2   -1    0    0    0  501  0.00000000000E+00  0.00000000000E+00  0.12044989338E+04  0.12044989338E+04  0.25500000920E-02 0.  1.
        2   -1    0    0  501    0  0.00000000000E+00  0.00000000000E+00 -0.20755768119E+04  0.20755768119E+04  0.25500000920E-02 0. -1.
    10030    2    1    2    0    0  0.00000000000E+00  0.00000000000E+00 -0.87107787811E+03  0.32800757457E+04  0.31622966698E+04 0.  0.
        2    1    3    3  502    0 -0.35368422042E+03 -0.15329655221E+04 -0.27168631025E+03  0.15965241216E+04  0.25500000920E-02 0.  1.
       -2    1    3    3    0  502  0.35368422042E+03  0.15329655221E+04 -0.59939156786E+03  0.16835516242E+04  0.25500000920E-02 0. -1.
</event>
<event>
 5   0  0.3075756E-07  0.3194302E+04  0.7818609E-02  0.8190324E-01
       -1   -1    0    0    0  501  0.00000000000E+00  0.00000000000E+00  0.17965336431E+04  0.17965336431E+04  0.50400001928E-02 0. -1.
        1   -1    0    0  501    0  0.00000000000E+00  0.00000000000E+00 -0.14198965380E+04  0.14198965380E+04  0.50400001928E-02 0.  1.
    10030    2    1    2    0    0  0.00000000000E+00  0.00000000000E+00  0.37663710515E+03  0.32164301811E+04  0.31943023653E+04 0.  0.
        5    1    3    3  502    0 -0.82230485728E+03 -0.13346359079E+04  0.49610169161E+03  0.16442558388E+04  0.46999998093E+01 0.  1.
       -5    1    3    3    0  502  0.82230485728E+03  0.13346359079E+04 -0.11946458645E+03  0.15721743423E+04  0.46999998093E+01 0. -1.
</event>
<event>
 5   0  0.2783875E-07  0.3196294E+04  0.7818609E-02  0.8189797E-01
       -1   -1    0    0    0  501  0.00000000000E+00  0.00000000000E+00  0.16790880230E+04  0.16790880230E+04  0.50400001928E-02 0.  1.
        1   -1    0    0  501    0  0.00000000000E+00  0.00000000000E+00 -0.15211077804E+04  0.15211077805E+04  0.50400001928E-02 0. -1.
    10030    2    1    2    0    0  0.00000000000E+00  0.00000000000E+00  0.15798024257E+03  0.32001958035E+04  0.31962940139E+04 0.  0.
        2    1    3    3  502    0 -0.51677711561E+03  0.15035026763E+04 -0.83981338081E+02  0.15920526844E+04  0.25500000920E-02 0.  1.
       -2    1    3    3    0  502  0.51677711561E+03 -0.15035026763E+04  0.24196158065E+03  0.16081431190E+04  0.25500000920E-02 0. -1.
</event>
<event>
 5   0  0.2997105E-07  0.3196947E+04  0.7818609E-02  0.8189624E-01
       -1   -1    0    0    0  501  0.00000000000E+00  0.00000000000E+00  0.17838972486E+04  0.17838972486E+04  0.50400001928E-02 0. -1.
        1   -1    0    0  501    0  0.00000000000E+00  0.00000000000E+00 -0.14323235310E+04  0.14323235310E+04  0.50400001928E-02 0.  1.
    10030    2    1    2    0    0  0.00000000000E+00  0.00000000000E+00  0.35157371755E+03  0.32162207796E+04  0.31969472977E+04 0.  0.
        3    1    3    3  502    0 -0.13376878705E+03  0.54435163414E+03  0.16817769673E+04  0.17727342068E+04  0.10100000352E+00 0. -1.
       -3    1    3    3    0  502  0.13376878705E+03 -0.54435163414E+03 -0.13302032498E+04  0.14434865728E+04  0.10100000352E+00 0.  1.
</event>
<event>
 5   0  0.8195618E-07  0.3195737E+04  0.7818609E-02  0.8189944E-01
       -2   -1    0    0    0  501  0.00000000000E+00  0.00000000000E+00  0.16598726667E+04  0.16598726667E+04  0.25500000920E-02 0.  1.
        2   -1    0    0  501    0  0.00000000000E+00  0.00000000000E+00 -0.15381804259E+04  0.15381804259E+04  0.25500000920E-02 0. -1.
    10030    2    1    2    0    0  0.00000000000E+00  0.00000000000E+00  0.12169224076E+03  0.31980530926E+04  0.31957369387E+04 0.  0.
        1    1    3    3  502    0 -0.44853230633E+01  0.15341134497E+04 -0.38631041516E+03  0.15820113564E+04  0.50400001928E-02 0. -1.
       -1    1    3    3    0  502  0.44853230633E+01 -0.15341134497E+04  0.50800265592E+03  0.16160417362E+04  0.50400001928E-02 0.  1.
</event>
<event>
 5   0  0.8838951E-07  0.3203872E+04  0.7818609E-02  0.8187795E-01
        2   -1    0    0  501    0  0.00000000000E+00  0.00000000000E+00  0.21126528584E+04  0.21126528584E+04  0.25500000920E-02 0.  1.
       -2   -1    0    0    0  501  0.00000000000E+00  0.00000000000E+00 -0.12146808513E+04  0.12146808513E+04  0.25500000920E-02 0. -1.
    10030    2    1    2    0    0  0.00000000000E+00  0.00000000000E+00  0.89797200709E+03  0.33273337098E+04  0.32038720153E+04 0.  0.
        2    1    3    3  502    0 -0.31452532759E+03  0.49107909214E+02  0.20794733604E+04  0.21036984634E+04  0.25500000920E-02 0.  1.
       -2    1    3    3    0  502  0.31452532759E+03 -0.49107909214E+02 -0.11815013533E+04  0.12236352464E+04  0.25500000920E-02 0. -1.
</event>
<event>
 5   0  0.2997105E-07  0.3213496E+04  0.7818609E-02  0.8185262E-01
       -1   -1    0    0    0  501  0.00000000000E+00  0.00000000000E+00  0.14471639448E+04  0.14471639448E+04  0.50400001928E-02 0. -1.
        1   -1    0    0  501    0  0.00000000000E+00  0.00000000000E+00 -0.17839300167E+04  0.17839300167E+04  0.50400001928E-02 0.  1.
    10030    2    1    2    0    0  0.00000000000E+00  0.00000000000E+00 -0.33676607188E+03  0.32310939616E+04  0.32134960403E+04 0.  0.
        3    1    3    3  502    0  0.93873600874E+01  0.13355728808E+04  0.72970267383E+03  0.15219425235E+04  0.10100000352E+00 0. -1.
       -3    1    3    3    0  502 -0.93873600874E+01 -0.13355728808E+04 -0.10664687457E+04  0.17091514381E+04  0.10100000352E+00 0.  1.
</event>
<event>
 5   0  0.8195618E-07  0.3206739E+04  0.7818609E-02  0.8187040E-01
       -2   -1    0    0    0  501  0.00000000000E+00  0.00000000000E+00  0.11397043306E+04  0.11397043306E+04  0.25500000920E-02 0. -1.
        2   -1    0    0  501    0  0.00000000000E+00  0.00000000000E+00 -0.22556669165E+04  0.22556669165E+04  0.25500000920E-02 0.  1.
    10030    2    1    2    0    0  0.00000000000E+00  0.00000000000E+00 -0.11159625858E+04  0.33953712471E+04  0.32067387503E+04 0.  0.
        1    1    3    3  502    0 -0.37179275910E+03 -0.60804691858E+03  0.96276482297E+03  0.11978593470E+04  0.50400001928E-02 0. -1.
       -1    1    3    3    0  502  0.37179275910E+03  0.60804691858E+03 -0.20787274088E+04  0.21975119001E+04  0.50400001928E-02 0.  1.
</event>
<event>
 5   0  0.3013888E-07  0.3174789E+04  0.7818609E-02  0.8195507E-01
       -1   -1    0    0    0  501  0.00000000000E+00  0.00000000000E+00  0.18272941477E+04  0.18272941477E+04  0.50400001928E-02 0. -1.
        1   -1    0    0  501    0  0.00000000000E+00  0.00000000000E+00 -0.13789909378E+04  0.13789909378E+04  0.50400001928E-02 0.  1.
    10030    2    1    2    0    0  0.00000000000E+00  0.00000000000E+00  0.44830320991E+03  0.32062850855E+04  0.31747894862E+04 0.  0.
        1    1    3    3  502    0  0.89506864511E+03  0.19435452022E+03 -0.10852057923E+04  0.14200680162E+04  0.50400001928E-02 0.  1.
       -1    1    3    3    0  502 -0.89506864511E+03 -0.19435452022E+03  0.15335090022E+04  0.17862170693E+04  0.50400001928E-02 0. -1.
</event>
<event>
 5   0  0.2997105E-07  0.3189233E+04  0.7818609E-02  0.8191666E-01
       -1   -1    0    0    0  501  0.00000000000E+00  0.00000000000E+00  0.13861877047E+04  0.13861877047E+04  0.50400001928E-02 0. -1.
        1   -1    0    0  501    0  0.00000000000E+00  0.00000000000E+00 -0.18343851993E+04  0.18343851993E+04  0.50400001928E-02 0.  1.
    10030    2    1    2    0    0  0.00000000000E+00  0.00000000000E+00 -0.44819749463E+03  0.32205729041E+04  0.31892332678E+04 0.  0.
        3    1    3    3  502    0 -0.31115468958E+03  0.13480583466E+04  0.57661401058E+03  0.14988536534E+04  0.10100000352E+00 0. -1.
       -3    1    3    3    0  502  0.31115468958E+03 -0.13480583466E+04 -0.10248115052E+04  0.17217192507E+04  0.10100000352E+00 0.  1.
</event>
<event>
 5   0  0.8335929E-07  0.3201929E+04  0.7818609E-02  0.8188308E-01
        2   -1    0    0  501    0  0.00000000000E+00  0.00000000000E+00  0.26081841790E+04  0.26081841790E+04  0.25500000920E-02 0. -1.
       -2   -1    0    0    0  501  0.00000000000E+00  0.00000000000E+00 -0.98270967506E+03  0.98270967506E+03  0.25500000920E-02 0.  1.
    10030    2    1    2    0    0  0.00000000000E+00  0.00000000000E+00  0.16254745039E+04  0.35908938540E+04  0.32019293103E+04 0.  0.
        4    1    3    3  502    0 -0.12624554340E+03 -0.11595565361E+04  0.20425734162E+04  0.23521515834E+04  0.12699999809E+01 0. -1.
       -4    1    3    3    0  502  0.12624554340E+03  0.11595565361E+04 -0.41709891230E+03  0.12387422707E+04  0.12699999809E+01 0.  1.
</event>
<event>
 5   0  0.8802800E-07  0.3219592E+04  0.7818609E-02  0.8183662E-01
        2   -1    0    0  501    0  0.00000000000E+00  0.00000000000E+00  0.15074937919E+04  0.15074937919E+04  0.25500000920E-02 0.  1.
       -2   -1    0    0    0  501  0.00000000000E+00  0.00000000000E+00 -0.17190401709E+04  0.17190401709E+04  0.25500000920E-02 0. -1.
    10030    2    1    2    0    0  0.00000000000E+00  0.00000000000E+00 -0.21154637902E+03  0.32265339628E+04  0.32195915179E+04 0.  0.
        5    1    3    3  502    0  0.42224044480E+03 -0.14262701269E+04 -0.72263831726E+03  0.16537114911E+04  0.46999998093E+01 0. -1.
       -5    1    3    3    0  502 -0.42224044480E+03  0.14262701269E+04  0.51109193824E+03  0.15728224717E+04  0.46999998093E+01 0.  1.
</event>
<event>
 5   0  0.8195618E-07  0.3211253E+04  0.7818609E-02  0.8185852E-01
       -2   -1    0    0    0  501  0.00000000000E+00  0.00000000000E+00  0.11058311514E+04  0.11058311514E+04  0.25500000920E-02 0.  1.
        2   -1    0    0  501    0  0.00000000000E+00  0.00000000000E+00 -0.23313113177E+04  0.23313113177E+04  0.25500000920E-02 0. -1.
    10030    2    1    2    0    0  0.00000000000E+00  0.00000000000E+00 -0.12254801663E+04  0.34371424690E+04  0.32112531377E+04 0.  0.
        1    1    3    3  502    0 -0.34976985558E+03 -0.13490802315E+04 -0.14661198731E+04  0.20228356101E+04  0.50400001928E-02 0. -1.
       -1    1    3    3    0  502  0.34976985558E+03  0.13490802315E+04  0.24063970685E+03  0.14143068590E+04  0.50400001928E-02 0.  1.
</event>
<event>
 5   0  0.8802800E-07  0.3204017E+04  0.7818609E-02  0.8187757E-01
       -2   -1    0    0    0  501  0.00000000000E+00  0.00000000000E+00  0.11946569776E+04  0.11946569776E+04  0.25500000920E-02 0. -1.
        2   -1    0    0  501    0  0.00000000000E+00  0.00000000000E+00 -0.21482580165E+04  0.21482580165E+04  0.25500000920E-02 0.  1.
    10030    2    1    2    0    0  0.00000000000E+00  0.00000000000E+00 -0.95360103892E+03  0.33429149941E+04  0.32040171217E+04 0.  0.
        5    1    3    3  502    0 -0.12668392054E+04  0.79549290267E+03 -0.10749955240E+04  0.18420988022E+04  0.46999998093E+01 0.  1.
       -5    1    3    3    0  502  0.12668392054E+04 -0.79549290267E+03  0.12139448503E+03  0.15008161918E+04  0.46999998093E+01 0. -1.
</event>
<event>
 5   0  0.8335929E-07  0.3191137E+04  0.7818609E-02  0.8191162E-01
        2   -1    0    0  501    0  0.00000000000E+00  0.00000000000E+00  0.23510623628E+04  0.23510623628E+04  0.25500000920E-02 0.  1.
       -2   -1    0    0    0  501  0.00000000000E+00  0.00000000000E+00 -0.10828462682E+04  0.10828462682E+04  0.25500000920E-02 0. -1.
    10030    2    1    2    0    0  0.00000000000E+00  0.00000000000E+00  0.12682160946E+04  0.34339086310E+04  0.31911371677E+04 0.  0.
        4    1    3    3  502    0  0.10578699052E+04 -0.17675673912E+03  0.19052940081E+04  0.21864305503E+04  0.12699999809E+01 0.  1.
       -4    1    3    3    0  502 -0.10578699052E+04  0.17675673912E+03 -0.63707791349E+03  0.12474780807E+04  0.12699999809E+01 0. -1.
</event>
<event>
 5   0  0.2997105E-07  0.3191747E+04  0.7818609E-02  0.8191000E-01
       -1   -1    0    0    0  501  0.00000000000E+00  0.00000000000E+00  0.17769298397E+04  0.17769298397E+04  0.50400001928E-02 0.  1.
        1   -1    0    0  501    0  0.00000000000E+00  0.00000000000E+00 -0.14332654020E+04  0.14332654020E+04  0.50400001928E-02 0. -1.
    10030    2    1    2    0    0  0.00000000000E+00  0.00000000000E+00  0.34366443766E+03  0.32101952417E+04  0.31917468954E+04 0.  0.
        3    1    3    3  502    0  0.21708610309E+03 -0.13098910354E+04  0.10623146233E+04  0.17004273786E+04  0.10100000352E+00 0.  1.
       -3    1    3    3    0  502 -0.21708610309E+03  0.13098910354E+04 -0.71865018569E+03  0.15097678631E+04  0.10100000352E+00 0. -1.
</event>
<event>
 5   0  0.2997105E-07  0.3197273E+04  0.7818609E-02  0.8189538E-01
       -1   -1    0    0    0  501  0.00000000000E+00  0.00000000000E+00  0.89704813998E+03  0.89704813999E+03  0.50400001928E-02 0.  1.
        1   -1    0    0  501    0  0.00000000000E+00  0.00000000000E+00 -0.28489434551E+04  0.28489434551E+04  0.50400001928E-02 0. -1.
    10030    2    1    2    0    0  0.00000000000E+00  0.00000000000E+00 -0.19518953151E+04  0.37459915951E+04  0.31972734805E+04 0.  0.
        3    1    3    3  502    0  0.10866152573E+04  0.11717790175E+04 -0.10262132406E+04  0.18991873021E+04  0.10100000352E+00 0. -1.
       -3    1    3    3    0  502 -0.10866152573E+04 -0.11717790175E+04 -0.92568207454E+03  0.18468042930E+04  0.10100000352E+00 0.  1.
</event>
<event>
 5   0  0.8488469E-07  0.3059097E+04  0.7818609E-02  0.8227054E-01
       -2   -1    0    0    0  501  0.00000000000E+00  0.00000000000E+00  0.17913717369E+04  0.17913717369E+04  0.25500000920E-02 0.  1.
        2   -1    0    0  501    0  0.00000000000E+00  0.00000000000E+00 -0.13059931902E+04  0.13059931902E+04  0.25500000920E-02 0. -1.
    10030    2    1    2    0    0  0.00000000000E+00  0.00000000000E+00  0.48537854672E+03  0.30973649271E+04  0.30590974417E+04 0.  0.
        3    1    3    3  502    0  0.97636022476E+03  0.29695577094E+03 -0.91088613928E+03  0.13679092029E+04  0.10100000352E+00 0. -1.
       -3    1    3    3    0  502 -0.97636022476E+03 -0.29695577094E+03  0.13962646860E+04  0.17294557242E+04  0.10100000352E+00 0.  1.
</event>
<event>
 5   0  0.8335929E-07  0.3189180E+04  0.7818609E-02  0.8191681E-01
       -2   -1    0    0    0  501  0.00000000000E+00  0.00000000000E+00  0.14306479186E+04  0.14306479186E+04  0.25500000920E-02 0. -1.
        2   -1    0    0  501    0  0.00000000000E+00  0.00000000000E+00 -0.17773185457E+04  0.17773185457E+04  0.25500000920E-02 0.  1.
    10030    2    1    2    0    0  0.00000000000E+00  0.00000000000E+00 -0.34667062706E+03  0.32079664643E+04  0.31891798809E+04 0.  0.
        4    1    3    3  502    0 -0.85147897741E+03  0.29200947832E+03 -0.14973066616E+04  0.17470589103E+04  0.12699999809E+01 0.  1.
       -4    1    3    3    0  502  0.85147897741E+03 -0.29200947832E+03  0.11506360346E+04  0.14609075540E+04  0.12699999809E+01 0. -1.
</event>
<event>
 5   0  0.2783875E-07  0.3188294E+04  0.7818609E-02  0.8191916E-01
       -1   -1    0    0    0  501  0.00000000000E+00  0.00000000000E+00  0.13958507338E+04  0.13958507338E+04  0.50400001928E-02 0.  1.
        1   -1    0    0  501    0  0.00000000000E+00  0.00000000000E+00 -0.18206135203E+04  0.18206135203E+04  0.50400001928E-02 0. -1.
    10030    2    1    2    0    0  0.00000000000E+00  0.00000000000E+00 -0.42476278644E+03  0.32164642541E+04  0.31882940381E+04 0.  0.
        2    1    3    3  502    0 -0.48973704985E+03 -0.13672740843E+04  0.45071132410E+03  0.15206648208E+04  0.25500000920E-02 0.  1.
       -2    1    3    3    0  502  0.48973704985E+03  0.13672740843E+04 -0.87547411054E+03  0.16957994333E+04  0.25500000920E-02 0. -1.
</event>
<event>
 5   0  0.3013888E-07  0.3152554E+04  0.7818609E-02  0.8201461E-01
        1   -1    0    0  501    0  0.00000000000E+00  0.00000000000E+00  0.16679269310E+04  0.16679269311E+04  0.50400001928E-02 0.  1.
       -1   -1    0    0    0  501  0.00000000000E+00  0.00000000000E+00 -0.14896628781E+04  0.14896628781E+04  0.50400001928E-02 0. -1.
    10030    2    1    2    0    0  0.00000000000E+00  0.00000000000E+00  0.17826405296E+03  0.31575898091E+04  0.31525537791E+04 0.  0.
        1    1    3    3  502    0  0.10913919836E+03 -0.11981149923E+04  0.11092175642E+04  0.16363845832E+04  0.50400001928E-02 0.  1.
       -1    1    3    3    0  502 -0.10913919836E+03  0.11981149923E+04 -0.93095351124E+03  0.15212052259E+04  0.50400001928E-02 0. -1.
</event>
<event>
 5   0  0.2783875E-07  0.3204056E+04  0.7818609E-02  0.8187747E-01
        1   -1    0    0  501    0  0.00000000000E+00  0.00000000000E+00  0.22136442634E+04  0.22136442634E+04  0.50400001928E-02 0.  1.
       -1   -1    0    0    0  501  0.00000000000E+00  0.00000000000E+00 -0.11593974172E+04  0.11593974172E+04  0.50400001928E-02 0. -1.
    10030    2    1    2    0    0  0.00000000000E+00  0.00000000000E+00  0.10542468463E+04  0.33730416806E+04  0.32040558307E+04 0.  0.
        2    1    3    3  502    0 -0.93931463333E+03  0.47546369393E+03 -0.74408754488E+03  0.12892028464E+04  0.25500000920E-02 0. -1.
       -2    1    3    3    0  502  0.93931463333E+03 -0.47546369393E+03  0.17983343912E+04  0.20838388342E+04  0.25500000920E-02 0.  1.
</event>
<event>
 5   0  0.8335929E-07  0.3375714E+04  0.7818609E-02  0.8143893E-01
        2   -1    0    0  501    0  0.00000000000E+00  0.00000000000E+00  0.22298690755E+04  0.22298690755E+04  0.25500000920E-02 0. -1.
       -2   -1    0    0    0  501  0.00000000000E+00  0.00000000000E+00 -0.12775911054E+04  0.12775911054E+04  0.25500000920E-02 0.  1.
    10030    2    1    2    0    0  0.00000000000E+00  0.00000000000E+00  0.95227797009E+03  0.35074601810E+04  0.33757137895E+04 0.  0.
        4    1    3    3  502    0 -0.17224097846E+03 -0.33405065852E+03 -0.12335597238E+04  0.12895456573E+04  0.12699999809E+01 0.  1.
       -4    1    3    3    0  502  0.17224097846E+03  0.33405065852E+03  0.21858376939E+04  0.22179145236E+04  0.12699999809E+01 0. -1.
</event>
<event>
 5   0  0.8335929E-07  0.3206109E+04  0.7818609E-02  0.8187206E-01
       -2   -1    0    0    0  501  0.00000000000E+00  0.00000000000E+00  0.16763010477E+04  0.16763010478E+04  0.25500000920E-02 0.  1.
        2   -1    0    0  501    0  0.00000000000E+00  0.00000000000E+00 -0.15330089286E+04  0.15330089286E+04  0.25500000920E-02 0. -1.
    10030    2    1    2    0    0  0.00000000000E+00  0.00000000000E+00  0.14329211914E+03  0.32093099764E+04  0.32061094637E+04 0.  0.
        4    1    3    3  502    0  0.16340875266E+03 -0.34488884057E+03  0.16301627724E+04  0.16742410251E+04  0.12699999809E+01 0.  1.
       -4    1    3    3    0  502 -0.16340875266E+03  0.34488884057E+03 -0.14868706532E+04  0.15350689513E+04  0.12699999809E+01 0. -1.
</event>
<event>
 5   0  0.8802800E-07  0.3181127E+04  0.7818609E-02  0.8193819E-01
       -2   -1    0    0    0  501  0.00000000000E+00  0.00000000000E+00  0.14155189747E+04  0.14155189747E+04  0.25500000920E-02 0.  1.
        2   -1    0    0  501    0  0.00000000000E+00  0.00000000000E+00 -0.17872546790E+04  0.17872546790E+04  0.25500000920E-02 0. -1.
    10030    2    1    2    0    0  0.00000000000E+00  0.00000000000E+00 -0.37173570431E+03  0.32027736536E+04  0.31811274169E+04 0.  0.
        5    1    3    3  502    0 -0.10224838278E+04 -0.42678036588E+03 -0.13347973854E+04  0.17347394066E+04  0.46999998093E+01 0.  1.
       -5    1    3    3    0  502  0.10224838278E+04  0.42678036588E+03  0.96306168110E+03  0.14680342470E+04  0.46999998093E+01 0. -1.
</event>
<event>
 5   0  0.2997105E-07  0.3197288E+04  0.7818609E-02  0.8189534E-01
       -1   -1    0    0    0  501  0.00000000000E+00  0.00000000000E+00  0.17256088383E+04  0.17256088383E+04  0.50400001928E-02 0. -1.
        1   -1    0    0  501    0  0.00000000000E+00  0.00000000000E+00 -0.14810207015E+04  0.14810207015E+04  0.50400001928E-02 0.  1.
    10030    2    1    2    0    0  0.00000000000E+00  0.00000000000E+00  0.24458813682E+03  0.32066295398E+04  0.31972878583E+04 0.  0.
        3    1    3    3  502    0  0.12919687462E+04 -0.56360596578E+03  0.87870419361E+03  0.16610105345E+04  0.10100000352E+00 0.  1.
       -3    1    3    3    0  502 -0.12919687462E+04  0.56360596578E+03 -0.63411605679E+03  0.15456190053E+04  0.10100000352E+00 0. -1.
</event>
<event>
 5   0  0.2783875E-07  0.3201183E+04  0.7818609E-02  0.8188505E-01
        1   -1    0    0  501    0  0.00000000000E+00  0.00000000000E+00  0.15231730976E+04  0.15231730976E+04  0.50400001928E-02 0.  1.
       -1   -1    0    0    0  501  0.00000000000E+00  0.00000000000E+00 -0.16819447010E+04  0.16819447010E+04  0.50400001928E-02 0. -1.
    10030    2    1    2    0    0  0.00000000000E+00  0.00000000000E+00 -0.15877160341E+03  0.32051177985E+04  0.32011828565E+04 0.  0.
        2    1    3    3  502    0 -0.66057034846E+03 -0.14579160355E+04 -0.83926611556E+02  0.16027838369E+04  0.25500000920E-02 0.  1.
       -2    1    3    3    0  502  0.66057034846E+03  0.14579160355E+04 -0.74844991850E+02  0.16023339616E+04  0.25500000920E-02 0. -1.
</event>
<event>
 5   0  0.8195618E-07  0.3196298E+04  0.7818609E-02  0.8189795E-01
        2   -1    0    0  501    0  0.00000000000E+00  0.00000000000E+00  0.19186152040E+04  0.19186152040E+04  0.25500000920E-02 0. -1.
       -2   -1    0    0    0  501  0.00000000000E+00  0.00000000000E+00 -0.13312106058E+04  0.13312106058E+04  0.25500000920E-02 0.  1.
    10030    2    1    2    0    0  0.00000000000E+00  0.00000000000E+00  0.58740459823E+03  0.32498258098E+04  0.31962984266E+04 0.  0.
        1    1    3    3  502    0 -0.10204667784E+04 -0.54796592744E+03  0.14132608094E+04  0.18272726175E+04  0.50400001928E-02 0. -1.
       -1    1    3    3    0  502  0.10204667784E+04  0.54796592744E+03 -0.82585621113E+03  0.14225531923E+04  0.50400001928E-02 0.  1.
</event>
<event>
 5   0  0.2891204E-07  0.3206090E+04  0.7818609E-02  0.8187211E-01
        1   -1    0    0  501    0  0.00000000000E+00  0.00000000000E+00  0.23680596466E+04  0.23680596466E+04  0.50400001928E-02 0. -1.
       -1   -1    0    0    0  501  0.00000000000E+00  0.00000000000E+00 -0.10851727765E+04  0.10851727765E+04  0.50400001928E-02 0.  1.
    10030    2    1    2    0    0  0.00000000000E+00  0.00000000000E+00  0.12828868702E+04  0.34532324231E+04  0.32060903678E+04 0.  0.
        4    1    3    3  502    0 -0.12758361063E+03  0.14853596339E+04  0.12760846809E+04  0.19623874606E+04  0.12699999809E+01 0.  1.
       -4    1    3    3    0  502  0.12758361063E+03 -0.14853596339E+04  0.68021892800E+01  0.14908449625E+04  0.12699999809E+01 0. -1.
</event>
<event>
 5   0  0.8335929E-07  0.3191272E+04  0.7818609E-02  0.8191126E-01
       -2   -1    0    0    0  501  0.00000000000E+00  0.00000000000E+00  0.34183437745E+04  0.34183437745E+04  0.25500000920E-02 0.  1.
        2   -1    0    0  501    0  0.00000000000E+00  0.00000000000E+00 -0.74482087064E+03  0.74482087065E+03  0.25500000920E-02 0. -1.
    10030    2    1    2    0    0  0.00000000000E+00  0.00000000000E+00  0.26735229039E+04  0.41631646452E+04  0.31912717128E+04 0.  0.
        4    1    3    3  502    0 -0.18728355559E+03  0.15143092118E+04  0.72787928080E+03  0.16905671769E+04  0.12699999809E+01 0. -1.
       -4    1    3    3    0  502  0.18728355559E+03 -0.15143092118E+04  0.19456436231E+04  0.24725974683E+04  0.12699999809E+01 0.  1.
</event>
<event>
 5   0  0.8838951E-07  0.3204924E+04  0.7818609E-02  0.8187518E-01
        2   -1    0    0  501    0  0.00000000000E+00  0.00000000000E+00  0.16084220350E+04  0.16084220350E+04  0.25500000920E-02 0. -1.
       -2   -1    0    0    0  501  0.00000000000E+00  0.00000000000E+00 -0.15965242050E+04  0.15965242050E+04  0.25500000920E-02 0.  1.
    10030    2    1    2    0    0  0.00000000000E+00  0.00000000000E+00  0.11897830055E+02  0.32049462400E+04  0.32049241556E+04 0.  0.
        2    1    3    3  502    0 -0.13182141695E+04  0.25818882683E+03 -0.86786180037E+03  0.15992292430E+04  0.25500000920E-02 0.  1.
       -2    1    3    3    0  502  0.13182141695E+04 -0.25818882683E+03  0.87975963043E+03  0.16057169970E+04  0.25500000920E-02 0. -1.
</event>
<event>
 5   0  0.2891204E-07  0.3130802E+04  0.7818609E-02  0.8207335E-01
        1   -1    0    0  501    0  0.00000000000E+00  0.00000000000E+00  0.14364225805E+04  0.14364225805E+04  0.50400001928E-02 0. -1.
       -1   -1    0    0    0  501  0.00000000000E+00  0.00000000000E+00 -0.17059609691E+04  0.17059609691E+04  0.50400001928E-02 0.  1.
    10030    2    1    2    0    0  0.00000000000E+00  0.00000000000E+00 -0.26953838863E+03  0.31423835496E+04  0.31308023620E+04 0.  0.
        4    1    3    3  502    0  0.11109979175E+04  0.20368494015E+02 -0.12414575006E+04  0.16661181191E+04  0.12699999809E+01 0.  1.
       -4    1    3    3    0  502 -0.11109979175E+04 -0.20368494015E+02  0.97191911194E+03  0.14762654305E+04  0.12699999809E+01 0. -1.
</event>
<event>
 5   0  0.8335929E-07  0.3192196E+04  0.7818609E-02  0.8190881E-01
        2   -1    0    0  501    0  0.00000000000E+00  0.00000000000E+00  0.13369548956E+04  0.13369548956E+04  0.25500000920E-02 0.  1.
       -2   -1    0    0    0  501  0.00000000000E+00  0.00000000000E+00 -0.19054709797E+04  0.19054709797E+04  0.25500000920E-02 0. -1.
    10030    2    1    2    0    0  0.00000000000E+00  0.00000000000E+00 -0.56851608411E+03  0.32424258754E+04  0.31921959557E+04 0.  0.
        4    1    3    3  502    0 -0.61976056517E+03 -0.10939456407E+04 -0.12829416625E+04  0.17963187760E+04  0.12699999809E+01 0.  1.
       -4    1    3    3    0  502  0.61976056517E+03  0.10939456407E+04  0.71442557836E+03  0.14461070994E+04  0.12699999809E+01 0. -1.
</event>
<event>
 5   0  0.2997105E-07  0.3194905E+04  0.7818609E-02  0.8190164E-01
        1   -1    0    0  501    0  0.00000000000E+00  0.00000000000E+00  0.17814479585E+04  0.17814479585E+04  0.50400001928E-02 0.  1.
       -1   -1    0    0    0  501  0.00000000000E+00  0.00000000000E+00 -0.14324606282E+04  0.14324606282E+04  0.50400001928E-02 0. -1.
    10030    2    1    2    0    0  0.00000000000E+00  0.00000000000E+00  0.34898733026E+03  0.32139085867E+04  0.31949047321E+04 0.  0.
        3    1    3    3  502    0 -0.56770808283E+03  0.40020778206E+03 -0.12726023186E+04  0.14498190948E+04  0.10100000352E+00 0. -1.
       -3    1    3    3    0  502  0.56770808283E+03 -0.40020778206E+03  0.16215896489E+04  0.17640894920E+04  0.10100000352E+00 0.  1.
</event>
<event>
 5   0  0.8802800E-07  0.3190669E+04  0.7818609E-02  0.8191286E-01
        2   -1    0    0  501    0  0.00000000000E+00  0.00000000000E+00  0.15897579117E+04  0.15897579117E+04  0.25500000920E-02 0. -1.
       -2   -1    0    0    0  501  0.00000000000E+00  0.00000000000E+00 -0.16009308356E+04  0.16009308356E+04  0.25500000920E-02 0.  1.
    10030    2    1    2    0    0  0.00000000000E+00  0.00000000000E+00 -0.11172923838E+02  0.31906887473E+04  0.31906691850E+04 0.  0.
        5    1    3    3  502    0 -0.10944488511E+04 -0.95055561494E+03  0.66052279939E+03  0.15930118403E+04  0.46999998093E+01 0. -1.
       -5    1    3    3    0  502  0.10944488511E+04  0.95055561494E+03 -0.67169572323E+03  0.15976769070E+04  0.46999998093E+01 0.  1.
</event>
<event>
 5   0  0.8802800E-07  0.3187522E+04  0.7818609E-02  0.8192120E-01
        2   -1    0    0  501    0  0.00000000000E+00  0.00000000000E+00  0.21349311238E+04  0.21349311238E+04  0.25500000920E-02 0. -1.
       -2   -1    0    0    0  501  0.00000000000E+00  0.00000000000E+00 -0.11897685726E+04  0.11897685726E+04  0.25500000920E-02 0.  1.
    10030    2    1    2    0    0  0.00000000000E+00  0.00000000000E+00  0.94516255121E+03  0.33246996964E+04  0.31875218938E+04 0.  0.
        5    1    3    3  502    0 -0.36619620546E+03 -0.37758340781E+03 -0.10966186170E+04  0.12162497161E+04  0.46999998093E+01 0.  1.
       -5    1    3    3    0  502  0.36619620546E+03  0.37758340781E+03  0.20417811682E+04  0.21084499803E+04  0.46999998093E+01 0. -1.
</event>
<event>
 5   0  0.8195618E-07  0.3204178E+04  0.7818609E-02  0.8187715E-01
        2   -1    0    0  501    0  0.00000000000E+00  0.00000000000E+00  0.20942572578E+04  0.20942572578E+04  0.25500000920E-02 0.  1.
       -2   -1    0    0    0  501  0.00000000000E+00  0.00000000000E+00 -0.12255844145E+04  0.12255844145E+04  0.25500000920E-02 0. -1.
    10030    2    1    2    0    0  0.00000000000E+00  0.00000000000E+00  0.86867284330E+03  0.33198416722E+04  0.32041779320E+04 0.  0.
        1    1    3    3  502    0 -0.53903837056E+03  0.13545859920E+04  0.11225608047E+04  0.18400022649E+04  0.50400001928E-02 0. -1.
       -1    1    3    3    0  502  0.53903837056E+03 -0.13545859920E+04 -0.25388796136E+03  0.14798394073E+04  0.50400001928E-02 0.  1.
</event>
<event>
 5   0  0.2783875E-07  0.3200101E+04  0.7818609E-02  0.8188791E-01
       -1   -1    0    0    0  501  0.00000000000E+00  0.00000000000E+00  0.15776353655E+04  0.15776353655E+04  0.50400001928E-02 0.  1.
        1   -1    0    0  501    0  0.00000000000E+00  0.00000000000E+00 -0.16227837793E+04  0.16227837793E+04  0.50400001928E-02 0. -1.
    10030    2    1    2    0    0  0.00000000000E+00  0.00000000000E+00 -0.45148413844E+02  0.32004191448E+04  0.32001006739E+04 0.  0.
        2    1    3    3  502    0  0.90415420379E+03 -0.12404842107E+04 -0.47413345949E+03  0.16065797330E+04  0.25500000920E-02 0. -1.
       -2    1    3    3    0  502 -0.90415420379E+03  0.12404842107E+04  0.42898504565E+03  0.15938394118E+04  0.25500000920E-02 0.  1.
</event>
<event>
 5   0  0.2997105E-07  0.3178895E+04  0.7818609E-02  0.8194413E-01
       -1   -1    0    0    0  501  0.00000000000E+00  0.00000000000E+00  0.16314388994E+04  0.16314388994E+04  0.50400001928E-02 0. -1.
        1   -1    0    0  501    0  0.00000000000E+00  0.00000000000E+00 -0.15485372191E+04  0.15485372191E+04  0.50400001928E-02 0.  1.
    10030    2    1    2    0    0  0.00000000000E+00  0.00000000000E+00  0.82901680297E+02  0.31799761185E+04  0.31788953153E+04 0.  0.
        3    1    3    3  502    0 -0.14918882137E+04  0.21007404722E+02 -0.50661506910E+03  0.15757000322E+04  0.10100000352E+00 0.  1.
       -3    1    3    3    0  502  0.14918882137E+04 -0.21007404722E+02  0.58951674940E+03  0.16042760863E+04  0.10100000352E+00 0. -1.
</event>
<event>
 5   0  0.2997105E-07  0.3199855E+04  0.7818609E-02  0.8188855E-01
       -1   -1    0    0    0  501  0.00000000000E+00  0.00000000000E+00  0.20646138446E+04  0.20646138446E+04  0.50400001928E-02 0.  1.
        1   -1    0    0  501    0  0.00000000000E+00  0.00000000000E+00 -0.12398292838E+04  0.12398292838E+04  0.50400001928E-02 0. -1.
    10030    2    1    2    0    0  0.00000000000E+00  0.00000000000E+00  0.82478456076E+03  0.33044431284E+04  0.31998554369E+04 0.  0.
        3    1    3    3  502    0 -0.52623762303E+03  0.65172527567E+03 -0.99528173520E+03  0.13008680231E+04  0.10100000352E+00 0. -1.
       -3    1    3    3    0  502  0.52623762303E+03 -0.65172527567E+03  0.18200662960E+04  0.20035751053E+04  0.10100000352E+00 0.  1.
</event>
<event>
 5   0  0.8335929E-07  0.3231845E+04  0.7818609E-02  0.8180457E-01
        2   -1    0    0  501    0  0.00000000000E+00  0.00000000000E+00  0.23831021690E+04  0.23831021690E+04  0.25500000920E-02 0. -1.
       -2   -1    0    0    0  501  0.00000000000E+00  0.00000000000E+00 -0.10957171280E+04  0.10957171280E+04  0.25500000920E-02 0.  1.
    10030    2    1    2    0    0  0.00000000000E+00  0.00000000000E+00  0.12873850410E+04  0.34788192970E+04  0.32318452093E+04 0.  0.
        4    1    3    3  502    0  0.28570571561E+03 -0.10542012107E+04  0.19255968594E+04  0.22137960218E+04  0.12699999809E+01 0. -1.
       -4    1    3    3    0  502 -0.28570571561E+03  0.10542012107E+04 -0.63821181842E+03  0.12650232751E+04  0.12699999809E+01 0.  1.
</event>
<event>
 5   0  0.3075756E-07  0.3198960E+04  0.7818609E-02  0.8189092E-01
       -1   -1    0    0    0  501  0.00000000000E+00  0.00000000000E+00  0.12413004240E+04  0.12413004240E+04  0.50400001928E-02 0.  1.
        1   -1    0    0  501    0  0.00000000000E+00  0.00000000000E+00 -0.20610135959E+04  0.20610135959E+04  0.50400001928E-02 0. -1.
    10030    2    1    2    0    0  0.00000000000E+00  0.00000000000E+00 -0.81971317195E+03  0.33023140199E+04  0.31989604877E+04 0.  0.
        5    1    3    3  502    0  0.83117117800E+02  0.56199547461E+03  0.11336319033E+04  0.12680263210E+04  0.46999998093E+01 0.  1.
       -5    1    3    3    0  502 -0.83117117800E+02 -0.56199547461E+03 -0.19533450752E+04  0.20342876988E+04  0.46999998093E+01 0. -1.
</event>
<event>
 5   0  0.2891204E-07  0.3208761E+04  0.7818609E-02  0.8186507E-01
        1   -1    0    0  501    0  0.00000000000E+00  0.00000000000E+00  0.19686802238E+04  0.19686802238E+04  0.50400001928E-02 0.  1.
       -1   -1    0    0    0  501  0.00000000000E+00  0.00000000000E+00 -0.13074937613E+04  0.13074937613E+04  0.50400001928E-02 0. -1.
    10030    2    1    2    0    0  0.00000000000E+00  0.00000000000E+00  0.66118646246E+03  0.32761739851E+04  0.32087612006E+04 0.  0.
        4    1    3    3  502    0  0.10020548500E+04 -0.79738501407E+03  0.13173859743E+04  0.18372381994E+04  0.12699999809E+01 0.  1.
       -4    1    3    3    0  502 -0.10020548500E+04  0.79738501407E+03 -0.65619951184E+03  0.14389357857E+04  0.12699999809E+01 0. -1.
</event>
<event>
 5   0  0.2783875E-07  0.3203214E+04  0.7818609E-02  0.8187969E-01
       -1   -1    0    0    0  501  0.00000000000E+00  0.00000000000E+00  0.12753946917E+04  0.12753946917E+04  0.50400001928E-02 0.  1.
        1   -1    0    0  501    0  0.00000000000E+00  0.00000000000E+00 -0.20112552142E+04  0.20112552142E+04  0.50400001928E-02 0. -1.
    10030    2    1    2    0    0  0.00000000000E+00  0.00000000000E+00 -0.73586052252E+03  0.32866499059E+04  0.32032135263E+04 0.  0.
        2    1    3    3  502    0  0.52195004482E+03 -0.15087780834E+04 -0.23692896145E+03  0.16139945747E+04  0.25500000920E-02 0.  1.
       -2    1    3    3    0  502 -0.52195004482E+03  0.15087780834E+04 -0.49893156107E+03  0.16726553312E+04  0.25500000920E-02 0. -1.
</event>
<event>
 5   0  0.8488469E-07  0.3163644E+04  0.7818609E-02  0.8198485E-01
       -2   -1    0    0    0  501  0.00000000000E+00  0.00000000000E+00  0.15935580957E+04  0.15935580957E+04  0.25500000920E-02 0. -1.
        2   -1    0    0  501    0  0.00000000000E+00  0.00000000000E+00 -0.15701718864E+04  0.15701718865E+04  0.25500000920E-02 0.  1.
    10030    2    1    2    0    0  0.00000000000E+00  0.00000000000E+00  0.23386209260E+02  0.31637299822E+04  0.31636435459E+04 0.  0.
        3    1    3    3  502    0 -0.42995953128E+03  0.75729829423E+03  0.13322571866E+04  0.15916265662E+04  0.10100000352E+00 0. -1.
       -3    1    3    3    0  502  0.42995953128E+03 -0.75729829423E+03 -0.13088709773E+04  0.15721034159E+04  0.10100000352E+00 0.  1.
</event>
<event>
 5   0  0.8335929E-07  0.3192496E+04  0.7818609E-02  0.8190802E-01
        2   -1    0    0  501    0  0.00000000000E+00  0.00000000000E+00  0.15790030993E+04  0.15790030993E+04  0.25500000920E-02 0.  1.
       -2   -1    0    0    0  501  0.00000000000E+00  0.00000000000E+00 -0.16136816224E+04  0.16136816224E+04  0.25500000920E-02 0. -1.
    10030    2    1    2    0    0  0.00000000000E+00  0.00000000000E+00 -0.34678523122E+02  0.31926847217E+04  0.31924963793E+04 0.  0.
        4    1    3    3  502    0 -0.86309110787E+02 -0.14090466247E+04  0.72778523863E+03  0.15882489161E+04  0.12699999809E+01 0.  1.
       -4    1    3    3    0  502  0.86309110787E+02  0.14090466247E+04 -0.76246376176E+03  0.16044358055E+04  0.12699999809E+01 0. -1.
</event>
<event>
 5   0  0.8195618E-07  0.3108457E+04  0.7818609E-02  0.8213421E-01
       -2   -1    0    0    0  501  0.00000000000E+00  0.00000000000E+00  0.15471321954E+04  0.15471321954E+04  0.25500000920E-02 0. -1.
        2   -1    0    0  501    0  0.00000000000E+00  0.00000000000E+00 -0.15613575453E+04  0.15613575453E+04  0.25500000920E-02 0.  1.
    10030    2    1    2    0    0  0.00000000000E+00  0.00000000000E+00 -0.14225349914E+02  0.31084897407E+04  0.31084571909E+04 0.  0.
        1    1    3    3  502    0  0.17918659000E+03 -0.82367252853E+03 -0.13129143321E+04  0.15602205972E+04  0.50400001928E-02 0.  1.
       -1    1    3    3    0  502 -0.17918659000E+03  0.82367252853E+03  0.12986889822E+04  0.15482691435E+04  0.50400001928E-02 0. -1.
</event>
<event>
 5   0  0.8488469E-07  0.3188789E+04  0.7818609E-02  0.8191784E-01
        2   -1    0    0  501    0  0.00000000000E+00  0.00000000000E+00  0.20976311187E+04  0.20976311187E+04  0.25500000920E-02 0. -1.
       -2   -1    0    0    0  501  0.00000000000E+00  0.00000000000E+00 -0.12118878642E+04  0.12118878642E+04  0.25500000920E-02 0.  1.
    10030    2    1    2    0    0  0.00000000000E+00  0.00000000000E+00  0.88574325453E+03  0.33095189829E+04  0.31887889214E+04 0.  0.
        3    1    3    3  502    0  0.65666506562E+02 -0.44062842238E+03 -0.11459804295E+04  0.12295270033E+04  0.10100000352E+00 0.  1.
       -3    1    3    3    0  502 -0.65666506562E+02  0.44062842238E+03  0.20317236840E+04  0.20799919796E+04  0.10100000352E+00 0. -1.
</event>
<event>
 5   0  0.3075756E-07  0.3206926E+04  0.7818609E-02  0.8186991E-01
       -1   -1    0    0    0  501  0.00000000000E+00  0.00000000000E+00  0.27373011733E+04  0.27373011733E+04  0.50400001928E-02 0. -1.
        1   -1    0    0  501    0  0.00000000000E+00  0.00000000000E+00 -0.93928024656E+03  0.93928024657E+03  0.50400001928E-02 0.  1.
    10030    2    1    2    0    0  0.00000000000E+00  0.00000000000E+00  0.17980209268E+04  0.36765814199E+04  0.32069255813E+04 0.  0.
        5    1    3    3  502    0  0.94330853415E+03 -0.12068563935E+04  0.35551857669E+03  0.15724976609E+04  0.46999998093E+01 0. -1.
       -5    1    3    3    0  502 -0.94330853415E+03  0.12068563935E+04  0.14425023501E+04  0.21040837590E+04  0.46999998093E+01 0.  1.
</event>
<event>
 5   0  0.2891204E-07  0.3259896E+04  0.7818609E-02  0.8173175E-01
       -1   -1    0    0    0  501  0.00000000000E+00  0.00000000000E+00  0.17954570802E+04  0.17954570802E+04  0.50400001928E-02 0. -1.
        1   -1    0    0  501    0  0.00000000000E+00  0.00000000000E+00 -0.14796958657E+04  0.14796958657E+04  0.50400001928E-02 0.  1.
    10030    2    1    2    0    0  0.00000000000E+00  0.00000000000E+00  0.31576121446E+03  0.32751529459E+04  0.32598959607E+04 0.  0.
        4    1    3    3  502    0 -0.83091683735E+03  0.23801165105E+03  0.15462514046E+04  0.17714308780E+04  0.12699999809E+01 0. -1.
       -4    1    3    3    0  502  0.83091683735E+03 -0.23801165105E+03 -0.12304901901E+04  0.15037220679E+04  0.12699999809E+01 0.  1.
</event>
<event>
 5   0  0.3075756E-07  0.3203589E+04  0.7818609E-02  0.8187870E-01
       -1   -1    0    0    0  501  0.00000000000E+00  0.00000000000E+00  0.12331923793E+04  0.12331923794E+04  0.50400001928E-02 0. -1.
        1   -1    0    0  501    0  0.00000000000E+00  0.00000000000E+00 -0.20805723118E+04  0.20805723118E+04  0.50400001928E-02 0.  1.
    10030    2    1    2    0    0  0.00000000000E+00  0.00000000000E+00 -0.84737993241E+03  0.33137646911E+04  0.32035891869E+04 0.  0.
        5    1    3    3  502    0 -0.15540189964E+04 -0.35746204616E+03 -0.26692021797E+03  0.16167939413E+04  0.46999998093E+01 0. -1.
       -5    1    3    3    0  502  0.15540189964E+04  0.35746204616E+03 -0.58045971444E+03  0.16969707499E+04  0.46999998093E+01 0.  1.
</event>
<event>
 5   0  0.3013888E-07  0.3197157E+04  0.7818609E-02  0.8189568E-01
       -1   -1    0    0    0  501  0.00000000000E+00  0.00000000000E+00  0.13288149879E+04  0.13288149879E+04  0.50400001928E-02 0. -1.
        1   -1    0    0  501    0  0.00000000000E+00  0.00000000000E+00 -0.19231072519E+04  0.19231072519E+04  0.50400001928E-02 0.  1.
    10030    2    1    2    0    0  0.00000000000E+00  0.00000000000E+00 -0.59429226396E+03  0.32519222398E+04  0.31971573246E+04 0.  0.
        1    1    3    3  502    0 -0.14090720146E+04  0.64873637538E+03 -0.68990939426E+03  0.16977390257E+04  0.50400001928E-02 0.  1.
       -1    1    3    3    0  502  0.14090720146E+04 -0.64873637538E+03  0.95617130302E+02  0.15541832140E+04  0.50400001928E-02 0. -1.
</event>
<event>
 5   0  0.8335929E-07  0.3176981E+04  0.7818609E-02  0.8194923E-01
       -2   -1    0    0    0  501  0.00000000000E+00  0.00000000000E+00  0.97939093554E+03  0.97939093554E+03  0.25500000920E-02 0. -1.
        2   -1    0    0  501    0  0.00000000000E+00  0.00000000000E+00 -0.25763995194E+04  0.25763995194E+04  0.25500000920E-02 0.  1.
    10030    2    1    2    0    0  0.00000000000E+00  0.00000000000E+00 -0.15970085839E+04  0.35557904549E+04  0.31769811681E+04 0.  0.
        4    1    3    3  502    0  0.15805598892E+04  0.12875241546E+03 -0.69498876262E+03  0.17314034021E+04  0.12699999809E+01 0. -1.
       -4    1    3    3    0  502 -0.15805598892E+04 -0.12875241546E+03 -0.90201982123E+03  0.18243870528E+04  0.12699999809E+01 0.  1.
</event>
<event>
 5   0  0.8195618E-07  0.3021408E+04  0.7818609E-02  0.8237644E-01
       -2   -1    0    0    0  501  0.00000000000E+00  0.00000000000E+00  0.67358817532E+03  0.67358817532E+03  0.25500000920E-02 0. -1.
        2   -1    0    0  501    0  0.00000000000E+00  0.00000000000E+00 -0.33881638408E+04  0.33881638408E+04  0.25500000920E-02 0.  1.
    10030    2    1    2    0    0  0.00000000000E+00  0.00000000000E+00 -0.27145756655E+04  0.40617520162E+04  0.30214083466E+04 0.  0.
        1    1    3    3  502    0 -0.28961413510E+03  0.10155108283E+04  0.95010626891E+02  0.10602667631E+04  0.50400001928E-02 0. -1.
       -1    1    3    3    0  502  0.28961413510E+03 -0.10155108283E+04 -0.28095862924E+04  0.30014852530E+04  0.50400001928E-02 0.  1.
</event>
<event>
 5   0  0.8838951E-07  0.3198210E+04  0.7818609E-02  0.8189290E-01
        2   -1    0    0  501    0  0.00000000000E+00  0.00000000000E+00  0.13906449063E+04  0.13906449063E+04  0.25500000920E-02 0.  1.
       -2   -1    0    0    0  501  0.00000000000E+00  0.00000000000E+00 -0.18388133601E+04  0.18388133601E+04  0.25500000920E-02 0. -1.
    10030    2    1    2    0    0  0.00000000000E+00  0.00000000000E+00 -0.44816845373E+03  0.32294582664E+04  0.31982097698E+04 0.  0.
        2    1    3    3  502    0 -0.14612639456E+03 -0.15677727731E+04  0.57697944454E+02  0.15756247790E+04  0.25500000920E-02 0.  1.
       -2    1    3    3    0  502  0.14612639456E+03  0.15677727731E+04 -0.50586639818E+03  0.16538334874E+04  0.25500000920E-02 0. -1.
</event>
<event>
 5   0  0.2997105E-07  0.3190901E+04  0.7818609E-02  0.8191224E-01
        1   -1    0    0  501    0  0.00000000000E+00  0.00000000000E+00  0.23741355353E+04  0.23741355353E+04  0.50400001928E-02 0.  1.
       -1   -1    0    0    0  501  0.00000000000E+00  0.00000000000E+00 -0.10721641776E+04  0.10721641776E+04  0.50400001928E-02 0. -1.
    10030    2    1    2    0    0  0.00000000000E+00  0.00000000000E+00  0.13019713577E+04  0.34462997130E+04  0.31909014863E+04 0.  0.
        3    1    3    3  502    0  0.14747397373E+04  0.57339792242E+01  0.13084564815E+04  0.19715345661E+04  0.10100000352E+00 0.  1.
       -3    1    3    3    0  502 -0.14747397373E+04 -0.57339792242E+01 -0.64851238133E+01  0.14747651468E+04  0.10100000352E+00 0. -1.
</event>
<event>
 5   0  0.8488469E-07  0.3192583E+04  0.7818609E-02  0.8190779E-01
       -2   -1    0    0    0  501  0.00000000000E+00  0.00000000000E+00  0.14066123076E+04  0.14066123076E+04  0.25500000920E-02 0. -1.
        2   -1    0    0  501    0  0.00000000000E+00  0.00000000000E+00 -0.18115490944E+04  0.18115490944E+04  0.25500000920E-02 0.  1.
    10030    2    1    2    0    0  0.00000000000E+00  0.00000000000E+00 -0.40493678676E+03  0.32181614020E+04  0.31925834379E+04 0.  0.
        3    1    3    3  502    0  0.13489907758E+04  0.84867900050E+03 -0.29327386961E+03  0.16205066281E+04  0.10100000352E+00 0.  1.
       -3    1    3    3    0  502 -0.13489907758E+04 -0.84867900050E+03 -0.11166291715E+03  0.15976547738E+04  0.10100000352E+00 0. -1.
</event>
<event>
 5   0  0.8802800E-07  0.3182679E+04  0.7818609E-02  0.8193407E-01
        2   -1    0    0  501    0  0.00000000000E+00  0.00000000000E+00  0.17632125449E+04  0.17632125449E+04  0.25500000920E-02 0.  1.
       -2   -1    0    0    0  501  0.00000000000E+00  0.00000000000E+00 -0.14362197502E+04  0.14362197502E+04  0.25500000920E-02 0. -1.
    10030    2    1    2    0    0  0.00000000000E+00  0.00000000000E+00  0.32699279478E+03  0.31994322951E+04  0.31826785453E+04 0.  0.
        5    1    3    3  502    0 -0.60960349416E+03 -0.14685654298E+04  0.99618618437E+02  0.15931876226E+04  0.46999998093E+01 0. -1.
       -5    1    3    3    0  502  0.60960349416E+03  0.14685654298E+04  0.22737417634E+03  0.16062446725E+04  0.46999998093E+01 0.  1.
</event>
<event>
 5   0  0.8195618E-07  0.3190290E+04  0.7818609E-02  0.8191386E-01
        2   -1    0    0  501    0  0.00000000000E+00  0.00000000000E+00  0.21373340917E+04  0.21373340917E+04  0.25500000920E-02 0. -1.
       -2   -1    0    0    0  501  0.00000000000E+00  0.00000000000E+00 -0.11904960377E+04  0.11904960377E+04  0.25500000920E-02 0.  1.
    10030    2    1    2    0    0  0.00000000000E+00  0.00000000000E+00  0.94683805397E+03  0.33278301294E+04  0.31902901232E+04 0.  0.
        1    1    3    3  502    0  0.15617244754E+04 -0.25707589166E+03  0.26632406263E+03  0.16049921674E+04  0.50400001928E-02 0.  1.
       -1    1    3    3    0  502 -0.15617244754E+04  0.25707589166E+03  0.68051399134E+03  0.17228379620E+04  0.50400001928E-02 0. -1.
</event>
<event>
 5   0  0.2997105E-07  0.3203823E+04  0.7818609E-02  0.8187808E-01
       -1   -1    0    0    0  501  0.00000000000E+00  0.00000000000E+00  0.12277761709E+04  0.12277761709E+04  0.50400001928E-02 0. -1.
        1   -1    0    0  501    0  0.00000000000E+00  0.00000000000E+00 -0.20900554623E+04  0.20900554623E+04  0.50400001928E-02 0.  1.
    10030    2    1    2    0    0  0.00000000000E+00  0.00000000000E+00 -0.86227929144E+03  0.33178316332E+04  0.32038228993E+04 0.  0.
        3    1    3    3  502    0  0.10388822982E+04 -0.59789301282E+03  0.66939455273E+03  0.13728953208E+04  0.10100000352E+00 0. -1.
       -3    1    3    3    0  502 -0.10388822982E+04  0.59789301282E+03 -0.15316738442E+04  0.19449363125E+04  0.10100000352E+00 0.  1.
</event>
<event>
 5   0  0.2891204E-07  0.3198253E+04  0.7818609E-02  0.8189279E-01
       -1   -1    0    0    0  501  0.00000000000E+00  0.00000000000E+00  0.10807859090E+04  0.10807859090E+04  0.50400001928E-02 0.  1.
        1   -1    0    0  501    0  0.00000000000E+00  0.00000000000E+00 -0.23660618393E+04  0.23660618393E+04  0.50400001928E-02 0. -1.
    10030    2    1    2    0    0  0.00000000000E+00  0.00000000000E+00 -0.12852759304E+04  0.34468477483E+04  0.31982534582E+04 0.  0.
        4    1    3    3  502    0 -0.30303162367E+03 -0.34791160316E+03 -0.22927710375E+04  0.23387328389E+04  0.12699999809E+01 0. -1.
       -4    1    3    3    0  502  0.30303162367E+03  0.34791160316E+03  0.10074951071E+04  0.11081149094E+04  0.12699999809E+01 0.  1.
</event>
<event>
 5   0  0.2997105E-07  0.3203092E+04  0.7818609E-02  0.8188001E-01
        1   -1    0    0  501    0  0.00000000000E+00  0.00000000000E+00  0.22853094466E+04  0.22853094466E+04  0.50400001928E-02 0. -1.
       -1   -1    0    0    0  501  0.00000000000E+00  0.00000000000E+00 -0.11223642856E+04  0.11223642857E+04  0.50400001928E-02 0.  1.
    10030    2    1    2    0    0  0.00000000000E+00  0.00000000000E+00  0.11629451610E+04  0.34076737323E+04  0.32030920715E+04 0.  0.
        3    1    3    3  502    0  0.14808206483E+04 -0.59132950968E+03  0.74087323920E+03  0.17582359194E+04  0.10100000352E+00 0. -1.
       -3    1    3    3    0  502 -0.14808206483E+04  0.59132950968E+03  0.42207192178E+03  0.16494378129E+04  0.10100000352E+00 0.  1.
</event>
<event>
 5   0  0.8335929E-07  0.3202564E+04  0.7818609E-02  0.8188140E-01
       -2   -1    0    0    0  501  0.00000000000E+00  0.00000000000E+00  0.25568853363E+04  0.25568853363E+04  0.25500000920E-02 0.  1.
        2   -1    0    0  501    0  0.00000000000E+00  0.00000000000E+00 -0.10028232840E+04  0.10028232840E+04  0.25500000920E-02 0. -1.
    10030    2    1    2    0    0  0.00000000000E+00  0.00000000000E+00  0.15540620524E+04  0.35597086203E+04  0.32025640663E+04 0.  0.
        4    1    3    3  502    0 -0.94281351681E+03 -0.95496960023E+03  0.17480924318E+04  0.22037906044E+04  0.12699999809E+01 0.  1.
       -4    1    3    3    0  502  0.94281351681E+03  0.95496960023E+03 -0.19403037947E+03  0.13559180159E+04  0.12699999809E+01 0. -1.
</event>
<event>
 5   0  0.8802800E-07  0.3196716E+04  0.7818609E-02  0.8189685E-01
        2   -1    0    0  501    0  0.00000000000E+00  0.00000000000E+00  0.16597890987E+04  0.16597890987E+04  0.25500000920E-02 0.  1.
       -2   -1    0    0    0  501  0.00000000000E+00  0.00000000000E+00 -0.15392005446E+04  0.15392005446E+04  0.25500000920E-02 0. -1.
    10030    2    1    2    0    0  0.00000000000E+00  0.00000000000E+00  0.12058855409E+03  0.31989896433E+04  0.31967159928E+04 0.  0.
        5    1    3    3  502    0  0.10653016779E+04 -0.71454105200E+03  0.10145392830E+04  0.16354658745E+04  0.46999998093E+01 0.  1.
       -5    1    3    3    0  502 -0.10653016779E+04  0.71454105200E+03 -0.89395072893E+03  0.15635237688E+04  0.46999998093E+01 0. -1.
</event>
<event>
 5   0  0.8838951E-07  0.3210793E+04  0.7818609E-02  0.8185972E-01
        2   -1    0    0  501    0  0.00000000000E+00  0.00000000000E+00  0.14397414439E+04  0.14397414439E+04  0.25500000920E-02 0.  1.
       -2   -1    0    0    0  501  0.00000000000E+00  0.00000000000E+00 -0.17901121297E+04  0.17901121297E+04  0.25500000920E-02 0. -1.
    10030    2    1    2    0    0  0.00000000000E+00  0.00000000000E+00 -0.35037068578E+03  0.32298535736E+04  0.32107934361E+04 0.  0.
        2    1    3    3  502    0  0.89336286546E+03  0.86069592227E+03  0.84988491213E+03  0.15037283810E+04  0.25500000920E-02 0.  1.
       -2    1    3    3    0  502 -0.89336286546E+03 -0.86069592227E+03 -0.12002555979E+04  0.17261251925E+04  0.25500000920E-02 0. -1.
</event>
<event>
 5   0  0.8488469E-07  0.3203639E+04  0.7818609E-02  0.8187857E-01
        2   -1    0    0  501    0  0.00000000000E+00  0.00000000000E+00  0.18878258693E+04  0.18878258693E+04  0.25500000920E-02 0.  1.
       -2   -1    0    0    0  501  0.00000000000E+00  0.00000000000E+00 -0.13591431927E+04  0.13591431927E+04  0.25500000920E-02 0. -1.
    10030    2    1    2    0    0  0.00000000000E+00  0.00000000000E+00  0.52868267655E+03  0.32469690620E+04  0.32036389805E+04 0.  0.
        3    1    3    3  502    0 -0.93252411933E+03  0.25313690953E+03  0.15591753617E+04  0.18343138626E+04  0.10100000352E+00 0.  1.
       -3    1    3    3    0  502  0.93252411933E+03 -0.25313690953E+03 -0.10304926851E+04  0.14126551994E+04  0.10100000352E+00 0. -1.
</event>
<event>
 5   0  0.8838951E-07  0.3197536E+04  0.7818609E-02  0.8189468E-01
        2   -1    0    0  501    0  0.00000000000E+00  0.00000000000E+00  0.21749342279E+04  0.21749342279E+04  0.25500000920E-02 0. -1.
       -2   -1    0    0    0  501  0.00000000000E+00  0.00000000000E+00 -0.11752348275E+04  0.11752348275E+04  0.25500000920E-02 0.  1.
    10030    2    1    2    0    0  0.00000000000E+00  0.00000000000E+00  0.99969940039E+03  0.33501690554E+04  0.31975355836E+04 0.  0.
        2    1    3    3  502    0  0.21251902846E+03  0.81287125208E+02 -0.11581839651E+04  0.11803228504E+04  0.25500000920E-02 0.  1.
       -2    1    3    3    0  502 -0.21251902846E+03 -0.81287125208E+02  0.21578833655E+04  0.21698462050E+04  0.25500000920E-02 0. -1.
</event>
<event>
 5   0  0.8488469E-07  0.3203727E+04  0.7818609E-02  0.8187834E-01
        2   -1    0    0  501    0  0.00000000000E+00  0.00000000000E+00  0.21508619612E+04  0.21508619612E+04  0.25500000920E-02 0.  1.
       -2   -1    0    0    0  501  0.00000000000E+00  0.00000000000E+00 -0.11929946301E+04  0.11929946301E+04  0.25500000920E-02 0. -1.
    10030    2    1    2    0    0  0.00000000000E+00  0.00000000000E+00  0.95786733112E+03  0.33438565914E+04  0.32037270607E+04 0.  0.
        3    1    3    3  502    0 -0.11503131408E+04 -0.90685792425E+03 -0.19777278534E+03  0.14780817642E+04  0.10100000352E+00 0. -1.
       -3    1    3    3    0  502  0.11503131408E+04  0.90685792425E+03  0.11556401165E+04  0.18657748272E+04  0.10100000352E+00 0.  1.
</event>
<event>
 5   0  0.8488469E-07  0.3259056E+04  0.7818609E-02  0.8173393E-01
        2   -1    0    0  501    0  0.00000000000E+00  0.00000000000E+00  0.11050798813E+04  0.11050798813E+04  0.25500000920E-02 0.  1.
       -2   -1    0    0    0  501  0.00000000000E+00  0.00000000000E+00 -0.24028678633E+04  0.24028678633E+04  0.25500000920E-02 0. -1.
    10030    2    1    2    0    0  0.00000000000E+00  0.00000000000E+00 -0.12977879820E+04  0.35079477445E+04  0.32590556504E+04 0.  0.
        3    1    3    3  502    0  0.24812949935E+03 -0.13119832568E+04  0.35651373251E+03  0.13820167750E+04  0.10100000352E+00 0.  1.
       -3    1    3    3    0  502 -0.24812949935E+03  0.13119832568E+04 -0.16543017145E+04  0.21259309696E+04  0.10100000352E+00 0. -1.
</event>
<event>
 5   0  0.8335929E-07  0.3194935E+04  0.7818609E-02  0.8190156E-01
       -2   -1    0    0    0  501  0.00000000000E+00  0.00000000000E+00  0.10345021643E+04  0.10345021643E+04  0.25500000920E-02 0.  1.
        2   -1    0    0  501    0  0.00000000000E+00  0.00000000000E+00 -0.24667931864E+04  0.24667931864E+04  0.25500000920E-02 0. -1.
    10030    2    1    2    0    0  0.00000000000E+00  0.00000000000E+00 -0.14322910221E+04  0.35012953508E+04  0.31949352985E+04 0.  0.
        4    1    3    3  502    0 -0.82332896371E+02 -0.44998200374E+03 -0.23934787087E+04  0.24368020952E+04  0.12699999809E+01 0. -1.
       -4    1    3    3    0  502  0.82332896371E+02  0.44998200374E+03  0.96118768655E+03  0.10644932556E+04  0.12699999809E+01 0.  1.
</event>
<event>
 5   0  0.2997105E-07  0.3196465E+04  0.7818609E-02  0.8189751E-01
        1   -1    0    0  501    0  0.00000000000E+00  0.00000000000E+00  0.14345468959E+04  0.14345468959E+04  0.50400001928E-02 0. -1.
       -1   -1    0    0    0  501  0.00000000000E+00  0.00000000000E+00 -0.17805946751E+04  0.17805946751E+04  0.50400001928E-02 0.  1.
    10030    2    1    2    0    0  0.00000000000E+00  0.00000000000E+00 -0.34604777919E+03  0.32151415711E+04  0.31964646496E+04 0.  0.
        3    1    3    3  502    0 -0.82918169102E+03  0.54196546122E+03  0.10885284822E+04  0.14717890829E+04  0.10100000352E+00 0. -1.
       -3    1    3    3    0  502  0.82918169102E+03 -0.54196546122E+03 -0.14345762614E+04  0.17433524881E+04  0.10100000352E+00 0.  1.
</event>
<event>
 5   0  0.2783875E-07  0.3203442E+04  0.7818609E-02  0.8187909E-01
       -1   -1    0    0    0  501  0.00000000000E+00  0.00000000000E+00  0.98616257714E+03  0.98616257716E+03  0.50400001928E-02 0.  1.
        1   -1    0    0  501    0  0.00000000000E+00  0.00000000000E+00 -0.26015087972E+04  0.26015087972E+04  0.50400001928E-02 0. -1.
    10030    2    1    2    0    0  0.00000000000E+00  0.00000000000E+00 -0.16153462201E+04  0.35876713744E+04  0.32034422860E+04 0.  0.
        2    1    3    3  502    0  0.18786314486E+03  0.13486121705E+04  0.13697920702E+03  0.13685067230E+04  0.25500000920E-02 0.  1.
       -2    1    3    3    0  502 -0.18786314486E+03 -0.13486121705E+04 -0.17523254271E+04  0.22191646514E+04  0.25500000920E-02 0. -1.
</event>
<event>
 5   0  0.2783875E-07  0.3155261E+04  0.7818609E-02  0.8200734E-01
        1   -1    0    0  501    0  0.00000000000E+00  0.00000000000E+00  0.11000009814E+04  0.11000009814E+04  0.50400001928E-02 0.  1.
       -1   -1    0    0    0  501  0.00000000000E+00  0.00000000000E+00 -0.22626501691E+04  0.22626501691E+04  0.50400001928E-02 0. -1.
    10030    2    1    2    0    0  0.00000000000E+00  0.00000000000E+00 -0.11626491877E+04  0.33626511505E+04  0.31552606273E+04 0.  0.
        2    1    3    3  502    0  0.77806718217E+03 -0.90971743877E+03  0.51380830149E+03  0.13026792886E+04  0.25500000920E-02 0.  1.
       -2    1    3    3    0  502 -0.77806718217E+03  0.90971743877E+03 -0.16764574892E+04  0.20599718618E+04  0.25500000920E-02 0. -1.
</event>
<event>
 5   0  0.2997105E-07  0.3196032E+04  0.7818609E-02  0.8189866E-01
       -1   -1    0    0    0  501  0.00000000000E+00  0.00000000000E+00  0.11301709290E+04  0.11301709290E+04  0.50400001928E-02 0. -1.
        1   -1    0    0  501    0  0.00000000000E+00  0.00000000000E+00 -0.22595306384E+04  0.22595306384E+04  0.50400001928E-02 0.  1.
    10030    2    1    2    0    0  0.00000000000E+00  0.00000000000E+00 -0.11293597094E+04  0.33897015673E+04  0.31960324408E+04 0.  0.
        3    1    3    3  502    0  0.24848598583E+03 -0.10146844241E+04 -0.18472242164E+04  0.21221609462E+04  0.10100000352E+00 0.  1.
       -3    1    3    3    0  502 -0.24848598583E+03  0.10146844241E+04  0.71786450700E+03  0.12675406212E+04  0.10100000352E+00 0. -1.
</event>
<event>
 5   0  0.8195618E-07  0.3196815E+04  0.7818609E-02  0.8189659E-01
       -2   -1    0    0    0  501  0.00000000000E+00  0.00000000000E+00  0.10195527720E+04  0.10195527720E+04  0.25500000920E-02 0.  1.
        2   -1    0    0  501    0  0.00000000000E+00  0.00000000000E+00 -0.25059085351E+04  0.25059085351E+04  0.25500000920E-02 0. -1.
    10030    2    1    2    0    0  0.00000000000E+00  0.00000000000E+00 -0.14863557631E+04  0.35254613070E+04  0.31968146604E+04 0.  0.
        1    1    3    3  502    0 -0.18402373436E+03  0.13078937193E+03 -0.24882366379E+04  0.24984579566E+04  0.50400001928E-02 0. -1.
       -1    1    3    3    0  502  0.18402373436E+03 -0.13078937193E+03  0.10018808748E+04  0.10270033505E+04  0.50400001928E-02 0.  1.
</event>
<event>
 5   0  0.2997105E-07  0.3168492E+04  0.7818609E-02  0.8197188E-01
       -1   -1    0    0    0  501  0.00000000000E+00  0.00000000000E+00  0.12368304095E+04  0.12368304096E+04  0.50400001928E-02 0. -1.
        1   -1    0    0  501    0  0.00000000000E+00  0.00000000000E+00 -0.20292483757E+04  0.20292483757E+04  0.50400001928E-02 0.  1.
    10030    2    1    2    0    0  0.00000000000E+00  0.00000000000E+00 -0.79241796611E+03  0.32660787852E+04  0.31684924488E+04 0.  0.
        3    1    3    3  502    0  0.10557272465E+04  0.15822608516E+03 -0.16028341860E+04  0.19257915128E+04  0.10100000352E+00 0.  1.
       -3    1    3    3    0  502 -0.10557272465E+04 -0.15822608516E+03  0.81041621985E+03  0.13402872724E+04  0.10100000352E+00 0. -1.
</event>
<event>
 5   0  0.8488469E-07  0.3190367E+04  0.7818609E-02  0.8191366E-01
        2   -1    0    0  501    0  0.00000000000E+00  0.00000000000E+00  0.21375738495E+04  0.21375738495E+04  0.25500000920E-02 0.  1.
       -2   -1    0    0    0  501  0.00000000000E+00  0.00000000000E+00 -0.11904200266E+04  0.11904200266E+04  0.25500000920E-02 0. -1.
    10030    2    1    2    0    0  0.00000000000E+00  0.00000000000E+00  0.94715382287E+03  0.33279938761E+04  0.31903672006E+04 0.  0.
        3    1    3    3  502    0 -0.10962650622E+04  0.21275639928E+03 -0.71466158716E+03  0.13258218457E+04  0.10100000352E+00 0. -1.
       -3    1    3    3    0  502  0.10962650622E+04 -0.21275639928E+03  0.16618154100E+04  0.20021720304E+04  0.10100000352E+00 0.  1.
</event>
<event>
 5   0  0.3013888E-07  0.3207011E+04  0.7818609E-02  0.8186968E-01
        1   -1    0    0  501    0  0.00000000000E+00  0.00000000000E+00  0.17489366910E+04  0.17489366910E+04  0.50400001928E-02 0. -1.
       -1   -1    0    0    0  501  0.00000000000E+00  0.00000000000E+00 -0.14701673206E+04  0.14701673206E+04  0.50400001928E-02 0.  1.
    10030    2    1    2    0    0  0.00000000000E+00  0.00000000000E+00  0.27876937034E+03  0.32191040116E+04  0.32070108007E+04 0.  0.
        1    1    3    3  502    0 -0.34795773620E+02  0.11829822767E+04  0.12253941426E+04  0.17035987255E+04  0.50400001928E-02 0. -1.
       -1    1    3    3    0  502  0.34795773620E+02 -0.11829822767E+04 -0.94662477221E+03  0.15155052861E+04  0.50400001928E-02 0.  1.
</event>
<event>
 5   0  0.8335929E-07  0.3196911E+04  0.7818609E-02  0.8189634E-01
        2   -1    0    0  501    0  0.00000000000E+00  0.00000000000E+00  0.27193170468E+04  0.27193170468E+04  0.25500000920E-02 0. -1.
       -2   -1    0    0    0  501  0.00000000000E+00  0.00000000000E+00 -0.93959596645E+03  0.93959596645E+03  0.25500000920E-02 0.  1.
    10030    2    1    2    0    0  0.00000000000E+00  0.00000000000E+00  0.17797210804E+04  0.36589130133E+04  0.31969105891E+04 0.  0.
        4    1    3    3  502    0 -0.70506303783E+03 -0.31042813792E+03 -0.71310581765E+03  0.10497623713E+04  0.12699999809E+01 0.  1.
       -4    1    3    3    0  502  0.70506303783E+03  0.31042813792E+03  0.24928268980E+04  0.26091506420E+04  0.12699999809E+01 0. -1.
</event>
<event>
 5   0  0.8335929E-07  0.3190891E+04  0.7818609E-02  0.8191227E-01
       -2   -1    0    0    0  501  0.00000000000E+00  0.00000000000E+00  0.14504516839E+04  0.14504516839E+04  0.25500000920E-02 0.  1.
        2   -1    0    0  501    0  0.00000000000E+00  0.00000000000E+00 -0.17549336736E+04  0.17549336736E+04  0.25500000920E-02 0. -1.
    10030    2    1    2    0    0  0.00000000000E+00  0.00000000000E+00 -0.30448198965E+03  0.32053853575E+04  0.31908910994E+04 0.  0.
        4    1    3    3  502    0 -0.45639571868E+03 -0.12254649440E+04 -0.10703858707E+04  0.16899079579E+04  0.12699999809E+01 0. -1.
       -4    1    3    3    0  502  0.45639571868E+03  0.12254649440E+04  0.76590388104E+03  0.15154773997E+04  0.12699999809E+01 0.  1.
</event>
<event>
 5   0  0.3075756E-07  0.3200050E+04  0.7818609E-02  0.8188804E-01
       -1   -1    0    0    0  501  0.00000000000E+00  0.00000000000E+00  0.85107800306E+03  0.85107800308E+03  0.50400001928E-02 0. -1.
        1   -1    0    0  501    0  0.00000000000E+00  0.00000000000E+00 -0.30080437688E+04  0.30080437688E+04  0.50400001928E-02 0.  1.
    10030    2    1    2    0    0  0.00000000000E+00  0.00000000000E+00 -0.21569657657E+04  0.38591217719E+04  0.32000499270E+04 0.  0.
        5    1    3    3  502    0  0.14177590708E+04 -0.18040671528E+03 -0.21097286911E+03  0.14446864736E+04  0.46999998093E+01 0. -1.
       -5    1    3    3    0  502 -0.14177590708E+04  0.18040671528E+03 -0.19459928966E+04  0.24144352982E+04  0.46999998093E+01 0.  1.
</event>
<event>
 5   0  0.2997105E-07  0.3197510E+04  0.7818609E-02  0.8189475E-01
        1   -1    0    0  501    0  0.00000000000E+00  0.00000000000E+00  0.19814319758E+04  0.19814319758E+04  0.50400001928E-02 0. -1.
       -1   -1    0    0    0  501  0.00000000000E+00  0.00000000000E+00 -0.12899853649E+04  0.12899853649E+04  0.50400001928E-02 0.  1.
    10030    2    1    2    0    0  0.00000000000E+00  0.00000000000E+00  0.69144661086E+03  0.32714173407E+04  0.31975104381E+04 0.  0.
        3    1    3    3  502    0  0.31526037459E+03  0.14426555922E+04  0.97256238219E+03  0.17681973473E+04  0.10100000352E+00 0.  1.
       -3    1    3    3    0  502 -0.31526037459E+03 -0.14426555922E+04 -0.28111577133E+03  0.15032199934E+04  0.10100000352E+00 0. -1.
</event>
<event>
 5   0  0.2783875E-07  0.3186531E+04  0.7818609E-02  0.8192383E-01
        1   -1    0    0  501    0  0.00000000000E+00  0.00000000000E+00  0.88101390231E+03  0.88101390232E+03  0.50400001928E-02 0. -1.
       -1   -1    0    0    0  501  0.00000000000E+00  0.00000000000E+00 -0.28813337694E+04  0.28813337694E+04  0.50400001928E-02 0.  1.
    10030    2    1    2    0    0  0.00000000000E+00  0.00000000000E+00 -0.20003198671E+04  0.37623476717E+04  0.31865310970E+04 0.  0.
        2    1    3    3  502    0  0.14719088266E+04  0.57553681187E+03 -0.76185407918E+03  0.17544742385E+04  0.25500000920E-02 0. -1.
       -2    1    3    3    0  502 -0.14719088266E+04 -0.57553681187E+03 -0.12384657879E+04  0.20078734331E+04  0.25500000920E-02 0.  1.
</event>
<event>
 5   0  0.8335929E-07  0.3205381E+04  0.7818609E-02  0.8187398E-01
        2   -1    0    0  501    0  0.00000000000E+00  0.00000000000E+00  0.10418171137E+04  0.10418171137E+04  0.25500000920E-02 0.  1.
       -2   -1    0    0    0  501  0.00000000000E+00  0.00000000000E+00 -0.24655160919E+04  0.24655160919E+04  0.25500000920E-02 0. -1.
    10030    2    1    2    0    0  0.00000000000E+00  0.00000000000E+00 -0.14236989782E+04  0.35073332056E+04  0.32053810124E+04 0.  0.
        4    1    3    3  502    0  0.15988879563E+04 -0.86389920302E+02 -0.63676038020E+03  0.17231863828E+04  0.12699999809E+01 0. -1.
       -4    1    3    3    0  502 -0.15988879563E+04  0.86389920302E+02 -0.78693859796E+03  0.17841468227E+04  0.12699999809E+01 0.  1.
</event>
<event>
 5   0  0.2997105E-07  0.3190394E+04  0.7818609E-02  0.8191359E-01
       -1   -1    0    0    0  501  0.00000000000E+00  0.00000000000E+00  0.13365345964E+04  0.13365345964E+04  0.50400001928E-02 0.  1.
        1   -1    0    0  501    0  0.00000000000E+00  0.00000000000E+00 -0.19039185230E+04  0.19039185230E+04  0.50400001928E-02 0. -1.
    10030    2    1    2    0    0  0.00000000000E+00  0.00000000000E+00 -0.56738392664E+03  0.32404531194E+04  0.31903936903E+04 0.  0.
        3    1    3    3  502    0 -0.92730102662E+03 -0.67051334942E+03  0.84513187425E+03  0.14225762689E+04  0.10100000352E+00 0.  1.
       -3    1    3    3    0  502  0.92730102662E+03  0.67051334942E+03 -0.14125158009E+04  0.18178768505E+04  0.10100000352E+00 0. -1.
</event>
<event>
 5   0  0.8838951E-07  0.3145855E+04  0.7818609E-02  0.8203265E-01
       -2   -1    0    0    0  501  0.00000000000E+00  0.00000000000E+00  0.10768930670E+04  0.10768930670E+04  0.25500000920E-02 0.  1.
        2   -1    0    0  501    0  0.00000000000E+00  0.00000000000E+00 -0.22974435975E+04  0.22974435975E+04  0.25500000920E-02 0. -1.
    10030    2    1    2    0    0  0.00000000000E+00  0.00000000000E+00 -0.12205505305E+04  0.33743366645E+04  0.31458551028E+04 0.  0.
        2    1    3    3  502    0 -0.10425744902E+04  0.15850211339E+03  0.64154187879E+03  0.12343664245E+04  0.25500000920E-02 0.  1.
       -2    1    3    3    0  502  0.10425744902E+04 -0.15850211339E+03 -0.18620924093E+04  0.21399702401E+04  0.25500000920E-02 0. -1.
</event>
<event>
 5   0  0.8335929E-07  0.3208857E+04  0.7818609E-02  0.8186482E-01
       -2   -1    0    0    0  501  0.00000000000E+00  0.00000000000E+00  0.11901048131E+04  0.11901048131E+04  0.25500000920E-02 0.  1.
        2   -1    0    0  501    0  0.00000000000E+00  0.00000000000E+00 -0.21629955192E+04  0.21629955192E+04  0.25500000920E-02 0. -1.
    10030    2    1    2    0    0  0.00000000000E+00  0.00000000000E+00 -0.97289070619E+03  0.33531003323E+04  0.32088573531E+04 0.  0.
        4    1    3    3  502    0 -0.90519756310E+03  0.84199368480E+03  0.58219512600E+03  0.13664877501E+04  0.12699999809E+01 0.  1.
       -4    1    3    3    0  502  0.90519756310E+03 -0.84199368480E+03 -0.15550858322E+04  0.19866125822E+04  0.12699999809E+01 0. -1.
</event>
<event>
 5   0  0.3075756E-07  0.3194423E+04  0.7818609E-02  0.8190292E-01
        1   -1    0    0  501    0  0.00000000000E+00  0.00000000000E+00  0.20451048971E+04  0.20451048971E+04  0.50400001928E-02 0. -1.
       -1   -1    0    0    0  501  0.00000000000E+00  0.00000000000E+00 -0.12474097908E+04  0.12474097908E+04  0.50400001928E-02 0.  1.
    10030    2    1    2    0    0  0.00000000000E+00  0.00000000000E+00  0.79769510634E+03  0.32925146879E+04  0.31944225593E+04 0.  0.
        5    1    3    3  502    0  0.14898427423E+03 -0.11796355967E+04  0.14980500647E+04  0.19125670031E+04  0.46999998093E+01 0. -1.
       -5    1    3    3    0  502 -0.14898427423E+03  0.11796355967E+04 -0.70035495835E+03  0.13799476848E+04  0.46999998093E+01 0.  1.
</event>
<event>
 5   0  0.2783875E-07  0.3202646E+04  0.7818609E-02  0.8188119E-01
       -1   -1    0    0    0  501  0.00000000000E+00  0.00000000000E+00  0.18770882785E+04  0.18770882785E+04  0.50400001928E-02 0.  1.
        1   -1    0    0  501    0  0.00000000000E+00  0.00000000000E+00 -0.13660704806E+04  0.13660704806E+04  0.50400001928E-02 0. -1.
    10030    2    1    2    0    0  0.00000000000E+00  0.00000000000E+00  0.51101779792E+03  0.32431587592E+04  0.32026457106E+04 0.  0.
        2    1    3    3  502    0 -0.11662908565E+04 -0.10955847187E+04  0.19395636927E+03  0.16118806752E+04  0.25500000920E-02 0.  1.
       -2    1    3    3    0  502  0.11662908565E+04  0.10955847187E+04  0.31706142865E+03  0.16312780840E+04  0.25500000920E-02 0. -1.
</event>
<event>
 5   0  0.8838951E-07  0.3195452E+04  0.7818609E-02  0.8190019E-01
        2   -1    0    0  501    0  0.00000000000E+00  0.00000000000E+00  0.79032000364E+03  0.79032000364E+03  0.25500000920E-02 0. -1.
       -2   -1    0    0    0  501  0.00000000000E+00  0.00000000000E+00 -0.32299929636E+04  0.32299929636E+04  0.25500000920E-02 0.  1.
    10030    2    1    2    0    0  0.00000000000E+00  0.00000000000E+00 -0.24396729599E+04  0.40203129672E+04  0.31954517995E+04 0.  0.
        2    1    3    3  502    0  0.11991020441E+03  0.11134803239E+04 -0.26535105658E+04  0.28801623586E+04  0.25500000920E-02 0.  1.
       -2    1    3    3    0  502 -0.11991020441E+03 -0.11134803239E+04  0.21383760586E+03  0.11401506087E+04  0.25500000920E-02 0. -1.
</event>
<event>
 5   0  0.8488469E-07  0.3185567E+04  0.7818609E-02  0.8192639E-01
        2   -1    0    0  501    0  0.00000000000E+00  0.00000000000E+00  0.17938716774E+04  0.17938716774E+04  0.25500000920E-02 0.  1.
       -2   -1    0    0    0  501  0.00000000000E+00  0.00000000000E+00 -0.14142371045E+04  0.14142371045E+04  0.25500000920E-02 0. -1.
    10030    2    1    2    0    0  0.00000000000E+00  0.00000000000E+00  0.37963457295E+03  0.32081087819E+04  0.31855673824E+04 0.  0.
        3    1    3    3  502    0 -0.12432416731E+04  0.77908499186E+03 -0.43451839920E+03  0.15301730398E+04  0.10100000352E+00 0. -1.
       -3    1    3    3    0  502  0.12432416731E+04 -0.77908499186E+03  0.81415297215E+03  0.16779357421E+04  0.10100000352E+00 0.  1.
</event>
<event>
 5   0  0.8802800E-07  0.3198820E+04  0.7818609E-02  0.8189129E-01
        2   -1    0    0  501    0  0.00000000000E+00  0.00000000000E+00  0.24051695594E+04  0.24051695594E+04  0.25500000920E-02 0. -1.
       -2   -1    0    0    0  501  0.00000000000E+00  0.00000000000E+00 -0.10635890785E+04  0.10635890785E+04  0.25500000920E-02 0.  1.
    10030    2    1    2    0    0  0.00000000000E+00  0.00000000000E+00  0.13415804810E+04  0.34687586379E+04  0.31988198294E+04 0.  0.
        5    1    3    3  502    0  0.40938129955E+02 -0.17646106164E+03  0.23940021569E+04  0.24008504439E+04  0.46999998093E+01 0. -1.
       -5    1    3    3    0  502 -0.40938129955E+02  0.17646106164E+03 -0.10524216760E+04  0.10679081940E+04  0.46999998093E+01 0.  1.
</event>
<event>
 5   0  0.2783875E-07  0.3205892E+04  0.7818609E-02  0.8187263E-01
       -1   -1    0    0    0  501  0.00000000000E+00  0.00000000000E+00  0.11433974040E+04  0.11433974040E+04  0.50400001928E-02 0. -1.
        1   -1    0    0  501    0  0.00000000000E+00  0.00000000000E+00 -0.22471941974E+04  0.22471941974E+04  0.50400001928E-02 0.  1.
    10030    2    1    2    0    0  0.00000000000E+00  0.00000000000E+00 -0.11037967934E+04  0.33905916014E+04  0.32058920828E+04 0.  0.
        2    1    3    3  502    0  0.67161908617E+03  0.21994184384E+03 -0.20735339382E+04  0.21906596277E+04  0.25500000920E-02 0.  1.
       -2    1    3    3    0  502 -0.67161908617E+03 -0.21994184384E+03  0.96973714479E+03  0.11999319737E+04  0.25500000920E-02 0. -1.
</event>
<event>
 5   0  0.8838951E-07  0.3190552E+04  0.7818609E-02  0.8191317E-01
       -2   -1    0    0    0  501  0.00000000000E+00  0.00000000000E+00  0.14296835463E+04  0.14296835463E+04  0.25500000920E-02 0.  1.
        2   -1    0    0  501    0  0.00000000000E+00  0.00000000000E+00 -0.17800480598E+04  0.17800480598E+04  0.25500000920E-02 0. -1.
    10030    2    1    2    0    0  0.00000000000E+00  0.00000000000E+00 -0.35036451349E+03  0.32097316061E+04  0.31905519414E+04 0.  0.
        2    1    3    3  502    0 -0.73474337056E+03  0.14068105516E+04 -0.13149844415E+02  0.15871788390E+04  0.25500000920E-02 0.  1.
       -2    1    3    3    0  502  0.73474337056E+03 -0.14068105516E+04 -0.33721466908E+03  0.16225527670E+04  0.25500000920E-02 0. -1.
</event>
<event>
 5   0  0.2783875E-07  0.3191364E+04  0.7818609E-02  0.8191102E-01
       -1   -1    0    0    0  501  0.00000000000E+00  0.00000000000E+00  0.15471145945E+04  0.15471145945E+04  0.50400001928E-02 0. -1.
        1   -1    0    0  501    0  0.00000000000E+00  0.00000000000E+00 -0.16457742369E+04  0.16457742369E+04  0.50400001928E-02 0.  1.
    10030    2    1    2    0    0  0.00000000000E+00  0.00000000000E+00 -0.98659642421E+02  0.31928888314E+04  0.31913641855E+04 0.  0.
        2    1    3    3  502    0  0.95151767616E+03 -0.29919419395E+03  0.11967764662E+04  0.15579399744E+04  0.25500000920E-02 0. -1.
       -2    1    3    3    0  502 -0.95151767616E+03  0.29919419395E+03 -0.12954361086E+04  0.16349488571E+04  0.25500000920E-02 0.  1.
</event>
<event>
 5   0  0.8802800E-07  0.3196582E+04  0.7818609E-02  0.8189721E-01
       -2   -1    0    0    0  501  0.00000000000E+00  0.00000000000E+00  0.93890302902E+03  0.93890302902E+03  0.25500000920E-02 0. -1.
        2   -1    0    0  501    0  0.00000000000E+00  0.00000000000E+00 -0.27207641594E+04  0.27207641594E+04  0.25500000920E-02 0.  1.
    10030    2    1    2    0    0  0.00000000000E+00  0.00000000000E+00 -0.17818611304E+04  0.36596671884E+04  0.31965817434E+04 0.  0.
        5    1    3    3  502    0  0.11521977194E+04  0.47184727360E+03 -0.20382653053E+04  0.23884612157E+04  0.46999998093E+01 0.  1.
       -5    1    3    3    0  502 -0.11521977194E+04 -0.47184727360E+03  0.25640417491E+03  0.12712059727E+04  0.46999998093E+01 0. -1.
</event>
<event>
 5   0  0.3013888E-07  0.3171176E+04  0.7818609E-02  0.8196471E-01
        1   -1    0    0  501    0  0.00000000000E+00  0.00000000000E+00  0.19013433754E+04  0.19013433754E+04  0.50400001928E-02 0.  1.
       -1   -1    0    0    0  501  0.00000000000E+00  0.00000000000E+00 -0.13222696317E+04  0.13222696317E+04  0.50400001928E-02 0. -1.
    10030    2    1    2    0    0  0.00000000000E+00  0.00000000000E+00  0.57907374371E+03  0.32236130071E+04  0.31711755578E+04 0.  0.
        1    1    3    3  502    0 -0.13690148725E+04  0.20334919233E+03 -0.49690702900E+03  0.14705336482E+04  0.50400001928E-02 0. -1.
       -1    1    3    3    0  502  0.13690148725E+04 -0.20334919233E+03  0.10759807727E+04  0.17530793588E+04  0.50400001928E-02 0.  1.
</event>
<event>
 5   0  0.2783875E-07  0.3177992E+04  0.7818609E-02  0.8194654E-01
        1   -1    0    0  501    0  0.00000000000E+00  0.00000000000E+00  0.16894888916E+04  0.16894888916E+04  0.50400001928E-02 0. -1.
       -1   -1    0    0    0  501  0.00000000000E+00  0.00000000000E+00 -0.14944804891E+04  0.14944804891E+04  0.50400001928E-02 0.  1.
    10030    2    1    2    0    0  0.00000000000E+00  0.00000000000E+00  0.19500840249E+03  0.31839693807E+04  0.31779919352E+04 0.  0.
        2    1    3    3  502    0  0.58634832533E+03  0.78945050944E+03 -0.11529907384E+04  0.15153956936E+04  0.25500000920E-02 0.  1.
       -2    1    3    3    0  502 -0.58634832533E+03 -0.78945050944E+03  0.13479991409E+04  0.16685736871E+04  0.25500000920E-02 0. -1.
</event>
<event>
 5   0  0.3013888E-07  0.3193738E+04  0.7818609E-02  0.8190473E-01
        1   -1    0    0  501    0  0.00000000000E+00  0.00000000000E+00  0.21778718059E+04  0.21778718060E+04  0.50400001928E-02 0.  1.
       -1   -1    0    0    0  501  0.00000000000E+00  0.00000000000E+00 -0.11708631688E+04  0.11708631689E+04  0.50400001928E-02 0. -1.
    10030    2    1    2    0    0  0.00000000000E+00  0.00000000000E+00  0.10070086371E+04  0.33487349748E+04  0.31937375497E+04 0.  0.
        1    1    3    3  502    0  0.80607952056E+03  0.29013868464E+03 -0.90950453962E+03  0.12494571451E+04  0.50400001928E-02 0. -1.
       -1    1    3    3    0  502 -0.80607952056E+03 -0.29013868464E+03  0.19165131767E+04  0.20992778297E+04  0.50400001928E-02 0.  1.
</event>
<event>
 5   0  0.8802800E-07  0.3182024E+04  0.7818609E-02  0.8193581E-01
        2   -1    0    0  501    0  0.00000000000E+00  0.00000000000E+00  0.26034980434E+04  0.26034980434E+04  0.25500000920E-02 0. -1.
       -2   -1    0    0    0  501  0.00000000000E+00  0.00000000000E+00 -0.97227639747E+03  0.97227639747E+03  0.25500000920E-02 0.  1.
    10030    2    1    2    0    0  0.00000000000E+00  0.00000000000E+00  0.16312216459E+04  0.35757744409E+04  0.31820243233E+04 0.  0.
        5    1    3    3  502    0  0.15560858967E+04 -0.27160607069E+03  0.60202759752E+03  0.16904533397E+04  0.46999998093E+01 0. -1.
       -5    1    3    3    0  502 -0.15560858967E+04  0.27160607069E+03  0.10291940484E+04  0.18853211012E+04  0.46999998093E+01 0.  1.
</event>
<event>
 5   0  0.3075756E-07  0.3193114E+04  0.7818609E-02  0.8190638E-01
        1   -1    0    0  501    0  0.00000000000E+00  0.00000000000E+00  0.22259541627E+04  0.22259541627E+04  0.50400001928E-02 0.  1.
       -1   -1    0    0    0  501  0.00000000000E+00  0.00000000000E+00 -0.11451240041E+04  0.11451240041E+04  0.50400001928E-02 0. -1.
    10030    2    1    2    0    0  0.00000000000E+00  0.00000000000E+00  0.10808301586E+04  0.33710781668E+04  0.31931135550E+04 0.  0.
        5    1    3    3  502    0 -0.14763478926E+03  0.79677199271E+03 -0.91187334378E+03  0.12199084902E+04  0.46999998093E+01 0. -1.
       -5    1    3    3    0  502  0.14763478926E+03 -0.79677199271E+03  0.19927035024E+04  0.21511696766E+04  0.46999998093E+01 0.  1.
</event>
<event>
 5   0  0.2997105E-07  0.3191644E+04  0.7818609E-02  0.8191028E-01
        1   -1    0    0  501    0  0.00000000000E+00  0.00000000000E+00  0.18690525272E+04  0.18690525272E+04  0.50400001928E-02 0. -1.
       -1   -1    0    0    0  501  0.00000000000E+00  0.00000000000E+00 -0.13625337859E+04  0.13625337859E+04  0.50400001928E-02 0.  1.
    10030    2    1    2    0    0  0.00000000000E+00  0.00000000000E+00  0.50651874128E+03  0.32315863131E+04  0.31916435991E+04 0.  0.
        3    1    3    3  502    0 -0.13983287536E+04  0.76168142256E+03  0.14627093796E+03  0.15990237928E+04  0.10100000352E+00 0.  1.
       -3    1    3    3    0  502  0.13983287536E+04 -0.76168142256E+03  0.36024780332E+03  0.16325625203E+04  0.10100000352E+00 0. -1.
</event>
<event>
 5   0  0.8195618E-07  0.3198158E+04  0.7818609E-02  0.8189304E-01
       -2   -1    0    0    0  501  0.00000000000E+00  0.00000000000E+00  0.21012826230E+04  0.21012826230E+04  0.25500000920E-02 0. -1.
        2   -1    0    0  501    0  0.00000000000E+00  0.00000000000E+00 -0.12169010743E+04  0.12169010743E+04  0.25500000920E-02 0.  1.
    10030    2    1    2    0    0  0.00000000000E+00  0.00000000000E+00  0.88438154870E+03  0.33181836973E+04  0.31981576455E+04 0.  0.
        1    1    3    3  502    0 -0.13947713020E+04 -0.25685032301E+03  0.12086254590E+04  0.18633664625E+04  0.50400001928E-02 0. -1.
       -1    1    3    3    0  502  0.13947713020E+04  0.25685032301E+03 -0.32424391027E+03  0.14548172348E+04  0.50400001928E-02 0.  1.
</event>
<event>
 5   0  0.3013888E-07  0.3213494E+04  0.7818609E-02  0.8185262E-01
        1   -1    0    0  501    0  0.00000000000E+00  0.00000000000E+00  0.13698382022E+04  0.13698382022E+04  0.50400001928E-02 0.  1.
       -1   -1    0    0    0  501  0.00000000000E+00  0.00000000000E+00 -0.18846286129E+04  0.18846286130E+04  0.50400001928E-02 0. -1.
    10030    2    1    2    0    0  0.00000000000E+00  0.00000000000E+00 -0.51479041073E+03  0.32544668152E+04  0.32134942172E+04 0.  0.
        1    1    3    3  502    0 -0.49419780697E+03 -0.40049841902E+03 -0.17516756720E+04  0.18635981637E+04  0.50400001928E-02 0. -1.
       -1    1    3    3    0  502  0.49419780697E+03  0.40049841902E+03  0.12368852612E+04  0.13908686514E+04  0.50400001928E-02 0.  1.
</event>
<event>
 5   0  0.8488469E-07  0.3195024E+04  0.7818609E-02  0.8190133E-01
        2   -1    0    0  501    0  0.00000000000E+00  0.00000000000E+00  0.11616423217E+04  0.11616423217E+04  0.25500000920E-02 0. -1.
       -2   -1    0    0    0  501  0.00000000000E+00  0.00000000000E+00 -0.21969275314E+04  0.21969275314E+04  0.25500000920E-02 0.  1.
    10030    2    1    2    0    0  0.00000000000E+00  0.00000000000E+00 -0.10352852097E+04  0.33585698531E+04  0.31950236294E+04 0.  0.
        3    1    3    3  502    0 -0.47441506515E+03  0.10010107269E+04 -0.17276286464E+04  0.20522653044E+04  0.10100000352E+00 0.  1.
       -3    1    3    3    0  502  0.47441506515E+03 -0.10010107269E+04  0.69234343671E+03  0.13063045487E+04  0.10100000352E+00 0. -1.
</event>
<event>
 5   0  0.3013888E-07  0.3218920E+04  0.7818609E-02  0.8183838E-01
        1   -1    0    0  501    0  0.00000000000E+00  0.00000000000E+00  0.25411868848E+04  0.25411868849E+04  0.50400001928E-02 0. -1.
       -1   -1    0    0    0  501  0.00000000000E+00  0.00000000000E+00 -0.10193508752E+04  0.10193508752E+04  0.50400001928E-02 0.  1.
    10030    2    1    2    0    0  0.00000000000E+00  0.00000000000E+00  0.15218360096E+04  0.35605377601E+04  0.32189197413E+04 0.  0.
        1    1    3    3  502    0  0.10833289927E+04 -0.24004814215E+03 -0.52862831619E+03  0.12290942655E+04  0.50400001928E-02 0.  1.
       -1    1    3    3    0  502 -0.10833289927E+04  0.24004814215E+03  0.20504643258E+04  0.23314434946E+04  0.50400001928E-02 0. -1.
</event>
<event>
 5   0  0.2891204E-07  0.3200880E+04  0.7818609E-02  0.8188585E-01
       -1   -1    0    0    0  501  0.00000000000E+00  0.00000000000E+00  0.14352036048E+04  0.14352036048E+04  0.50400001928E-02 0.  1.
        1   -1    0    0  501    0  0.00000000000E+00  0.00000000000E+00 -0.17847006233E+04  0.17847006233E+04  0.50400001928E-02 0. -1.
    10030    2    1    2    0    0  0.00000000000E+00  0.00000000000E+00 -0.34949701849E+03  0.32199042282E+04  0.32008803590E+04 0.  0.
        4    1    3    3  502    0 -0.14374264142E+04 -0.10136205706E+03  0.52576531048E+03  0.15339164701E+04  0.12699999809E+01 0.  1.
       -4    1    3    3    0  502  0.14374264142E+04  0.10136205706E+03 -0.87526232897E+03  0.16859877580E+04  0.12699999809E+01 0. -1.
</event>
<event>
 5   0  0.8195618E-07  0.3174099E+04  0.7818609E-02  0.8195691E-01
       -2   -1    0    0    0  501  0.00000000000E+00  0.00000000000E+00  0.18555224168E+04  0.18555224168E+04  0.25500000920E-02 0. -1.
        2   -1    0    0  501    0  0.00000000000E+00  0.00000000000E+00 -0.13574217357E+04  0.13574217357E+04  0.25500000920E-02 0.  1.
    10030    2    1    2    0    0  0.00000000000E+00  0.00000000000E+00  0.49810068117E+03  0.32129441525E+04  0.31740992168E+04 0.  0.
        1    1    3    3  502    0 -0.15542256457E+04  0.23190708030E+03  0.24232719505E+02  0.15716187439E+04  0.50400001928E-02 0. -1.
       -1    1    3    3    0  502  0.15542256457E+04 -0.23190708030E+03  0.47386796166E+03  0.16413254085E+04  0.50400001928E-02 0.  1.
</event>
<event>
 5   0  0.3013888E-07  0.3215044E+04  0.7818609E-02  0.8184855E-01
       -1   -1    0    0    0  501  0.00000000000E+00  0.00000000000E+00  0.13251967795E+04  0.13251967795E+04  0.50400001928E-02 0.  1.
        1   -1    0    0  501    0  0.00000000000E+00  0.00000000000E+00 -0.19499945298E+04  0.19499945298E+04  0.50400001928E-02 0. -1.
    10030    2    1    2    0    0  0.00000000000E+00  0.00000000000E+00 -0.62479775026E+03  0.32751913093E+04  0.32150436830E+04 0.  0.
        1    1    3    3  502    0  0.12848732866E+04 -0.69756386943E+02 -0.12939394900E+04  0.18248410122E+04  0.50400001928E-02 0. -1.
       -1    1    3    3    0  502 -0.12848732866E+04  0.69756386943E+02  0.66914173972E+03  0.14503502970E+04  0.50400001928E-02 0.  1.
</event>
<event>
 5   0  0.3013888E-07  0.3203621E+04  0.7818609E-02  0.8187862E-01
        1   -1    0    0  501    0  0.00000000000E+00  0.00000000000E+00  0.19606521301E+04  0.19606521301E+04  0.50400001928E-02 0.  1.
       -1   -1    0    0    0  501  0.00000000000E+00  0.00000000000E+00 -0.13086444200E+04  0.13086444200E+04  0.50400001928E-02 0. -1.
    10030    2    1    2    0    0  0.00000000000E+00  0.00000000000E+00  0.65200771018E+03  0.32692965501E+04  0.32036207451E+04 0.  0.
        1    1    3    3  502    0 -0.82403045926E+03  0.49550793259E+03 -0.98136926416E+03  0.13739140955E+04  0.50400001928E-02 0. -1.
       -1    1    3    3    0  502  0.82403045926E+03 -0.49550793259E+03  0.16333769743E+04  0.18953824546E+04  0.50400001928E-02 0.  1.
</event>
<event>
 5   0  0.8488469E-07  0.3231769E+04  0.7818609E-02  0.8180477E-01
       -2   -1    0    0    0  501  0.00000000000E+00  0.00000000000E+00  0.16957273108E+04  0.16957273108E+04  0.25500000920E-02 0. -1.
        2   -1    0    0  501    0  0.00000000000E+00  0.00000000000E+00 -0.15398006853E+04  0.15398006853E+04  0.25500000920E-02 0.  1.
    10030    2    1    2    0    0  0.00000000000E+00  0.00000000000E+00  0.15592662546E+03  0.32355279961E+04  0.32317686027E+04 0.  0.
        3    1    3    3  502    0  0.84855446472E+03  0.80844233379E+03 -0.10357417782E+04  0.15640923016E+04  0.10100000352E+00 0.  1.
       -3    1    3    3    0  502 -0.84855446472E+03 -0.80844233379E+03  0.11916684036E+04  0.16714356946E+04  0.10100000352E+00 0. -1.
</event>
<event>
 5   0  0.8802800E-07  0.3209936E+04  0.7818609E-02  0.8186198E-01
        2   -1    0    0  501    0  0.00000000000E+00  0.00000000000E+00  0.17712501190E+04  0.17712501190E+04  0.25500000920E-02 0.  1.
       -2   -1    0    0    0  501  0.00000000000E+00  0.00000000000E+00 -0.14542965371E+04  0.14542965371E+04  0.25500000920E-02 0. -1.
    10030    2    1    2    0    0  0.00000000000E+00  0.00000000000E+00  0.31695358191E+03  0.32255466561E+04  0.32099363947E+04 0.  0.
        5    1    3    3  502    0 -0.42749431811E+03  0.12705632791E+04  0.10452753916E+04  0.16999132838E+04  0.46999998093E+01 0.  1.
       -5    1    3    3    0  502  0.42749431811E+03 -0.12705632791E+04 -0.72832180966E+03  0.15256333723E+04  0.46999998093E+01 0. -1.
</event>
<event>
 5   0  0.8838951E-07  0.3189828E+04  0.7818609E-02  0.8191509E-01
        2   -1    0    0  501    0  0.00000000000E+00  0.00000000000E+00  0.19855150732E+04  0.19855150732E+04  0.25500000920E-02 0. -1.
       -2   -1    0    0    0  501  0.00000000000E+00  0.00000000000E+00 -0.12811537197E+04  0.12811537197E+04  0.25500000920E-02 0.  1.
    10030    2    1    2    0    0  0.00000000000E+00  0.00000000000E+00  0.70436135347E+03  0.32666687928E+04  0.31898275950E+04 0.  0.
        2    1    3    3  502    0  0.13979790523E+03  0.87606393487E+03  0.17095217353E+04  0.19260052014E+04  0.25500000920E-02 0. -1.
       -2    1    3    3    0  502 -0.13979790523E+03 -0.87606393487E+03 -0.10051603818E+04  0.13406635915E+04  0.25500000920E-02 0.  1.
</event>
<event>
 5   0  0.8838951E-07  0.3198825E+04  0.7818609E-02  0.8189128E-01
        2   -1    0    0  501    0  0.00000000000E+00  0.00000000000E+00  0.18316276096E+04  0.18316276096E+04  0.25500000920E-02 0.  1.
       -2   -1    0    0    0  501  0.00000000000E+00  0.00000000000E+00 -0.13966374955E+04  0.13966374955E+04  0.25500000920E-02 0. -1.
    10030    2    1    2    0    0  0.00000000000E+00  0.00000000000E+00  0.43499011406E+03  0.32282651051E+04  0.31988246575E+04 0.  0.
        2    1    3    3  502    0  0.90856101350E+03  0.11790441269E+04 -0.37311894284E+03  0.15345507206E+04  0.25500000920E-02 0.  1.
       -2    1    3    3    0  502 -0.90856101350E+03 -0.11790441269E+04  0.80810905690E+03  0.16937143845E+04  0.25500000920E-02 0. -1.
</event>
<event>
 5   0  0.8488469E-07  0.3205600E+04  0.7818609E-02  0.8187340E-01
       -2   -1    0    0    0  501  0.00000000000E+00  0.00000000000E+00  0.12730148846E+04  0.12730148846E+04  0.25500000920E-02 0.  1.
        2   -1    0    0  501    0  0.00000000000E+00  0.00000000000E+00 -0.20180185191E+04  0.20180185191E+04  0.25500000920E-02 0. -1.
    10030    2    1    2    0    0  0.00000000000E+00  0.00000000000E+00 -0.74500363453E+03  0.32910334037E+04  0.32055998578E+04 0.  0.
        3    1    3    3  502    0  0.13288772317E+04 -0.86539401652E+03 -0.61139655048E+03  0.16995962029E+04  0.10100000352E+00 0.  1.
       -3    1    3    3    0  502 -0.13288772317E+04  0.86539401652E+03 -0.13360708405E+03  0.15914372007E+04  0.10100000352E+00 0. -1.
</event>
<event>
 5   0  0.2783875E-07  0.3235855E+04  0.7818609E-02  0.8179412E-01
        1   -1    0    0  501    0  0.00000000000E+00  0.00000000000E+00  0.27172458887E+04  0.27172458887E+04  0.50400001928E-02 0. -1.
       -1   -1    0    0    0  501  0.00000000000E+00  0.00000000000E+00 -0.96336114875E+03  0.96336114877E+03  0.50400001928E-02 0.  1.
    10030    2    1    2    0    0  0.00000000000E+00  0.00000000000E+00  0.17538847399E+04  0.36806070374E+04  0.32358548303E+04 0.  0.
        2    1    3    3  502    0  0.12815995506E+04  0.97469847812E+02 -0.24082027395E+03  0.13076666944E+04  0.25500000920E-02 0.  1.
       -2    1    3    3    0  502 -0.12815995506E+04 -0.97469847812E+02  0.19947050138E+04  0.23729403430E+04  0.25500000920E-02 0. -1.
</event>
<event>
 5   0  0.8195618E-07  0.3241186E+04  0.7818609E-02  0.8178024E-01
        2   -1    0    0  501    0  0.00000000000E+00  0.00000000000E+00  0.17200242690E+04  0.17200242690E+04  0.25500000920E-02 0. -1.
       -2   -1    0    0    0  501  0.00000000000E+00  0.00000000000E+00 -0.15269099282E+04  0.15269099282E+04  0.25500000920E-02 0.  1.
    10030    2    1    2    0    0  0.00000000000E+00  0.00000000000E+00  0.19311434088E+03  0.32469341972E+04  0.32411862847E+04 0.  0.
        1    1    3    3  502    0 -0.15588229216E+04 -0.40133704327E+03 -0.91717098326E+02  0.16122693166E+04  0.50400001928E-02 0.  1.
       -1    1    3    3    0  502  0.15588229216E+04  0.40133704327E+03  0.28483143921E+03  0.16346648806E+04  0.50400001928E-02 0. -1.
</event>
<event>
 5   0  0.2997105E-07  0.3314564E+04  0.7818609E-02  0.8159199E-01
        1   -1    0    0  501    0  0.00000000000E+00  0.00000000000E+00  0.14443720449E+04  0.14443720449E+04  0.50400001928E-02 0. -1.
       -1   -1    0    0    0  501  0.00000000000E+00  0.00000000000E+00 -0.19015763937E+04  0.19015763937E+04  0.50400001928E-02 0.  1.
    10030    2    1    2    0    0  0.00000000000E+00  0.00000000000E+00 -0.45720434877E+03  0.33459484386E+04  0.33145640946E+04 0.  0.
        3    1    3    3  502    0 -0.21208319274E+03 -0.15835904754E+04 -0.67305012500E+03  0.17337054408E+04  0.10100000352E+00 0.  1.
       -3    1    3    3    0  502  0.21208319274E+03  0.15835904754E+04  0.21584577624E+03  0.16122429978E+04  0.10100000352E+00 0. -1.
</event>
<event>
 5   0  0.2997105E-07  0.3218286E+04  0.7818609E-02  0.8184005E-01
       -1   -1    0    0    0  501  0.00000000000E+00  0.00000000000E+00  0.10451040148E+04  0.10451040148E+04  0.50400001928E-02 0.  1.
        1   -1    0    0  501    0  0.00000000000E+00  0.00000000000E+00 -0.24775919318E+04  0.24775919318E+04  0.50400001928E-02 0. -1.
    10030    2    1    2    0    0  0.00000000000E+00  0.00000000000E+00 -0.14324879170E+04  0.35226959466E+04  0.32182860501E+04 0.  0.
        3    1    3    3  502    0 -0.56260539736E+03  0.31253991500E+03 -0.23305789058E+04  0.24178097688E+04  0.10100000352E+00 0. -1.
       -3    1    3    3    0  502  0.56260539736E+03 -0.31253991500E+03  0.89809098882E+03  0.11048861779E+04  0.10100000352E+00 0.  1.
</event>
<event>
 5   0  0.2891204E-07  0.3211053E+04  0.7818609E-02  0.8185904E-01
        1   -1    0    0  501    0  0.00000000000E+00  0.00000000000E+00  0.12850209335E+04  0.12850209335E+04  0.50400001928E-02 0.  1.
       -1   -1    0    0    0  501  0.00000000000E+00  0.00000000000E+00 -0.20059714844E+04  0.20059714844E+04  0.50400001928E-02 0. -1.
    10030    2    1    2    0    0  0.00000000000E+00  0.00000000000E+00 -0.72095055091E+03  0.32909924178E+04  0.32110530044E+04 0.  0.
        4    1    3    3  502    0 -0.13741346944E+04  0.78409586502E+03 -0.64051977234E+03  0.17068449477E+04  0.12699999809E+01 0.  1.
       -4    1    3    3    0  502  0.13741346944E+04 -0.78409586502E+03 -0.80430778567E+02  0.15841474701E+04  0.12699999809E+01 0. -1.
</event>
<event>
 5   0  0.8335929E-07  0.3086818E+04  0.7818609E-02  0.8219365E-01
       -2   -1    0    0    0  501  0.00000000000E+00  0.00000000000E+00  0.11949239283E+04  0.11949239283E+04  0.25500000920E-02 0.  1.
        2   -1    0    0  501    0  0.00000000000E+00  0.00000000000E+00 -0.19935250056E+04  0.19935250056E+04  0.25500000920E-02 0. -1.
    10030    2    1    2    0    0  0.00000000000E+00  0.00000000000E+00 -0.79860107727E+03  0.31884489340E+04  0.30868176046E+04 0.  0.
        4    1    3    3  502    0 -0.90663090475E+03  0.50279680305E+03 -0.15803287264E+04  0.18900329941E+04  0.12699999809E+01 0. -1.
       -4    1    3    3    0  502  0.90663090475E+03 -0.50279680305E+03  0.78172764908E+03  0.12984159398E+04  0.12699999809E+01 0.  1.
</event>
<event>
 5   0  0.2997105E-07  0.3186497E+04  0.7818609E-02  0.8192393E-01
        1   -1    0    0  501    0  0.00000000000E+00  0.00000000000E+00  0.16863731956E+04  0.16863731956E+04  0.50400001928E-02 0. -1.
       -1   -1    0    0    0  501  0.00000000000E+00  0.00000000000E+00 -0.15052659045E+04  0.15052659045E+04  0.50400001928E-02 0.  1.
    10030    2    1    2    0    0  0.00000000000E+00  0.00000000000E+00  0.18110729108E+03  0.31916391001E+04  0.31864965549E+04 0.  0.
        3    1    3    3  502    0  0.78000842904E+03 -0.95728983939E+03  0.10989669536E+04  0.16530412461E+04  0.10100000352E+00 0. -1.
       -3    1    3    3    0  502 -0.78000842904E+03  0.95728983939E+03 -0.91785966252E+03  0.15385978540E+04  0.10100000352E+00 0.  1.
</event>
<event>
 5   0  0.8802800E-07  0.3240285E+04  0.7818609E-02  0.8178258E-01
       -2   -1    0    0    0  501  0.00000000000E+00  0.00000000000E+00  0.13542282621E+04  0.13542282621E+04  0.25500000920E-02 0. -1.
        2   -1    0    0  501    0  0.00000000000E+00  0.00000000000E+00 -0.19382715966E+04  0.19382715966E+04  0.25500000920E-02 0.  1.
    10030    2    1    2    0    0  0.00000000000E+00  0.00000000000E+00 -0.58404333455E+03  0.32924998587E+04  0.32402852811E+04 0.  0.
        5    1    3    3  502    0 -0.42166425988E+03  0.23273551433E+03 -0.18638401406E+04  0.19250684994E+04  0.46999998093E+01 0.  1.
       -5    1    3    3    0  502  0.42166425988E+03 -0.23273551433E+03  0.12797968061E+04  0.13674313593E+04  0.46999998093E+01 0. -1.
</event>
<event>
 5   0  0.2997105E-07  0.3224650E+04  0.7818609E-02  0.8182337E-01
        1   -1    0    0  501    0  0.00000000000E+00  0.00000000000E+00  0.19231608222E+04  0.19231608222E+04  0.50400001928E-02 0. -1.
       -1   -1    0    0    0  501  0.00000000000E+00  0.00000000000E+00 -0.13517288094E+04  0.13517288094E+04  0.50400001928E-02 0.  1.
    10030    2    1    2    0    0  0.00000000000E+00  0.00000000000E+00  0.57143201285E+03  0.32748896316E+04  0.32246499893E+04 0.  0.
        3    1    3    3  502    0  0.12734700510E+04 -0.76624842957E+03 -0.34910611025E+03  0.15266753790E+04  0.10100000352E+00 0.  1.
       -3    1    3    3    0  502 -0.12734700510E+04  0.76624842957E+03  0.92053812309E+03  0.17482142525E+04  0.10100000352E+00 0. -1.
</event>
<event>
 5   0  0.8195618E-07  0.3191996E+04  0.7818609E-02  0.8190934E-01
       -2   -1    0    0    0  501  0.00000000000E+00  0.00000000000E+00  0.12300057186E+04  0.12300057186E+04  0.25500000920E-02 0.  1.
        2   -1    0    0  501    0  0.00000000000E+00  0.00000000000E+00 -0.20708921324E+04  0.20708921324E+04  0.25500000920E-02 0. -1.
    10030    2    1    2    0    0  0.00000000000E+00  0.00000000000E+00 -0.84088641377E+03  0.33008978510E+04  0.31919957177E+04 0.  0.
        1    1    3    3  502    0  0.10081505680E+04  0.35453656149E+03 -0.16462737034E+04  0.19627228148E+04  0.50400001928E-02 0. -1.
       -1    1    3    3    0  502 -0.10081505680E+04 -0.35453656149E+03  0.80538728962E+03  0.13381750362E+04  0.50400001928E-02 0.  1.
</event>
<event>
 5   0  0.2997105E-07  0.3204605E+04  0.7818609E-02  0.8187602E-01
        1   -1    0    0  501    0  0.00000000000E+00  0.00000000000E+00  0.11957876868E+04  0.11957876868E+04  0.50400001928E-02 0. -1.
       -1   -1    0    0    0  501  0.00000000000E+00  0.00000000000E+00 -0.21470149696E+04  0.21470149696E+04  0.50400001928E-02 0.  1.
    10030    2    1    2    0    0  0.00000000000E+00  0.00000000000E+00 -0.95122728278E+03  0.33428026564E+04  0.32046054759E+04 0.  0.
        3    1    3    3  502    0 -0.11319642502E+04  0.21777014163E+03  0.68530814238E+03  0.13410496481E+04  0.10100000352E+00 0. -1.
       -3    1    3    3    0  502  0.11319642502E+04 -0.21777014163E+03 -0.16365354252E+04  0.20017530083E+04  0.10100000352E+00 0.  1.
</event>
<event>
 5   0  0.8802800E-07  0.3203439E+04  0.7818609E-02  0.8187909E-01
       -2   -1    0    0    0  501  0.00000000000E+00  0.00000000000E+00  0.15416513182E+04  0.15416513182E+04  0.25500000920E-02 0.  1.
        2   -1    0    0  501    0  0.00000000000E+00  0.00000000000E+00 -0.16641283465E+04  0.16641283465E+04  0.25500000920E-02 0. -1.
    10030    2    1    2    0    0  0.00000000000E+00  0.00000000000E+00 -0.12247702824E+03  0.32057796647E+04  0.32034391888E+04 0.  0.
        5    1    3    3  502    0 -0.90935223654E+02  0.14353870522E+04  0.64417248802E+03  0.15759395574E+04  0.46999998093E+01 0.  1.
       -5    1    3    3    0  502  0.90935223654E+02 -0.14353870522E+04 -0.76664951626E+03  0.16298401072E+04  0.46999998093E+01 0. -1.
</event>
<event>
 5   0  0.8488469E-07  0.3196800E+04  0.7818609E-02  0.8189663E-01
       -2   -1    0    0    0  501  0.00000000000E+00  0.00000000000E+00  0.10810471224E+04  0.10810471224E+04  0.25500000920E-02 0.  1.
        2   -1    0    0  501    0  0.00000000000E+00  0.00000000000E+00 -0.23633401110E+04  0.23633401110E+04  0.25500000920E-02 0. -1.
    10030    2    1    2    0    0  0.00000000000E+00  0.00000000000E+00 -0.12822929886E+04  0.34443872334E+04  0.31967996661E+04 0.  0.
        3    1    3    3  502    0  0.83736710592E+03  0.12955015007E+04 -0.18993577279E+03  0.15542147266E+04  0.10100000352E+00 0. -1.
       -3    1    3    3    0  502 -0.83736710592E+03 -0.12955015007E+04 -0.10923572159E+04  0.18901725068E+04  0.10100000352E+00 0.  1.
</event>
<event>
 5   0  0.8488469E-07  0.3180823E+04  0.7818609E-02  0.8193900E-01
        2   -1    0    0  501    0  0.00000000000E+00  0.00000000000E+00  0.14919511973E+04  0.14919511973E+04  0.25500000920E-02 0.  1.
       -2   -1    0    0    0  501  0.00000000000E+00  0.00000000000E+00 -0.16953697488E+04  0.16953697488E+04  0.25500000920E-02 0. -1.
    10030    2    1    2    0    0  0.00000000000E+00  0.00000000000E+00 -0.20341855155E+03  0.31873209461E+04  0.31808231177E+04 0.  0.
        3    1    3    3  502    0  0.11083079743E+04 -0.51211924411E+03  0.91958632251E+03  0.15284801932E+04  0.10100000352E+00 0.  1.
       -3    1    3    3    0  502 -0.11083079743E+04  0.51211924411E+03 -0.11230048741E+04  0.16588407529E+04  0.10100000352E+00 0. -1.
</event>
<event>
 5   0  0.3013888E-07  0.3202604E+04  0.7818609E-02  0.8188130E-01
        1   -1    0    0  501    0  0.00000000000E+00  0.00000000000E+00  0.15591338376E+04  0.15591338376E+04  0.50400001928E-02 0.  1.
       -1   -1    0    0    0  501  0.00000000000E+00  0.00000000000E+00 -0.16446103536E+04  0.16446103536E+04  0.50400001928E-02 0. -1.
    10030    2    1    2    0    0  0.00000000000E+00  0.00000000000E+00 -0.85476515994E+02  0.32037441911E+04  0.32026037231E+04 0.  0.
        1    1    3    3  502    0  0.11850567995E+04 -0.71692762988E+03 -0.84665545057E+03  0.16233207621E+04  0.50400001928E-02 0. -1.
       -1    1    3    3    0  502 -0.11850567995E+04  0.71692762988E+03  0.76117893458E+03  0.15804234290E+04  0.50400001928E-02 0.  1.
</event>
<event>
 5   0  0.2891204E-07  0.3195604E+04  0.7818609E-02  0.8189979E-01
       -1   -1    0    0    0  501  0.00000000000E+00  0.00000000000E+00  0.11256706764E+04  0.11256706764E+04  0.50400001928E-02 0. -1.
        1   -1    0    0  501    0  0.00000000000E+00  0.00000000000E+00 -0.22679559496E+04  0.22679559496E+04  0.50400001928E-02 0.  1.
    10030    2    1    2    0    0  0.00000000000E+00  0.00000000000E+00 -0.11422852732E+04  0.33936266259E+04  0.31956041731E+04 0.  0.
        4    1    3    3  502    0  0.12600173831E+04 -0.23596470691E+02 -0.16142351196E+04  0.20479153384E+04  0.12699999809E+01 0.  1.
       -4    1    3    3    0  502 -0.12600173831E+04  0.23596470691E+02  0.47194984639E+03  0.13457112875E+04  0.12699999809E+01 0. -1.
</event>
<event>
 5   0  0.3013888E-07  0.3197250E+04  0.7818609E-02  0.8189544E-01
        1   -1    0    0  501    0  0.00000000000E+00  0.00000000000E+00  0.22287569260E+04  0.22287569260E+04  0.50400001928E-02 0.  1.
       -1   -1    0    0    0  501  0.00000000000E+00  0.00000000000E+00 -0.11466490451E+04  0.11466490452E+04  0.50400001928E-02 0. -1.
    10030    2    1    2    0    0  0.00000000000E+00  0.00000000000E+00  0.10821078809E+04  0.33754059712E+04  0.31972500691E+04 0.  0.
        1    1    3    3  502    0  0.98451226102E+03  0.85851866712E+03 -0.43186286005E+03  0.13757994853E+04  0.50400001928E-02 0. -1.
       -1    1    3    3    0  502 -0.98451226102E+03 -0.85851866712E+03  0.15139707409E+04  0.19996064858E+04  0.50400001928E-02 0.  1.
</event>
<event>
 5   0  0.2783875E-07  0.3209761E+04  0.7818609E-02  0.8186244E-01
       -3   -1    0    0    0  501  0.00000000000E+00  0.00000000000E+00  0.90226907771E+03  0.90226908336E+03  0.10100000352E+00 0.  1.
        3   -1    0    0  501    0  0.00000000000E+00  0.00000000000E+00 -0.28546270710E+04  0.28546270728E+04  0.10100000352E+00 0. -1.
    10030    2    1    2    0    0  0.00000000000E+00  0.00000000000E+00 -0.19523579933E+04  0.37568961562E+04  0.32097612052E+04 0.  0.
        2    1    3    3  502    0  0.15728481456E+04  0.25006303517E+03 -0.12080923423E+04  0.19989672128E+04  0.25500000920E-02 0.  1.
       -2    1    3    3    0  502 -0.15728481456E+04 -0.25006303517E+03 -0.74426565104E+03  0.17579289433E+04  0.25500000920E-02 0. -1.
</event>
<event>
 5   0  0.2997105E-07  0.3197072E+04  0.7818609E-02  0.8189591E-01
        1   -1    0    0  501    0  0.00000000000E+00  0.00000000000E+00  0.20993737373E+04  0.20993737373E+04  0.50400001928E-02 0.  1.
       -1   -1    0    0    0  501  0.00000000000E+00  0.00000000000E+00 -0.12171807949E+04  0.12171807949E+04  0.50400001928E-02 0. -1.
    10030    2    1    2    0    0  0.00000000000E+00  0.00000000000E+00  0.88219294245E+03  0.33165545322E+04  0.31970720319E+04 0.  0.
        3    1    3    3  502    0 -0.12336837263E+04  0.72500380925E+03  0.11802644528E+04  0.18548935950E+04  0.10100000352E+00 0. -1.
       -3    1    3    3    0  502  0.12336837263E+04 -0.72500380925E+03 -0.29807151031E+03  0.14616609372E+04  0.10100000352E+00 0.  1.
</event>
<event>
 5   0  0.2891204E-07  0.3194063E+04  0.7818609E-02  0.8190387E-01
        1   -1    0    0  501    0  0.00000000000E+00  0.00000000000E+00  0.23180437363E+04  0.23180437363E+04  0.50400001928E-02 0. -1.
       -1   -1    0    0    0  501  0.00000000000E+00  0.00000000000E+00 -0.11002851779E+04  0.11002851779E+04  0.50400001928E-02 0.  1.
    10030    2    1    2    0    0  0.00000000000E+00  0.00000000000E+00  0.12177585584E+04  0.34183289143E+04  0.31940627200E+04 0.  0.
        4    1    3    3  502    0 -0.61262939407E+03  0.45379583697E+03  0.21107141079E+04  0.22441838370E+04  0.12699999809E+01 0. -1.
       -4    1    3    3    0  502  0.61262939407E+03 -0.45379583697E+03 -0.89295554950E+03  0.11741450772E+04  0.12699999809E+01 0.  1.
</event>
<event>
 5   0  0.2783875E-07  0.3048992E+04  0.7818609E-02  0.8229878E-01
        1   -1    0    0  501    0  0.00000000000E+00  0.00000000000E+00  0.17340024700E+04  0.17340024700E+04  0.50400001928E-02 0.  1.
       -1   -1    0    0    0  501  0.00000000000E+00  0.00000000000E+00 -0.13403028111E+04  0.13403028111E+04  0.50400001928E-02 0. -1.
    10030    2    1    2    0    0  0.00000000000E+00  0.00000000000E+00  0.39369965891E+03  0.30743052811E+04  0.30489922171E+04 0.  0.
        2    1    3    3  502    0  0.46860701708E+03 -0.12647824494E+04  0.91325625029E+03  0.16288966079E+04  0.25500000920E-02 0.  1.
       -2    1    3    3    0  502 -0.46860701708E+03  0.12647824494E+04 -0.51955659138E+03  0.14454086731E+04  0.25500000920E-02 0. -1.
</event>
<event>
 5   0  0.8838951E-07  0.3218222E+04  0.7818609E-02  0.8184021E-01
       -2   -1    0    0    0  501  0.00000000000E+00  0.00000000000E+00  0.16611251622E+04  0.16611251622E+04  0.25500000920E-02 0.  1.
        2   -1    0    0  501    0  0.00000000000E+00  0.00000000000E+00 -0.15587258356E+04  0.15587258356E+04  0.25500000920E-02 0. -1.
    10030    2    1    2    0    0  0.00000000000E+00  0.00000000000E+00  0.10239932656E+03  0.32198509978E+04  0.32182223084E+04 0.  0.
        2    1    3    3  502    0 -0.52300214555E+03 -0.67867690073E+03 -0.13115120738E+04  0.15665878525E+04  0.25500000920E-02 0. -1.
       -2    1    3    3    0  502  0.52300214555E+03  0.67867690073E+03  0.14139114003E+04  0.16532631454E+04  0.25500000920E-02 0.  1.
</event>
<event>
 5   0  0.3075756E-07  0.3200936E+04  0.7818609E-02  0.8188570E-01
       -1   -1    0    0    0  501  0.00000000000E+00  0.00000000000E+00  0.13943913573E+04  0.13943913573E+04  0.50400001928E-02 0.  1.
        1   -1    0    0  501    0  0.00000000000E+00  0.00000000000E+00 -0.18370004506E+04  0.18370004506E+04  0.50400001928E-02 0. -1.
    10030    2    1    2    0    0  0.00000000000E+00  0.00000000000E+00 -0.44260909329E+03  0.32313918079E+04  0.32009358330E+04 0.  0.
        5    1    3    3  502    0 -0.89510329446E+03 -0.52654724954E+03  0.10080728125E+04  0.14473060489E+04  0.46999998093E+01 0.  1.
       -5    1    3    3    0  502  0.89510329446E+03  0.52654724954E+03 -0.14506819058E+04  0.17840857590E+04  0.46999998093E+01 0. -1.
</event>
<event>
 5   0  0.2997105E-07  0.3195472E+04  0.7818609E-02  0.8190014E-01
        1   -1    0    0  501    0  0.00000000000E+00  0.00000000000E+00  0.21279936162E+04  0.21279936162E+04  0.50400001928E-02 0. -1.
       -1   -1    0    0    0  501  0.00000000000E+00  0.00000000000E+00 -0.11996088675E+04  0.11996088676E+04  0.50400001928E-02 0.  1.
    10030    2    1    2    0    0  0.00000000000E+00  0.00000000000E+00  0.92838474865E+03  0.33276024837E+04  0.31954718037E+04 0.  0.
        3    1    3    3  502    0 -0.76876505061E+03  0.14005543420E+04  0.47920492753E+03  0.16679896705E+04  0.10100000352E+00 0.  1.
       -3    1    3    3    0  502  0.76876505061E+03 -0.14005543420E+04  0.44917982112E+03  0.16596128133E+04  0.10100000352E+00 0. -1.
</event>
<event>
 5   0  0.8838951E-07  0.3202755E+04  0.7818609E-02  0.8188090E-01
       -2   -1    0    0    0  501  0.00000000000E+00  0.00000000000E+00  0.14913428693E+04  0.14913428693E+04  0.25500000920E-02 0.  1.
        2   -1    0    0  501    0  0.00000000000E+00  0.00000000000E+00 -0.17195308788E+04  0.17195308788E+04  0.25500000920E-02 0. -1.
    10030    2    1    2    0    0  0.00000000000E+00  0.00000000000E+00 -0.22818800950E+03  0.32108737481E+04  0.32027551356E+04 0.  0.
        2    1    3    3  502    0  0.15632671501E+04  0.34652560632E+03 -0.91102570678E+02  0.16038029357E+04  0.25500000920E-02 0. -1.
       -2    1    3    3    0  502 -0.15632671501E+04 -0.34652560632E+03 -0.13708543882E+03  0.16070708123E+04  0.25500000920E-02 0.  1.
</event>
<event>
 5   0  0.2783875E-07  0.3195975E+04  0.7818609E-02  0.8189881E-01
       -1   -1    0    0    0  501  0.00000000000E+00  0.00000000000E+00  0.20623853807E+04  0.20623853808E+04  0.50400001928E-02 0. -1.
        1   -1    0    0  501    0  0.00000000000E+00  0.00000000000E+00 -0.12381604418E+04  0.12381604418E+04  0.50400001928E-02 0.  1.
    10030    2    1    2    0    0  0.00000000000E+00  0.00000000000E+00  0.82422493896E+03  0.33005458226E+04  0.31959749650E+04 0.  0.
        2    1    3    3  502    0  0.83184513878E+02 -0.11985500665E+04  0.15002098533E+04  0.19219967557E+04  0.25500000920E-02 0. -1.
       -2    1    3    3    0  502 -0.83184513878E+02  0.11985500665E+04 -0.67598491432E+03  0.13785490668E+04  0.25500000920E-02 0.  1.
</event>
<event>
 5   0  0.3075756E-07  0.3203797E+04  0.7818609E-02  0.8187815E-01
       -1   -1    0    0    0  501  0.00000000000E+00  0.00000000000E+00  0.10179204898E+04  0.10179204898E+04  0.50400001928E-02 0.  1.
        1   -1    0    0  501    0  0.00000000000E+00  0.00000000000E+00 -0.25209028600E+04  0.25209028600E+04  0.50400001928E-02 0. -1.
    10030    2    1    2    0    0  0.00000000000E+00  0.00000000000E+00 -0.15029823702E+04  0.35388233498E+04  0.32037969187E+04 0.  0.
        5    1    3    3  502    0  0.12377734944E+04  0.96957982941E+03 -0.10899452054E+04  0.19131573144E+04  0.46999998093E+01 0. -1.
       -5    1    3    3    0  502 -0.12377734944E+04 -0.96957982941E+03 -0.41303716478E+03  0.16256660354E+04  0.46999998093E+01 0.  1.
</event>
<event>
 5   0  0.8195618E-07  0.3223579E+04  0.7818609E-02  0.8182618E-01
        2   -1    0    0  501    0  0.00000000000E+00  0.00000000000E+00  0.16886873028E+04  0.16886873028E+04  0.25500000920E-02 0. -1.
       -2   -1    0    0    0  501  0.00000000000E+00  0.00000000000E+00 -0.15383933163E+04  0.15383933163E+04  0.25500000920E-02 0.  1.
    10030    2    1    2    0    0  0.00000000000E+00  0.00000000000E+00  0.15029398654E+03  0.32270806191E+04  0.32235789179E+04 0.  0.
        1    1    3    3  502    0 -0.20016368329E+03  0.11163047912E+04  0.12216698153E+04  0.16669370188E+04  0.50400001928E-02 0. -1.
       -1    1    3    3    0  502  0.20016368329E+03 -0.11163047912E+04 -0.10713758288E+04  0.15601436003E+04  0.50400001928E-02 0.  1.
</event>
<event>
 5   0  0.8838951E-07  0.3202074E+04  0.7818609E-02  0.8188270E-01
       -2   -1    0    0    0  501  0.00000000000E+00  0.00000000000E+00  0.15382611796E+04  0.15382611796E+04  0.25500000920E-02 0.  1.
        2   -1    0    0  501    0  0.00000000000E+00  0.00000000000E+00 -0.16663741715E+04  0.16663741715E+04  0.25500000920E-02 0. -1.
    10030    2    1    2    0    0  0.00000000000E+00  0.00000000000E+00 -0.12811299191E+03  0.32046353511E+04  0.32020735149E+04 0.  0.
        2    1    3    3  502    0  0.31755097800E+03  0.14283442281E+04 -0.71443243236E+03  0.16283180150E+04  0.25500000920E-02 0. -1.
       -2    1    3    3    0  502 -0.31755097800E+03 -0.14283442281E+04  0.58631944045E+03  0.15763173361E+04  0.25500000920E-02 0.  1.
</event>
<event>
 5   0  0.8335929E-07  0.3236431E+04  0.7818609E-02  0.8179262E-01
        2   -1    0    0  501    0  0.00000000000E+00  0.00000000000E+00  0.18248532075E+04  0.18248532075E+04  0.25500000920E-02 0. -1.
       -2   -1    0    0    0  501  0.00000000000E+00  0.00000000000E+00 -0.14349766214E+04  0.14349766214E+04  0.25500000920E-02 0.  1.
    10030    2    1    2    0    0  0.00000000000E+00  0.00000000000E+00  0.38987658615E+03  0.32598298289E+04  0.32364311767E+04 0.  0.
        4    1    3    3  502    0 -0.74178085834E+02  0.16160743248E+04  0.15696338412E+03  0.16253731044E+04  0.12699999809E+01 0. -1.
       -4    1    3    3    0  502  0.74178085834E+02 -0.16160743248E+04  0.23291320203E+03  0.16344567245E+04  0.12699999809E+01 0.  1.
</event>
<event>
 5   0  0.8802800E-07  0.3222160E+04  0.7818609E-02  0.8182989E-01
       -2   -1    0    0    0  501  0.00000000000E+00  0.00000000000E+00  0.11725034511E+04  0.11725034511E+04  0.25500000920E-02 0. -1.
        2   -1    0    0  501    0  0.00000000000E+00  0.00000000000E+00 -0.22137072428E+04  0.22137072428E+04  0.25500000920E-02 0.  1.
    10030    2    1    2    0    0  0.00000000000E+00  0.00000000000E+00 -0.10412037917E+04  0.33862106939E+04  0.32221603820E+04 0.  0.
        5    1    3    3  502    0  0.63936022117E+03 -0.14561298686E+04 -0.24967492782E+03  0.16097997845E+04  0.46999998093E+01 0. -1.
       -5    1    3    3    0  502 -0.63936022117E+03  0.14561298686E+04 -0.79152886391E+03  0.17764109094E+04  0.46999998093E+01 0.  1.
</event>
<event>
 5   0  0.8335929E-07  0.3193929E+04  0.7818609E-02  0.8190422E-01
        2   -1    0    0  501    0  0.00000000000E+00  0.00000000000E+00  0.25601545599E+04  0.25601545599E+04  0.25500000920E-02 0.  1.
       -2   -1    0    0    0  501  0.00000000000E+00  0.00000000000E+00 -0.99614922965E+03  0.99614922965E+03  0.25500000920E-02 0. -1.
    10030    2    1    2    0    0  0.00000000000E+00  0.00000000000E+00  0.15640053302E+04  0.35563037895E+04  0.31939292369E+04 0.  0.
        4    1    3    3  502    0 -0.86389412731E+03  0.69408385246E+02 -0.71151001408E+03  0.11213289884E+04  0.12699999809E+01 0. -1.
       -4    1    3    3    0  502  0.86389412731E+03 -0.69408385246E+02  0.22755153443E+04  0.24349748012E+04  0.12699999809E+01 0.  1.
</event>
<event>
 5   0  0.8195618E-07  0.3203446E+04  0.7818609E-02  0.8187908E-01
       -2   -1    0    0    0  501  0.00000000000E+00  0.00000000000E+00  0.11920440693E+04  0.11920440693E+04  0.25500000920E-02 0. -1.
        2   -1    0    0  501    0  0.00000000000E+00  0.00000000000E+00 -0.21521990534E+04  0.21521990534E+04  0.25500000920E-02 0.  1.
    10030    2    1    2    0    0  0.00000000000E+00  0.00000000000E+00 -0.96015498409E+03  0.33442431228E+04  0.32034457184E+04 0.  0.
        1    1    3    3  502    0 -0.44388821611E+03 -0.22947276051E+03  0.11085900604E+04  0.12160042839E+04  0.50400001928E-02 0. -1.
       -1    1    3    3    0  502  0.44388821611E+03  0.22947276051E+03 -0.20687450445E+04  0.21282388389E+04  0.50400001928E-02 0.  1.
</event>
<event>
 5   0  0.2783875E-07  0.3047047E+04  0.7818609E-02  0.8230423E-01
       -1   -1    0    0    0  501  0.00000000000E+00  0.00000000000E+00  0.10347983624E+04  0.10347983624E+04  0.50400001928E-02 0.  1.
        1   -1    0    0  501    0  0.00000000000E+00  0.00000000000E+00 -0.22430682856E+04  0.22430682856E+04  0.50400001928E-02 0. -1.
    10030    2    1    2    0    0  0.00000000000E+00  0.00000000000E+00 -0.12082699232E+04  0.32778666480E+04  0.30470466939E+04 0.  0.
        2    1    3    3  502    0 -0.30131396466E+03  0.90561515026E+03 -0.18816078075E+04  0.21098286298E+04  0.25500000920E-02 0. -1.
       -2    1    3    3    0  502  0.30131396466E+03 -0.90561515026E+03  0.67333788429E+03  0.11680380183E+04  0.25500000920E-02 0.  1.
</event>
<event>
 5   0  0.8838951E-07  0.3141129E+04  0.7818609E-02  0.8204540E-01
        2   -1    0    0  501    0  0.00000000000E+00  0.00000000000E+00  0.21912620886E+04  0.21912620886E+04  0.25500000920E-02 0.  1.
       -2   -1    0    0    0  501  0.00000000000E+00  0.00000000000E+00 -0.11256857957E+04  0.11256857957E+04  0.25500000920E-02 0. -1.
    10030    2    1    2    0    0  0.00000000000E+00  0.00000000000E+00  0.10655762929E+04  0.33169478842E+04  0.31411288466E+04 0.  0.
        2    1    3    3  502    0 -0.11981137538E+04 -0.44697086610E+03 -0.43006781702E+03  0.13491544942E+04  0.25500000920E-02 0. -1.
       -2    1    3    3    0  502  0.11981137538E+04  0.44697086610E+03  0.14956441099E+04  0.19677933900E+04  0.25500000920E-02 0.  1.
</event>
<event>
 5   0  0.8488469E-07  0.3181771E+04  0.7818609E-02  0.8193648E-01
       -2   -1    0    0    0  501  0.00000000000E+00  0.00000000000E+00  0.98837573161E+03  0.98837573162E+03  0.25500000920E-02 0. -1.
        2   -1    0    0  501    0  0.00000000000E+00  0.00000000000E+00 -0.25606830353E+04  0.25606830353E+04  0.25500000920E-02 0.  1.
    10030    2    1    2    0    0  0.00000000000E+00  0.00000000000E+00 -0.15723073037E+04  0.35490587669E+04  0.31817711850E+04 0.  0.
        3    1    3    3  502    0  0.64616633014E+03  0.14356624834E+04 -0.10411452660E+04  0.18874960047E+04  0.10100000352E+00 0.  1.
       -3    1    3    3    0  502 -0.64616633014E+03 -0.14356624834E+04 -0.53116203762E+03  0.16615627622E+04  0.10100000352E+00 0. -1.
</event>
<event>
 5   0  0.8802800E-07  0.3096243E+04  0.7818609E-02  0.8216770E-01
       -2   -1    0    0    0  501  0.00000000000E+00  0.00000000000E+00  0.10919624111E+04  0.10919624111E+04  0.25500000920E-02 0.  1.
        2   -1    0    0  501    0  0.00000000000E+00  0.00000000000E+00 -0.21948381471E+04  0.21948381471E+04  0.25500000920E-02 0. -1.
    10030    2    1    2    0    0  0.00000000000E+00  0.00000000000E+00 -0.11028757360E+04  0.32868005583E+04  0.30962433723E+04 0.  0.
        5    1    3    3  502    0  0.48094406564E+03  0.94130249711E+02  0.10074399732E+04  0.11203236531E+04  0.46999998093E+01 0.  1.
       -5    1    3    3    0  502 -0.48094406564E+03 -0.94130249711E+02 -0.21103157092E+04  0.21664769051E+04  0.46999998093E+01 0. -1.
</event>
<event>
 5   0  0.8195618E-07  0.3187992E+04  0.7818609E-02  0.8191996E-01
        2   -1    0    0  501    0  0.00000000000E+00  0.00000000000E+00  0.22144791056E+04  0.22144791056E+04  0.25500000920E-02 0.  1.
       -2   -1    0    0    0  501  0.00000000000E+00  0.00000000000E+00 -0.11473681390E+04  0.11473681390E+04  0.25500000920E-02 0. -1.
    10030    2    1    2    0    0  0.00000000000E+00  0.00000000000E+00  0.10671109667E+04  0.33618472446E+04  0.31879917003E+04 0.  0.
        1    1    3    3  502    0  0.36695624493E+02 -0.15533456060E+04  0.90875884446E+03  0.18000199382E+04  0.50400001928E-02 0. -1.
       -1    1    3    3    0  502 -0.36695624493E+02  0.15533456060E+04  0.15835212220E+03  0.15618273064E+04  0.50400001928E-02 0.  1.
</event>
<event>
 5   0  0.3013888E-07  0.3225401E+04  0.7818609E-02  0.8182141E-01
        1   -1    0    0  501    0  0.00000000000E+00  0.00000000000E+00  0.15542773459E+04  0.15542773459E+04  0.50400001928E-02 0.  1.
       -1   -1    0    0    0  501  0.00000000000E+00  0.00000000000E+00 -0.16733199972E+04  0.16733199972E+04  0.50400001928E-02 0. -1.
    10030    2    1    2    0    0  0.00000000000E+00  0.00000000000E+00 -0.11904265131E+03  0.32275973431E+04  0.32254012861E+04 0.  0.
        1    1    3    3  502    0  0.34454663050E+03  0.95703751552E+01 -0.16360302365E+04  0.16719446484E+04  0.50400001928E-02 0. -1.
       -1    1    3    3    0  502 -0.34454663050E+03 -0.95703751552E+01  0.15169875852E+04  0.15556526946E+04  0.50400001928E-02 0.  1.
</event>
<event>
 5   0  0.8838951E-07  0.3200609E+04  0.7818609E-02  0.8188656E-01
       -2   -1    0    0    0  501  0.00000000000E+00  0.00000000000E+00  0.14844414322E+04  0.14844414322E+04  0.25500000920E-02 0. -1.
        2   -1    0    0  501    0  0.00000000000E+00  0.00000000000E+00 -0.17252113875E+04  0.17252113875E+04  0.25500000920E-02 0.  1.
    10030    2    1    2    0    0  0.00000000000E+00  0.00000000000E+00 -0.24076995524E+03  0.32096528197E+04  0.32006094813E+04 0.  0.
        2    1    3    3  502    0  0.90493298816E+03 -0.12068783126E+04 -0.65623199243E+03  0.16450226145E+04  0.25500000920E-02 0. -1.
       -2    1    3    3    0  502 -0.90493298816E+03  0.12068783126E+04  0.41546203718E+03  0.15646302051E+04  0.25500000920E-02 0.  1.
</event>
<event>
 5   0  0.2997105E-07  0.3187670E+04  0.7818609E-02  0.8192081E-01
       -1   -1    0    0    0  501  0.00000000000E+00  0.00000000000E+00  0.19135607455E+04  0.19135607455E+04  0.50400001928E-02 0. -1.
        1   -1    0    0  501    0  0.00000000000E+00  0.00000000000E+00 -0.13275307134E+04  0.13275307134E+04  0.50400001928E-02 0.  1.
    10030    2    1    2    0    0  0.00000000000E+00  0.00000000000E+00  0.58603003207E+03  0.32410914589E+04  0.31876704105E+04 0.  0.
        3    1    3    3  502    0  0.10514055131E+04  0.83788161671E+03 -0.57737522244E+03  0.14631682454E+04  0.10100000352E+00 0.  1.
       -3    1    3    3    0  502 -0.10514055131E+04 -0.83788161671E+03  0.11634052545E+04  0.17779232135E+04  0.10100000352E+00 0. -1.
</event>
<event>
 5   0  0.8802800E-07  0.3202517E+04  0.7818609E-02  0.8188153E-01
       -2   -1    0    0    0  501  0.00000000000E+00  0.00000000000E+00  0.20534934928E+04  0.20534934928E+04  0.25500000920E-02 0.  1.
        2   -1    0    0  501    0  0.00000000000E+00  0.00000000000E+00 -0.12486176268E+04  0.12486176268E+04  0.25500000920E-02 0. -1.
    10030    2    1    2    0    0  0.00000000000E+00  0.00000000000E+00  0.80487586594E+03  0.33021111196E+04  0.32025166177E+04 0.  0.
        5    1    3    3  502    0 -0.31323931940E+03 -0.13945604833E+04 -0.34187564191E+03  0.14696322184E+04  0.46999998093E+01 0. -1.
       -5    1    3    3    0  502  0.31323931940E+03  0.13945604833E+04  0.11467515078E+04  0.18324789012E+04  0.46999998093E+01 0.  1.
</event>
<event>
 5   0  0.2891204E-07  0.3224625E+04  0.7818609E-02  0.8182344E-01
        1   -1    0    0  501    0  0.00000000000E+00  0.00000000000E+00  0.27282561737E+04  0.27282561737E+04  0.50400001928E-02 0.  1.
       -1   -1    0    0    0  501  0.00000000000E+00  0.00000000000E+00 -0.95282561680E+03  0.95282561681E+03  0.50400001928E-02 0. -1.
    10030    2    1    2    0    0  0.00000000000E+00  0.00000000000E+00  0.17754305569E+04  0.36810817905E+04  0.32246254800E+04 0.  0.
        4    1    3    3  502    0 -0.14416595336E+04  0.49084798160E+03  0.28340667994E+03  0.15490755020E+04  0.12699999809E+01 0.  1.
       -4    1    3    3    0  502  0.14416595336E+04 -0.49084798160E+03  0.14920238770E+04  0.21320062885E+04  0.12699999809E+01 0. -1.
</event>
<event>
 5   0  0.8335929E-07  0.3214736E+04  0.7818609E-02  0.8184936E-01
       -2   -1    0    0    0  501  0.00000000000E+00  0.00000000000E+00  0.11753374611E+04  0.11753374611E+04  0.25500000920E-02 0. -1.
        2   -1    0    0  501    0  0.00000000000E+00  0.00000000000E+00 -0.21982041520E+04  0.21982041520E+04  0.25500000920E-02 0.  1.
    10030    2    1    2    0    0  0.00000000000E+00  0.00000000000E+00 -0.10228666909E+04  0.33735416131E+04  0.32147358753E+04 0.  0.
        4    1    3    3  502    0 -0.96998474227E+03  0.11117372835E+04  0.15788262258E+03  0.14838324445E+04  0.12699999809E+01 0.  1.
       -4    1    3    3    0  502  0.96998474227E+03 -0.11117372835E+04 -0.11807493135E+04  0.18897091686E+04  0.12699999809E+01 0. -1.
</event>
<event>
 5   0  0.3013888E-07  0.3188867E+04  0.7818609E-02  0.8191764E-01
       -1   -1    0    0    0  501  0.00000000000E+00  0.00000000000E+00  0.12021716693E+04  0.12021716693E+04  0.50400001928E-02 0. -1.
        1   -1    0    0  501    0  0.00000000000E+00  0.00000000000E+00 -0.21146880713E+04  0.21146880713E+04  0.50400001928E-02 0.  1.
    10030    2    1    2    0    0  0.00000000000E+00  0.00000000000E+00 -0.91251640196E+03  0.33168597406E+04  0.31888669391E+04 0.  0.
        1    1    3    3  502    0 -0.77129910971E+03 -0.62403729074E+03 -0.17545118571E+04  0.20155983513E+04  0.50400001928E-02 0.  1.
       -1    1    3    3    0  502  0.77129910971E+03  0.62403729074E+03  0.84199545515E+03  0.13012613893E+04  0.50400001928E-02 0. -1.
</event>
<event>
 5   0  0.8195618E-07  0.3178056E+04  0.7818609E-02  0.8194637E-01
       -2   -1    0    0    0  501  0.00000000000E+00  0.00000000000E+00  0.10921391318E+04  0.10921391319E+04  0.25500000920E-02 0.  1.
        2   -1    0    0  501    0  0.00000000000E+00  0.00000000000E+00 -0.23119855145E+04  0.23119855145E+04  0.25500000920E-02 0. -1.
    10030    2    1    2    0    0  0.00000000000E+00  0.00000000000E+00 -0.12198463827E+04  0.34041246464E+04  0.31780559168E+04 0.  0.
        1    1    3    3  502    0 -0.23276422794E+03 -0.14136369170E+04  0.12632977157E+03  0.14382307639E+04  0.50400001928E-02 0.  1.
       -1    1    3    3    0  502  0.23276422794E+03  0.14136369170E+04 -0.13461761542E+04  0.19658938825E+04  0.50400001928E-02 0. -1.
</event>
<event>
 5   0  0.2891204E-07  0.3202699E+04  0.7818609E-02  0.8188105E-01
        1   -1    0    0  501    0  0.00000000000E+00  0.00000000000E+00  0.17297507381E+04  0.17297507381E+04  0.50400001928E-02 0.  1.
       -1   -1    0    0    0  501  0.00000000000E+00  0.00000000000E+00 -0.14824797706E+04  0.14824797706E+04  0.50400001928E-02 0. -1.
    10030    2    1    2    0    0  0.00000000000E+00  0.00000000000E+00  0.24727096748E+03  0.32122305087E+04  0.32026991601E+04 0.  0.
        4    1    3    3  502    0 -0.10127127338E+04 -0.47897795219E+03 -0.10240215296E+04  0.15177709530E+04  0.12699999809E+01 0. -1.
       -4    1    3    3    0  502  0.10127127338E+04  0.47897795219E+03  0.12712924971E+04  0.16944595557E+04  0.12699999809E+01 0.  1.
</event>
<event>
 5   0  0.8488469E-07  0.3215375E+04  0.7818609E-02  0.8184768E-01
        2   -1    0    0  501    0  0.00000000000E+00  0.00000000000E+00  0.15455234479E+04  0.15455234479E+04  0.25500000920E-02 0.  1.
       -2   -1    0    0    0  501  0.00000000000E+00  0.00000000000E+00 -0.16723521612E+04  0.16723521612E+04  0.25500000920E-02 0. -1.
    10030    2    1    2    0    0  0.00000000000E+00  0.00000000000E+00 -0.12682871328E+03  0.32178756091E+04  0.32153752368E+04 0.  0.
        3    1    3    3  502    0  0.65478398162E+03  0.14655778734E+03  0.13986934088E+04  0.15513105781E+04  0.10100000352E+00 0.  1.
       -3    1    3    3    0  502 -0.65478398162E+03 -0.14655778734E+03 -0.15255221221E+04  0.16665650311E+04  0.10100000352E+00 0. -1.
</event>
<event>
 5   0  0.2997105E-07  0.3185654E+04  0.7818609E-02  0.8192616E-01
       -1   -1    0    0    0  501  0.00000000000E+00  0.00000000000E+00  0.19032549654E+04  0.19032549654E+04  0.50400001928E-02 0. -1.
        1   -1    0    0  501    0  0.00000000000E+00  0.00000000000E+00 -0.13330312242E+04  0.13330312242E+04  0.50400001928E-02 0.  1.
    10030    2    1    2    0    0  0.00000000000E+00  0.00000000000E+00  0.57022374121E+03  0.32362861896E+04  0.31856542791E+04 0.  0.
        3    1    3    3  502    0 -0.43883696060E+03 -0.11036616923E+04 -0.79310092965E+03  0.14281652929E+04  0.10100000352E+00 0.  1.
       -3    1    3    3    0  502  0.43883696060E+03  0.11036616923E+04  0.13633246709E+04  0.18081208968E+04  0.10100000352E+00 0. -1.
</event>
<event>
 5   0  0.8195618E-07  0.3202810E+04  0.7818609E-02  0.8188075E-01
        2   -1    0    0  501    0  0.00000000000E+00  0.00000000000E+00  0.13271716289E+04  0.13271716289E+04  0.25500000920E-02 0. -1.
       -2   -1    0    0    0  501  0.00000000000E+00  0.00000000000E+00 -0.19323032648E+04  0.19323032648E+04  0.25500000920E-02 0.  1.
    10030    2    1    2    0    0  0.00000000000E+00  0.00000000000E+00 -0.60513163591E+03  0.32594748938E+04  0.32028100609E+04 0.  0.
        1    1    3    3  502    0  0.61091128554E+03  0.17942844944E+03  0.11928153947E+04  0.13521152810E+04  0.50400001928E-02 0. -1.
       -1    1    3    3    0  502 -0.61091128554E+03 -0.17942844944E+03 -0.17979470306E+04  0.19073596127E+04  0.50400001928E-02 0.  1.
</event>
<event>
 5   0  0.2891204E-07  0.3197887E+04  0.7818609E-02  0.8189375E-01
       -1   -1    0    0    0  501  0.00000000000E+00  0.00000000000E+00  0.25067959706E+04  0.25067959706E+04  0.50400001928E-02 0.  1.
        1   -1    0    0  501    0  0.00000000000E+00  0.00000000000E+00 -0.10198755692E+04  0.10198755692E+04  0.50400001928E-02 0. -1.
    10030    2    1    2    0    0  0.00000000000E+00  0.00000000000E+00  0.14869204014E+04  0.35266715398E+04  0.31978867819E+04 0.  0.
        4    1    3    3  502    0 -0.96834799797E+03 -0.51935802188E+03 -0.53750733875E+03  0.12232523665E+04  0.12699999809E+01 0. -1.
       -4    1    3    3    0  502  0.96834799797E+03  0.51935802188E+03  0.20244277401E+04  0.23034191733E+04  0.12699999809E+01 0.  1.
</event>
<event>
 5   0  0.8488469E-07  0.3200492E+04  0.7818609E-02  0.8188687E-01
       -2   -1    0    0    0  501  0.00000000000E+00  0.00000000000E+00  0.12017246089E+04  0.12017246089E+04  0.25500000920E-02 0. -1.
        2   -1    0    0  501    0  0.00000000000E+00  0.00000000000E+00 -0.21309265735E+04  0.21309265735E+04  0.25500000920E-02 0.  1.
    10030    2    1    2    0    0  0.00000000000E+00  0.00000000000E+00 -0.92920196464E+03  0.33326511825E+04  0.32004917767E+04 0.  0.
        3    1    3    3  502    0  0.13321655176E+04 -0.41388543679E+03 -0.12810844776E+04  0.18939755991E+04  0.10100000352E+00 0.  1.
       -3    1    3    3    0  502 -0.13321655176E+04  0.41388543679E+03  0.35188251300E+03  0.14386755833E+04  0.10100000352E+00 0. -1.
</event>
<event>
 5   0  0.2891204E-07  0.3198892E+04  0.7818609E-02  0.8189110E-01
        1   -1    0    0  501    0  0.00000000000E+00  0.00000000000E+00  0.21501508975E+04  0.21501508975E+04  0.50400001928E-02 0. -1.
       -1   -1    0    0    0  501  0.00000000000E+00  0.00000000000E+00 -0.11897894910E+04  0.11897894910E+04  0.50400001928E-02 0.  1.
    10030    2    1    2    0    0  0.00000000000E+00  0.00000000000E+00  0.96036140653E+03  0.33399403886E+04  0.31988916468E+04 0.  0.
        4    1    3    3  502    0 -0.12314636019E+03 -0.10000028883E+03 -0.11815549778E+04  0.11921572305E+04  0.12699999809E+01 0.  1.
       -4    1    3    3    0  502  0.12314636019E+03  0.10000028883E+03  0.21419163843E+04  0.21477831581E+04  0.12699999809E+01 0. -1.
</event>
<event>
 5   0  0.2783875E-07  0.3211580E+04  0.7818609E-02  0.8185766E-01
        3   -1    0    0  501    0  0.00000000000E+00  0.00000000000E+00  0.20321068207E+04  0.20321068232E+04  0.10100000352E+00 0.  1.
       -3   -1    0    0    0  501  0.00000000000E+00  0.00000000000E+00 -0.12689102759E+04  0.12689102800E+04  0.10100000352E+00 0. -1.
    10030    2    1    2    0    0  0.00000000000E+00  0.00000000000E+00  0.76319654476E+03  0.33010171032E+04  0.32115798214E+04 0.  0.
        2    1    3    3  502    0 -0.64370802888E+03  0.14702171634E+04  0.43463667482E+03  0.16627710526E+04  0.25500000920E-02 0. -1.
       -2    1    3    3    0  502  0.64370802888E+03 -0.14702171634E+04  0.32855986993E+03  0.16382460506E+04  0.25500000920E-02 0.  1.
</event>
<event>
 5   0  0.2891204E-07  0.3200242E+04  0.7818609E-02  0.8188753E-01
       -1   -1    0    0    0  501  0.00000000000E+00  0.00000000000E+00  0.93460971228E+03  0.93460971230E+03  0.50400001928E-02 0.  1.
        1   -1    0    0  501    0  0.00000000000E+00  0.00000000000E+00 -0.27395258213E+04  0.27395258213E+04  0.50400001928E-02 0. -1.
    10030    2    1    2    0    0  0.00000000000E+00  0.00000000000E+00 -0.18049161090E+04  0.36741355336E+04  0.32002421406E+04 0.  0.
        4    1    3    3  502    0  0.20870655419E+03  0.33486283929E+03 -0.26827952617E+04  0.27116569798E+04  0.12699999809E+01 0. -1.
       -4    1    3    3    0  502 -0.20870655419E+03 -0.33486283929E+03  0.87787915269E+03  0.96247855381E+03  0.12699999809E+01 0.  1.
</event>
<event>
 5   0  0.3075756E-07  0.3213610E+04  0.7818609E-02  0.8185232E-01
       -1   -1    0    0    0  501  0.00000000000E+00  0.00000000000E+00  0.99600636370E+03  0.99600636371E+03  0.50400001928E-02 0.  1.
        1   -1    0    0  501    0  0.00000000000E+00  0.00000000000E+00 -0.25921752923E+04  0.25921752923E+04  0.50400001928E-02 0. -1.
    10030    2    1    2    0    0  0.00000000000E+00  0.00000000000E+00 -0.15961689286E+04  0.35881816560E+04  0.32136104848E+04 0.  0.
        5    1    3    3  502    0  0.86641494426E+02  0.12253606204E+04  0.35839427545E+03  0.12796421161E+04  0.46999998093E+01 0.  1.
       -5    1    3    3    0  502 -0.86641494426E+02 -0.12253606204E+04 -0.19545632041E+04  0.23085395399E+04  0.46999998093E+01 0. -1.
</event>
<event>
 5   0  0.8838951E-07  0.3202046E+04  0.7818609E-02  0.8188277E-01
       -2   -1    0    0    0  501  0.00000000000E+00  0.00000000000E+00  0.23841211162E+04  0.23841211162E+04  0.25500000920E-02 0. -1.
        2   -1    0    0  501    0  0.00000000000E+00  0.00000000000E+00 -0.10751442125E+04  0.10751442125E+04  0.25500000920E-02 0.  1.
    10030    2    1    2    0    0  0.00000000000E+00  0.00000000000E+00  0.13089769038E+04  0.34592653287E+04  0.32020456086E+04 0.  0.
        2    1    3    3  502    0 -0.10121783419E+03 -0.10014761412E+04 -0.69054364338E+03  0.12206760564E+04  0.25500000920E-02 0.  1.
       -2    1    3    3    0  502  0.10121783419E+03  0.10014761412E+04  0.19995205471E+04  0.22385892722E+04  0.25500000920E-02 0. -1.
</event>
<event>
 5   0  0.8335929E-07  0.3193074E+04  0.7818609E-02  0.8190649E-01
       -2   -1    0    0    0  501  0.00000000000E+00  0.00000000000E+00  0.98231904067E+03  0.98231904068E+03  0.25500000920E-02 0.  1.
        2   -1    0    0  501    0  0.00000000000E+00  0.00000000000E+00 -0.25948094391E+04  0.25948094391E+04  0.25500000920E-02 0. -1.
    10030    2    1    2    0    0  0.00000000000E+00  0.00000000000E+00 -0.16124903985E+04  0.35771284798E+04  0.31930742046E+04 0.  0.
        4    1    3    3  502    0 -0.13185244190E+04 -0.73715831410E+03 -0.22735327567E+03  0.15276125649E+04  0.12699999809E+01 0.  1.
       -4    1    3    3    0  502  0.13185244190E+04  0.73715831410E+03 -0.13851371228E+04  0.20495159149E+04  0.12699999809E+01 0. -1.
</event>
<event>
 5   0  0.8488469E-07  0.3309034E+04  0.7818609E-02  0.8160600E-01
       -2   -1    0    0    0  501  0.00000000000E+00  0.00000000000E+00  0.20356313377E+04  0.20356313377E+04  0.25500000920E-02 0. -1.
        2   -1    0    0  501    0  0.00000000000E+00  0.00000000000E+00 -0.13447555867E+04  0.13447555867E+04  0.25500000920E-02 0.  1.
    10030    2    1    2    0    0  0.00000000000E+00  0.00000000000E+00  0.69087575103E+03  0.33803869245E+04  0.33090340669E+04 0.  0.
        3    1    3    3  502    0 -0.98083252178E+03  0.10737126179E+04  0.11514604303E+04  0.18549265092E+04  0.10100000352E+00 0. -1.
       -3    1    3    3    0  502  0.98083252178E+03 -0.10737126179E+04 -0.46058467924E+03  0.15254604153E+04  0.10100000352E+00 0.  1.
</event>
<event>
 5   0  0.8802800E-07  0.3189226E+04  0.7818609E-02  0.8191668E-01
        2   -1    0    0  501    0  0.00000000000E+00  0.00000000000E+00  0.14743922067E+04  0.14743922067E+04  0.25500000920E-02 0.  1.
       -2   -1    0    0    0  501  0.00000000000E+00  0.00000000000E+00 -0.17246360704E+04  0.17246360704E+04  0.25500000920E-02 0. -1.
    10030    2    1    2    0    0  0.00000000000E+00  0.00000000000E+00 -0.25024386371E+03  0.31990282772E+04  0.31892255999E+04 0.  0.
        5    1    3    3  502    0  0.16030190923E+03  0.12121641665E+04  0.90161070243E+03  0.15191980178E+04  0.46999998093E+01 0. -1.
       -5    1    3    3    0  502 -0.16030190923E+03 -0.12121641665E+04 -0.11518545661E+04  0.16798302593E+04  0.46999998093E+01 0.  1.
</event>
<event>
 5   0  0.2891204E-07  0.3185593E+04  0.7818609E-02  0.8192632E-01
       -1   -1    0    0    0  501  0.00000000000E+00  0.00000000000E+00  0.14672414789E+04  0.14672414789E+04  0.50400001928E-02 0.  1.
        1   -1    0    0  501    0  0.00000000000E+00  0.00000000000E+00 -0.17290953604E+04  0.17290953604E+04  0.50400001928E-02 0. -1.
    10030    2    1    2    0    0  0.00000000000E+00  0.00000000000E+00 -0.26185388149E+03  0.31963368393E+04  0.31855928389E+04 0.  0.
        4    1    3    3  502    0  0.32647620518E+03 -0.15507114708E+04 -0.29179872758E+03  0.16113475381E+04  0.12699999809E+01 0. -1.
       -4    1    3    3    0  502 -0.32647620518E+03  0.15507114708E+04  0.29944846089E+02  0.15849893012E+04  0.12699999809E+01 0.  1.
</event>
<event>
 5   0  0.3013888E-07  0.3252858E+04  0.7818609E-02  0.8174995E-01
       -1   -1    0    0    0  501  0.00000000000E+00  0.00000000000E+00  0.19180537307E+04  0.19180537307E+04  0.50400001928E-02 0.  1.
        1   -1    0    0  501    0  0.00000000000E+00  0.00000000000E+00 -0.13791432422E+04  0.13791432422E+04  0.50400001928E-02 0. -1.
    10030    2    1    2    0    0  0.00000000000E+00  0.00000000000E+00  0.53891048855E+03  0.32971969729E+04  0.32528577226E+04 0.  0.
        1    1    3    3  502    0  0.30141936554E+03 -0.81164778037E+03 -0.11261363318E+04  0.14204959666E+04  0.50400001928E-02 0. -1.
       -1    1    3    3    0  502 -0.30141936554E+03  0.81164778037E+03  0.16650468203E+04  0.18767010064E+04  0.50400001928E-02 0.  1.
</event>
<event>
 5   0  0.8488469E-07  0.3196083E+04  0.7818609E-02  0.8189852E-01
       -2   -1    0    0    0  501  0.00000000000E+00  0.00000000000E+00  0.14826157756E+04  0.14826157756E+04  0.25500000920E-02 0.  1.
        2   -1    0    0  501    0  0.00000000000E+00  0.00000000000E+00 -0.17224532052E+04  0.17224532052E+04  0.25500000920E-02 0. -1.
    10030    2    1    2    0    0  0.00000000000E+00  0.00000000000E+00 -0.23983742960E+03  0.32050689809E+04  0.31960827867E+04 0.  0.
        3    1    3    3  502    0  0.85564971733E+03 -0.12736464459E+04 -0.56774409202E+03  0.16360455593E+04  0.10100000352E+00 0. -1.
       -3    1    3    3    0  502 -0.85564971733E+03  0.12736464459E+04  0.32790666242E+03  0.15690234216E+04  0.10100000352E+00 0.  1.
</event>
<event>
 5   0  0.8195618E-07  0.3211953E+04  0.7818609E-02  0.8185668E-01
        2   -1    0    0  501    0  0.00000000000E+00  0.00000000000E+00  0.17598086110E+04  0.17598086110E+04  0.25500000920E-02 0. -1.
       -2   -1    0    0    0  501  0.00000000000E+00  0.00000000000E+00 -0.14655915823E+04  0.14655915823E+04  0.25500000920E-02 0.  1.
    10030    2    1    2    0    0  0.00000000000E+00  0.00000000000E+00  0.29421702875E+03  0.32254001933E+04  0.32119531047E+04 0.  0.
        1    1    3    3  502    0  0.37247828546E+03 -0.10111221056E+04 -0.10486971259E+04  0.15036201805E+04  0.50400001928E-02 0.  1.
       -1    1    3    3    0  502 -0.37247828546E+03  0.10111221056E+04  0.13429141546E+04  0.17217800127E+04  0.50400001928E-02 0. -1.
</event>
<event>
 5   0  0.8488469E-07  0.3223215E+04  0.7818609E-02  0.8182713E-01
       -2   -1    0    0    0  501  0.00000000000E+00  0.00000000000E+00  0.12065573260E+04  0.12065573260E+04  0.25500000920E-02 0. -1.
        2   -1    0    0  501    0  0.00000000000E+00  0.00000000000E+00 -0.21526357992E+04  0.21526357992E+04  0.25500000920E-02 0.  1.
    10030    2    1    2    0    0  0.00000000000E+00  0.00000000000E+00 -0.94607847322E+03  0.33591931252E+04  0.32232148509E+04 0.  0.
        3    1    3    3  502    0  0.53314122506E+03  0.68705747827E+03 -0.18871113019E+04  0.20778538496E+04  0.10100000352E+00 0.  1.
       -3    1    3    3    0  502 -0.53314122506E+03 -0.68705747827E+03  0.94103282869E+03  0.12813392756E+04  0.10100000352E+00 0. -1.
</event>
<event>
 5   0  0.2997105E-07  0.3205875E+04  0.7818609E-02  0.8187267E-01
        1   -1    0    0  501    0  0.00000000000E+00  0.00000000000E+00  0.18777050132E+04  0.18777050132E+04  0.50400001928E-02 0. -1.
       -1   -1    0    0    0  501  0.00000000000E+00  0.00000000000E+00 -0.13683768311E+04  0.13683768311E+04  0.50400001928E-02 0.  1.
    10030    2    1    2    0    0  0.00000000000E+00  0.00000000000E+00  0.50932818211E+03  0.32460818443E+04  0.32058746299E+04 0.  0.
        3    1    3    3  502    0  0.99517363635E+02  0.11790060200E+04 -0.84030938065E+03  0.14512335326E+04  0.10100000352E+00 0.  1.
       -3    1    3    3    0  502 -0.99517363635E+02 -0.11790060200E+04  0.13496375628E+04  0.17948483117E+04  0.10100000352E+00 0. -1.
</event>
<event>
 5   0  0.8838951E-07  0.3208521E+04  0.7818609E-02  0.8186570E-01
        2   -1    0    0  501    0  0.00000000000E+00  0.00000000000E+00  0.14837105403E+04  0.14837105403E+04  0.25500000920E-02 0. -1.
       -2   -1    0    0    0  501  0.00000000000E+00  0.00000000000E+00 -0.17346050414E+04  0.17346050414E+04  0.25500000920E-02 0.  1.
    10030    2    1    2    0    0  0.00000000000E+00  0.00000000000E+00 -0.25089450113E+03  0.32183155817E+04  0.32085210195E+04 0.  0.
        2    1    3    3  502    0  0.69520843706E+03 -0.10547827915E+04 -0.11172884730E+04  0.16864800740E+04  0.25500000920E-02 0.  1.
       -2    1    3    3    0  502 -0.69520843706E+03  0.10547827915E+04  0.86639397183E+03  0.15318355077E+04  0.25500000920E-02 0. -1.
</event>
<event>
 5   0  0.3013888E-07  0.3179458E+04  0.7818609E-02  0.8194263E-01
        1   -1    0    0  501    0  0.00000000000E+00  0.00000000000E+00  0.22709118851E+04  0.22709118851E+04  0.50400001928E-02 0.  1.
       -1   -1    0    0    0  501  0.00000000000E+00  0.00000000000E+00 -0.11128738571E+04  0.11128738571E+04  0.50400001928E-02 0. -1.
    10030    2    1    2    0    0  0.00000000000E+00  0.00000000000E+00  0.11580380280E+04  0.33837857422E+04  0.31794581103E+04 0.  0.
        1    1    3    3  502    0 -0.71415773550E+03  0.14136907322E+04  0.43349966489E+03  0.16420915678E+04  0.50400001928E-02 0. -1.
       -1    1    3    3    0  502  0.71415773550E+03 -0.14136907322E+04  0.72453836310E+03  0.17416941744E+04  0.50400001928E-02 0.  1.
</event>
<event>
 5   0  0.8488469E-07  0.3128146E+04  0.7818609E-02  0.8208056E-01
       -2   -1    0    0    0  501  0.00000000000E+00  0.00000000000E+00  0.16442592625E+04  0.16442592625E+04  0.25500000920E-02 0. -1.
        2   -1    0    0  501    0  0.00000000000E+00  0.00000000000E+00 -0.14877971834E+04  0.14877971834E+04  0.25500000920E-02 0.  1.
    10030    2    1    2    0    0  0.00000000000E+00  0.00000000000E+00  0.15646207909E+03  0.31320564459E+04  0.31281459681E+04 0.  0.
        3    1    3    3  502    0  0.11674364118E+03 -0.15594447426E+04  0.10702993117E+03  0.15674668734E+04  0.10100000352E+00 0.  1.
       -3    1    3    3    0  502 -0.11674364118E+03  0.15594447426E+04  0.49432147914E+02  0.15645895725E+04  0.10100000352E+00 0. -1.
</event>
<event>
 5   0  0.8838951E-07  0.3184837E+04  0.7818609E-02  0.8192833E-01
        2   -1    0    0  501    0  0.00000000000E+00  0.00000000000E+00  0.27128535572E+04  0.27128535572E+04  0.25500000920E-02 0. -1.
       -2   -1    0    0    0  501  0.00000000000E+00  0.00000000000E+00 -0.93473396812E+03  0.93473396812E+03  0.25500000920E-02 0.  1.
    10030    2    1    2    0    0  0.00000000000E+00  0.00000000000E+00  0.17781195890E+04  0.36475875253E+04  0.31848368061E+04 0.  0.
        2    1    3    3  502    0  0.33776589230E+02  0.38017798647E+03 -0.88157261934E+03  0.96064896948E+03  0.25500000920E-02 0.  1.
       -2    1    3    3    0  502 -0.33776589230E+02 -0.38017798647E+03  0.26596922084E+04  0.26869385558E+04  0.25500000920E-02 0. -1.
</event>
<event>
 5   0  0.3013888E-07  0.3200504E+04  0.7818609E-02  0.8188684E-01
       -1   -1    0    0    0  501  0.00000000000E+00  0.00000000000E+00  0.10866912110E+04  0.10866912111E+04  0.50400001928E-02 0. -1.
        1   -1    0    0  501    0  0.00000000000E+00  0.00000000000E+00 -0.23565176758E+04  0.23565176758E+04  0.50400001928E-02 0.  1.
    10030    2    1    2    0    0  0.00000000000E+00  0.00000000000E+00 -0.12698264647E+04  0.34432088868E+04  0.32005043646E+04 0.  0.
        1    1    3    3  502    0 -0.78539595055E+03 -0.10004683267E+04 -0.16796483077E+04  0.21068939483E+04  0.50400001928E-02 0.  1.
       -1    1    3    3    0  502  0.78539595055E+03  0.10004683267E+04  0.40982184297E+03  0.13363149385E+04  0.50400001928E-02 0. -1.
</event>
<event>
 5   0  0.8802800E-07  0.3184533E+04  0.7818609E-02  0.8192914E-01
        2   -1    0    0  501    0  0.00000000000E+00  0.00000000000E+00  0.19609192019E+04  0.19609192019E+04  0.25500000920E-02 0.  1.
       -2   -1    0    0    0  501  0.00000000000E+00  0.00000000000E+00 -0.12929208848E+04  0.12929208848E+04  0.25500000920E-02 0. -1.
    10030    2    1    2    0    0  0.00000000000E+00  0.00000000000E+00  0.66799831712E+03  0.32538400867E+04  0.31845334914E+04 0.  0.
        5    1    3    3  502    0  0.13060177181E+04 -0.91036081729E+03  0.36382698406E+03  0.16330435579E+04  0.46999998093E+01 0.  1.
       -5    1    3    3    0  502 -0.13060177181E+04  0.91036081729E+03  0.30417133306E+03  0.16207965288E+04  0.46999998093E+01 0. -1.
</event>
<event>
 5   0  0.8838951E-07  0.3188099E+04  0.7818609E-02  0.8191967E-01
        2   -1    0    0  501    0  0.00000000000E+00  0.00000000000E+00  0.19291278594E+04  0.19291278594E+04  0.25500000920E-02 0. -1.
       -2   -1    0    0    0  501  0.00000000000E+00  0.00000000000E+00 -0.13171727023E+04  0.13171727023E+04  0.25500000920E-02 0.  1.
    10030    2    1    2    0    0  0.00000000000E+00  0.00000000000E+00  0.61195515712E+03  0.32463005617E+04  0.31880994688E+04 0.  0.
        2    1    3    3  502    0 -0.25789178825E+03  0.57999415422E+03 -0.11829383508E+04  0.13424770147E+04  0.25500000920E-02 0.  1.
       -2    1    3    3    0  502  0.25789178825E+03 -0.57999415422E+03  0.17948935079E+04  0.19038235470E+04  0.25500000920E-02 0. -1.
</event>
<event>
 5   0  0.8802800E-07  0.3202350E+04  0.7818609E-02  0.8188197E-01
       -2   -1    0    0    0  501  0.00000000000E+00  0.00000000000E+00  0.13445295767E+04  0.13445295767E+04  0.25500000920E-02 0.  1.
        2   -1    0    0  501    0  0.00000000000E+00  0.00000000000E+00 -0.19068087531E+04  0.19068087531E+04  0.25500000920E-02 0. -1.
    10030    2    1    2    0    0  0.00000000000E+00  0.00000000000E+00 -0.56227917638E+03  0.32513383299E+04  0.32023496160E+04 0.  0.
        5    1    3    3  502    0 -0.83036461964E+02 -0.30793307164E+03 -0.18742258138E+04  0.19011739325E+04  0.46999998093E+01 0. -1.
       -5    1    3    3    0  502  0.83036461964E+02  0.30793307164E+03  0.13119466374E+04  0.13501643974E+04  0.46999998093E+01 0.  1.
</event>
<event>
 5   0  0.3013888E-07  0.3202469E+04  0.7818609E-02  0.8188165E-01
        1   -1    0    0  501    0  0.00000000000E+00  0.00000000000E+00  0.26926795686E+04  0.26926795686E+04  0.50400001928E-02 0. -1.
       -1   -1    0    0    0  501  0.00000000000E+00  0.00000000000E+00 -0.95219372598E+03  0.95219372599E+03  0.50400001928E-02 0.  1.
    10030    2    1    2    0    0  0.00000000000E+00  0.00000000000E+00  0.17404858426E+04  0.36448732946E+04  0.32024694168E+04 0.  0.
        1    1    3    3  502    0  0.37919588454E+03  0.12390089406E+03  0.26352155613E+04  0.26652395774E+04  0.50400001928E-02 0. -1.
       -1    1    3    3    0  502 -0.37919588454E+03 -0.12390089406E+03 -0.89472971867E+03  0.97963371721E+03  0.50400001928E-02 0.  1.
</event>
<event>
 5   0  0.8335929E-07  0.3160403E+04  0.7818609E-02  0.8199354E-01
       -2   -1    0    0    0  501  0.00000000000E+00  0.00000000000E+00  0.11297319861E+04  0.11297319861E+04  0.25500000920E-02 0. -1.
        2   -1    0    0  501    0  0.00000000000E+00  0.00000000000E+00 -0.22102911807E+04  0.22102911807E+04  0.25500000920E-02 0.  1.
    10030    2    1    2    0    0  0.00000000000E+00  0.00000000000E+00 -0.10805591946E+04  0.33400231669E+04  0.31604029145E+04 0.  0.
        4    1    3    3  502    0 -0.38638570258E+03  0.78982028779E+03 -0.19278857400E+04  0.21189278038E+04  0.12699999809E+01 0.  1.
       -4    1    3    3    0  502  0.38638570258E+03 -0.78982028779E+03  0.84732654545E+03  0.12210953631E+04  0.12699999809E+01 0. -1.
</event>
<event>
 5   0  0.8488469E-07  0.3136553E+04  0.7818609E-02  0.8205777E-01
       -2   -1    0    0    0  501  0.00000000000E+00  0.00000000000E+00  0.15611578521E+04  0.15611578522E+04  0.25500000920E-02 0.  1.
        2   -1    0    0  501    0  0.00000000000E+00  0.00000000000E+00 -0.15754279045E+04  0.15754279045E+04  0.25500000920E-02 0. -1.
    10030    2    1    2    0    0  0.00000000000E+00  0.00000000000E+00 -0.14270052393E+02  0.31365857567E+04  0.31365532954E+04 0.  0.
        3    1    3    3  502    0 -0.14518916195E+04 -0.59127581816E+03 -0.50670124385E+02  0.15684909434E+04  0.10100000352E+00 0.  1.
       -3    1    3    3    0  502  0.14518916195E+04  0.59127581816E+03  0.36400071992E+02  0.15680948133E+04  0.10100000352E+00 0. -1.
</event>
<event>
 5   0  0.8802800E-07  0.3222007E+04  0.7818609E-02  0.8183029E-01
       -2   -1    0    0    0  501  0.00000000000E+00  0.00000000000E+00  0.13255889839E+04  0.13255889839E+04  0.25500000920E-02 0.  1.
        2   -1    0    0  501    0  0.00000000000E+00  0.00000000000E+00 -0.19578706496E+04  0.19578706496E+04  0.25500000920E-02 0. -1.
    10030    2    1    2    0    0  0.00000000000E+00  0.00000000000E+00 -0.63228166567E+03  0.32834596336E+04  0.32220066823E+04 0.  0.
        5    1    3    3  502    0  0.92414100012E+03  0.79908010770E+03 -0.13862857916E+04  0.18478030178E+04  0.46999998093E+01 0. -1.
       -5    1    3    3    0  502 -0.92414100012E+03 -0.79908010770E+03  0.75400412588E+03  0.14356566158E+04  0.46999998093E+01 0.  1.
</event>
<event>
 5   0  0.8488469E-07  0.3196462E+04  0.7818609E-02  0.8189752E-01
       -2   -1    0    0    0  501  0.00000000000E+00  0.00000000000E+00  0.13935740397E+04  0.13935740397E+04  0.25500000920E-02 0.  1.
        2   -1    0    0  501    0  0.00000000000E+00  0.00000000000E+00 -0.18329434581E+04  0.18329434581E+04  0.25500000920E-02 0. -1.
    10030    2    1    2    0    0  0.00000000000E+00  0.00000000000E+00 -0.43936941840E+03  0.32265174979E+04  0.31964620564E+04 0.  0.
        3    1    3    3  502    0  0.11784548632E+04  0.28966888883E+03 -0.12695016239E+04  0.17562170461E+04  0.10100000352E+00 0. -1.
       -3    1    3    3    0  502 -0.11784548632E+04 -0.28966888883E+03  0.83013220550E+03  0.14703004518E+04  0.10100000352E+00 0.  1.
</event>
<event>
 5   0  0.2997105E-07  0.3209181E+04  0.7818609E-02  0.8186397E-01
       -1   -1    0    0    0  501  0.00000000000E+00  0.00000000000E+00  0.73579555632E+03  0.73579555634E+03  0.50400001928E-02 0. -1.
        1   -1    0    0  501    0  0.00000000000E+00  0.00000000000E+00 -0.34992197664E+04  0.34992197664E+04  0.50400001928E-02 0.  1.
    10030    2    1    2    0    0  0.00000000000E+00  0.00000000000E+00 -0.27634242101E+04  0.42350153227E+04  0.32091808019E+04 0.  0.
        3    1    3    3  502    0 -0.13252469553E+03 -0.12167685941E+04 -0.27509924453E+04  0.30109878862E+04  0.10100000352E+00 0.  1.
       -3    1    3    3    0  502  0.13252469553E+03  0.12167685941E+04 -0.12431764802E+02  0.12240274366E+04  0.10100000352E+00 0. -1.
</event>
<event>
 5   0  0.2997105E-07  0.3181126E+04  0.7818609E-02  0.8193819E-01
       -1   -1    0    0    0  501  0.00000000000E+00  0.00000000000E+00  0.21032279172E+04  0.21032279172E+04  0.50400001928E-02 0. -1.
        1   -1    0    0  501    0  0.00000000000E+00  0.00000000000E+00 -0.12028612887E+04  0.12028612887E+04  0.50400001928E-02 0.  1.
    10030    2    1    2    0    0  0.00000000000E+00  0.00000000000E+00  0.90036662858E+03  0.33060892059E+04  0.31811264941E+04 0.  0.
        3    1    3    3  502    0  0.10955573560E+04  0.70317850422E+03 -0.49960124023E+03  0.13943842148E+04  0.10100000352E+00 0.  1.
       -3    1    3    3    0  502 -0.10955573560E+04 -0.70317850422E+03  0.13999678688E+04  0.19117049911E+04  0.10100000352E+00 0. -1.
</event>
<event>
 5   0  0.8335929E-07  0.3190653E+04  0.7818609E-02  0.8191290E-01
        2   -1    0    0  501    0  0.00000000000E+00  0.00000000000E+00  0.20242573181E+04  0.20242573181E+04  0.25500000920E-02 0.  1.
       -2   -1    0    0    0  501  0.00000000000E+00  0.00000000000E+00 -0.12572842842E+04  0.12572842842E+04  0.25500000920E-02 0. -1.
    10030    2    1    2    0    0  0.00000000000E+00  0.00000000000E+00  0.76697303386E+03  0.32815416023E+04  0.31906531703E+04 0.  0.
        4    1    3    3  502    0  0.35726319964E+03 -0.19396878114E+03 -0.12031189616E+04  0.12699439872E+04  0.12699999809E+01 0. -1.
       -4    1    3    3    0  502 -0.35726319964E+03  0.19396878114E+03  0.19700919954E+04  0.20115976152E+04  0.12699999809E+01 0.  1.
</event>
<event>
 5   0  0.3075756E-07  0.3204366E+04  0.7818609E-02  0.8187665E-01
        1   -1    0    0  501    0  0.00000000000E+00  0.00000000000E+00  0.19742929423E+04  0.19742929423E+04  0.50400001928E-02 0. -1.
       -1   -1    0    0    0  501  0.00000000000E+00  0.00000000000E+00 -0.13002075684E+04  0.13002075685E+04  0.50400001928E-02 0.  1.
    10030    2    1    2    0    0  0.00000000000E+00  0.00000000000E+00  0.67408537384E+03  0.32745005108E+04  0.32043661626E+04 0.  0.
        5    1    3    3  502    0 -0.13518415019E+04  0.13362040921E+03 -0.53104346043E+03  0.14585469163E+04  0.46999998093E+01 0.  1.
       -5    1    3    3    0  502  0.13518415019E+04 -0.13362040921E+03  0.12051288343E+04  0.18159535945E+04  0.46999998093E+01 0. -1.
</event>
<event>
 5   0  0.2997105E-07  0.3185601E+04  0.7818609E-02  0.8192630E-01
       -1   -1    0    0    0  501  0.00000000000E+00  0.00000000000E+00  0.13768767336E+04  0.13768767336E+04  0.50400001928E-02 0. -1.
        1   -1    0    0  501    0  0.00000000000E+00  0.00000000000E+00 -0.18425857839E+04  0.18425857839E+04  0.50400001928E-02 0.  1.
    10030    2    1    2    0    0  0.00000000000E+00  0.00000000000E+00 -0.46570905026E+03  0.32194625175E+04  0.31856010393E+04 0.  0.
        3    1    3    3  502    0  0.13580513210E+03  0.12587459864E+03  0.13659620599E+04  0.13784555879E+04  0.10100000352E+00 0. -1.
       -3    1    3    3    0  502 -0.13580513210E+03 -0.12587459864E+03 -0.18316711102E+04  0.18410069295E+04  0.10100000352E+00 0.  1.
</event>
<event>
 5   0  0.2783875E-07  0.3196137E+04  0.7818609E-02  0.8189838E-01
        3   -1    0    0  501    0  0.00000000000E+00  0.00000000000E+00  0.15203985496E+04  0.15203985530E+04  0.10100000352E+00 0.  1.
       -3   -1    0    0    0  501  0.00000000000E+00  0.00000000000E+00 -0.16797061490E+04  0.16797061521E+04  0.10100000352E+00 0. -1.
    10030    2    1    2    0    0  0.00000000000E+00  0.00000000000E+00 -0.15930759944E+03  0.32001047050E+04  0.31961369201E+04 0.  0.
        1    1    3    3  502    0 -0.47865196888E+02  0.12850613754E+04  0.87028584101E+03  0.15527624612E+04  0.50400001928E-02 0.  1.
       -1    1    3    3    0  502  0.47865196888E+02 -0.12850613754E+04 -0.10295934404E+04  0.16473422438E+04  0.50400001928E-02 0. -1.
</event>
<event>
 5   0  0.2997105E-07  0.3192995E+04  0.7818609E-02  0.8190670E-01
       -1   -1    0    0    0  501  0.00000000000E+00  0.00000000000E+00  0.10074037577E+04  0.10074037577E+04  0.50400001928E-02 0. -1.
        1   -1    0    0  501    0  0.00000000000E+00  0.00000000000E+00 -0.25300724484E+04  0.25300724484E+04  0.50400001928E-02 0.  1.
    10030    2    1    2    0    0  0.00000000000E+00  0.00000000000E+00 -0.15226686907E+04  0.35374762061E+04  0.31929951405E+04 0.  0.
        3    1    3    3  502    0 -0.12141154774E+04  0.75235696905E+03  0.28835812164E+02  0.14286178340E+04  0.10100000352E+00 0. -1.
       -3    1    3    3    0  502  0.12141154774E+04 -0.75235696905E+03 -0.15515045028E+04  0.21088583722E+04  0.10100000352E+00 0.  1.
</event>
<event>
 5   0  0.8195618E-07  0.3198396E+04  0.7818609E-02  0.8189241E-01
        2   -1    0    0  501    0  0.00000000000E+00  0.00000000000E+00  0.17786095482E+04  0.17786095482E+04  0.25500000920E-02 0. -1.
       -2   -1    0    0    0  501  0.00000000000E+00  0.00000000000E+00 -0.14378840078E+04  0.14378840078E+04  0.25500000920E-02 0.  1.
    10030    2    1    2    0    0  0.00000000000E+00  0.00000000000E+00  0.34072554047E+03  0.32164935560E+04  0.31983959889E+04 0.  0.
        1    1    3    3  502    0 -0.11675659660E+03  0.47754598987E+03  0.17007328731E+04  0.17703600145E+04  0.50400001928E-02 0. -1.
       -1    1    3    3    0  502  0.11675659660E+03 -0.47754598987E+03 -0.13600073326E+04  0.14461335416E+04  0.50400001928E-02 0.  1.
</event>
<event>
 5   0  0.2783875E-07  0.3176897E+04  0.7818609E-02  0.8194945E-01
        1   -1    0    0  501    0  0.00000000000E+00  0.00000000000E+00  0.27598351428E+04  0.27598351428E+04  0.50400001928E-02 0.  1.
       -1   -1    0    0    0  501  0.00000000000E+00  0.00000000000E+00 -0.91424633810E+03  0.91424633811E+03  0.50400001928E-02 0. -1.
    10030    2    1    2    0    0  0.00000000000E+00  0.00000000000E+00  0.18455888047E+04  0.36740814810E+04  0.31768973374E+04 0.  0.
        2    1    3    3  502    0 -0.64220961888E+03  0.12755363656E+04  0.17271589691E+04  0.22410944467E+04  0.25500000920E-02 0.  1.
       -2    1    3    3    0  502  0.64220961888E+03 -0.12755363656E+04  0.11842983568E+03  0.14329870343E+04  0.25500000920E-02 0. -1.
</event>
<event>
 5   0  0.2997105E-07  0.3203104E+04  0.7818609E-02  0.8187998E-01
        1   -1    0    0  501    0  0.00000000000E+00  0.00000000000E+00  0.13644663383E+04  0.13644663383E+04  0.50400001928E-02 0. -1.
       -1   -1    0    0    0  501  0.00000000000E+00  0.00000000000E+00 -0.18798326330E+04  0.18798326330E+04  0.50400001928E-02 0.  1.
    10030    2    1    2    0    0  0.00000000000E+00  0.00000000000E+00 -0.51536629467E+03  0.32442989713E+04  0.32031037132E+04 0.  0.
        3    1    3    3  502    0  0.24877992101E+03 -0.10669677677E+04 -0.14408924336E+04  0.18101057101E+04  0.10100000352E+00 0.  1.
       -3    1    3    3    0  502 -0.24877992101E+03  0.10669677677E+04  0.92552613893E+03  0.14341932612E+04  0.10100000352E+00 0. -1.
</event>
<event>
 5   0  0.2783875E-07  0.3207885E+04  0.7818609E-02  0.8186738E-01
        1   -1    0    0  501    0  0.00000000000E+00  0.00000000000E+00  0.16181301547E+04  0.16181301548E+04  0.50400001928E-02 0.  1.
       -1   -1    0    0    0  501  0.00000000000E+00  0.00000000000E+00 -0.15898790912E+04  0.15898790912E+04  0.50400001928E-02 0. -1.
    10030    2    1    2    0    0  0.00000000000E+00  0.00000000000E+00  0.28251063543E+02  0.32080092460E+04  0.32078848483E+04 0.  0.
        2    1    3    3  502    0  0.14991474340E+04 -0.56251057740E+03 -0.79527025070E+02  0.16031798796E+04  0.25500000920E-02 0. -1.
       -2    1    3    3    0  502 -0.14991474340E+04  0.56251057740E+03  0.10777808861E+03  0.16048293663E+04  0.25500000920E-02 0.  1.
</event>
<event>
 5   0  0.2997105E-07  0.3200601E+04  0.7818609E-02  0.8188658E-01
        1   -1    0    0  501    0  0.00000000000E+00  0.00000000000E+00  0.17393094269E+04  0.17393094269E+04  0.50400001928E-02 0. -1.
       -1   -1    0    0    0  501  0.00000000000E+00  0.00000000000E+00 -0.14724013792E+04  0.14724013792E+04  0.50400001928E-02 0.  1.
    10030    2    1    2    0    0  0.00000000000E+00  0.00000000000E+00  0.26690804769E+03  0.32117108062E+04  0.32006009430E+04 0.  0.
        3    1    3    3  502    0  0.83307823119E+03  0.21729780233E+03 -0.12201999277E+04  0.14933604883E+04  0.10100000352E+00 0.  1.
       -3    1    3    3    0  502 -0.83307823119E+03 -0.21729780233E+03  0.14871079754E+04  0.17183503179E+04  0.10100000352E+00 0. -1.
</event>
<event>
 5   0  0.8802800E-07  0.3195704E+04  0.7818609E-02  0.8189953E-01
        2   -1    0    0  501    0  0.00000000000E+00  0.00000000000E+00  0.15432366497E+04  0.15432366497E+04  0.25500000920E-02 0. -1.
       -2   -1    0    0    0  501  0.00000000000E+00  0.00000000000E+00 -0.16544002467E+04  0.16544002467E+04  0.25500000920E-02 0.  1.
    10030    2    1    2    0    0  0.00000000000E+00  0.00000000000E+00 -0.11116359706E+03  0.31976368964E+04  0.31957040501E+04 0.  0.
        5    1    3    3  502    0  0.15259934031E+04 -0.31501128228E+03 -0.40966166180E+03  0.16111277855E+04  0.46999998093E+01 0.  1.
       -5    1    3    3    0  502 -0.15259934031E+04  0.31501128228E+03  0.29849806474E+03  0.15865091109E+04  0.46999998093E+01 0. -1.
</event>
<event>
 5   0  0.8195618E-07  0.3135443E+04  0.7818609E-02  0.8206078E-01
       -2   -1    0    0    0  501  0.00000000000E+00  0.00000000000E+00  0.12596091295E+04  0.12596091295E+04  0.25500000920E-02 0.  1.
        2   -1    0    0  501    0  0.00000000000E+00  0.00000000000E+00 -0.19512006581E+04  0.19512006581E+04  0.25500000920E-02 0. -1.
    10030    2    1    2    0    0  0.00000000000E+00  0.00000000000E+00 -0.69159152858E+03  0.32108097876E+04  0.31354426561E+04 0.  0.
        1    1    3    3  502    0 -0.45570068956E+03 -0.71520948454E+03  0.10044439009E+04  0.13145703767E+04  0.50400001928E-02 0.  1.
       -1    1    3    3    0  502  0.45570068956E+03  0.71520948454E+03 -0.16960354295E+04  0.18962394109E+04  0.50400001928E-02 0. -1.
</event>
<event>
 5   0  0.3013888E-07  0.3187581E+04  0.7818609E-02  0.8192105E-01
        1   -1    0    0  501    0  0.00000000000E+00  0.00000000000E+00  0.14220884066E+04  0.14220884066E+04  0.50400001928E-02 0.  1.
       -1   -1    0    0    0  501  0.00000000000E+00  0.00000000000E+00 -0.17862235234E+04  0.17862235234E+04  0.50400001928E-02 0. -1.
    10030    2    1    2    0    0  0.00000000000E+00  0.00000000000E+00 -0.36413511684E+03  0.32083119300E+04  0.31875807530E+04 0.  0.
        1    1    3    3  502    0 -0.69793273999E+02  0.14592190611E+04 -0.82337426492E+03  0.16769426197E+04  0.50400001928E-02 0. -1.
       -1    1    3    3    0  502  0.69793273999E+02 -0.14592190611E+04  0.45923914808E+03  0.15313693103E+04  0.50400001928E-02 0.  1.
</event>
<event>
 5   0  0.8838951E-07  0.3190811E+04  0.7818609E-02  0.8191248E-01
       -2   -1    0    0    0  501  0.00000000000E+00  0.00000000000E+00  0.12376292090E+04  0.12376292090E+04  0.25500000920E-02 0.  1.
        2   -1    0    0  501    0  0.00000000000E+00  0.00000000000E+00 -0.20566084007E+04  0.20566084007E+04  0.25500000920E-02 0. -1.
    10030    2    1    2    0    0  0.00000000000E+00  0.00000000000E+00 -0.81897919168E+03  0.32942376098E+04  0.31908109491E+04 0.  0.
        2    1    3    3  502    0 -0.62745267312E+03  0.13746411176E+04  0.11894455243E+03  0.15157449871E+04  0.25500000920E-02 0.  1.
       -2    1    3    3    0  502  0.62745267312E+03 -0.13746411176E+04 -0.93792374411E+03  0.17784926227E+04  0.25500000920E-02 0. -1.
</event>
<event>
 5   0  0.8802800E-07  0.3220044E+04  0.7818609E-02  0.8183544E-01
        2   -1    0    0  501    0  0.00000000000E+00  0.00000000000E+00  0.26457321597E+04  0.26457321597E+04  0.25500000920E-02 0. -1.
       -2   -1    0    0    0  501  0.00000000000E+00  0.00000000000E+00 -0.97975536936E+03  0.97975536936E+03  0.25500000920E-02 0.  1.
    10030    2    1    2    0    0  0.00000000000E+00  0.00000000000E+00  0.16659767903E+04  0.36254875291E+04  0.32200436577E+04 0.  0.
        5    1    3    3  502    0  0.80520594082E+03 -0.10557693442E+04  0.18582136415E+04  0.22838532226E+04  0.46999998093E+01 0.  1.
       -5    1    3    3    0  502 -0.80520594082E+03  0.10557693442E+04 -0.19223685112E+03  0.13416343064E+04  0.46999998093E+01 0. -1.
</event>
<event>
 5   0  0.2783875E-07  0.3160490E+04  0.7818609E-02  0.8199330E-01
        1   -1    0    0  501    0  0.00000000000E+00  0.00000000000E+00  0.10409784897E+04  0.10409784897E+04  0.50400001928E-02 0.  1.
       -1   -1    0    0    0  501  0.00000000000E+00  0.00000000000E+00 -0.23988727148E+04  0.23988727148E+04  0.50400001928E-02 0. -1.
    10030    2    1    2    0    0  0.00000000000E+00  0.00000000000E+00 -0.13578942251E+04  0.34398512045E+04  0.31604904023E+04 0.  0.
        2    1    3    3  502    0 -0.25474422384E+03 -0.11034880931E+04 -0.18784486289E+04  0.21934333458E+04  0.25500000920E-02 0. -1.
       -2    1    3    3    0  502  0.25474422384E+03  0.11034880931E+04  0.52055440376E+03  0.12464178587E+04  0.25500000920E-02 0.  1.
</event>
<event>
 5   0  0.8838951E-07  0.3197811E+04  0.7818609E-02  0.8189395E-01
        2   -1    0    0  501    0  0.00000000000E+00  0.00000000000E+00  0.24287857262E+04  0.24287857262E+04  0.25500000920E-02 0.  1.
       -2   -1    0    0    0  501  0.00000000000E+00  0.00000000000E+00 -0.10525833733E+04  0.10525833733E+04  0.25500000920E-02 0. -1.
    10030    2    1    2    0    0  0.00000000000E+00  0.00000000000E+00  0.13762023529E+04  0.34813690994E+04  0.31978114220E+04 0.  0.
        2    1    3    3  502    0  0.24894132390E+01 -0.54690261184E+03 -0.94758731115E+03  0.10940888338E+04  0.25500000920E-02 0. -1.
       -2    1    3    3    0  502 -0.24894132390E+01  0.54690261184E+03  0.23237896640E+04  0.23872802656E+04  0.25500000920E-02 0.  1.
</event>
<event>
 5   0  0.8488469E-07  0.3188806E+04  0.7818609E-02  0.8191780E-01
        2   -1    0    0  501    0  0.00000000000E+00  0.00000000000E+00  0.14873724651E+04  0.14873724651E+04  0.25500000920E-02 0.  1.
       -2   -1    0    0    0  501  0.00000000000E+00  0.00000000000E+00 -0.17091356569E+04  0.17091356569E+04  0.25500000920E-02 0. -1.
    10030    2    1    2    0    0  0.00000000000E+00  0.00000000000E+00 -0.22176319187E+03  0.31965081220E+04  0.31888062439E+04 0.  0.
        3    1    3    3  502    0 -0.35855099943E+03 -0.39304329058E+02 -0.16676998737E+04  0.17062609790E+04  0.10100000352E+00 0. -1.
       -3    1    3    3    0  502  0.35855099943E+03  0.39304329058E+02  0.14459366818E+04  0.14902471431E+04  0.10100000352E+00 0.  1.
</event>
<event>
 5   0  0.2783875E-07  0.3217700E+04  0.7818609E-02  0.8184158E-01
        3   -1    0    0  501    0  0.00000000000E+00  0.00000000000E+00  0.14301760167E+04  0.14301760202E+04  0.10100000352E+00 0. -1.
       -3   -1    0    0    0  501  0.00000000000E+00  0.00000000000E+00 -0.18098454509E+04  0.18098454537E+04  0.10100000352E+00 0.  1.
    10030    2    1    2    0    0  0.00000000000E+00  0.00000000000E+00 -0.37966943422E+03  0.32400214739E+04  0.32176995311E+04 0.  0.
        2    1    3    3  502    0  0.10655107428E+04  0.11278706919E+04 -0.61821773272E+03  0.16702091503E+04  0.25500000920E-02 0.  1.
       -2    1    3    3    0  502 -0.10655107428E+04 -0.11278706919E+04  0.23854829850E+03  0.15698123236E+04  0.25500000920E-02 0. -1.
</event>
<event>
 5   0  0.3075756E-07  0.3202960E+04  0.7818609E-02  0.8188036E-01
       -1   -1    0    0    0  501  0.00000000000E+00  0.00000000000E+00  0.11077506132E+04  0.11077506132E+04  0.50400001928E-02 0. -1.
        1   -1    0    0  501    0  0.00000000000E+00  0.00000000000E+00 -0.23152674943E+04  0.23152674943E+04  0.50400001928E-02 0.  1.
    10030    2    1    2    0    0  0.00000000000E+00  0.00000000000E+00 -0.12075168811E+04  0.34230181075E+04  0.32029604972E+04 0.  0.
        5    1    3    3  502    0 -0.30160825715E+03 -0.86729086684E+03 -0.20059849705E+04  0.22061638154E+04  0.46999998093E+01 0.  1.
       -5    1    3    3    0  502  0.30160825715E+03  0.86729086684E+03  0.79846808940E+03  0.12168542921E+04  0.46999998093E+01 0. -1.
</event>
<event>
 5   0  0.8195618E-07  0.3200915E+04  0.7818609E-02  0.8188575E-01
        2   -1    0    0  501    0  0.00000000000E+00  0.00000000000E+00  0.21151423217E+04  0.21151423217E+04  0.25500000920E-02 0. -1.
       -2   -1    0    0    0  501  0.00000000000E+00  0.00000000000E+00 -0.12110129031E+04  0.12110129032E+04  0.25500000920E-02 0.  1.
    10030    2    1    2    0    0  0.00000000000E+00  0.00000000000E+00  0.90412941859E+03  0.33261552249E+04  0.32009152714E+04 0.  0.
        1    1    3    3  502    0 -0.15057710203E+04  0.43395051461E+03  0.11406066221E+03  0.15711999393E+04  0.50400001928E-02 0. -1.
       -1    1    3    3    0  502  0.15057710203E+04 -0.43395051461E+03  0.79006875638E+03  0.17549552856E+04  0.50400001928E-02 0.  1.
</event>
<event>
 5   0  0.2891204E-07  0.3206371E+04  0.7818609E-02  0.8187137E-01
       -1   -1    0    0    0  501  0.00000000000E+00  0.00000000000E+00  0.20266203909E+04  0.20266203909E+04  0.50400001928E-02 0. -1.
        1   -1    0    0  501    0  0.00000000000E+00  0.00000000000E+00 -0.12682215143E+04  0.12682215143E+04  0.50400001928E-02 0.  1.
    10030    2    1    2    0    0  0.00000000000E+00  0.00000000000E+00  0.75839887665E+03  0.32948419052E+04  0.32063708963E+04 0.  0.
        4    1    3    3  502    0  0.10544490216E+04 -0.11431788116E+04  0.77914467305E+03  0.17394793959E+04  0.12699999809E+01 0. -1.
       -4    1    3    3    0  502 -0.10544490216E+04  0.11431788116E+04 -0.20745796402E+02  0.15553625093E+04  0.12699999809E+01 0.  1.
</event>
<event>
 5   0  0.2783875E-07  0.3198125E+04  0.7818609E-02  0.8189313E-01
        1   -1    0    0  501    0  0.00000000000E+00  0.00000000000E+00  0.26018749309E+04  0.26018749309E+04  0.50400001928E-02 0. -1.
       -1   -1    0    0    0  501  0.00000000000E+00  0.00000000000E+00 -0.98275307487E+03  0.98275307489E+03  0.50400001928E-02 0.  1.
    10030    2    1    2    0    0  0.00000000000E+00  0.00000000000E+00  0.16191218560E+04  0.35846280058E+04  0.31981248186E+04 0.  0.
        2    1    3    3  502    0  0.95844395076E+03 -0.98640590666E+03 -0.10473449899E+03  0.13793406884E+04  0.25500000920E-02 0.  1.
       -2    1    3    3    0  502 -0.95844395076E+03  0.98640590666E+03  0.17238563550E+04  0.22052873174E+04  0.25500000920E-02 0. -1.
</event>
<event>
 5   0  0.8335929E-07  0.3198798E+04  0.7818609E-02  0.8189135E-01
       -2   -1    0    0    0  501  0.00000000000E+00  0.00000000000E+00  0.23006443198E+04  0.23006443198E+04  0.25500000920E-02 0.  1.
        2   -1    0    0  501    0  0.00000000000E+00  0.00000000000E+00 -0.11118958395E+04  0.11118958395E+04  0.25500000920E-02 0. -1.
    10030    2    1    2    0    0  0.00000000000E+00  0.00000000000E+00  0.11887484803E+04  0.34125401593E+04  0.31987978037E+04 0.  0.
        4    1    3    3  502    0 -0.10180094839E+04  0.48417065584E+03 -0.61603622933E+03  0.12846270984E+04  0.12699999809E+01 0. -1.
       -4    1    3    3    0  502  0.10180094839E+04 -0.48417065584E+03  0.18047847097E+04  0.21279130608E+04  0.12699999809E+01 0.  1.
</event>
<event>
 5   0  0.8838951E-07  0.3189678E+04  0.7818609E-02  0.8191549E-01
        2   -1    0    0  501    0  0.00000000000E+00  0.00000000000E+00  0.15747356009E+04  0.15747356009E+04  0.25500000920E-02 0. -1.
       -2   -1    0    0    0  501  0.00000000000E+00  0.00000000000E+00 -0.16151986983E+04  0.16151986983E+04  0.25500000920E-02 0.  1.
    10030    2    1    2    0    0  0.00000000000E+00  0.00000000000E+00 -0.40463097395E+02  0.31899342992E+04  0.31896776594E+04 0.  0.
        2    1    3    3  502    0  0.92410155210E+03  0.12856452196E+04 -0.21172432530E+03  0.15973961623E+04  0.25500000920E-02 0. -1.
       -2    1    3    3    0  502 -0.92410155210E+03 -0.12856452196E+04  0.17126122790E+03  0.15925381369E+04  0.25500000920E-02 0.  1.
</event>
<event>
 5   0  0.8488469E-07  0.3195018E+04  0.7818609E-02  0.8190134E-01
       -2   -1    0    0    0  501  0.00000000000E+00  0.00000000000E+00  0.12893210538E+04  0.12893210538E+04  0.25500000920E-02 0.  1.
        2   -1    0    0  501    0  0.00000000000E+00  0.00000000000E+00 -0.19793633822E+04  0.19793633823E+04  0.25500000920E-02 0. -1.
    10030    2    1    2    0    0  0.00000000000E+00  0.00000000000E+00 -0.69004232844E+03  0.32686844361E+04  0.31950179229E+04 0.  0.
        3    1    3    3  502    0  0.60340807084E+03 -0.13191898591E+03 -0.18522621255E+04  0.19525314109E+04  0.10100000352E+00 0. -1.
       -3    1    3    3    0  502 -0.60340807084E+03  0.13191898591E+03  0.11622197970E+04  0.13161530252E+04  0.10100000352E+00 0.  1.
</event>
<event>
 5   0  0.2783875E-07  0.3188137E+04  0.7818609E-02  0.8191957E-01
        1   -1    0    0  501    0  0.00000000000E+00  0.00000000000E+00  0.19486009382E+04  0.19486009382E+04  0.50400001928E-02 0.  1.
       -1   -1    0    0    0  501  0.00000000000E+00  0.00000000000E+00 -0.13040400477E+04  0.13040400477E+04  0.50400001928E-02 0. -1.
    10030    2    1    2    0    0  0.00000000000E+00  0.00000000000E+00  0.64456089047E+03  0.32526409859E+04  0.31881365469E+04 0.  0.
        2    1    3    3  502    0 -0.48565309164E+03 -0.88227133285E+03  0.15829148585E+04  0.18761346112E+04  0.25500000920E-02 0.  1.
       -2    1    3    3    0  502  0.48565309164E+03  0.88227133285E+03 -0.93835396806E+03  0.13765063747E+04  0.25500000920E-02 0. -1.
</event>
<event>
 5   0  0.8335929E-07  0.3197252E+04  0.7818609E-02  0.8189543E-01
       -2   -1    0    0    0  501  0.00000000000E+00  0.00000000000E+00  0.14857150217E+04  0.14857150217E+04  0.25500000920E-02 0.  1.
        2   -1    0    0  501    0  0.00000000000E+00  0.00000000000E+00 -0.17201177008E+04  0.17201177008E+04  0.25500000920E-02 0. -1.
    10030    2    1    2    0    0  0.00000000000E+00  0.00000000000E+00 -0.23440267906E+03  0.32058327225E+04  0.31972517619E+04 0.  0.
        4    1    3    3  502    0  0.10029474911E+04 -0.27823510945E+01  0.11310058314E+04  0.15116504936E+04  0.12699999809E+01 0.  1.
       -4    1    3    3    0  502 -0.10029474911E+04  0.27823510945E+01 -0.13654085104E+04  0.16941822289E+04  0.12699999809E+01 0. -1.
</event>
<event>
 5   0  0.8488469E-07  0.3226431E+04  0.7818609E-02  0.8181872E-01
       -2   -1    0    0    0  501  0.00000000000E+00  0.00000000000E+00  0.97334536049E+03  0.97334536049E+03  0.25500000920E-02 0.  1.
        2   -1    0    0  501    0  0.00000000000E+00  0.00000000000E+00 -0.26737313060E+04  0.26737313060E+04  0.25500000920E-02 0. -1.
    10030    2    1    2    0    0  0.00000000000E+00  0.00000000000E+00 -0.17003859455E+04  0.36470766665E+04  0.32264308217E+04 0.  0.
        3    1    3    3  502    0  0.31711048484E+03 -0.13415826413E+04 -0.17973237099E+04  0.22651215357E+04  0.10100000352E+00 0. -1.
       -3    1    3    3    0  502 -0.31711048484E+03  0.13415826413E+04  0.96937764419E+02  0.13819551308E+04  0.10100000352E+00 0.  1.
</event>
<event>
 5   0  0.2997105E-07  0.3201817E+04  0.7818609E-02  0.8188337E-01
        1   -1    0    0  501    0  0.00000000000E+00  0.00000000000E+00  0.21003147252E+04  0.21003147252E+04  0.50400001928E-02 0. -1.
       -1   -1    0    0    0  501  0.00000000000E+00  0.00000000000E+00 -0.12202496241E+04  0.12202496241E+04  0.50400001928E-02 0.  1.
    10030    2    1    2    0    0  0.00000000000E+00  0.00000000000E+00  0.88006510109E+03  0.33205643493E+04  0.32018171427E+04 0.  0.
        3    1    3    3  502    0  0.53223930301E+03 -0.26542505460E+03 -0.11014224080E+04  0.12517429713E+04  0.10100000352E+00 0.  1.
       -3    1    3    3    0  502 -0.53223930301E+03  0.26542505460E+03  0.19814875090E+04  0.20688213780E+04  0.10100000352E+00 0. -1.
</event>
<event>
 5   0  0.8195618E-07  0.3225137E+04  0.7818609E-02  0.8182210E-01
       -2   -1    0    0    0  501  0.00000000000E+00  0.00000000000E+00  0.18561827430E+04  0.18561827430E+04  0.25500000920E-02 0.  1.
        2   -1    0    0  501    0  0.00000000000E+00  0.00000000000E+00 -0.14009272050E+04  0.14009272050E+04  0.25500000920E-02 0. -1.
    10030    2    1    2    0    0  0.00000000000E+00  0.00000000000E+00  0.45525553803E+03  0.32571099481E+04  0.32251368357E+04 0.  0.
        1    1    3    3  502    0  0.15749278012E+04 -0.30728250864E+03  0.66178023215E+02  0.16059886830E+04  0.50400001928E-02 0. -1.
       -1    1    3    3    0  502 -0.15749278012E+04  0.30728250864E+03  0.38907751482E+03  0.16511212650E+04  0.50400001928E-02 0.  1.
</event>
<event>
 5   0  0.2783875E-07  0.3185810E+04  0.7818609E-02  0.8192575E-01
        1   -1    0    0  501    0  0.00000000000E+00  0.00000000000E+00  0.17507798845E+04  0.17507798845E+04  0.50400001928E-02 0.  1.
       -1   -1    0    0    0  501  0.00000000000E+00  0.00000000000E+00 -0.14492665893E+04  0.14492665893E+04  0.50400001928E-02 0. -1.
    10030    2    1    2    0    0  0.00000000000E+00  0.00000000000E+00  0.30151329514E+03  0.32000464738E+04  0.31858102843E+04 0.  0.
        2    1    3    3  502    0  0.87466682692E+03  0.12979021243E+04  0.44831479065E+03  0.16280596223E+04  0.25500000920E-02 0.  1.
       -2    1    3    3    0  502 -0.87466682692E+03 -0.12979021243E+04 -0.14680149552E+03  0.15719868515E+04  0.25500000920E-02 0. -1.
</event>
<event>
 5   0  0.3013888E-07  0.3199901E+04  0.7818609E-02  0.8188843E-01
        1   -1    0    0  501    0  0.00000000000E+00  0.00000000000E+00  0.30707762122E+04  0.30707762122E+04  0.50400001928E-02 0.  1.
       -1   -1    0    0    0  501  0.00000000000E+00  0.00000000000E+00 -0.83361362188E+03  0.83361362189E+03  0.50400001928E-02 0. -1.
    10030    2    1    2    0    0  0.00000000000E+00  0.00000000000E+00  0.22371625903E+04  0.39043898341E+04  0.31999005486E+04 0.  0.
        1    1    3    3  502    0 -0.34542587457E+03  0.11501655346E+04  0.24085164305E+04  0.26913103105E+04  0.50400001928E-02 0.  1.
       -1    1    3    3    0  502  0.34542587457E+03 -0.11501655346E+04 -0.17135384017E+03  0.12130795235E+04  0.50400001928E-02 0. -1.
</event>
<event>
 5   0  0.8335929E-07  0.3243775E+04  0.7818609E-02  0.8177351E-01
        2   -1    0    0  501    0  0.00000000000E+00  0.00000000000E+00  0.28407253862E+04  0.28407253862E+04  0.25500000920E-02 0. -1.
       -2   -1    0    0    0  501  0.00000000000E+00  0.00000000000E+00 -0.92600232160E+03  0.92600232160E+03  0.25500000920E-02 0.  1.
    10030    2    1    2    0    0  0.00000000000E+00  0.00000000000E+00  0.19147230646E+04  0.37667277078E+04  0.32437745314E+04 0.  0.
        4    1    3    3  502    0  0.93179121844E+03  0.12926931265E+04  0.13080920748E+04  0.20616490689E+04  0.12699999809E+01 0. -1.
       -4    1    3    3    0  502 -0.93179121844E+03 -0.12926931265E+04  0.60663098976E+03  0.17050786389E+04  0.12699999809E+01 0.  1.
</event>
<event>
 5   0  0.8335929E-07  0.3183459E+04  0.7818609E-02  0.8193199E-01
        2   -1    0    0  501    0  0.00000000000E+00  0.00000000000E+00  0.14742249757E+04  0.14742249757E+04  0.25500000920E-02 0.  1.
       -2   -1    0    0    0  501  0.00000000000E+00  0.00000000000E+00 -0.17186001072E+04  0.17186001072E+04  0.25500000920E-02 0. -1.
    10030    2    1    2    0    0  0.00000000000E+00  0.00000000000E+00 -0.24437513151E+03  0.31928250829E+04  0.31834592513E+04 0.  0.
        4    1    3    3  502    0 -0.14205875675E+04 -0.49455458234E+03 -0.64424593181E+03  0.16363702837E+04  0.12699999809E+01 0.  1.
       -4    1    3    3    0  502  0.14205875675E+04  0.49455458234E+03  0.39987080030E+03  0.15564547991E+04  0.12699999809E+01 0. -1.
</event>
<event>
 5   0  0.8335929E-07  0.3197875E+04  0.7818609E-02  0.8189379E-01
       -2   -1    0    0    0  501  0.00000000000E+00  0.00000000000E+00  0.11874880352E+04  0.11874880352E+04  0.25500000920E-02 0. -1.
        2   -1    0    0  501    0  0.00000000000E+00  0.00000000000E+00 -0.21529483081E+04  0.21529483081E+04  0.25500000920E-02 0.  1.
    10030    2    1    2    0    0  0.00000000000E+00  0.00000000000E+00 -0.96546027293E+03  0.33404363433E+04  0.31978745168E+04 0.  0.
        4    1    3    3  502    0  0.63655782994E+03 -0.98512920900E+03 -0.16178737011E+04  0.19982998661E+04  0.12699999809E+01 0.  1.
       -4    1    3    3    0  502 -0.63655782994E+03  0.98512920900E+03  0.65241342815E+03  0.13421364772E+04  0.12699999809E+01 0. -1.
</event>
<event>
 5   0  0.3013888E-07  0.3193436E+04  0.7818609E-02  0.8190553E-01
       -1   -1    0    0    0  501  0.00000000000E+00  0.00000000000E+00  0.18098254183E+04  0.18098254183E+04  0.50400001928E-02 0. -1.
        1   -1    0    0  501    0  0.00000000000E+00  0.00000000000E+00 -0.14087039784E+04  0.14087039784E+04  0.50400001928E-02 0.  1.
    10030    2    1    2    0    0  0.00000000000E+00  0.00000000000E+00  0.40112143986E+03  0.32185293967E+04  0.31934359346E+04 0.  0.
        1    1    3    3  502    0  0.79117279321E+03 -0.82389751724E+03 -0.92388831063E+03  0.14691259708E+04  0.50400001928E-02 0.  1.
       -1    1    3    3    0  502 -0.79117279321E+03  0.82389751724E+03  0.13250097505E+04  0.17494034259E+04  0.50400001928E-02 0. -1.
</event>
<event>
 5   0  0.8488469E-07  0.3210656E+04  0.7818609E-02  0.8186009E-01
        2   -1    0    0  501    0  0.00000000000E+00  0.00000000000E+00  0.24228764161E+04  0.24228764161E+04  0.25500000920E-02 0.  1.
       -2   -1    0    0    0  501  0.00000000000E+00  0.00000000000E+00 -0.10636442836E+04  0.10636442836E+04  0.25500000920E-02 0. -1.
    10030    2    1    2    0    0  0.00000000000E+00  0.00000000000E+00  0.13592321324E+04  0.34865206997E+04  0.32106564126E+04 0.  0.
        3    1    3    3  502    0  0.19875521745E+02  0.62668444887E+03 -0.92517974402E+03  0.11176251625E+04  0.10100000352E+00 0. -1.
       -3    1    3    3    0  502 -0.19875521745E+02 -0.62668444887E+03  0.22844118765E+04  0.23688955372E+04  0.10100000352E+00 0.  1.
</event>
<event>
 5   0  0.8195618E-07  0.3180192E+04  0.7818609E-02  0.8194068E-01
        2   -1    0    0  501    0  0.00000000000E+00  0.00000000000E+00  0.17510441383E+04  0.17510441383E+04  0.25500000920E-02 0.  1.
       -2   -1    0    0    0  501  0.00000000000E+00  0.00000000000E+00 -0.14439413097E+04  0.14439413097E+04  0.25500000920E-02 0. -1.
    10030    2    1    2    0    0  0.00000000000E+00  0.00000000000E+00  0.30710282860E+03  0.31949854481E+04  0.31801917971E+04 0.  0.
        1    1    3    3  502    0  0.11243831636E+04 -0.13265808421E+03  0.12752438342E+04  0.17053100899E+04  0.50400001928E-02 0.  1.
       -1    1    3    3    0  502 -0.11243831636E+04  0.13265808421E+03 -0.96814100561E+03  0.14896753582E+04  0.50400001928E-02 0. -1.
</event>
<event>
 5   0  0.2783875E-07  0.3221707E+04  0.7818609E-02  0.8183108E-01
        1   -1    0    0  501    0  0.00000000000E+00  0.00000000000E+00  0.23740225787E+04  0.23740225787E+04  0.50400001928E-02 0.  1.
       -1   -1    0    0    0  501  0.00000000000E+00  0.00000000000E+00 -0.10930178854E+04  0.10930178854E+04  0.50400001928E-02 0. -1.
    10030    2    1    2    0    0  0.00000000000E+00  0.00000000000E+00  0.12810046934E+04  0.34670404641E+04  0.32217070872E+04 0.  0.
        2    1    3    3  502    0 -0.40046647841E+03 -0.47792996460E+03 -0.95788262939E+03  0.11429477604E+04  0.25500000920E-02 0. -1.
       -2    1    3    3    0  502  0.40046647841E+03  0.47792996460E+03  0.22388873227E+04  0.23240927037E+04  0.25500000920E-02 0.  1.
</event>
<event>
 5   0  0.3013888E-07  0.3189194E+04  0.7818609E-02  0.8191677E-01
       -1   -1    0    0    0  501  0.00000000000E+00  0.00000000000E+00  0.97951935720E+03  0.97951935721E+03  0.50400001928E-02 0.  1.
        1   -1    0    0  501    0  0.00000000000E+00  0.00000000000E+00 -0.25959055194E+04  0.25959055194E+04  0.50400001928E-02 0. -1.
    10030    2    1    2    0    0  0.00000000000E+00  0.00000000000E+00 -0.16163861622E+04  0.35754248766E+04  0.31891940711E+04 0.  0.
        1    1    3    3  502    0  0.14787463350E+04  0.56148287950E+03 -0.10346064393E+04  0.18900699012E+04  0.50400001928E-02 0. -1.
       -1    1    3    3    0  502 -0.14787463350E+04 -0.56148287950E+03 -0.58177972289E+03  0.16853549754E+04  0.50400001928E-02 0.  1.
</event>
<event>
 5   0  0.2783875E-07  0.3203797E+04  0.7818609E-02  0.8187815E-01
       -1   -1    0    0    0  501  0.00000000000E+00  0.00000000000E+00  0.12355386061E+04  0.12355386061E+04  0.50400001928E-02 0. -1.
        1   -1    0    0  501    0  0.00000000000E+00  0.00000000000E+00 -0.20768909552E+04  0.20768909552E+04  0.50400001928E-02 0.  1.
    10030    2    1    2    0    0  0.00000000000E+00  0.00000000000E+00 -0.84135234904E+03  0.33124295613E+04  0.32037970946E+04 0.  0.
        2    1    3    3  502    0 -0.33277817786E+03 -0.12363281150E+03 -0.20357085768E+04  0.20664306902E+04  0.25500000920E-02 0.  1.
       -2    1    3    3    0  502  0.33277817786E+03  0.12363281150E+03  0.11943562278E+04  0.12459988710E+04  0.25500000920E-02 0. -1.
</event>
<event>
 5   0  0.8488469E-07  0.3182372E+04  0.7818609E-02  0.8193488E-01
       -2   -1    0    0    0  501  0.00000000000E+00  0.00000000000E+00  0.11385284351E+04  0.11385284351E+04  0.25500000920E-02 0. -1.
        2   -1    0    0  501    0  0.00000000000E+00  0.00000000000E+00 -0.22238115166E+04  0.22238115166E+04  0.25500000920E-02 0.  1.
    10030    2    1    2    0    0  0.00000000000E+00  0.00000000000E+00 -0.10852830816E+04  0.33623399517E+04  0.31823718487E+04 0.  0.
        3    1    3    3  502    0 -0.12476872312E+03  0.13903018572E+04  0.26433574127E+03  0.14206969707E+04  0.10100000352E+00 0. -1.
       -3    1    3    3    0  502  0.12476872312E+03 -0.13903018572E+04 -0.13496188228E+04  0.19416429809E+04  0.10100000352E+00 0.  1.
</event>
<event>
 5   0  0.2783875E-07  0.3205787E+04  0.7818609E-02  0.8187290E-01
       -1   -1    0    0    0  501  0.00000000000E+00  0.00000000000E+00  0.11423845613E+04  0.11423845613E+04  0.50400001928E-02 0.  1.
        1   -1    0    0  501    0  0.00000000000E+00  0.00000000000E+00 -0.22490393551E+04  0.22490393551E+04  0.50400001928E-02 0. -1.
    10030    2    1    2    0    0  0.00000000000E+00  0.00000000000E+00 -0.11066547938E+04  0.33914239164E+04  0.32057871651E+04 0.  0.
        2    1    3    3  502    0  0.15404408206E+04 -0.38869499444E+03 -0.32834836577E+03  0.16222990999E+04  0.25500000920E-02 0.  1.
       -2    1    3    3    0  502 -0.15404408206E+04  0.38869499444E+03 -0.77830642803E+03  0.17691248165E+04  0.25500000920E-02 0. -1.
</event>
<event>
 5   0  0.8335929E-07  0.3215814E+04  0.7818609E-02  0.8184653E-01
        2   -1    0    0  501    0  0.00000000000E+00  0.00000000000E+00  0.18695795360E+04  0.18695795360E+04  0.25500000920E-02 0. -1.
       -2   -1    0    0    0  501  0.00000000000E+00  0.00000000000E+00 -0.13828587473E+04  0.13828587473E+04  0.25500000920E-02 0.  1.
    10030    2    1    2    0    0  0.00000000000E+00  0.00000000000E+00  0.48672078868E+03  0.32524382833E+04  0.32158136856E+04 0.  0.
        4    1    3    3  502    0 -0.44522292418E+03 -0.11477264719E+04  0.12894823797E+04  0.17827691738E+04  0.12699999809E+01 0. -1.
       -4    1    3    3    0  502  0.44522292418E+03  0.11477264719E+04 -0.80276159101E+03  0.14696691095E+04  0.12699999809E+01 0.  1.
</event>
<event>
 5   0  0.2997105E-07  0.3201120E+04  0.7818609E-02  0.8188521E-01
       -1   -1    0    0    0  501  0.00000000000E+00  0.00000000000E+00  0.12766077518E+04  0.12766077518E+04  0.50400001928E-02 0.  1.
        1   -1    0    0  501    0  0.00000000000E+00  0.00000000000E+00 -0.20067189355E+04  0.20067189355E+04  0.50400001928E-02 0. -1.
    10030    2    1    2    0    0  0.00000000000E+00  0.00000000000E+00 -0.73011118376E+03  0.32833266873E+04  0.32011203968E+04 0.  0.
        3    1    3    3  502    0  0.48592331490E+03 -0.11719958286E+04  0.63575695900E+03  0.14191133187E+04  0.10100000352E+00 0.  1.
       -3    1    3    3    0  502 -0.48592331490E+03  0.11719958286E+04 -0.13658681428E+04  0.18642133686E+04  0.10100000352E+00 0. -1.
</event>
<event>
 5   0  0.3013888E-07  0.3212364E+04  0.7818609E-02  0.8185560E-01
        1   -1    0    0  501    0  0.00000000000E+00  0.00000000000E+00  0.22565407137E+04  0.22565407137E+04  0.50400001928E-02 0.  1.
       -1   -1    0    0    0  501  0.00000000000E+00  0.00000000000E+00 -0.11432634177E+04  0.11432634177E+04  0.50400001928E-02 0. -1.
    10030    2    1    2    0    0  0.00000000000E+00  0.00000000000E+00  0.11132772960E+04  0.33998041314E+04  0.32123638950E+04 0.  0.
        1    1    3    3  502    0 -0.64516403453E+03 -0.90416110707E+03  0.17845415731E+04  0.21019830078E+04  0.50400001928E-02 0.  1.
       -1    1    3    3    0  502  0.64516403453E+03  0.90416110707E+03 -0.67126427709E+03  0.12978211235E+04  0.50400001928E-02 0. -1.
</event>
<event>
 5   0  0.8335929E-07  0.3172569E+04  0.7818609E-02  0.8196099E-01
        2   -1    0    0  501    0  0.00000000000E+00  0.00000000000E+00  0.22678421540E+04  0.22678421540E+04  0.25500000920E-02 0.  1.
       -2   -1    0    0    0  501  0.00000000000E+00  0.00000000000E+00 -0.11095564906E+04  0.11095564906E+04  0.25500000920E-02 0. -1.
    10030    2    1    2    0    0  0.00000000000E+00  0.00000000000E+00  0.11582856633E+04  0.33773986446E+04  0.31725692942E+04 0.  0.
        4    1    3    3  502    0 -0.36581933322E+03 -0.15375575566E+04  0.43477642794E+03  0.16391885736E+04  0.12699999809E+01 0.  1.
       -4    1    3    3    0  502  0.36581933322E+03  0.15375575566E+04  0.72350923540E+03  0.17382100711E+04  0.12699999809E+01 0. -1.
</event>
<event>
 5   0  0.8802800E-07  0.3228209E+04  0.7818609E-02  0.8181407E-01
        2   -1    0    0  501    0  0.00000000000E+00  0.00000000000E+00  0.21355078600E+04  0.21355078600E+04  0.25500000920E-02 0. -1.
       -2   -1    0    0    0  501  0.00000000000E+00  0.00000000000E+00 -0.12200066361E+04  0.12200066361E+04  0.25500000920E-02 0.  1.
    10030    2    1    2    0    0  0.00000000000E+00  0.00000000000E+00  0.91550122387E+03  0.33555144961E+04  0.32282092625E+04 0.  0.
        5    1    3    3  502    0  0.45472656124E+03 -0.35721124795E+03  0.20241404049E+04  0.21051229394E+04  0.46999998093E+01 0. -1.
       -5    1    3    3    0  502 -0.45472656124E+03  0.35721124795E+03 -0.11086391811E+04  0.12503915566E+04  0.46999998093E+01 0.  1.
</event>
<event>
 5   0  0.2783875E-07  0.3197360E+04  0.7818609E-02  0.8189515E-01
       -1   -1    0    0    0  501  0.00000000000E+00  0.00000000000E+00  0.15830258448E+04  0.15830258448E+04  0.50400001928E-02 0.  1.
        1   -1    0    0  501    0  0.00000000000E+00  0.00000000000E+00 -0.16144890779E+04  0.16144890779E+04  0.50400001928E-02 0. -1.
    10030    2    1    2    0    0  0.00000000000E+00  0.00000000000E+00 -0.31463233136E+02  0.31975149227E+04  0.31973601214E+04 0.  0.
        2    1    3    3  502    0 -0.43009775778E+03  0.11420451649E+04 -0.10485094105E+04  0.16089198935E+04  0.25500000920E-02 0. -1.
       -2    1    3    3    0  502  0.43009775778E+03 -0.11420451649E+04  0.10170461774E+04  0.15885950292E+04  0.25500000920E-02 0.  1.
</event>
<event>
 5   0  0.2783875E-07  0.3175772E+04  0.7818609E-02  0.8195245E-01
       -1   -1    0    0    0  501  0.00000000000E+00  0.00000000000E+00  0.13371765480E+04  0.13371765480E+04  0.50400001928E-02 0. -1.
        1   -1    0    0  501    0  0.00000000000E+00  0.00000000000E+00 -0.18856009261E+04  0.18856009261E+04  0.50400001928E-02 0.  1.
    10030    2    1    2    0    0  0.00000000000E+00  0.00000000000E+00 -0.54842437810E+03  0.32227774740E+04  0.31757716147E+04 0.  0.
        2    1    3    3  502    0 -0.56803439885E+03  0.53699463039E+02  0.12295559238E+04  0.13554904944E+04  0.25500000920E-02 0. -1.
       -2    1    3    3    0  502  0.56803439885E+03 -0.53699463039E+02 -0.17779803019E+04  0.18672869797E+04  0.25500000920E-02 0.  1.
</event>
<event>
 5   0  0.3013888E-07  0.3226737E+04  0.7818609E-02  0.8181791E-01
       -1   -1    0    0    0  501  0.00000000000E+00  0.00000000000E+00  0.21437759713E+04  0.21437759713E+04  0.50400001928E-02 0.  1.
        1   -1    0    0  501    0  0.00000000000E+00  0.00000000000E+00 -0.12141933599E+04  0.12141933599E+04  0.50400001928E-02 0. -1.
    10030    2    1    2    0    0  0.00000000000E+00  0.00000000000E+00  0.92958261141E+03  0.33579693313E+04  0.32267373922E+04 0.  0.
        1    1    3    3  502    0 -0.41101348395E+03  0.57357588717E+03 -0.10450906246E+04  0.12610058668E+04  0.50400001928E-02 0. -1.
       -1    1    3    3    0  502  0.41101348395E+03 -0.57357588717E+03  0.19746732360E+04  0.20969634645E+04  0.50400001928E-02 0.  1.
</event>
<event>
 5   0  0.3075756E-07  0.3217466E+04  0.7818609E-02  0.8184220E-01
        1   -1    0    0  501    0  0.00000000000E+00  0.00000000000E+00  0.22525630383E+04  0.22525630383E+04  0.50400001928E-02 0. -1.
       -1   -1    0    0    0  501  0.00000000000E+00  0.00000000000E+00 -0.11489230655E+04  0.11489230655E+04  0.50400001928E-02 0.  1.
    10030    2    1    2    0    0  0.00000000000E+00  0.00000000000E+00  0.11036399728E+04  0.34014861038E+04  0.32174658544E+04 0.  0.
        5    1    3    3  502    0  0.54690432570E+03 -0.15057025030E+04  0.39588771159E+03  0.16501495506E+04  0.46999998093E+01 0. -1.
       -5    1    3    3    0  502 -0.54690432570E+03  0.15057025030E+04  0.70775226122E+03  0.17513365532E+04  0.46999998093E+01 0.  1.
</event>
<event>
 5   0  0.2997105E-07  0.3203602E+04  0.7818609E-02  0.8187867E-01
       -1   -1    0    0    0  501  0.00000000000E+00  0.00000000000E+00  0.15084725489E+04  0.15084725489E+04  0.50400001928E-02 0.  1.
        1   -1    0    0  501    0  0.00000000000E+00  0.00000000000E+00 -0.17009033767E+04  0.17009033767E+04  0.50400001928E-02 0. -1.
    10030    2    1    2    0    0  0.00000000000E+00  0.00000000000E+00 -0.19243082776E+03  0.32093759256E+04  0.32036017555E+04 0.  0.
        3    1    3    3  502    0 -0.68640525757E+03  0.74886115635E+03  0.11444920179E+04  0.15302964413E+04  0.10100000352E+00 0.  1.
       -3    1    3    3    0  502  0.68640525757E+03 -0.74886115635E+03 -0.13369228456E+04  0.16790794843E+04  0.10100000352E+00 0. -1.
</event>
<event>
 5   0  0.8195618E-07  0.3202074E+04  0.7818609E-02  0.8188270E-01
       -2   -1    0    0    0  501  0.00000000000E+00  0.00000000000E+00  0.12187282170E+04  0.12187282170E+04  0.25500000920E-02 0.  1.
        2   -1    0    0  501    0  0.00000000000E+00  0.00000000000E+00 -0.21032739901E+04  0.21032739901E+04  0.25500000920E-02 0. -1.
    10030    2    1    2    0    0  0.00000000000E+00  0.00000000000E+00 -0.88454577302E+03  0.33220022071E+04  0.32020739278E+04 0.  0.
        1    1    3    3  502    0 -0.36677958404E+03 -0.80392479986E+03  0.94283297629E+03  0.12921905310E+04  0.50400001928E-02 0.  1.
       -1    1    3    3    0  502  0.36677958404E+03  0.80392479986E+03 -0.18273787493E+04  0.20298116761E+04  0.50400001928E-02 0. -1.
</event>
<event>
 5   0  0.3075756E-07  0.3194293E+04  0.7818609E-02  0.8190326E-01
        1   -1    0    0  501    0  0.00000000000E+00  0.00000000000E+00  0.13355349872E+04  0.13355349872E+04  0.50400001928E-02 0. -1.
       -1   -1    0    0    0  501  0.00000000000E+00  0.00000000000E+00 -0.19100036702E+04  0.19100036702E+04  0.50400001928E-02 0.  1.
    10030    2    1    2    0    0  0.00000000000E+00  0.00000000000E+00 -0.57446868298E+03  0.32455386573E+04  0.31942928652E+04 0.  0.
        5    1    3    3  502    0 -0.76685971877E+03 -0.92492048723E+03 -0.13564006721E+04  0.18120145168E+04  0.46999998093E+01 0.  1.
       -5    1    3    3    0  502  0.76685971877E+03  0.92492048723E+03  0.78193198908E+03  0.14335241405E+04  0.46999998093E+01 0. -1.
</event>
<event>
 5   0  0.3013888E-07  0.3197237E+04  0.7818609E-02  0.8189547E-01
        1   -1    0    0  501    0  0.00000000000E+00  0.00000000000E+00  0.22152968648E+04  0.22152968648E+04  0.50400001928E-02 0. -1.
       -1   -1    0    0    0  501  0.00000000000E+00  0.00000000000E+00 -0.11536066471E+04  0.11536066471E+04  0.50400001928E-02 0.  1.
    10030    2    1    2    0    0  0.00000000000E+00  0.00000000000E+00  0.10616902177E+04  0.33689035120E+04  0.31972370501E+04 0.  0.
        1    1    3    3  502    0  0.24338093126E+03 -0.82250118529E+03  0.19522905177E+04  0.21324119544E+04  0.50400001928E-02 0. -1.
       -1    1    3    3    0  502 -0.24338093126E+03  0.82250118529E+03 -0.89060030002E+03  0.12364915576E+04  0.50400001928E-02 0.  1.
</event>
<event>
 5   0  0.3013888E-07  0.3175078E+04  0.7818609E-02  0.8195430E-01
        1   -1    0    0  501    0  0.00000000000E+00  0.00000000000E+00  0.14163616557E+04  0.14163616557E+04  0.50400001928E-02 0.  1.
       -1   -1    0    0    0  501  0.00000000000E+00  0.00000000000E+00 -0.17794041445E+04  0.17794041445E+04  0.50400001928E-02 0. -1.
    10030    2    1    2    0    0  0.00000000000E+00  0.00000000000E+00 -0.36304248879E+03  0.31957658002E+04  0.31750778259E+04 0.  0.
        1    1    3    3  502    0 -0.31774683412E+03  0.92489369456E+03  0.10771822835E+04  0.14548928032E+04  0.50400001928E-02 0.  1.
       -1    1    3    3    0  502  0.31774683412E+03 -0.92489369456E+03 -0.14402247723E+04  0.17408729970E+04  0.50400001928E-02 0. -1.
</event>
<event>
 5   0  0.2891204E-07  0.3091893E+04  0.7818609E-02  0.8217966E-01
        1   -1    0    0  501    0  0.00000000000E+00  0.00000000000E+00  0.13700307003E+04  0.13700307003E+04  0.50400001928E-02 0. -1.
       -1   -1    0    0    0  501  0.00000000000E+00  0.00000000000E+00 -0.17444504604E+04  0.17444504604E+04  0.50400001928E-02 0.  1.
    10030    2    1    2    0    0  0.00000000000E+00  0.00000000000E+00 -0.37441976010E+03  0.31144811608E+04  0.30918930680E+04 0.  0.
        4    1    3    3  502    0 -0.71344651483E+03 -0.37392816844E+03  0.11419453455E+04  0.13974508899E+04  0.12699999809E+01 0. -1.
       -4    1    3    3    0  502  0.71344651483E+03  0.37392816844E+03 -0.15163651056E+04  0.17170302709E+04  0.12699999809E+01 0.  1.
</event>
<event>
 5   0  0.2997105E-07  0.3219220E+04  0.7818609E-02  0.8183760E-01
        1   -1    0    0  501    0  0.00000000000E+00  0.00000000000E+00  0.13813082438E+04  0.13813082438E+04  0.50400001928E-02 0. -1.
       -1   -1    0    0    0  501  0.00000000000E+00  0.00000000000E+00 -0.18756448739E+04  0.18756448739E+04  0.50400001928E-02 0.  1.
    10030    2    1    2    0    0  0.00000000000E+00  0.00000000000E+00 -0.49433663010E+03  0.32569531177E+04  0.32192196115E+04 0.  0.
        3    1    3    3  502    0 -0.11928664309E+04 -0.12634722852E+03  0.83870128301E+03  0.14636645096E+04  0.10100000352E+00 0. -1.
       -3    1    3    3    0  502  0.11928664309E+04  0.12634722852E+03 -0.13330379131E+04  0.17932886082E+04  0.10100000352E+00 0.  1.
</event>
<event>
 5   0  0.8195618E-07  0.3206067E+04  0.7818609E-02  0.8187217E-01
       -2   -1    0    0    0  501  0.00000000000E+00  0.00000000000E+00  0.10982114064E+04  0.10982114064E+04  0.25500000920E-02 0.  1.
        2   -1    0    0  501    0  0.00000000000E+00  0.00000000000E+00 -0.23399102593E+04  0.23399102593E+04  0.25500000920E-02 0. -1.
    10030    2    1    2    0    0  0.00000000000E+00  0.00000000000E+00 -0.12416988529E+04  0.34381216657E+04  0.32060668345E+04 0.  0.
        1    1    3    3  502    0  0.42419215772E+03  0.92897462051E+03  0.70421614704E+03  0.12405052253E+04  0.50400001928E-02 0.  1.
       -1    1    3    3    0  502 -0.42419215772E+03 -0.92897462051E+03 -0.19459149999E+04  0.21976164404E+04  0.50400001928E-02 0. -1.
</event>
<event>
 5   0  0.8488469E-07  0.3176631E+04  0.7818609E-02  0.8195016E-01
       -2   -1    0    0    0  501  0.00000000000E+00  0.00000000000E+00  0.18554132894E+04  0.18554132894E+04  0.25500000920E-02 0. -1.
        2   -1    0    0  501    0  0.00000000000E+00  0.00000000000E+00 -0.13596680586E+04  0.13596680586E+04  0.25500000920E-02 0.  1.
    10030    2    1    2    0    0  0.00000000000E+00  0.00000000000E+00  0.49574523082E+03  0.32150813480E+04  0.31766310363E+04 0.  0.
        3    1    3    3  502    0  0.11359681632E+04  0.19036973371E+03 -0.85902039551E+03  0.14368647651E+04  0.10100000352E+00 0.  1.
       -3    1    3    3    0  502 -0.11359681632E+04 -0.19036973371E+03  0.13547656263E+04  0.17782165829E+04  0.10100000352E+00 0. -1.
</event>
<event>
 5   0  0.2997105E-07  0.3192649E+04  0.7818609E-02  0.8190761E-01
       -1   -1    0    0    0  501  0.00000000000E+00  0.00000000000E+00  0.14800586472E+04  0.14800586472E+04  0.50400001928E-02 0. -1.
        1   -1    0    0  501    0  0.00000000000E+00  0.00000000000E+00 -0.17217239208E+04  0.17217239208E+04  0.50400001928E-02 0.  1.
    10030    2    1    2    0    0  0.00000000000E+00  0.00000000000E+00 -0.24166527361E+03  0.32017825680E+04  0.31926492931E+04 0.  0.
        3    1    3    3  502    0  0.11972597505E+04  0.10558503422E+04 -0.11959959170E+03  0.16007982158E+04  0.10100000352E+00 0.  1.
       -3    1    3    3    0  502 -0.11972597505E+04 -0.10558503422E+04 -0.12206568191E+03  0.16009843522E+04  0.10100000352E+00 0. -1.
</event>
<event>
 5   0  0.8802800E-07  0.3144228E+04  0.7818609E-02  0.8203704E-01
       -2   -1    0    0    0  501  0.00000000000E+00  0.00000000000E+00  0.10892034596E+04  0.10892034596E+04  0.25500000920E-02 0. -1.
        2   -1    0    0  501    0  0.00000000000E+00  0.00000000000E+00 -0.22691279169E+04  0.22691279169E+04  0.25500000920E-02 0.  1.
    10030    2    1    2    0    0  0.00000000000E+00  0.00000000000E+00 -0.11799244573E+04  0.33583313766E+04  0.31442277128E+04 0.  0.
        5    1    3    3  502    0 -0.67205143862E+03 -0.11586648279E+04  0.28910107820E+03  0.13703134105E+04  0.46999998093E+01 0. -1.
       -5    1    3    3    0  502  0.67205143862E+03  0.11586648279E+04 -0.14690255355E+04  0.19880179661E+04  0.46999998093E+01 0.  1.
</event>
<event>
 5   0  0.2891204E-07  0.3190843E+04  0.7818609E-02  0.8191240E-01
        1   -1    0    0  501    0  0.00000000000E+00  0.00000000000E+00  0.17763591662E+04  0.17763591662E+04  0.50400001928E-02 0. -1.
       -1   -1    0    0    0  501  0.00000000000E+00  0.00000000000E+00 -0.14329143603E+04  0.14329143603E+04  0.50400001928E-02 0.  1.
    10030    2    1    2    0    0  0.00000000000E+00  0.00000000000E+00  0.34344480588E+03  0.32092735265E+04  0.31908434987E+04 0.  0.
        4    1    3    3  502    0  0.74783050174E+03 -0.74019167815E+03 -0.10344687007E+04  0.14755545688E+04  0.12699999809E+01 0.  1.
       -4    1    3    3    0  502 -0.74783050174E+03  0.74019167815E+03  0.13779135066E+04  0.17337189577E+04  0.12699999809E+01 0. -1.
</event>
<event>
 5   0  0.2783875E-07  0.3216829E+04  0.7818609E-02  0.8184387E-01
        1   -1    0    0  501    0  0.00000000000E+00  0.00000000000E+00  0.16719779220E+04  0.16719779220E+04  0.50400001928E-02 0.  1.
       -1   -1    0    0    0  501  0.00000000000E+00  0.00000000000E+00 -0.15472678713E+04  0.15472678714E+04  0.50400001928E-02 0. -1.
    10030    2    1    2    0    0  0.00000000000E+00  0.00000000000E+00  0.12471005061E+03  0.32192457933E+04  0.32168293211E+04 0.  0.
        2    1    3    3  502    0 -0.12613061375E+04  0.70599135087E+03  0.76834989335E+03  0.16369723634E+04  0.25500000920E-02 0. -1.
       -2    1    3    3    0  502  0.12613061375E+04 -0.70599135087E+03 -0.64363984274E+03  0.15822734299E+04  0.25500000920E-02 0.  1.
</event>
<event>
 5   0  0.3013888E-07  0.3195055E+04  0.7818609E-02  0.8190124E-01
        1   -1    0    0  501    0  0.00000000000E+00  0.00000000000E+00  0.15815078213E+04  0.15815078213E+04  0.50400001928E-02 0. -1.
       -1   -1    0    0    0  501  0.00000000000E+00  0.00000000000E+00 -0.16137097540E+04  0.16137097540E+04  0.50400001928E-02 0.  1.
    10030    2    1    2    0    0  0.00000000000E+00  0.00000000000E+00 -0.32201932735E+02  0.31952175753E+04  0.31950553029E+04 0.  0.
        1    1    3    3  502    0  0.13452062544E+04  0.22499772981E+03 -0.84794291895E+03  0.16059922288E+04  0.50400001928E-02 0.  1.
       -1    1    3    3    0  502 -0.13452062544E+04 -0.22499772981E+03  0.81574098621E+03  0.15892253465E+04  0.50400001928E-02 0. -1.
</event>
<event>
 5   0  0.3075756E-07  0.3192099E+04  0.7818609E-02  0.8190907E-01
        1   -1    0    0  501    0  0.00000000000E+00  0.00000000000E+00  0.84310605632E+03  0.84310605634E+03  0.50400001928E-02 0.  1.
       -1   -1    0    0    0  501  0.00000000000E+00  0.00000000000E+00 -0.30214155447E+04  0.30214155447E+04  0.50400001928E-02 0. -1.
    10030    2    1    2    0    0  0.00000000000E+00  0.00000000000E+00 -0.21783094883E+04  0.38645216010E+04  0.31920988358E+04 0.  0.
        5    1    3    3  502    0  0.79885147653E+02  0.12275396531E+04  0.14197585576E+03  0.12383111363E+04  0.46999998093E+01 0.  1.
       -5    1    3    3    0  502 -0.79885147653E+02 -0.12275396531E+04 -0.23202853441E+04  0.26262104647E+04  0.46999998093E+01 0. -1.
</event>
<event>
 5   0  0.8802800E-07  0.3210273E+04  0.7818609E-02  0.8186109E-01
        2   -1    0    0  501    0  0.00000000000E+00  0.00000000000E+00  0.88164052365E+03  0.88164052365E+03  0.25500000920E-02 0. -1.
       -2   -1    0    0    0  501  0.00000000000E+00  0.00000000000E+00 -0.29223511994E+04  0.29223511994E+04  0.25500000920E-02 0.  1.
    10030    2    1    2    0    0  0.00000000000E+00  0.00000000000E+00 -0.20407106757E+04  0.38039917230E+04  0.32102730362E+04 0.  0.
        5    1    3    3  502    0  0.75935694621E+03 -0.14088212162E+04 -0.87503199394E+03  0.18240348876E+04  0.46999998093E+01 0.  1.
       -5    1    3    3    0  502 -0.75935694621E+03  0.14088212162E+04 -0.11656786818E+04  0.19799568354E+04  0.46999998093E+01 0. -1.
</event>
<event>
 5   0  0.8335929E-07  0.3195254E+04  0.7818609E-02  0.8190072E-01
       -2   -1    0    0    0  501  0.00000000000E+00  0.00000000000E+00  0.18878587442E+04  0.18878587442E+04  0.25500000920E-02 0. -1.
        2   -1    0    0  501    0  0.00000000000E+00  0.00000000000E+00 -0.13520142659E+04  0.13520142659E+04  0.25500000920E-02 0.  1.
    10030    2    1    2    0    0  0.00000000000E+00  0.00000000000E+00  0.53584447828E+03  0.32398730101E+04  0.31952539519E+04 0.  0.
        4    1    3    3  502    0  0.10419826365E+04 -0.96887812116E+03  0.10046756866E+04  0.17417885855E+04  0.12699999809E+01 0. -1.
       -4    1    3    3    0  502 -0.10419826365E+04  0.96887812116E+03 -0.46883120829E+03  0.14980844246E+04  0.12699999809E+01 0.  1.
</event>
<event>
 5   0  0.3075756E-07  0.3202894E+04  0.7818609E-02  0.8188053E-01
       -1   -1    0    0    0  501  0.00000000000E+00  0.00000000000E+00  0.15994359453E+04  0.15994359453E+04  0.50400001928E-02 0.  1.
        1   -1    0    0  501    0  0.00000000000E+00  0.00000000000E+00 -0.16034606520E+04  0.16034606520E+04  0.50400001928E-02 0. -1.
    10030    2    1    2    0    0  0.00000000000E+00  0.00000000000E+00 -0.40247067056E+01  0.32028965973E+04  0.32028940686E+04 0.  0.
        5    1    3    3  502    0  0.14120571574E+04  0.50012729303E+03 -0.56820869304E+03  0.16021597716E+04  0.46999998093E+01 0. -1.
       -5    1    3    3    0  502 -0.14120571574E+04 -0.50012729303E+03  0.56418398634E+03  0.16007368257E+04  0.46999998093E+01 0.  1.
</event>
<event>
 5   0  0.2783875E-07  0.3205366E+04  0.7818609E-02  0.8187402E-01
       -3   -1    0    0    0  501  0.00000000000E+00  0.00000000000E+00  0.18735987199E+04  0.18735987227E+04  0.10100000352E+00 0.  1.
        3   -1    0    0  501    0  0.00000000000E+00  0.00000000000E+00 -0.13709405575E+04  0.13709405612E+04  0.10100000352E+00 0. -1.
    10030    2    1    2    0    0  0.00000000000E+00  0.00000000000E+00  0.50265816242E+03  0.32445392839E+04  0.32053658038E+04 0.  0.
        4    1    3    3  502    0 -0.27452729689E+03  0.10049328521E+04  0.14841362382E+04  0.18132614981E+04  0.12699999809E+01 0.  1.
       -4    1    3    3    0  502  0.27452729689E+03 -0.10049328521E+04 -0.98147807575E+03  0.14312777858E+04  0.12699999809E+01 0. -1.
</event>
<event>
 5   0  0.8195618E-07  0.3190575E+04  0.7818609E-02  0.8191311E-01
       -2   -1    0    0    0  501  0.00000000000E+00  0.00000000000E+00  0.96333685850E+03  0.96333685850E+03  0.25500000920E-02 0. -1.
        2   -1    0    0  501    0  0.00000000000E+00  0.00000000000E+00 -0.26417988366E+04  0.26417988366E+04  0.25500000920E-02 0.  1.
    10030    2    1    2    0    0  0.00000000000E+00  0.00000000000E+00 -0.16784619781E+04  0.36051356951E+04  0.31905749902E+04 0.  0.
        1    1    3    3  502    0  0.12499008818E+04  0.49146742066E+03  0.13352887457E+03  0.13496749240E+04  0.50400001928E-02 0. -1.
       -1    1    3    3    0  502 -0.12499008818E+04 -0.49146742066E+03 -0.18119908527E+04  0.22554607711E+04  0.50400001928E-02 0.  1.
</event>
<event>
 5   0  0.8335929E-07  0.3200854E+04  0.7818609E-02  0.8188592E-01
       -2   -1    0    0    0  501  0.00000000000E+00  0.00000000000E+00  0.20197417146E+04  0.20197417146E+04  0.25500000920E-02 0.  1.
        2   -1    0    0  501    0  0.00000000000E+00  0.00000000000E+00 -0.12681657560E+04  0.12681657560E+04  0.25500000920E-02 0. -1.
    10030    2    1    2    0    0  0.00000000000E+00  0.00000000000E+00  0.75157595854E+03  0.32879074706E+04  0.32008544350E+04 0.  0.
        4    1    3    3  502    0  0.11471643816E+04 -0.17181029439E+03 -0.75686164643E+03  0.13850437034E+04  0.12699999809E+01 0. -1.
       -4    1    3    3    0  502 -0.11471643816E+04  0.17181029439E+03  0.15084376050E+04  0.19028637672E+04  0.12699999809E+01 0.  1.
</event>
<event>
 5   0  0.8335929E-07  0.3196428E+04  0.7818609E-02  0.8189761E-01
       -2   -1    0    0    0  501  0.00000000000E+00  0.00000000000E+00  0.21766545528E+04  0.21766545528E+04  0.25500000920E-02 0.  1.
        2   -1    0    0  501    0  0.00000000000E+00  0.00000000000E+00 -0.11734926837E+04  0.11734926837E+04  0.25500000920E-02 0. -1.
    10030    2    1    2    0    0  0.00000000000E+00  0.00000000000E+00  0.10031618691E+04  0.33501472366E+04  0.31964281270E+04 0.  0.
        4    1    3    3  502    0  0.11535387332E+04  0.80429963546E+03  0.12975347761E+04  0.19134125589E+04  0.12699999809E+01 0.  1.
       -4    1    3    3    0  502 -0.11535387332E+04 -0.80429963546E+03 -0.29437290697E+03  0.14367346776E+04  0.12699999809E+01 0. -1.
</event>
<event>
 5   0  0.2891204E-07  0.3151693E+04  0.7818609E-02  0.8201693E-01
        1   -1    0    0  501    0  0.00000000000E+00  0.00000000000E+00  0.15644307083E+04  0.15644307083E+04  0.50400001928E-02 0.  1.
       -1   -1    0    0    0  501  0.00000000000E+00  0.00000000000E+00 -0.15873452972E+04  0.15873452972E+04  0.50400001928E-02 0. -1.
    10030    2    1    2    0    0  0.00000000000E+00  0.00000000000E+00 -0.22914588877E+02  0.31517760055E+04  0.31516927056E+04 0.  0.
        4    1    3    3  502    0 -0.47186260188E+03 -0.81775747888E+03  0.12502846188E+04  0.15667146677E+04  0.12699999809E+01 0.  1.
       -4    1    3    3    0  502  0.47186260188E+03  0.81775747888E+03 -0.12731992076E+04  0.15850613378E+04  0.12699999809E+01 0. -1.
</event>
<event>
 5   0  0.2997105E-07  0.3252907E+04  0.7818609E-02  0.8174983E-01
       -1   -1    0    0    0  501  0.00000000000E+00  0.00000000000E+00  0.11769943467E+04  0.11769943467E+04  0.50400001928E-02 0.  1.
        1   -1    0    0  501    0  0.00000000000E+00  0.00000000000E+00 -0.22475474613E+04  0.22475474613E+04  0.50400001928E-02 0. -1.
    10030    2    1    2    0    0  0.00000000000E+00  0.00000000000E+00 -0.10705531146E+04  0.34245418080E+04  0.32529067960E+04 0.  0.
        3    1    3    3  502    0 -0.52151839583E+03  0.15338190916E+03  0.10785256104E+04  0.12077768625E+04  0.10100000352E+00 0.  1.
       -3    1    3    3    0  502  0.52151839583E+03 -0.15338190916E+03 -0.21490787249E+04  0.22167649455E+04  0.10100000352E+00 0. -1.
</event>
<event>
 5   0  0.2997105E-07  0.3193917E+04  0.7818609E-02  0.8190425E-01
        1   -1    0    0  501    0  0.00000000000E+00  0.00000000000E+00  0.13575462948E+04  0.13575462948E+04  0.50400001928E-02 0.  1.
       -1   -1    0    0    0  501  0.00000000000E+00  0.00000000000E+00 -0.18785929878E+04  0.18785929879E+04  0.50400001928E-02 0. -1.
    10030    2    1    2    0    0  0.00000000000E+00  0.00000000000E+00 -0.52104669303E+03  0.32361392827E+04  0.31939173127E+04 0.  0.
        3    1    3    3  502    0 -0.21757314394E+03 -0.11668438539E+04  0.82196988370E+03  0.14437787754E+04  0.10100000352E+00 0.  1.
       -3    1    3    3    0  502  0.21757314394E+03  0.11668438539E+04 -0.13430165767E+04  0.17923605073E+04  0.10100000352E+00 0. -1.
</event>
<event>
 5   0  0.8335929E-07  0.3190331E+04  0.7818609E-02  0.8191375E-01
       -2   -1    0    0    0  501  0.00000000000E+00  0.00000000000E+00  0.20436286981E+04  0.20436286981E+04  0.25500000920E-02 0. -1.
        2   -1    0    0  501    0  0.00000000000E+00  0.00000000000E+00 -0.12451150432E+04  0.12451150432E+04  0.25500000920E-02 0.  1.
    10030    2    1    2    0    0  0.00000000000E+00  0.00000000000E+00  0.79851365496E+03  0.32887437413E+04  0.31903309137E+04 0.  0.
        4    1    3    3  502    0 -0.14207683450E+04  0.65575137033E+03  0.71858439784E+03  0.17219052528E+04  0.12699999809E+01 0. -1.
       -4    1    3    3    0  502  0.14207683450E+04 -0.65575137033E+03  0.79929257125E+02  0.15668384885E+04  0.12699999809E+01 0.  1.
</event>
<event>
 5   0  0.2891204E-07  0.3013155E+04  0.7818609E-02  0.8239984E-01
       -1   -1    0    0    0  501  0.00000000000E+00  0.00000000000E+00  0.11490638255E+04  0.11490638255E+04  0.50400001928E-02 0.  1.
        1   -1    0    0  501    0  0.00000000000E+00  0.00000000000E+00 -0.19753257972E+04  0.19753257972E+04  0.50400001928E-02 0. -1.
    10030    2    1    2    0    0  0.00000000000E+00  0.00000000000E+00 -0.82626197166E+03  0.31243896227E+04  0.30131547701E+04 0.  0.
        4    1    3    3  502    0  0.20416251020E+03  0.80769696768E+02  0.11323850876E+04  0.11534746092E+04  0.12699999809E+01 0.  1.
       -4    1    3    3    0  502 -0.20416251020E+03 -0.80769696768E+02 -0.19586470593E+04  0.19709150135E+04  0.12699999809E+01 0. -1.
</event>
<event>
 5   0  0.8195618E-07  0.3194497E+04  0.7818609E-02  0.8190272E-01
        2   -1    0    0  501    0  0.00000000000E+00  0.00000000000E+00  0.10809983268E+04  0.10809983268E+04  0.25500000920E-02 0. -1.
       -2   -1    0    0    0  501  0.00000000000E+00  0.00000000000E+00 -0.23600435433E+04  0.23600435433E+04  0.25500000920E-02 0.  1.
    10030    2    1    2    0    0  0.00000000000E+00  0.00000000000E+00 -0.12790452165E+04  0.34410418702E+04  0.31944972197E+04 0.  0.
        1    1    3    3  502    0  0.17054148544E+03 -0.89765737517E+03 -0.20507202252E+04  0.22450671712E+04  0.50400001928E-02 0.  1.
       -1    1    3    3    0  502 -0.17054148544E+03  0.89765737517E+03  0.77167500868E+03  0.11959746989E+04  0.50400001928E-02 0. -1.
</event>
<event>
 5   0  0.3075756E-07  0.3325842E+04  0.7818609E-02  0.8156351E-01
        1   -1    0    0  501    0  0.00000000000E+00  0.00000000000E+00  0.17040099906E+04  0.17040099906E+04  0.50400001928E-02 0. -1.
       -1   -1    0    0    0  501  0.00000000000E+00  0.00000000000E+00 -0.16228228651E+04  0.16228228651E+04  0.50400001928E-02 0.  1.
    10030    2    1    2    0    0  0.00000000000E+00  0.00000000000E+00  0.81187125498E+02  0.33268328556E+04  0.33258420738E+04 0.  0.
        5    1    3    3  502    0  0.77436615414E+03  0.36321002470E+03 -0.13859167630E+04  0.16286042572E+04  0.46999998093E+01 0.  1.
       -5    1    3    3    0  502 -0.77436615414E+03 -0.36321002470E+03  0.14671038885E+04  0.16982285984E+04  0.46999998093E+01 0. -1.
</event>
<event>
 5   0  0.8488469E-07  0.3202004E+04  0.7818609E-02  0.8188288E-01
        2   -1    0    0  501    0  0.00000000000E+00  0.00000000000E+00  0.22319351804E+04  0.22319351804E+04  0.25500000920E-02 0. -1.
       -2   -1    0    0    0  501  0.00000000000E+00  0.00000000000E+00 -0.11484236198E+04  0.11484236198E+04  0.25500000920E-02 0.  1.
    10030    2    1    2    0    0  0.00000000000E+00  0.00000000000E+00  0.10835115605E+04  0.33803588002E+04  0.32020037970E+04 0.  0.
        3    1    3    3  502    0  0.29641340685E+03  0.13073048454E+04  0.14659014384E+04  0.19863972170E+04  0.10100000352E+00 0. -1.
       -3    1    3    3    0  502 -0.29641340685E+03 -0.13073048454E+04 -0.38238987785E+03  0.13939615832E+04  0.10100000352E+00 0.  1.
</event>
<event>
 5   0  0.8195618E-07  0.3207420E+04  0.7818609E-02  0.8186860E-01
       -2   -1    0    0    0  501  0.00000000000E+00  0.00000000000E+00  0.11673617125E+04  0.11673617125E+04  0.25500000920E-02 0. -1.
        2   -1    0    0  501    0  0.00000000000E+00  0.00000000000E+00 -0.22031607360E+04  0.22031607360E+04  0.25500000920E-02 0.  1.
    10030    2    1    2    0    0  0.00000000000E+00  0.00000000000E+00 -0.10357990235E+04  0.33705224485E+04  0.32074198289E+04 0.  0.
        1    1    3    3  502    0 -0.65821350700E+03 -0.15832639014E+03  0.10098426470E+04  0.12157690728E+04  0.50400001928E-02 0. -1.
       -1    1    3    3    0  502  0.65821350700E+03  0.15832639014E+03 -0.20456416704E+04  0.21547533758E+04  0.50400001928E-02 0.  1.
</event>
<event>
 5   0  0.3075756E-07  0.3188376E+04  0.7818609E-02  0.8191894E-01
       -1   -1    0    0    0  501  0.00000000000E+00  0.00000000000E+00  0.11007552236E+04  0.11007552236E+04  0.50400001928E-02 0. -1.
        1   -1    0    0  501    0  0.00000000000E+00  0.00000000000E+00 -0.23088106519E+04  0.23088106519E+04  0.50400001928E-02 0.  1.
    10030    2    1    2    0    0  0.00000000000E+00  0.00000000000E+00 -0.12080554283E+04  0.34095658755E+04  0.31883760037E+04 0.  0.
        5    1    3    3  502    0 -0.54898340577E+02  0.37528479060E+03 -0.22598524570E+04  0.22914640995E+04  0.46999998093E+01 0.  1.
       -5    1    3    3    0  502  0.54898340577E+02 -0.37528479060E+03  0.10517970287E+04  0.11181017760E+04  0.46999998093E+01 0. -1.
</event>
<event>
 5   0  0.2783875E-07  0.3356541E+04  0.7818609E-02  0.8148656E-01
        1   -1    0    0  501    0  0.00000000000E+00  0.00000000000E+00  0.16396677984E+04  0.16396677984E+04  0.50400001928E-02 0. -1.
       -1   -1    0    0    0  501  0.00000000000E+00  0.00000000000E+00 -0.17177825143E+04  0.17177825143E+04  0.50400001928E-02 0.  1.
    10030    2    1    2    0    0  0.00000000000E+00  0.00000000000E+00 -0.78114715901E+02  0.33574503126E+04  0.33565414779E+04 0.  0.
        2    1    3    3  502    0 -0.16522929999E+03  0.10917162617E+04  0.12251865818E+04  0.16493111525E+04  0.25500000920E-02 0. -1.
       -2    1    3    3    0  502  0.16522929999E+03 -0.10917162617E+04 -0.13033012977E+04  0.17081391601E+04  0.25500000920E-02 0.  1.
</event>
<event>
 5   0  0.8838951E-07  0.3211035E+04  0.7818609E-02  0.8185909E-01
       -2   -1    0    0    0  501  0.00000000000E+00  0.00000000000E+00  0.12698163344E+04  0.12698163344E+04  0.25500000920E-02 0.  1.
        2   -1    0    0  501    0  0.00000000000E+00  0.00000000000E+00 -0.20299675861E+04  0.20299675861E+04  0.25500000920E-02 0. -1.
    10030    2    1    2    0    0  0.00000000000E+00  0.00000000000E+00 -0.76015125165E+03  0.32997839205E+04  0.32110347237E+04 0.  0.
        2    1    3    3  502    0 -0.83766362466E+03  0.89630323169E+03  0.68423584467E+03  0.14047129680E+04  0.25500000920E-02 0.  1.
       -2    1    3    3    0  502  0.83766362466E+03 -0.89630323169E+03 -0.14443870963E+04  0.18950709526E+04  0.25500000920E-02 0. -1.
</event>
<event>
 5   0  0.8838951E-07  0.3067600E+04  0.7818609E-02  0.8224686E-01
       -2   -1    0    0    0  501  0.00000000000E+00  0.00000000000E+00  0.24828076480E+04  0.24828076480E+04  0.25500000920E-02 0. -1.
        2   -1    0    0  501    0  0.00000000000E+00  0.00000000000E+00 -0.94753307949E+03  0.94753307949E+03  0.25500000920E-02 0.  1.
    10030    2    1    2    0    0  0.00000000000E+00  0.00000000000E+00  0.15352745685E+04  0.34303407275E+04  0.30675999586E+04 0.  0.
        2    1    3    3  502    0  0.12797322941E+04  0.65075554359E+03  0.16404703894E+03  0.14450290492E+04  0.25500000920E-02 0. -1.
       -2    1    3    3    0  502 -0.12797322941E+04 -0.65075554359E+03  0.13712275296E+04  0.19853116783E+04  0.25500000920E-02 0.  1.
</event>
<event>
 5   0  0.2997105E-07  0.3200700E+04  0.7818609E-02  0.8188632E-01
       -1   -1    0    0    0  501  0.00000000000E+00  0.00000000000E+00  0.33457345169E+04  0.33457345169E+04  0.50400001928E-02 0. -1.
        1   -1    0    0  501    0  0.00000000000E+00  0.00000000000E+00 -0.76548834631E+03  0.76548834633E+03  0.50400001928E-02 0.  1.
    10030    2    1    2    0    0  0.00000000000E+00  0.00000000000E+00  0.25802461706E+04  0.41112228632E+04  0.32007004124E+04 0.  0.
        3    1    3    3  502    0 -0.47942342891E+03 -0.15036778864E+04  0.94973267485E+03  0.18419788745E+04  0.10100000352E+00 0.  1.
       -3    1    3    3    0  502  0.47942342891E+03  0.15036778864E+04  0.16305134957E+04  0.22692439887E+04  0.10100000352E+00 0. -1.
</event>
<event>
 5   0  0.2783875E-07  0.3177938E+04  0.7818609E-02  0.8194668E-01
        1   -1    0    0  501    0  0.00000000000E+00  0.00000000000E+00  0.23249788479E+04  0.23249788479E+04  0.50400001928E-02 0. -1.
       -1   -1    0    0    0  501  0.00000000000E+00  0.00000000000E+00 -0.10859553485E+04  0.10859553485E+04  0.50400001928E-02 0.  1.
    10030    2    1    2    0    0  0.00000000000E+00  0.00000000000E+00  0.12390234994E+04  0.34109341965E+04  0.31779384608E+04 0.  0.
        2    1    3    3  502    0  0.10450262028E+04 -0.33514779768E+03 -0.61383106216E+03  0.12574547243E+04  0.25500000920E-02 0. -1.
       -2    1    3    3    0  502 -0.10450262028E+04  0.33514779768E+03  0.18528545615E+04  0.21534794722E+04  0.25500000920E-02 0.  1.
</event>
<event>
 5   0  0.8195618E-07  0.3179315E+04  0.7818609E-02  0.8194302E-01
       -2   -1    0    0    0  501  0.00000000000E+00  0.00000000000E+00  0.11515844396E+04  0.11515844396E+04  0.25500000920E-02 0. -1.
        2   -1    0    0  501    0  0.00000000000E+00  0.00000000000E+00 -0.21943769525E+04  0.21943769525E+04  0.25500000920E-02 0.  1.
    10030    2    1    2    0    0  0.00000000000E+00  0.00000000000E+00 -0.10427925129E+04  0.33459613921E+04  0.31793146136E+04 0.  0.
        1    1    3    3  502    0  0.12025108011E+04 -0.32992450265E+03  0.51624954682E+03  0.13495910487E+04  0.50400001928E-02 0.  1.
       -1    1    3    3    0  502 -0.12025108011E+04  0.32992450265E+03 -0.15590420597E+04  0.19963703434E+04  0.50400001928E-02 0. -1.
</event>
<event>
 5   0  0.2891204E-07  0.3199806E+04  0.7818609E-02  0.8188869E-01
        1   -1    0    0  501    0  0.00000000000E+00  0.00000000000E+00  0.14240235310E+04  0.14240235310E+04  0.50400001928E-02 0.  1.
       -1   -1    0    0    0  501  0.00000000000E+00  0.00000000000E+00 -0.17975045798E+04  0.17975045798E+04  0.50400001928E-02 0. -1.
    10030    2    1    2    0    0  0.00000000000E+00  0.00000000000E+00 -0.37348104880E+03  0.32215281107E+04  0.31998055057E+04 0.  0.
        4    1    3    3  502    0 -0.78830746933E+03  0.13655846672E+04  0.86091894444E+02  0.15791338059E+04  0.12699999809E+01 0.  1.
       -4    1    3    3    0  502  0.78830746933E+03 -0.13655846672E+04 -0.45957294325E+03  0.16423943049E+04  0.12699999809E+01 0. -1.
</event>
<event>
 5   0  0.8195618E-07  0.3200080E+04  0.7818609E-02  0.8188796E-01
       -2   -1    0    0    0  501  0.00000000000E+00  0.00000000000E+00  0.12054390128E+04  0.12054390128E+04  0.25500000920E-02 0.  1.
        2   -1    0    0  501    0  0.00000000000E+00  0.00000000000E+00 -0.21238136616E+04  0.21238136616E+04  0.25500000920E-02 0. -1.
    10030    2    1    2    0    0  0.00000000000E+00  0.00000000000E+00 -0.91837464877E+03  0.33292526745E+04  0.32000799013E+04 0.  0.
        1    1    3    3  502    0 -0.62661811589E+02  0.48143107588E+03 -0.20453354671E+04  0.21021654446E+04  0.50400001928E-02 0. -1.
       -1    1    3    3    0  502  0.62661811589E+02 -0.48143107588E+03  0.11269608184E+04  0.12270872298E+04  0.50400001928E-02 0.  1.
</event>
<event>
 5   0  0.3013888E-07  0.3216875E+04  0.7818609E-02  0.8184375E-01
        1   -1    0    0  501    0  0.00000000000E+00  0.00000000000E+00  0.12489042431E+04  0.12489042432E+04  0.50400001928E-02 0. -1.
       -1   -1    0    0    0  501  0.00000000000E+00  0.00000000000E+00 -0.20714724705E+04  0.20714724705E+04  0.50400001928E-02 0.  1.
    10030    2    1    2    0    0  0.00000000000E+00  0.00000000000E+00 -0.82256822735E+03  0.33203767137E+04  0.32168747305E+04 0.  0.
        1    1    3    3  502    0 -0.26540278417E+03  0.45304169389E+03 -0.19805241787E+04  0.20489415405E+04  0.50400001928E-02 0.  1.
       -1    1    3    3    0  502  0.26540278417E+03 -0.45304169389E+03  0.11579559513E+04  0.12714351731E+04  0.50400001928E-02 0. -1.
</event>
<event>
 5   0  0.8335929E-07  0.3202738E+04  0.7818609E-02  0.8188095E-01
        2   -1    0    0  501    0  0.00000000000E+00  0.00000000000E+00  0.22309177169E+04  0.22309177169E+04  0.25500000920E-02 0.  1.
       -2   -1    0    0    0  501  0.00000000000E+00  0.00000000000E+00 -0.11494741122E+04  0.11494741122E+04  0.25500000920E-02 0. -1.
    10030    2    1    2    0    0  0.00000000000E+00  0.00000000000E+00  0.10814436047E+04  0.33803918291E+04  0.32027376802E+04 0.  0.
        4    1    3    3  502    0 -0.14146932306E+04  0.31381080348E+03  0.12601048838E+04  0.19203385347E+04  0.12699999809E+01 0. -1.
       -4    1    3    3    0  502  0.14146932306E+04 -0.31381080348E+03 -0.17866127909E+03  0.14600532944E+04  0.12699999809E+01 0.  1.
</event>
<event>
 5   0  0.2783875E-07  0.3171927E+04  0.7818609E-02  0.8196271E-01
        3   -1    0    0  501    0  0.00000000000E+00  0.00000000000E+00  0.10904743435E+04  0.10904743482E+04  0.10100000352E+00 0. -1.
       -3   -1    0    0    0  501  0.00000000000E+00  0.00000000000E+00 -0.23065927524E+04  0.23065927546E+04  0.10100000352E+00 0.  1.
    10030    2    1    2    0    0  0.00000000000E+00  0.00000000000E+00 -0.12161184088E+04  0.33970671028E+04  0.31719270037E+04 0.  0.
        4    1    3    3  502    0  0.64529400186E+03 -0.10432684016E+04  0.46850923905E+03  0.13131320675E+04  0.12699999809E+01 0. -1.
       -4    1    3    3    0  502 -0.64529400186E+03  0.10432684016E+04 -0.16846276479E+04  0.20839350353E+04  0.12699999809E+01 0.  1.
</event>
<event>
 5   0  0.8488469E-07  0.3175868E+04  0.7818609E-02  0.8195220E-01
       -2   -1    0    0    0  501  0.00000000000E+00  0.00000000000E+00  0.20318030760E+04  0.20318030760E+04  0.25500000920E-02 0. -1.
        2   -1    0    0  501    0  0.00000000000E+00  0.00000000000E+00 -0.12410329897E+04  0.12410329897E+04  0.25500000920E-02 0.  1.
    10030    2    1    2    0    0  0.00000000000E+00  0.00000000000E+00  0.79077008629E+03  0.32728360657E+04  0.31758681621E+04 0.  0.
        3    1    3    3  502    0  0.14313965880E+04 -0.24987956356E+03 -0.26463769687E+03  0.14769458721E+04  0.10100000352E+00 0.  1.
       -3    1    3    3    0  502 -0.14313965880E+04  0.24987956356E+03  0.10554077832E+04  0.17958901935E+04  0.10100000352E+00 0. -1.
</event>
<event>
 5   0  0.8838951E-07  0.3202129E+04  0.7818609E-02  0.8188255E-01
        2   -1    0    0  501    0  0.00000000000E+00  0.00000000000E+00  0.18972634549E+04  0.18972634549E+04  0.25500000920E-02 0.  1.
       -2   -1    0    0    0  501  0.00000000000E+00  0.00000000000E+00 -0.13511075935E+04  0.13511075935E+04  0.25500000920E-02 0. -1.
    10030    2    1    2    0    0  0.00000000000E+00  0.00000000000E+00  0.54615586132E+03  0.32483710484E+04  0.32021287050E+04 0.  0.
        2    1    3    3  502    0  0.30106035730E+03  0.14192434565E+04 -0.41384009933E+03  0.15086924655E+04  0.25500000920E-02 0. -1.
       -2    1    3    3    0  502 -0.30106035730E+03 -0.14192434565E+04  0.95999596065E+03  0.17396785829E+04  0.25500000920E-02 0.  1.
</event>
<event>
 5   0  0.8195618E-07  0.3234664E+04  0.7818609E-02  0.8179722E-01
       -2   -1    0    0    0  501  0.00000000000E+00  0.00000000000E+00  0.91062858115E+03  0.91062858116E+03  0.25500000920E-02 0. -1.
        2   -1    0    0  501    0  0.00000000000E+00  0.00000000000E+00 -0.28724812356E+04  0.28724812356E+04  0.25500000920E-02 0.  1.
    10030    2    1    2    0    0  0.00000000000E+00  0.00000000000E+00 -0.19618526545E+04  0.37831098168E+04  0.32346644413E+04 0.  0.
        1    1    3    3  502    0 -0.12349178118E+04  0.45063581813E+03  0.12098134926E+03  0.13201254219E+04  0.50400001928E-02 0. -1.
       -1    1    3    3    0  502  0.12349178118E+04 -0.45063581813E+03 -0.20828340037E+04  0.24629843949E+04  0.50400001928E-02 0.  1.
</event>
<event>
 5   0  0.2783875E-07  0.3208016E+04  0.7818609E-02  0.8186703E-01
        1   -1    0    0  501    0  0.00000000000E+00  0.00000000000E+00  0.17639585107E+04  0.17639585107E+04  0.50400001928E-02 0. -1.
       -1   -1    0    0    0  501  0.00000000000E+00  0.00000000000E+00 -0.14585616952E+04  0.14585616952E+04  0.50400001928E-02 0.  1.
    10030    2    1    2    0    0  0.00000000000E+00  0.00000000000E+00  0.30539681544E+03  0.32225202059E+04  0.32080164062E+04 0.  0.
        2    1    3    3  502    0  0.33791687256E+03 -0.10776393939E+04  0.12968597889E+04  0.17196917713E+04  0.25500000920E-02 0. -1.
       -2    1    3    3    0  502 -0.33791687256E+03  0.10776393939E+04 -0.99146297349E+03  0.15028284346E+04  0.25500000920E-02 0.  1.
</event>
<event>
 5   0  0.8838951E-07  0.3194562E+04  0.7818609E-02  0.8190255E-01
       -2   -1    0    0    0  501  0.00000000000E+00  0.00000000000E+00  0.14397266951E+04  0.14397266951E+04  0.25500000920E-02 0. -1.
        2   -1    0    0  501    0  0.00000000000E+00  0.00000000000E+00 -0.17720767273E+04  0.17720767273E+04  0.25500000920E-02 0.  1.
    10030    2    1    2    0    0  0.00000000000E+00  0.00000000000E+00 -0.33235003217E+03  0.32118034224E+04  0.31945617352E+04 0.  0.
        2    1    3    3  502    0 -0.13314152357E+03  0.15899206933E+04 -0.90058454898E+02  0.15980253445E+04  0.25500000920E-02 0. -1.
       -2    1    3    3    0  502  0.13314152357E+03 -0.15899206933E+04 -0.24229157728E+03  0.16137780779E+04  0.25500000920E-02 0.  1.
</event>
<event>
 5   0  0.2997105E-07  0.3189815E+04  0.7818609E-02  0.8191512E-01
        1   -1    0    0  501    0  0.00000000000E+00  0.00000000000E+00  0.12705322226E+04  0.12705322226E+04  0.50400001928E-02 0.  1.
       -1   -1    0    0    0  501  0.00000000000E+00  0.00000000000E+00 -0.20020978802E+04  0.20020978802E+04  0.50400001928E-02 0. -1.
    10030    2    1    2    0    0  0.00000000000E+00  0.00000000000E+00 -0.73156565763E+03  0.32726301028E+04  0.31898149599E+04 0.  0.
        3    1    3    3  502    0  0.10096032334E+04 -0.36689785317E+03  0.84372939365E+03  0.13659399780E+04  0.10100000352E+00 0.  1.
       -3    1    3    3    0  502 -0.10096032334E+04  0.36689785317E+03 -0.15752950513E+04  0.19066901249E+04  0.10100000352E+00 0. -1.
</event>
<event>
 5   0  0.2891204E-07  0.3189217E+04  0.7818609E-02  0.8191671E-01
       -1   -1    0    0    0  501  0.00000000000E+00  0.00000000000E+00  0.11971974944E+04  0.11971974944E+04  0.50400001928E-02 0. -1.
        1   -1    0    0  501    0  0.00000000000E+00  0.00000000000E+00 -0.21239403190E+04  0.21239403190E+04  0.50400001928E-02 0.  1.
    10030    2    1    2    0    0  0.00000000000E+00  0.00000000000E+00 -0.92674282467E+03  0.33211378134E+04  0.31892168494E+04 0.  0.
        4    1    3    3  502    0  0.57758046090E+03  0.73076238158E+03  0.88444641952E+03  0.12844687342E+04  0.12699999809E+01 0.  1.
       -4    1    3    3    0  502 -0.57758046090E+03 -0.73076238158E+03 -0.18111892442E+04  0.20366690792E+04  0.12699999809E+01 0. -1.
</event>
<event>
 5   0  0.2783875E-07  0.3285288E+04  0.7818609E-02  0.8166649E-01
        1   -1    0    0  501    0  0.00000000000E+00  0.00000000000E+00  0.26566890560E+04  0.26566890560E+04  0.50400001928E-02 0.  1.
       -1   -1    0    0    0  501  0.00000000000E+00  0.00000000000E+00 -0.10156549973E+04  0.10156549973E+04  0.50400001928E-02 0. -1.
    10030    2    1    2    0    0  0.00000000000E+00  0.00000000000E+00  0.16410340587E+04  0.36723440533E+04  0.32852881249E+04 0.  0.
        2    1    3    3  502    0  0.80770975278E+03  0.14190537104E+04  0.62002254150E+03  0.17465784923E+04  0.25500000920E-02 0.  1.
       -2    1    3    3    0  502 -0.80770975278E+03 -0.14190537104E+04  0.10210115172E+04  0.19257655610E+04  0.25500000920E-02 0. -1.
</event>
<event>
 5   0  0.3075756E-07  0.3173286E+04  0.7818609E-02  0.8195908E-01
        1   -1    0    0  501    0  0.00000000000E+00  0.00000000000E+00  0.23073177949E+04  0.23073177949E+04  0.50400001928E-02 0.  1.
       -1   -1    0    0    0  501  0.00000000000E+00  0.00000000000E+00 -0.10910659898E+04  0.10910659898E+04  0.50400001928E-02 0. -1.
    10030    2    1    2    0    0  0.00000000000E+00  0.00000000000E+00  0.12162518051E+04  0.33983837847E+04  0.31732859775E+04 0.  0.
        5    1    3    3  502    0 -0.10657379635E+04  0.58004108966E+03 -0.48672865607E+03  0.13073530308E+04  0.46999998093E+01 0. -1.
       -5    1    3    3    0  502  0.10657379635E+04 -0.58004108966E+03  0.17029804612E+04  0.20910307539E+04  0.46999998093E+01 0.  1.
</event>
<event>
 5   0  0.8195618E-07  0.3206613E+04  0.7818609E-02  0.8187073E-01
       -2   -1    0    0    0  501  0.00000000000E+00  0.00000000000E+00  0.11313550923E+04  0.11313550923E+04  0.25500000920E-02 0. -1.
        2   -1    0    0  501    0  0.00000000000E+00  0.00000000000E+00 -0.22721346579E+04  0.22721346579E+04  0.25500000920E-02 0.  1.
    10030    2    1    2    0    0  0.00000000000E+00  0.00000000000E+00 -0.11407795656E+04  0.34034897503E+04  0.32066126150E+04 0.  0.
        1    1    3    3  502    0 -0.24436322546E+03 -0.15113516552E+04 -0.65033265317E+02  0.15323597937E+04  0.50400001928E-02 0. -1.
       -1    1    3    3    0  502  0.24436322546E+03  0.15113516552E+04 -0.10757463003E+04  0.18711299566E+04  0.50400001928E-02 0.  1.
</event>
<event>
 5   0  0.8335929E-07  0.3197744E+04  0.7818609E-02  0.8189413E-01
        2   -1    0    0  501    0  0.00000000000E+00  0.00000000000E+00  0.18479084408E+04  0.18479084408E+04  0.25500000920E-02 0.  1.
       -2   -1    0    0    0  501  0.00000000000E+00  0.00000000000E+00 -0.13833970463E+04  0.13833970463E+04  0.25500000920E-02 0. -1.
    10030    2    1    2    0    0  0.00000000000E+00  0.00000000000E+00  0.46451139453E+03  0.32313054872E+04  0.31977436288E+04 0.  0.
        4    1    3    3  502    0 -0.15885829656E+03 -0.15900646828E+04  0.17833071121E+03  0.16079008394E+04  0.12699999809E+01 0.  1.
       -4    1    3    3    0  502  0.15885829656E+03  0.15900646828E+04  0.28618068332E+03  0.16234046478E+04  0.12699999809E+01 0. -1.
</event>
<event>
 5   0  0.8488469E-07  0.3222676E+04  0.7818609E-02  0.8182854E-01
       -2   -1    0    0    0  501  0.00000000000E+00  0.00000000000E+00  0.12756235380E+04  0.12756235380E+04  0.25500000920E-02 0.  1.
        2   -1    0    0  501    0  0.00000000000E+00  0.00000000000E+00 -0.20354041124E+04  0.20354041124E+04  0.25500000920E-02 0. -1.
    10030    2    1    2    0    0  0.00000000000E+00  0.00000000000E+00 -0.75978057441E+03  0.33110276504E+04  0.32226755314E+04 0.  0.
        3    1    3    3  502    0  0.14704258659E+04  0.19494407250E+03 -0.10266352236E+04  0.18039222021E+04  0.10100000352E+00 0. -1.
       -3    1    3    3    0  502 -0.14704258659E+04 -0.19494407250E+03  0.26685464923E+03  0.15071054484E+04  0.10100000352E+00 0.  1.
</event>
<event>
 5   0  0.2783875E-07  0.3167576E+04  0.7818609E-02  0.8197433E-01
        1   -1    0    0  501    0  0.00000000000E+00  0.00000000000E+00  0.15358164472E+04  0.15358164472E+04  0.50400001928E-02 0.  1.
       -1   -1    0    0    0  501  0.00000000000E+00  0.00000000000E+00 -0.16332582240E+04  0.16332582240E+04  0.50400001928E-02 0. -1.
    10030    2    1    2    0    0  0.00000000000E+00  0.00000000000E+00 -0.97441776828E+02  0.31690746713E+04  0.31675762615E+04 0.  0.
        2    1    3    3  502    0 -0.12076358510E+04 -0.84591405954E+03 -0.62729359318E+03  0.16023271192E+04  0.25500000920E-02 0. -1.
       -2    1    3    3    0  502  0.12076358510E+04  0.84591405954E+03  0.52985181635E+03  0.15667475521E+04  0.25500000920E-02 0.  1.
</event>
<event>
 5   0  0.2783875E-07  0.3198363E+04  0.7818609E-02  0.8189250E-01
        1   -1    0    0  501    0  0.00000000000E+00  0.00000000000E+00  0.10615267507E+04  0.10615267507E+04  0.50400001928E-02 0. -1.
       -1   -1    0    0    0  501  0.00000000000E+00  0.00000000000E+00 -0.24091545924E+04  0.24091545924E+04  0.50400001928E-02 0.  1.
    10030    2    1    2    0    0  0.00000000000E+00  0.00000000000E+00 -0.13476278417E+04  0.34706813431E+04  0.31983633605E+04 0.  0.
        2    1    3    3  502    0  0.21891246186E+03  0.15257691013E+04 -0.11361001246E+04  0.19148413798E+04  0.25500000920E-02 0.  1.
       -2    1    3    3    0  502 -0.21891246186E+03 -0.15257691013E+04 -0.21152771710E+03  0.15558399634E+04  0.25500000920E-02 0. -1.
</event>
<event>
 5   0  0.2783875E-07  0.3201165E+04  0.7818609E-02  0.8188509E-01
        3   -1    0    0  501    0  0.00000000000E+00  0.00000000000E+00  0.19963504743E+04  0.19963504768E+04  0.10100000352E+00 0.  1.
       -3   -1    0    0    0  501  0.00000000000E+00  0.00000000000E+00 -0.12832741143E+04  0.12832741183E+04  0.10100000352E+00 0. -1.
    10030    2    1    2    0    0  0.00000000000E+00  0.00000000000E+00  0.71307635996E+03  0.32796245951E+04  0.32011653487E+04 0.  0.
        3    1    3    3  502    0 -0.64875289195E+03 -0.92116459502E+03 -0.80818115084E+03  0.13865717827E+04  0.10100000352E+00 0. -1.
       -3    1    3    3    0  502  0.64875289195E+03  0.92116459502E+03  0.15212575108E+04  0.18930528123E+04  0.10100000352E+00 0.  1.
</event>
<event>
 5   0  0.2783875E-07  0.3212027E+04  0.7818609E-02  0.8185648E-01
       -3   -1    0    0    0  501  0.00000000000E+00  0.00000000000E+00  0.14909053951E+04  0.14909053985E+04  0.10100000352E+00 0.  1.
        3   -1    0    0  501    0  0.00000000000E+00  0.00000000000E+00 -0.17300082297E+04  0.17300082327E+04  0.10100000352E+00 0. -1.
    10030    2    1    2    0    0  0.00000000000E+00  0.00000000000E+00 -0.23910283467E+03  0.32209136312E+04  0.32120265338E+04 0.  0.
        4    1    3    3  502    0 -0.46063240112E+03  0.13292910244E+04  0.65724030813E+03  0.15527920891E+04  0.12699999809E+01 0.  1.
       -4    1    3    3    0  502  0.46063240112E+03 -0.13292910244E+04 -0.89634314280E+03  0.16681215421E+04  0.12699999809E+01 0. -1.
</event>
<event>
 5   0  0.2891204E-07  0.3205122E+04  0.7818609E-02  0.8187466E-01
       -1   -1    0    0    0  501  0.00000000000E+00  0.00000000000E+00  0.15263566432E+04  0.15263566433E+04  0.50400001928E-02 0. -1.
        1   -1    0    0  501    0  0.00000000000E+00  0.00000000000E+00 -0.16825703735E+04  0.16825703735E+04  0.50400001928E-02 0.  1.
    10030    2    1    2    0    0  0.00000000000E+00  0.00000000000E+00 -0.15621373030E+03  0.32089270168E+04  0.32051224422E+04 0.  0.
        4    1    3    3  502    0 -0.13559283145E+03 -0.67306738432E+03 -0.15278573973E+04  0.16750387934E+04  0.12699999809E+01 0.  1.
       -4    1    3    3    0  502  0.13559283145E+03  0.67306738432E+03  0.13716436670E+04  0.15338882234E+04  0.12699999809E+01 0. -1.
</event>
<event>
 5   0  0.3013888E-07  0.3197217E+04  0.7818609E-02  0.8189553E-01
       -1   -1    0    0    0  501  0.00000000000E+00  0.00000000000E+00  0.17041753581E+04  0.17041753581E+04  0.50400001928E-02 0. -1.
        1   -1    0    0  501    0  0.00000000000E+00  0.00000000000E+00 -0.14995807381E+04  0.14995807381E+04  0.50400001928E-02 0.  1.
    10030    2    1    2    0    0  0.00000000000E+00  0.00000000000E+00  0.20459462002E+03  0.32037560963E+04  0.31972166279E+04 0.  0.
        1    1    3    3  502    0  0.94160609253E+03 -0.34771556802E+03 -0.11444421956E+04  0.15222601909E+04  0.50400001928E-02 0.  1.
       -1    1    3    3    0  502 -0.94160609253E+03  0.34771556802E+03  0.13490368156E+04  0.16814959053E+04  0.50400001928E-02 0. -1.
</event>
<event>
 5   0  0.8335929E-07  0.3196463E+04  0.7818609E-02  0.8189752E-01
       -2   -1    0    0    0  501  0.00000000000E+00  0.00000000000E+00  0.11190912410E+04  0.11190912410E+04  0.25500000920E-02 0.  1.
        2   -1    0    0  501    0  0.00000000000E+00  0.00000000000E+00 -0.22825156242E+04  0.22825156242E+04  0.25500000920E-02 0. -1.
    10030    2    1    2    0    0  0.00000000000E+00  0.00000000000E+00 -0.11634243832E+04  0.34016068653E+04  0.31964625714E+04 0.  0.
        4    1    3    3  502    0  0.26454017964E+03 -0.38266869361E+03 -0.22088703358E+04  0.22573273154E+04  0.12699999809E+01 0. -1.
       -4    1    3    3    0  502 -0.26454017964E+03  0.38266869361E+03  0.10454459525E+04  0.11442795499E+04  0.12699999809E+01 0.  1.
</event>
<event>
 5   0  0.8802800E-07  0.3205896E+04  0.7818609E-02  0.8187262E-01
        2   -1    0    0  501    0  0.00000000000E+00  0.00000000000E+00  0.26908454341E+04  0.26908454341E+04  0.25500000920E-02 0. -1.
       -2   -1    0    0    0  501  0.00000000000E+00  0.00000000000E+00 -0.95488311949E+03  0.95488311949E+03  0.25500000920E-02 0.  1.
    10030    2    1    2    0    0  0.00000000000E+00  0.00000000000E+00  0.17359623146E+04  0.36457285536E+04  0.32058963690E+04 0.  0.
        5    1    3    3  502    0  0.14530590708E+04  0.66624354799E+03  0.10033009484E+04  0.18872986016E+04  0.46999998093E+01 0. -1.
       -5    1    3    3    0  502 -0.14530590708E+04 -0.66624354799E+03  0.73266136619E+03  0.17584299520E+04  0.46999998093E+01 0.  1.
</event>
<event>
 5   0  0.3075756E-07  0.3095568E+04  0.7818609E-02  0.8216955E-01
       -1   -1    0    0    0  501  0.00000000000E+00  0.00000000000E+00  0.12502295781E+04  0.12502295782E+04  0.50400001928E-02 0.  1.
        1   -1    0    0  501    0  0.00000000000E+00  0.00000000000E+00 -0.19161558851E+04  0.19161558851E+04  0.50400001928E-02 0. -1.
    10030    2    1    2    0    0  0.00000000000E+00  0.00000000000E+00 -0.66592630696E+03  0.31663854633E+04  0.30955676468E+04 0.  0.
        5    1    3    3  502    0  0.14699658238E+04  0.16932043135E+03 -0.79738063813E+03  0.16808649273E+04  0.46999998093E+01 0. -1.
       -5    1    3    3    0  502 -0.14699658238E+04 -0.16932043135E+03  0.13145433117E+03  0.14855205360E+04  0.46999998093E+01 0.  1.
</event>
<event>
 5   0  0.8195618E-07  0.3201326E+04  0.7818609E-02  0.8188467E-01
        2   -1    0    0  501    0  0.00000000000E+00  0.00000000000E+00  0.19443794629E+04  0.19443794629E+04  0.25500000920E-02 0.  1.
       -2   -1    0    0    0  501  0.00000000000E+00  0.00000000000E+00 -0.13177065079E+04  0.13177065079E+04  0.25500000920E-02 0. -1.
    10030    2    1    2    0    0  0.00000000000E+00  0.00000000000E+00  0.62667295504E+03  0.32620859708E+04  0.32013256455E+04 0.  0.
        1    1    3    3  502    0 -0.50725436996E+03 -0.11862712896E+04  0.12787222617E+04  0.18165013601E+04  0.50400001928E-02 0.  1.
       -1    1    3    3    0  502  0.50725436996E+03  0.11862712896E+04 -0.65204930670E+03  0.14455846107E+04  0.50400001928E-02 0. -1.
</event>
<event>
 5   0  0.8838951E-07  0.3193297E+04  0.7818609E-02  0.8190590E-01
       -2   -1    0    0    0  501  0.00000000000E+00  0.00000000000E+00  0.17131866374E+04  0.17131866374E+04  0.25500000920E-02 0.  1.
        2   -1    0    0  501    0  0.00000000000E+00  0.00000000000E+00 -0.14880375666E+04  0.14880375666E+04  0.25500000920E-02 0. -1.
    10030    2    1    2    0    0  0.00000000000E+00  0.00000000000E+00  0.22514907081E+03  0.32012242039E+04  0.31932967760E+04 0.  0.
        2    1    3    3  502    0  0.93694786770E+03 -0.33288830930E+03  0.13649156256E+04  0.16886919785E+04  0.25500000920E-02 0.  1.
       -2    1    3    3    0  502 -0.93694786770E+03  0.33288830930E+03 -0.11397665548E+04  0.15125322254E+04  0.25500000920E-02 0. -1.
</event>
<event>
 5   0  0.8838951E-07  0.3218788E+04  0.7818609E-02  0.8183873E-01
        2   -1    0    0  501    0  0.00000000000E+00  0.00000000000E+00  0.14301645793E+04  0.14301645793E+04  0.25500000920E-02 0. -1.
       -2   -1    0    0    0  501  0.00000000000E+00  0.00000000000E+00 -0.18110841673E+04  0.18110841673E+04  0.25500000920E-02 0.  1.
    10030    2    1    2    0    0  0.00000000000E+00  0.00000000000E+00 -0.38091958800E+03  0.32412487466E+04  0.32187876141E+04 0.  0.
        2    1    3    3  502    0 -0.16077597824E+04 -0.59014218407E+02 -0.14804424980E+03  0.16156395934E+04  0.25500000920E-02 0. -1.
       -2    1    3    3    0  502  0.16077597824E+04  0.59014218407E+02 -0.23287533819E+03  0.16256091532E+04  0.25500000920E-02 0.  1.
</event>
<event>
 5   0  0.2891204E-07  0.3207286E+04  0.7818609E-02  0.8186896E-01
        1   -1    0    0  501    0  0.00000000000E+00  0.00000000000E+00  0.16782509953E+04  0.16782509953E+04  0.50400001928E-02 0.  1.
       -1   -1    0    0    0  501  0.00000000000E+00  0.00000000000E+00 -0.15323520424E+04  0.15323520424E+04  0.50400001928E-02 0. -1.
    10030    2    1    2    0    0  0.00000000000E+00  0.00000000000E+00  0.14589895295E+03  0.32106030377E+04  0.32072862924E+04 0.  0.
        4    1    3    3  502    0 -0.81052017976E+03 -0.13711661404E+04  0.25923378142E+03  0.16137668086E+04  0.12699999809E+01 0.  1.
       -4    1    3    3    0  502  0.81052017976E+03  0.13711661404E+04 -0.11333482847E+03  0.15968362291E+04  0.12699999809E+01 0. -1.
</event>
<event>
 5   0  0.3013888E-07  0.3155818E+04  0.7818609E-02  0.8200584E-01
       -1   -1    0    0    0  501  0.00000000000E+00  0.00000000000E+00  0.16545892973E+04  0.16545892973E+04  0.50400001928E-02 0. -1.
        1   -1    0    0  501    0  0.00000000000E+00  0.00000000000E+00 -0.15047822325E+04  0.15047822325E+04  0.50400001928E-02 0.  1.
    10030    2    1    2    0    0  0.00000000000E+00  0.00000000000E+00  0.14980706484E+03  0.31593715299E+04  0.31558178507E+04 0.  0.
        1    1    3    3  502    0 -0.67063384872E+03 -0.41050384822E+02  0.15042232845E+04  0.16474594328E+04  0.50400001928E-02 0. -1.
       -1    1    3    3    0  502  0.67063384872E+03  0.41050384822E+02 -0.13544162196E+04  0.15119120970E+04  0.50400001928E-02 0.  1.
</event>
<event>
 5   0  0.8802800E-07  0.3204508E+04  0.7818609E-02  0.8187628E-01
       -2   -1    0    0    0  501  0.00000000000E+00  0.00000000000E+00  0.11177439235E+04  0.11177439235E+04  0.25500000920E-02 0.  1.
        2   -1    0    0  501    0  0.00000000000E+00  0.00000000000E+00 -0.22967853567E+04  0.22967853567E+04  0.25500000920E-02 0. -1.
    10030    2    1    2    0    0  0.00000000000E+00  0.00000000000E+00 -0.11790414331E+04  0.34145292802E+04  0.32045079972E+04 0.  0.
        5    1    3    3  502    0 -0.64116669213E+03  0.76716134669E+03 -0.19236017044E+04  0.21679245527E+04  0.46999998093E+01 0. -1.
       -5    1    3    3    0  502  0.64116669213E+03 -0.76716134669E+03  0.74456027131E+03  0.12466047275E+04  0.46999998093E+01 0.  1.
</event>
<event>
 5   0  0.3075756E-07  0.3199396E+04  0.7818609E-02  0.8188977E-01
        1   -1    0    0  501    0  0.00000000000E+00  0.00000000000E+00  0.15049879183E+04  0.15049879183E+04  0.50400001928E-02 0.  1.
       -1   -1    0    0    0  501  0.00000000000E+00  0.00000000000E+00 -0.17003682606E+04  0.17003682606E+04  0.50400001928E-02 0. -1.
    10030    2    1    2    0    0  0.00000000000E+00  0.00000000000E+00 -0.19538034229E+03  0.32053561789E+04  0.31993959985E+04 0.  0.
        5    1    3    3  502    0  0.44751250557E+03  0.55839301396E+03  0.13356887142E+04  0.15153074380E+04  0.46999998093E+01 0.  1.
       -5    1    3    3    0  502 -0.44751250557E+03 -0.55839301396E+03 -0.15310690564E+04  0.16900487408E+04  0.46999998093E+01 0. -1.
</event>
<event>
 5   0  0.8838951E-07  0.3199598E+04  0.7818609E-02  0.8188923E-01
        2   -1    0    0  501    0  0.00000000000E+00  0.00000000000E+00  0.15890414670E+04  0.15890414670E+04  0.25500000920E-02 0. -1.
       -2   -1    0    0    0  501  0.00000000000E+00  0.00000000000E+00 -0.16106295112E+04  0.16106295113E+04  0.25500000920E-02 0.  1.
    10030    2    1    2    0    0  0.00000000000E+00  0.00000000000E+00 -0.21588044240E+02  0.31996709783E+04  0.31995981506E+04 0.  0.
        2    1    3    3  502    0 -0.26538935996E+03 -0.22847499635E+03 -0.15718307524E+04  0.16103677377E+04  0.25500000920E-02 0.  1.
       -2    1    3    3    0  502  0.26538935996E+03  0.22847499635E+03  0.15502427082E+04  0.15893032406E+04  0.25500000920E-02 0. -1.
</event>
<event>
 5   0  0.8335929E-07  0.3194239E+04  0.7818609E-02  0.8190340E-01
        2   -1    0    0  501    0  0.00000000000E+00  0.00000000000E+00  0.12275533706E+04  0.12275533706E+04  0.25500000920E-02 0.  1.
       -2   -1    0    0    0  501  0.00000000000E+00  0.00000000000E+00 -0.20779468101E+04  0.20779468101E+04  0.25500000920E-02 0. -1.
    10030    2    1    2    0    0  0.00000000000E+00  0.00000000000E+00 -0.85039343956E+03  0.33055001807E+04  0.31942389458E+04 0.  0.
        4    1    3    3  502    0  0.54511562965E+03  0.10445532561E+03  0.11245402507E+04  0.12540551635E+04  0.12699999809E+01 0.  1.
       -4    1    3    3    0  502 -0.54511562965E+03 -0.10445532561E+03 -0.19749336903E+04  0.20514450172E+04  0.12699999809E+01 0. -1.
</event>
<event>
 5   0  0.2891204E-07  0.3210306E+04  0.7818609E-02  0.8186101E-01
        1   -1    0    0  501    0  0.00000000000E+00  0.00000000000E+00  0.20365615208E+04  0.20365615208E+04  0.50400001928E-02 0. -1.
       -1   -1    0    0    0  501  0.00000000000E+00  0.00000000000E+00 -0.12651305114E+04  0.12651305114E+04  0.50400001928E-02 0.  1.
    10030    2    1    2    0    0  0.00000000000E+00  0.00000000000E+00  0.77143100936E+03  0.33016920322E+04  0.32103059781E+04 0.  0.
        4    1    3    3  502    0  0.55051132992E+03  0.85575379424E+02 -0.11625035688E+04  0.12891090064E+04  0.12699999809E+01 0.  1.
       -4    1    3    3    0  502 -0.55051132992E+03 -0.85575379424E+02  0.19339345782E+04  0.20125830258E+04  0.12699999809E+01 0. -1.
</event>
<event>
 5   0  0.8802800E-07  0.3191938E+04  0.7818609E-02  0.8190950E-01
        2   -1    0    0  501    0  0.00000000000E+00  0.00000000000E+00  0.19154577088E+04  0.19154577088E+04  0.25500000920E-02 0. -1.
       -2   -1    0    0    0  501  0.00000000000E+00  0.00000000000E+00 -0.13297692396E+04  0.13297692396E+04  0.25500000920E-02 0.  1.
    10030    2    1    2    0    0  0.00000000000E+00  0.00000000000E+00  0.58568846916E+03  0.32452269484E+04  0.31919378070E+04 0.  0.
        5    1    3    3  502    0  0.25261338347E+03 -0.92192627246E+03 -0.10065113925E+04  0.13881098107E+04  0.46999998093E+01 0.  1.
       -5    1    3    3    0  502 -0.25261338347E+03  0.92192627246E+03  0.15921998617E+04  0.18571171377E+04  0.46999998093E+01 0. -1.
</event>
<event>
 5   0  0.8488469E-07  0.3222968E+04  0.7818609E-02  0.8182778E-01
       -2   -1    0    0    0  501  0.00000000000E+00  0.00000000000E+00  0.14300097764E+04  0.14300097764E+04  0.25500000920E-02 0.  1.
        2   -1    0    0  501    0  0.00000000000E+00  0.00000000000E+00 -0.18159883962E+04  0.18159883962E+04  0.25500000920E-02 0. -1.
    10030    2    1    2    0    0  0.00000000000E+00  0.00000000000E+00 -0.38597861986E+03  0.32459981726E+04  0.32229682967E+04 0.  0.
        3    1    3    3  502    0  0.85961651406E+03  0.12151908346E+04  0.42887868851E+03  0.15490533417E+04  0.10100000352E+00 0.  1.
       -3    1    3    3    0  502 -0.85961651406E+03 -0.12151908346E+04 -0.81485730838E+03  0.16969448309E+04  0.10100000352E+00 0. -1.
</event>
<event>
 5   0  0.8335929E-07  0.3209448E+04  0.7818609E-02  0.8186326E-01
       -2   -1    0    0    0  501  0.00000000000E+00  0.00000000000E+00  0.10235219525E+04  0.10235219525E+04  0.25500000920E-02 0. -1.
        2   -1    0    0  501    0  0.00000000000E+00  0.00000000000E+00 -0.25159586801E+04  0.25159586801E+04  0.25500000920E-02 0.  1.
    10030    2    1    2    0    0  0.00000000000E+00  0.00000000000E+00 -0.14924367276E+04  0.35394806325E+04  0.32094478906E+04 0.  0.
        4    1    3    3  502    0  0.35899003065E+03 -0.15110580032E+04 -0.30101410637E+03  0.15820180897E+04  0.12699999809E+01 0. -1.
       -4    1    3    3    0  502 -0.35899003065E+03  0.15110580032E+04 -0.11914226212E+04  0.19574625428E+04  0.12699999809E+01 0.  1.
</event>
<event>
 5   0  0.2783875E-07  0.3203705E+04  0.7818609E-02  0.8187839E-01
       -1   -1    0    0    0  501  0.00000000000E+00  0.00000000000E+00  0.17268324750E+04  0.17268324750E+04  0.50400001928E-02 0.  1.
        1   -1    0    0  501    0  0.00000000000E+00  0.00000000000E+00 -0.14859183245E+04  0.14859183245E+04  0.50400001928E-02 0. -1.
    10030    2    1    2    0    0  0.00000000000E+00  0.00000000000E+00  0.24091415047E+03  0.32127507995E+04  0.32037053660E+04 0.  0.
        2    1    3    3  502    0  0.19031321647E+03 -0.37536066108E+03 -0.14294866738E+04  0.14901499578E+04  0.25500000920E-02 0. -1.
       -2    1    3    3    0  502 -0.19031321647E+03  0.37536066108E+03  0.16704008242E+04  0.17226008417E+04  0.25500000920E-02 0.  1.
</event>
<event>
 5   0  0.8488469E-07  0.3201574E+04  0.7818609E-02  0.8188402E-01
       -2   -1    0    0    0  501  0.00000000000E+00  0.00000000000E+00  0.16642985039E+04  0.16642985039E+04  0.25500000920E-02 0. -1.
        2   -1    0    0  501    0  0.00000000000E+00  0.00000000000E+00 -0.15396989316E+04  0.15396989316E+04  0.25500000920E-02 0.  1.
    10030    2    1    2    0    0  0.00000000000E+00  0.00000000000E+00  0.12459957233E+03  0.32039974356E+04  0.32015737558E+04 0.  0.
        3    1    3    3  502    0 -0.11055360940E+04  0.29027615114E+03 -0.10592842569E+04  0.15583816753E+04  0.10100000352E+00 0.  1.
       -3    1    3    3    0  502  0.11055360940E+04 -0.29027615114E+03  0.11838838292E+04  0.16456157602E+04  0.10100000352E+00 0. -1.
</event>
<event>
 5   0  0.2997105E-07  0.3203036E+04  0.7818609E-02  0.8188016E-01
       -1   -1    0    0    0  501  0.00000000000E+00  0.00000000000E+00  0.23606367676E+04  0.23606367676E+04  0.50400001928E-02 0.  1.
        1   -1    0    0  501    0  0.00000000000E+00  0.00000000000E+00 -0.10865121640E+04  0.10865121640E+04  0.50400001928E-02 0. -1.
    10030    2    1    2    0    0  0.00000000000E+00  0.00000000000E+00  0.12741246035E+04  0.34471489316E+04  0.32030364112E+04 0.  0.
        3    1    3    3  502    0  0.10090255069E+04 -0.28689023119E+03  0.19394230691E+04  0.22049490537E+04  0.10100000352E+00 0.  1.
       -3    1    3    3    0  502 -0.10090255069E+04  0.28689023119E+03 -0.66529846554E+03  0.12421998779E+04  0.10100000352E+00 0. -1.
</event>
<event>
 5   0  0.8335929E-07  0.3078934E+04  0.7818609E-02  0.8221543E-01
       -2   -1    0    0    0  501  0.00000000000E+00  0.00000000000E+00  0.85249342007E+03  0.85249342007E+03  0.25500000920E-02 0. -1.
        2   -1    0    0  501    0  0.00000000000E+00  0.00000000000E+00 -0.27800307761E+04  0.27800307761E+04  0.25500000920E-02 0.  1.
    10030    2    1    2    0    0  0.00000000000E+00  0.00000000000E+00 -0.19275373560E+04  0.36325241962E+04  0.30789335454E+04 0.  0.
        4    1    3    3  502    0  0.69900445689E+03  0.10737992679E+04  0.43080958221E+02  0.12819944151E+04  0.12699999809E+01 0. -1.
       -4    1    3    3    0  502 -0.69900445689E+03 -0.10737992679E+04 -0.19706183142E+04  0.23505297811E+04  0.12699999809E+01 0.  1.
</event>
<event>
 5   0  0.3013888E-07  0.3201622E+04  0.7818609E-02  0.8188389E-01
        1   -1    0    0  501    0  0.00000000000E+00  0.00000000000E+00  0.18664335837E+04  0.18664335837E+04  0.50400001928E-02 0. -1.
       -1   -1    0    0    0  501  0.00000000000E+00  0.00000000000E+00 -0.13729906866E+04  0.13729906866E+04  0.50400001928E-02 0.  1.
    10030    2    1    2    0    0  0.00000000000E+00  0.00000000000E+00  0.49344289711E+03  0.32394242703E+04  0.32016220436E+04 0.  0.
        1    1    3    3  502    0  0.26566358250E+03  0.13531359174E+04  0.10693661213E+04  0.17450208742E+04  0.50400001928E-02 0. -1.
       -1    1    3    3    0  502 -0.26566358250E+03 -0.13531359174E+04 -0.57592322423E+03  0.14944033961E+04  0.50400001928E-02 0.  1.
</event>
<event>
 5   0  0.8802800E-07  0.3197606E+04  0.7818609E-02  0.8189450E-01
        2   -1    0    0  501    0  0.00000000000E+00  0.00000000000E+00  0.73904337525E+03  0.73904337526E+03  0.25500000920E-02 0.  1.
       -2   -1    0    0    0  501  0.00000000000E+00  0.00000000000E+00 -0.34587559915E+04  0.34587559915E+04  0.25500000920E-02 0. -1.
    10030    2    1    2    0    0  0.00000000000E+00  0.00000000000E+00 -0.27197126162E+04  0.41977993667E+04  0.31976057932E+04 0.  0.
        5    1    3    3  502    0 -0.54506032119E+03 -0.19366740920E+03 -0.33165591657E+04  0.33666280770E+04  0.46999998093E+01 0. -1.
       -5    1    3    3    0  502  0.54506032119E+03  0.19366740920E+03  0.59684654953E+03  0.83117128969E+03  0.46999998093E+01 0.  1.
</event>
<event>
 5   0  0.3075756E-07  0.3202509E+04  0.7818609E-02  0.8188155E-01
       -1   -1    0    0    0  501  0.00000000000E+00  0.00000000000E+00  0.13406074556E+04  0.13406074557E+04  0.50400001928E-02 0. -1.
        1   -1    0    0  501    0  0.00000000000E+00  0.00000000000E+00 -0.19125781817E+04  0.19125781817E+04  0.50400001928E-02 0.  1.
    10030    2    1    2    0    0  0.00000000000E+00  0.00000000000E+00 -0.57197072605E+03  0.32531856374E+04  0.32025093723E+04 0.  0.
        5    1    3    3  502    0  0.32082929173E+03 -0.15679466396E+04 -0.23412478262E+03  0.16174747611E+04  0.46999998093E+01 0. -1.
       -5    1    3    3    0  502 -0.32082929173E+03  0.15679466396E+04 -0.33784594343E+03  0.16357108762E+04  0.46999998093E+01 0.  1.
</event>
<event>
 5   0  0.3075756E-07  0.3030330E+04  0.7818609E-02  0.8235123E-01
        1   -1    0    0  501    0  0.00000000000E+00  0.00000000000E+00  0.15591364673E+04  0.15591364673E+04  0.50400001928E-02 0. -1.
       -1   -1    0    0    0  501  0.00000000000E+00  0.00000000000E+00 -0.14724338935E+04  0.14724338935E+04  0.50400001928E-02 0.  1.
    10030    2    1    2    0    0  0.00000000000E+00  0.00000000000E+00  0.86702573764E+02  0.30315703608E+04  0.30303302652E+04 0.  0.
        5    1    3    3  502    0  0.24725836078E+03 -0.13663417118E+04  0.64996311304E+03  0.15331342109E+04  0.46999998093E+01 0.  1.
       -5    1    3    3    0  502 -0.24725836078E+03  0.13663417118E+04 -0.56326053928E+03  0.14984361499E+04  0.46999998093E+01 0. -1.
</event>
<event>
 5   0  0.8802800E-07  0.3142282E+04  0.7818609E-02  0.8204229E-01
       -2   -1    0    0    0  501  0.00000000000E+00  0.00000000000E+00  0.15642004286E+04  0.15642004286E+04  0.25500000920E-02 0. -1.
        2   -1    0    0  501    0  0.00000000000E+00  0.00000000000E+00 -0.15781125277E+04  0.15781125277E+04  0.25500000920E-02 0.  1.
    10030    2    1    2    0    0  0.00000000000E+00  0.00000000000E+00 -0.13912099127E+02  0.31423129562E+04  0.31422821593E+04 0.  0.
        5    1    3    3  502    0 -0.29182322462E+02 -0.11691988817E+04 -0.10560538251E+04  0.15758011944E+04  0.46999998093E+01 0.  1.
       -5    1    3    3    0  502  0.29182322462E+02  0.11691988817E+04  0.10421417260E+04  0.15665117618E+04  0.46999998093E+01 0. -1.
</event>
<event>
 5   0  0.2891204E-07  0.3175281E+04  0.7818609E-02  0.8195376E-01
        1   -1    0    0  501    0  0.00000000000E+00  0.00000000000E+00  0.18260684439E+04  0.18260684439E+04  0.50400001928E-02 0. -1.
       -1   -1    0    0    0  501  0.00000000000E+00  0.00000000000E+00 -0.13803437070E+04  0.13803437070E+04  0.50400001928E-02 0.  1.
    10030    2    1    2    0    0  0.00000000000E+00  0.00000000000E+00  0.44572473694E+03  0.32064121509E+04  0.31752808286E+04 0.  0.
        4    1    3    3  502    0  0.27259923689E+03 -0.10389586476E+04 -0.95772582659E+03  0.14390920010E+04  0.12699999809E+01 0.  1.
       -4    1    3    3    0  502 -0.27259923689E+03  0.10389586476E+04  0.14034505635E+04  0.17673201500E+04  0.12699999809E+01 0. -1.
</event>
<event>
 5   0  0.2891204E-07  0.3096903E+04  0.7818609E-02  0.8216588E-01
       -1   -1    0    0    0  501  0.00000000000E+00  0.00000000000E+00  0.19865126085E+04  0.19865126085E+04  0.50400001928E-02 0. -1.
        1   -1    0    0  501    0  0.00000000000E+00  0.00000000000E+00 -0.12069908968E+04  0.12069908968E+04  0.50400001928E-02 0.  1.
    10030    2    1    2    0    0  0.00000000000E+00  0.00000000000E+00  0.77952171167E+03  0.31935035053E+04  0.30969033790E+04 0.  0.
        4    1    3    3  502    0  0.13430207329E+04  0.75043244241E+03  0.57087384669E+03  0.16409607251E+04  0.12699999809E+01 0. -1.
       -4    1    3    3    0  502 -0.13430207329E+04 -0.75043244241E+03  0.20864786499E+03  0.15525427801E+04  0.12699999809E+01 0.  1.
</event>
<event>
 5   0  0.3075756E-07  0.3212355E+04  0.7818609E-02  0.8185562E-01
       -1   -1    0    0    0  501  0.00000000000E+00  0.00000000000E+00  0.12679468188E+04  0.12679468189E+04  0.50400001928E-02 0. -1.
        1   -1    0    0  501    0  0.00000000000E+00  0.00000000000E+00 -0.20346329528E+04  0.20346329528E+04  0.50400001928E-02 0.  1.
    10030    2    1    2    0    0  0.00000000000E+00  0.00000000000E+00 -0.76668613397E+03  0.33025797717E+04  0.32123551361E+04 0.  0.
        5    1    3    3  502    0 -0.11943921559E+04  0.60264587134E+03 -0.12971436951E+04  0.18634265545E+04  0.46999998093E+01 0.  1.
       -5    1    3    3    0  502  0.11943921559E+04 -0.60264587134E+03  0.53045756111E+03  0.14391532172E+04  0.46999998093E+01 0. -1.
</event>
<event>
 5   0  0.2891204E-07  0.3221991E+04  0.7818609E-02  0.8183033E-01
        1   -1    0    0  501    0  0.00000000000E+00  0.00000000000E+00  0.22198216038E+04  0.22198216038E+04  0.50400001928E-02 0. -1.
       -1   -1    0    0    0  501  0.00000000000E+00  0.00000000000E+00 -0.11691509483E+04  0.11691509483E+04  0.50400001928E-02 0.  1.
    10030    2    1    2    0    0  0.00000000000E+00  0.00000000000E+00  0.10506706555E+04  0.33889725522E+04  0.32219910200E+04 0.  0.
        4    1    3    3  502    0  0.12222272982E+03  0.58885930776E+03 -0.10466464919E+04  0.12071305529E+04  0.12699999809E+01 0.  1.
       -4    1    3    3    0  502 -0.12222272982E+03 -0.58885930776E+03  0.20973171474E+04  0.21818419992E+04  0.12699999809E+01 0. -1.
</event>
<event>
 5   0  0.2891204E-07  0.3202140E+04  0.7818609E-02  0.8188252E-01
        1   -1    0    0  501    0  0.00000000000E+00  0.00000000000E+00  0.19402522059E+04  0.19402522059E+04  0.50400001928E-02 0. -1.
       -1   -1    0    0    0  501  0.00000000000E+00  0.00000000000E+00 -0.13211814213E+04  0.13211814213E+04  0.50400001928E-02 0.  1.
    10030    2    1    2    0    0  0.00000000000E+00  0.00000000000E+00  0.61907078464E+03  0.32614336272E+04  0.32021400138E+04 0.  0.
        4    1    3    3  502    0  0.12813463315E+03  0.15246640163E+04  0.78986594792E+03  0.17218910173E+04  0.12699999809E+01 0. -1.
       -4    1    3    3    0  502 -0.12813463315E+03 -0.15246640163E+04 -0.17079516328E+03  0.15395426099E+04  0.12699999809E+01 0.  1.
</event>
<event>
 5   0  0.2891204E-07  0.3207065E+04  0.7818609E-02  0.8186954E-01
       -1   -1    0    0    0  501  0.00000000000E+00  0.00000000000E+00  0.10184838504E+04  0.10184838504E+04  0.50400001928E-02 0.  1.
        1   -1    0    0  501    0  0.00000000000E+00  0.00000000000E+00 -0.25246511685E+04  0.25246511685E+04  0.50400001928E-02 0. -1.
    10030    2    1    2    0    0  0.00000000000E+00  0.00000000000E+00 -0.15061673181E+04  0.35431350190E+04  0.32070649779E+04 0.  0.
        4    1    3    3  502    0  0.14812628705E+04  0.37670035635E+03 -0.21720674563E+03  0.15437691645E+04  0.12699999809E+01 0.  1.
       -4    1    3    3    0  502 -0.14812628705E+04 -0.37670035635E+03 -0.12889605724E+04  0.19993658545E+04  0.12699999809E+01 0. -1.
</event>
<event>
 5   0  0.3013888E-07  0.2977320E+04  0.7818609E-02  0.8250237E-01
        1   -1    0    0  501    0  0.00000000000E+00  0.00000000000E+00  0.19319493990E+04  0.19319493990E+04  0.50400001928E-02 0. -1.
       -1   -1    0    0    0  501  0.00000000000E+00  0.00000000000E+00 -0.11470841276E+04  0.11470841276E+04  0.50400001928E-02 0.  1.
    10030    2    1    2    0    0  0.00000000000E+00  0.00000000000E+00  0.78486527140E+03  0.30790335267E+04  0.29773199298E+04 0.  0.
        1    1    3    3  502    0  0.80453552477E+03  0.11094835552E+04 -0.20869740859E+03  0.13862848835E+04  0.50400001928E-02 0.  1.
       -1    1    3    3    0  502 -0.80453552477E+03 -0.11094835552E+04  0.99356267999E+03  0.16927486432E+04  0.50400001928E-02 0. -1.
</event>
<event>
 5   0  0.8838951E-07  0.3284896E+04  0.7818609E-02  0.8166749E-01
       -2   -1    0    0    0  501  0.00000000000E+00  0.00000000000E+00  0.96657089695E+03  0.96657089695E+03  0.25500000920E-02 0. -1.
        2   -1    0    0  501    0  0.00000000000E+00  0.00000000000E+00 -0.27909335419E+04  0.27909335419E+04  0.25500000920E-02 0.  1.
    10030    2    1    2    0    0  0.00000000000E+00  0.00000000000E+00 -0.18243626450E+04  0.37575044389E+04  0.32848958199E+04 0.  0.
        2    1    3    3  502    0  0.21673556371E+03 -0.16093754617E+04 -0.11937030420E+04  0.20154380750E+04  0.25500000920E-02 0.  1.
       -2    1    3    3    0  502 -0.21673556371E+03  0.16093754617E+04 -0.63065960295E+03  0.17420663639E+04  0.25500000920E-02 0. -1.
</event>
<event>
 5   0  0.3013888E-07  0.3202678E+04  0.7818609E-02  0.8188110E-01
       -1   -1    0    0    0  501  0.00000000000E+00  0.00000000000E+00  0.20755884713E+04  0.20755884713E+04  0.50400001928E-02 0. -1.
        1   -1    0    0  501    0  0.00000000000E+00  0.00000000000E+00 -0.12354502127E+04  0.12354502127E+04  0.50400001928E-02 0.  1.
    10030    2    1    2    0    0  0.00000000000E+00  0.00000000000E+00  0.84013825858E+03  0.33110386841E+04  0.32026777662E+04 0.  0.
        1    1    3    3  502    0 -0.47277056885E+03  0.10815222075E+04 -0.69871170859E+03  0.13716414794E+04  0.50400001928E-02 0.  1.
       -1    1    3    3    0  502  0.47277056885E+03 -0.10815222075E+04  0.15388499672E+04  0.19393972047E+04  0.50400001928E-02 0. -1.
</event>
<event>
 5   0  0.2891204E-07  0.3206434E+04  0.7818609E-02  0.8187120E-01
        1   -1    0    0  501    0  0.00000000000E+00  0.00000000000E+00  0.16062509995E+04  0.16062509995E+04  0.50400001928E-02 0.  1.
       -1   -1    0    0    0  501  0.00000000000E+00  0.00000000000E+00 -0.16001884301E+04  0.16001884301E+04  0.50400001928E-02 0. -1.
    10030    2    1    2    0    0  0.00000000000E+00  0.00000000000E+00  0.60625693896E+01  0.32064394297E+04  0.32064336983E+04 0.  0.
        4    1    3    3  502    0 -0.10893589202E+04  0.57137854471E+03 -0.10251370543E+04  0.16012757075E+04  0.12699999809E+01 0. -1.
       -4    1    3    3    0  502  0.10893589202E+04 -0.57137854471E+03  0.10311996237E+04  0.16051637222E+04  0.12699999809E+01 0.  1.
</event>
<event>
 5   0  0.8802800E-07  0.3200104E+04  0.7818609E-02  0.8188790E-01
        2   -1    0    0  501    0  0.00000000000E+00  0.00000000000E+00  0.21223885208E+04  0.21223885208E+04  0.25500000920E-02 0.  1.
       -2   -1    0    0    0  501  0.00000000000E+00  0.00000000000E+00 -0.12062667304E+04  0.12062667304E+04  0.25500000920E-02 0. -1.
    10030    2    1    2    0    0  0.00000000000E+00  0.00000000000E+00  0.91612179041E+03  0.33286552511E+04  0.32001041617E+04 0.  0.
        5    1    3    3  502    0  0.26373487314E+03 -0.15781070184E+04  0.47149185825E+03  0.16680241327E+04  0.46999998093E+01 0.  1.
       -5    1    3    3    0  502 -0.26373487314E+03  0.15781070184E+04  0.44462993216E+03  0.16606311184E+04  0.46999998093E+01 0. -1.
</event>
<event>
 5   0  0.8802800E-07  0.3198830E+04  0.7818609E-02  0.8189126E-01
       -2   -1    0    0    0  501  0.00000000000E+00  0.00000000000E+00  0.15319565138E+04  0.15319565138E+04  0.25500000920E-02 0.  1.
        2   -1    0    0  501    0  0.00000000000E+00  0.00000000000E+00 -0.16698437896E+04  0.16698437896E+04  0.25500000920E-02 0. -1.
    10030    2    1    2    0    0  0.00000000000E+00  0.00000000000E+00 -0.13788727585E+03  0.32018003034E+04  0.31988298301E+04 0.  0.
        5    1    3    3  502    0  0.14777138083E+04 -0.12893715996E+03  0.52981173262E+03  0.15751144252E+04  0.46999998093E+01 0.  1.
       -5    1    3    3    0  502 -0.14777138083E+04  0.12893715996E+03 -0.66769900846E+03  0.16266858782E+04  0.46999998093E+01 0. -1.
</event>
<event>
 5   0  0.2997105E-07  0.3185968E+04  0.7818609E-02  0.8192533E-01
       -1   -1    0    0    0  501  0.00000000000E+00  0.00000000000E+00  0.14676317930E+04  0.14676317930E+04  0.50400001928E-02 0. -1.
        1   -1    0    0  501    0  0.00000000000E+00  0.00000000000E+00 -0.17290425258E+04  0.17290425259E+04  0.50400001928E-02 0.  1.
    10030    2    1    2    0    0  0.00000000000E+00  0.00000000000E+00 -0.26141073282E+03  0.31966743189E+04  0.31859678482E+04 0.  0.
        3    1    3    3  502    0  0.82213538584E+03 -0.10803787518E+04  0.70544554032E+03  0.15299602153E+04  0.10100000352E+00 0. -1.
       -3    1    3    3    0  502 -0.82213538584E+03  0.10803787518E+04 -0.96685627314E+03  0.16667141036E+04  0.10100000352E+00 0.  1.
</event>
<event>
 5   0  0.2891204E-07  0.3203788E+04  0.7818609E-02  0.8187817E-01
        1   -1    0    0  501    0  0.00000000000E+00  0.00000000000E+00  0.12218403688E+04  0.12218403688E+04  0.50400001928E-02 0. -1.
       -1   -1    0    0    0  501  0.00000000000E+00  0.00000000000E+00 -0.21001636089E+04  0.21001636089E+04  0.50400001928E-02 0.  1.
    10030    2    1    2    0    0  0.00000000000E+00  0.00000000000E+00 -0.87832324005E+03  0.33220039777E+04  0.32037881818E+04 0.  0.
        4    1    3    3  502    0  0.15908820933E+03 -0.42873272640E+03 -0.20310434457E+04  0.20818885418E+04  0.12699999809E+01 0.  1.
       -4    1    3    3    0  502 -0.15908820933E+03  0.42873272640E+03  0.11527202057E+04  0.12401154360E+04  0.12699999809E+01 0. -1.
</event>
<event>
 5   0  0.2891204E-07  0.3233447E+04  0.7818609E-02  0.8180039E-01
        1   -1    0    0  501    0  0.00000000000E+00  0.00000000000E+00  0.24819812313E+04  0.24819812313E+04  0.50400001928E-02 0.  1.
       -1   -1    0    0    0  501  0.00000000000E+00  0.00000000000E+00 -0.10531082664E+04  0.10531082664E+04  0.50400001928E-02 0. -1.
    10030    2    1    2    0    0  0.00000000000E+00  0.00000000000E+00  0.14288729649E+04  0.35350894977E+04  0.32334470472E+04 0.  0.
        4    1    3    3  502    0 -0.12989112932E+04  0.19258422012E+03  0.17455725145E+04  0.21843269549E+04  0.12699999809E+01 0.  1.
       -4    1    3    3    0  502  0.12989112932E+04 -0.19258422012E+03 -0.31669954963E+03  0.13507625428E+04  0.12699999809E+01 0. -1.
</event>
<event>
 5   0  0.8335929E-07  0.3114270E+04  0.7818609E-02  0.8211833E-01
       -2   -1    0    0    0  501  0.00000000000E+00  0.00000000000E+00  0.21777305717E+04  0.21777305717E+04  0.25500000920E-02 0.  1.
        2   -1    0    0  501    0  0.00000000000E+00  0.00000000000E+00 -0.11133924896E+04  0.11133924896E+04  0.25500000920E-02 0. -1.
    10030    2    1    2    0    0  0.00000000000E+00  0.00000000000E+00  0.10643380821E+04  0.32911230613E+04  0.31142696498E+04 0.  0.
        4    1    3    3  502    0 -0.37613134238E+03 -0.43494048818E+03  0.20614181695E+04  0.21401155337E+04  0.12699999809E+01 0.  1.
       -4    1    3    3    0  502  0.37613134238E+03  0.43494048818E+03 -0.99708008743E+03  0.11510075276E+04  0.12699999809E+01 0. -1.
</event>
<event>
 5   0  0.2783875E-07  0.3242613E+04  0.7818609E-02  0.8177653E-01
        3   -1    0    0  501    0  0.00000000000E+00  0.00000000000E+00  0.24502260615E+04  0.24502260636E+04  0.10100000352E+00 0.  1.
       -3   -1    0    0    0  501  0.00000000000E+00  0.00000000000E+00 -0.10728129856E+04  0.10728129904E+04  0.10100000352E+00 0. -1.
    10030    2    1    2    0    0  0.00000000000E+00  0.00000000000E+00  0.13774130759E+04  0.35230390540E+04  0.32426127419E+04 0.  0.
        3    1    3    3  502    0  0.13196086525E+04 -0.77048456424E+03  0.99976981466E+02  0.15313421782E+04  0.10100000352E+00 0.  1.
       -3    1    3    3    0  502 -0.13196086525E+04  0.77048456424E+03  0.12774360945E+04  0.19916968758E+04  0.10100000352E+00 0. -1.
</event>
<event>
 5   0  0.2997105E-07  0.3204784E+04  0.7818609E-02  0.8187555E-01
       -1   -1    0    0    0  501  0.00000000000E+00  0.00000000000E+00  0.10350970992E+04  0.10350970992E+04  0.50400001928E-02 0. -1.
        1   -1    0    0  501    0  0.00000000000E+00  0.00000000000E+00 -0.24805988124E+04  0.24805988124E+04  0.50400001928E-02 0.  1.
    10030    2    1    2    0    0  0.00000000000E+00  0.00000000000E+00 -0.14455017133E+04  0.35156959116E+04  0.32047843204E+04 0.  0.
        3    1    3    3  502    0  0.47409113909E+03 -0.70156286533E+03 -0.22151377288E+04  0.23714527256E+04  0.10100000352E+00 0.  1.
       -3    1    3    3    0  502 -0.47409113909E+03  0.70156286533E+03  0.76963601552E+03  0.11442431860E+04  0.10100000352E+00 0. -1.
</event>
<event>
 5   0  0.8838951E-07  0.3196074E+04  0.7818609E-02  0.8189855E-01
        2   -1    0    0  501    0  0.00000000000E+00  0.00000000000E+00  0.26350742721E+04  0.26350742721E+04  0.25500000920E-02 0. -1.
       -2   -1    0    0    0  501  0.00000000000E+00  0.00000000000E+00 -0.96912710344E+03  0.96912710345E+03  0.25500000920E-02 0.  1.
    10030    2    1    2    0    0  0.00000000000E+00  0.00000000000E+00  0.16659471687E+04  0.36042013756E+04  0.31960737768E+04 0.  0.
        2    1    3    3  502    0 -0.10648042648E+04  0.52775171800E+03  0.20377588432E+04  0.23589809455E+04  0.25500000920E-02 0. -1.
       -2    1    3    3    0  502  0.10648042648E+04 -0.52775171800E+03 -0.37181167456E+03  0.12452204301E+04  0.25500000920E-02 0.  1.
</event>
<event>
 5   0  0.8802800E-07  0.3181142E+04  0.7818609E-02  0.8193815E-01
        2   -1    0    0  501    0  0.00000000000E+00  0.00000000000E+00  0.22778497781E+04  0.22778497781E+04  0.25500000920E-02 0. -1.
       -2   -1    0    0    0  501  0.00000000000E+00  0.00000000000E+00 -0.11106597191E+04  0.11106597191E+04  0.25500000920E-02 0.  1.
    10030    2    1    2    0    0  0.00000000000E+00  0.00000000000E+00  0.11671900589E+04  0.33885094972E+04  0.31811419300E+04 0.  0.
        5    1    3    3  502    0  0.32607345745E+03  0.14800682803E+04  0.69464143108E+02  0.15171596394E+04  0.46999998093E+01 0.  1.
       -5    1    3    3    0  502 -0.32607345745E+03 -0.14800682803E+04  0.10977259158E+04  0.18713498578E+04  0.46999998093E+01 0. -1.
</event>
<event>
 5   0  0.8488469E-07  0.3198753E+04  0.7818609E-02  0.8189147E-01
       -2   -1    0    0    0  501  0.00000000000E+00  0.00000000000E+00  0.12838633929E+04  0.12838633929E+04  0.25500000920E-02 0. -1.
        2   -1    0    0  501    0  0.00000000000E+00  0.00000000000E+00 -0.19924276487E+04  0.19924276487E+04  0.25500000920E-02 0.  1.
    10030    2    1    2    0    0  0.00000000000E+00  0.00000000000E+00 -0.70856425581E+03  0.32762910416E+04  0.31987528327E+04 0.  0.
        3    1    3    3  502    0 -0.81039812680E+03 -0.13784258291E+04 -0.31877154571E+03  0.16304656386E+04  0.10100000352E+00 0.  1.
       -3    1    3    3    0  502  0.81039812680E+03  0.13784258291E+04 -0.38979271010E+03  0.16458254030E+04  0.10100000352E+00 0. -1.
</event>
<event>
 5   0  0.2783875E-07  0.3198340E+04  0.7818609E-02  0.8189256E-01
        1   -1    0    0  501    0  0.00000000000E+00  0.00000000000E+00  0.18288866057E+04  0.18288866057E+04  0.50400001928E-02 0.  1.
       -1   -1    0    0    0  501  0.00000000000E+00  0.00000000000E+00 -0.13983068417E+04  0.13983068417E+04  0.50400001928E-02 0. -1.
    10030    2    1    2    0    0  0.00000000000E+00  0.00000000000E+00  0.43057976400E+03  0.32271934475E+04  0.31983399779E+04 0.  0.
        2    1    3    3  502    0  0.18045953253E+03 -0.81613520763E+03 -0.11603516989E+04  0.14300553783E+04  0.25500000920E-02 0. -1.
       -2    1    3    3    0  502 -0.18045953253E+03  0.81613520763E+03  0.15909314629E+04  0.17971380691E+04  0.25500000920E-02 0.  1.
</event>
<event>
 5   0  0.8488469E-07  0.3199887E+04  0.7818609E-02  0.8188847E-01
        2   -1    0    0  501    0  0.00000000000E+00  0.00000000000E+00  0.25272610544E+04  0.25272610544E+04  0.25500000920E-02 0. -1.
       -2   -1    0    0    0  501  0.00000000000E+00  0.00000000000E+00 -0.10128825788E+04  0.10128825788E+04  0.25500000920E-02 0.  1.
    10030    2    1    2    0    0  0.00000000000E+00  0.00000000000E+00  0.15143784756E+04  0.35401436332E+04  0.31998866819E+04 0.  0.
        3    1    3    3  502    0 -0.13751104623E+04 -0.27594773312E+02  0.16614970023E+04  0.21569104186E+04  0.10100000352E+00 0. -1.
       -3    1    3    3    0  502  0.13751104623E+04  0.27594773312E+02 -0.14711852672E+03  0.13832332147E+04  0.10100000352E+00 0.  1.
</event>
<event>
 5   0  0.3075756E-07  0.3301111E+04  0.7818609E-02  0.8162613E-01
        1   -1    0    0  501    0  0.00000000000E+00  0.00000000000E+00  0.25636397025E+04  0.25636397025E+04  0.50400001928E-02 0.  1.
       -1   -1    0    0    0  501  0.00000000000E+00  0.00000000000E+00 -0.10626821529E+04  0.10626821529E+04  0.50400001928E-02 0. -1.
    10030    2    1    2    0    0  0.00000000000E+00  0.00000000000E+00  0.15009575495E+04  0.36263218554E+04  0.33011114240E+04 0.  0.
        5    1    3    3  502    0 -0.80866737196E+03  0.30481867697E+03  0.22952331652E+04  0.24525445392E+04  0.46999998093E+01 0.  1.
       -5    1    3    3    0  502  0.80866737196E+03 -0.30481867697E+03 -0.79427561565E+03  0.11737773162E+04  0.46999998093E+01 0. -1.
</event>
<event>
 5   0  0.2997105E-07  0.3189112E+04  0.7818609E-02  0.8191699E-01
       -1   -1    0    0    0  501  0.00000000000E+00  0.00000000000E+00  0.13268022146E+04  0.13268022146E+04  0.50400001928E-02 0. -1.
        1   -1    0    0  501    0  0.00000000000E+00  0.00000000000E+00 -0.19163437429E+04  0.19163437429E+04  0.50400001928E-02 0.  1.
    10030    2    1    2    0    0  0.00000000000E+00  0.00000000000E+00 -0.58954152832E+03  0.32431459575E+04  0.31891121787E+04 0.  0.
        3    1    3    3  502    0  0.82017386754E+02  0.64503221867E+02 -0.19128682066E+04  0.19157119573E+04  0.10100000352E+00 0.  1.
       -3    1    3    3    0  502 -0.82017386754E+02 -0.64503221867E+02  0.13233266783E+04  0.13274340002E+04  0.10100000352E+00 0. -1.
</event>
<event>
 5   0  0.2891204E-07  0.3197503E+04  0.7818609E-02  0.8189477E-01
       -1   -1    0    0    0  501  0.00000000000E+00  0.00000000000E+00  0.13050987464E+04  0.13050987464E+04  0.50400001928E-02 0.  1.
        1   -1    0    0  501    0  0.00000000000E+00  0.00000000000E+00 -0.19584774659E+04  0.19584774659E+04  0.50400001928E-02 0. -1.
    10030    2    1    2    0    0  0.00000000000E+00  0.00000000000E+00 -0.65337871950E+03  0.32635762123E+04  0.31975030794E+04 0.  0.
        4    1    3    3  502    0  0.89954805414E+03 -0.13203037786E+04 -0.26531270785E+03  0.16195002981E+04  0.12699999809E+01 0. -1.
       -4    1    3    3    0  502 -0.89954805414E+03  0.13203037786E+04 -0.38806601166E+03  0.16440759143E+04  0.12699999809E+01 0.  1.
</event>
<event>
 5   0  0.8335929E-07  0.3237590E+04  0.7818609E-02  0.8178960E-01
        2   -1    0    0  501    0  0.00000000000E+00  0.00000000000E+00  0.15442231922E+04  0.15442231922E+04  0.25500000920E-02 0. -1.
       -2   -1    0    0    0  501  0.00000000000E+00  0.00000000000E+00 -0.16969683546E+04  0.16969683546E+04  0.25500000920E-02 0.  1.
    10030    2    1    2    0    0  0.00000000000E+00  0.00000000000E+00 -0.15274516239E+03  0.32411915467E+04  0.32375903938E+04 0.  0.
        4    1    3    3  502    0  0.52376179048E+02  0.12721735795E+03  0.15383594072E+04  0.15444995303E+04  0.12699999809E+01 0. -1.
       -4    1    3    3    0  502 -0.52376179048E+02 -0.12721735795E+03 -0.16911045696E+04  0.16966920164E+04  0.12699999809E+01 0.  1.
</event>
<event>
 5   0  0.2891204E-07  0.3186384E+04  0.7818609E-02  0.8192422E-01
        1   -1    0    0  501    0  0.00000000000E+00  0.00000000000E+00  0.21722042757E+04  0.21722042757E+04  0.50400001928E-02 0.  1.
       -1   -1    0    0    0  501  0.00000000000E+00  0.00000000000E+00 -0.11685184040E+04  0.11685184040E+04  0.50400001928E-02 0. -1.
    10030    2    1    2    0    0  0.00000000000E+00  0.00000000000E+00  0.10036858717E+04  0.33407226797E+04  0.31863839527E+04 0.  0.
        4    1    3    3  502    0  0.14440617455E+04  0.64551051106E+03  0.70148943688E+03  0.17303430838E+04  0.12699999809E+01 0.  1.
       -4    1    3    3    0  502 -0.14440617455E+04 -0.64551051106E+03  0.30219643480E+03  0.16103795959E+04  0.12699999809E+01 0. -1.
</event>
<event>
 5   0  0.8802800E-07  0.3199062E+04  0.7818609E-02  0.8189065E-01
       -2   -1    0    0    0  501  0.00000000000E+00  0.00000000000E+00  0.12908465049E+04  0.12908465049E+04  0.25500000920E-02 0.  1.
        2   -1    0    0  501    0  0.00000000000E+00  0.00000000000E+00 -0.19820327971E+04  0.19820327971E+04  0.25500000920E-02 0. -1.
    10030    2    1    2    0    0  0.00000000000E+00  0.00000000000E+00 -0.69118629216E+03  0.32728793020E+04  0.31990624306E+04 0.  0.
        5    1    3    3  502    0 -0.10816722765E+04 -0.58431126096E+03 -0.13924556080E+04  0.18575223481E+04  0.46999998093E+01 0. -1.
       -5    1    3    3    0  502  0.10816722765E+04  0.58431126096E+03  0.70126931588E+03  0.14153569539E+04  0.46999998093E+01 0.  1.
</event>
<event>
 5   0  0.2997105E-07  0.3192688E+04  0.7818609E-02  0.8190751E-01
       -1   -1    0    0    0  501  0.00000000000E+00  0.00000000000E+00  0.10103133520E+04  0.10103133520E+04  0.50400001928E-02 0.  1.
        1   -1    0    0  501    0  0.00000000000E+00  0.00000000000E+00 -0.25223000288E+04  0.25223000288E+04  0.50400001928E-02 0. -1.
    10030    2    1    2    0    0  0.00000000000E+00  0.00000000000E+00 -0.15119866768E+04  0.35326133808E+04  0.31926875180E+04 0.  0.
        3    1    3    3  502    0  0.68408499986E+03 -0.11302031504E+04  0.23550635376E+03  0.13419369214E+04  0.10100000352E+00 0.  1.
       -3    1    3    3    0  502 -0.68408499986E+03  0.11302031504E+04 -0.17474930305E+04  0.21906764595E+04  0.10100000352E+00 0. -1.
</event>
<event>
 5   0  0.8838951E-07  0.3216369E+04  0.7818609E-02  0.8184507E-01
        2   -1    0    0  501    0  0.00000000000E+00  0.00000000000E+00  0.14092525390E+04  0.14092525390E+04  0.25500000920E-02 0. -1.
       -2   -1    0    0    0  501  0.00000000000E+00  0.00000000000E+00 -0.18351983721E+04  0.18351983721E+04  0.25500000920E-02 0.  1.
    10030    2    1    2    0    0  0.00000000000E+00  0.00000000000E+00 -0.42594583313E+03  0.32444509112E+04  0.32163693603E+04 0.  0.
        2    1    3    3  502    0 -0.44679452245E+02  0.15331520187E+04 -0.70062578120E+03  0.16862466756E+04  0.25500000920E-02 0.  1.
       -2    1    3    3    0  502  0.44679452245E+02 -0.15331520187E+04  0.27467994807E+03  0.15582042355E+04  0.25500000920E-02 0. -1.
</event>
<event>
 5   0  0.8335929E-07  0.3168805E+04  0.7818609E-02  0.8197105E-01
        2   -1    0    0  501    0  0.00000000000E+00  0.00000000000E+00  0.24993171369E+04  0.24993171369E+04  0.25500000920E-02 0. -1.
       -2   -1    0    0    0  501  0.00000000000E+00  0.00000000000E+00 -0.10044068452E+04  0.10044068452E+04  0.25500000920E-02 0.  1.
    10030    2    1    2    0    0  0.00000000000E+00  0.00000000000E+00  0.14949102917E+04  0.35037239821E+04  0.31688049738E+04 0.  0.
        4    1    3    3  502    0 -0.95297375075E+03 -0.94839110927E+03 -0.17943243893E+03  0.13563931137E+04  0.12699999809E+01 0.  1.
       -4    1    3    3    0  502  0.95297375075E+03  0.94839110927E+03  0.16743427307E+04  0.21473308684E+04  0.12699999809E+01 0. -1.
</event>
<event>
 5   0  0.8838951E-07  0.3194741E+04  0.7818609E-02  0.8190207E-01
        2   -1    0    0  501    0  0.00000000000E+00  0.00000000000E+00  0.13469680927E+04  0.13469680927E+04  0.25500000920E-02 0. -1.
       -2   -1    0    0    0  501  0.00000000000E+00  0.00000000000E+00 -0.18943229171E+04  0.18943229171E+04  0.25500000920E-02 0.  1.
    10030    2    1    2    0    0  0.00000000000E+00  0.00000000000E+00 -0.54735482443E+03  0.32412910098E+04  0.31947410077E+04 0.  0.
        2    1    3    3  502    0  0.44384494641E+03 -0.52785597180E+03  0.11881365161E+04  0.13737898836E+04  0.25500000920E-02 0. -1.
       -2    1    3    3    0  502 -0.44384494641E+03  0.52785597180E+03 -0.17354913405E+04  0.18675011262E+04  0.25500000920E-02 0.  1.
</event>
<event>
 5   0  0.2891204E-07  0.3233738E+04  0.7818609E-02  0.8179964E-01
        1   -1    0    0  501    0  0.00000000000E+00  0.00000000000E+00  0.15854633063E+04  0.15854633063E+04  0.50400001928E-02 0. -1.
       -1   -1    0    0    0  501  0.00000000000E+00  0.00000000000E+00 -0.16488965222E+04  0.16488965222E+04  0.50400001928E-02 0.  1.
    10030    2    1    2    0    0  0.00000000000E+00  0.00000000000E+00 -0.63433215868E+02  0.32343598285E+04  0.32337377332E+04 0.  0.
        4    1    3    3  502    0 -0.14049897404E+04 -0.69877265593E+03 -0.42164276177E+03  0.16248272606E+04  0.12699999809E+01 0.  1.
       -4    1    3    3    0  502  0.14049897404E+04  0.69877265593E+03  0.35820954590E+03  0.16095325679E+04  0.12699999809E+01 0. -1.
</event>
<event>
 5   0  0.8802800E-07  0.3193704E+04  0.7818609E-02  0.8190482E-01
        2   -1    0    0  501    0  0.00000000000E+00  0.00000000000E+00  0.19187252929E+04  0.19187252929E+04  0.25500000920E-02 0.  1.
       -2   -1    0    0    0  501  0.00000000000E+00  0.00000000000E+00 -0.13289743090E+04  0.13289743090E+04  0.25500000920E-02 0. -1.
    10030    2    1    2    0    0  0.00000000000E+00  0.00000000000E+00  0.58975098392E+03  0.32476996019E+04  0.31937041944E+04 0.  0.
        5    1    3    3  502    0 -0.55844125717E+03 -0.38395655616E+02  0.18156812139E+04  0.19000134801E+04  0.46999998093E+01 0.  1.
       -5    1    3    3    0  502  0.55844125717E+03  0.38395655616E+02 -0.12259302300E+04  0.13476861218E+04  0.46999998093E+01 0. -1.
</event>
<event>
 5   0  0.2783875E-07  0.3210631E+04  0.7818609E-02  0.8186015E-01
        1   -1    0    0  501    0  0.00000000000E+00  0.00000000000E+00  0.92991812632E+03  0.92991812633E+03  0.50400001928E-02 0.  1.
       -1   -1    0    0    0  501  0.00000000000E+00  0.00000000000E+00 -0.27712517923E+04  0.27712517923E+04  0.50400001928E-02 0. -1.
    10030    2    1    2    0    0  0.00000000000E+00  0.00000000000E+00 -0.18413336660E+04  0.37011699187E+04  0.32106306386E+04 0.  0.
        2    1    3    3  502    0  0.61947386607E+03  0.14908226785E+03 -0.26192428161E+04  0.26956272597E+04  0.25500000920E-02 0. -1.
       -2    1    3    3    0  502 -0.61947386607E+03 -0.14908226785E+03  0.77790915007E+03  0.10055426590E+04  0.25500000920E-02 0.  1.
</event>
<event>
 5   0  0.3013888E-07  0.3201844E+04  0.7818609E-02  0.8188330E-01
       -1   -1    0    0    0  501  0.00000000000E+00  0.00000000000E+00  0.91593373096E+03  0.91593373097E+03  0.50400001928E-02 0.  1.
        1   -1    0    0  501    0  0.00000000000E+00  0.00000000000E+00 -0.27981836832E+04  0.27981836832E+04  0.50400001928E-02 0. -1.
    10030    2    1    2    0    0  0.00000000000E+00  0.00000000000E+00 -0.18822499523E+04  0.37141174142E+04  0.32018437319E+04 0.  0.
        1    1    3    3  502    0 -0.77167994918E+03  0.39915929368E+03  0.61868125642E+03  0.10665761027E+04  0.50400001928E-02 0.  1.
       -1    1    3    3    0  502  0.77167994918E+03 -0.39915929368E+03 -0.25009312087E+04  0.26475413116E+04  0.50400001928E-02 0. -1.
</event>
<event>
 5   0  0.3075756E-07  0.3196956E+04  0.7818609E-02  0.8189622E-01
        1   -1    0    0  501    0  0.00000000000E+00  0.00000000000E+00  0.21555257164E+04  0.21555257165E+04  0.50400001928E-02 0.  1.
       -1   -1    0    0    0  501  0.00000000000E+00  0.00000000000E+00 -0.11853869222E+04  0.11853869223E+04  0.50400001928E-02 0. -1.
    10030    2    1    2    0    0  0.00000000000E+00  0.00000000000E+00  0.97013879420E+03  0.33409126387E+04  0.31969560490E+04 0.  0.
        5    1    3    3  502    0 -0.13649769131E+04  0.40613714185E+03  0.12437063435E+04  0.18907503563E+04  0.46999998093E+01 0.  1.
       -5    1    3    3    0  502  0.13649769131E+04 -0.40613714185E+03 -0.27356754927E+03  0.14501622824E+04  0.46999998093E+01 0. -1.
</event>
<event>
 5   0  0.2891204E-07  0.3193965E+04  0.7818609E-02  0.8190413E-01
       -1   -1    0    0    0  501  0.00000000000E+00  0.00000000000E+00  0.18132483926E+04  0.18132483926E+04  0.50400001928E-02 0. -1.
        1   -1    0    0  501    0  0.00000000000E+00  0.00000000000E+00 -0.14065110196E+04  0.14065110196E+04  0.50400001928E-02 0.  1.
    10030    2    1    2    0    0  0.00000000000E+00  0.00000000000E+00  0.40673737303E+03  0.32197594122E+04  0.31939654634E+04 0.  0.
        4    1    3    3  502    0 -0.15074634817E+04 -0.10304477856E+03 -0.31780540807E+03  0.15440421838E+04  0.12699999809E+01 0.  1.
       -4    1    3    3    0  502  0.15074634817E+04  0.10304477856E+03  0.72454278110E+03  0.16757172284E+04  0.12699999809E+01 0. -1.
</event>
<event>
 5   0  0.8195618E-07  0.3199304E+04  0.7818609E-02  0.8189001E-01
       -2   -1    0    0    0  501  0.00000000000E+00  0.00000000000E+00  0.15256284658E+04  0.15256284658E+04  0.25500000920E-02 0.  1.
        2   -1    0    0  501    0  0.00000000000E+00  0.00000000000E+00 -0.16772676484E+04  0.16772676484E+04  0.25500000920E-02 0. -1.
    10030    2    1    2    0    0  0.00000000000E+00  0.00000000000E+00 -0.15163918264E+03  0.32028961142E+04  0.31993044676E+04 0.  0.
        1    1    3    3  502    0 -0.77860722816E+03 -0.11115806551E+04  0.77191702173E+03  0.15613124790E+04  0.50400001928E-02 0.  1.
       -1    1    3    3    0  502  0.77860722816E+03  0.11115806551E+04 -0.92355620437E+03  0.16415836352E+04  0.50400001928E-02 0. -1.
</event>
<event>
 5   0  0.3013888E-07  0.3203734E+04  0.7818609E-02  0.8187832E-01
        1   -1    0    0  501    0  0.00000000000E+00  0.00000000000E+00  0.14620835340E+04  0.14620835341E+04  0.50400001928E-02 0.  1.
       -1   -1    0    0    0  501  0.00000000000E+00  0.00000000000E+00 -0.17550142363E+04  0.17550142363E+04  0.50400001928E-02 0. -1.
    10030    2    1    2    0    0  0.00000000000E+00  0.00000000000E+00 -0.29293070226E+03  0.32170977704E+04  0.32037337074E+04 0.  0.
        1    1    3    3  502    0 -0.27198685211E+02 -0.98070144361E+03 -0.14180264397E+04  0.17243300362E+04  0.50400001928E-02 0. -1.
       -1    1    3    3    0  502  0.27198685211E+02  0.98070144361E+03  0.11250957374E+04  0.14927677342E+04  0.50400001928E-02 0.  1.
</event>
<event>
 5   0  0.8488469E-07  0.3182277E+04  0.7818609E-02  0.8193513E-01
        2   -1    0    0  501    0  0.00000000000E+00  0.00000000000E+00  0.26276438363E+04  0.26276438363E+04  0.25500000920E-02 0.  1.
       -2   -1    0    0    0  501  0.00000000000E+00  0.00000000000E+00 -0.96349513238E+03  0.96349513239E+03  0.25500000920E-02 0. -1.
    10030    2    1    2    0    0  0.00000000000E+00  0.00000000000E+00  0.16641487039E+04  0.35911389686E+04  0.31822772009E+04 0.  0.
        3    1    3    3  502    0  0.63158097666E+03 -0.14603763167E+04  0.81928118119E+03  0.17896410759E+04  0.10100000352E+00 0.  1.
       -3    1    3    3    0  502 -0.63158097666E+03  0.14603763167E+04  0.84486752268E+03  0.18014978927E+04  0.10100000352E+00 0. -1.
</event>
<event>
 5   0  0.8195618E-07  0.3200572E+04  0.7818609E-02  0.8188666E-01
        2   -1    0    0  501    0  0.00000000000E+00  0.00000000000E+00  0.18274783162E+04  0.18274783162E+04  0.25500000920E-02 0. -1.
       -2   -1    0    0    0  501  0.00000000000E+00  0.00000000000E+00 -0.14013382452E+04  0.14013382452E+04  0.25500000920E-02 0.  1.
    10030    2    1    2    0    0  0.00000000000E+00  0.00000000000E+00  0.42614007104E+03  0.32288165614E+04  0.32005719844E+04 0.  0.
        1    1    3    3  502    0  0.96309421021E+03 -0.20103834228E+03 -0.10601885832E+04  0.14463632686E+04  0.50400001928E-02 0.  1.
       -1    1    3    3    0  502 -0.96309421021E+03  0.20103834228E+03  0.14863286542E+04  0.17824532928E+04  0.50400001928E-02 0. -1.
</event>
<event>
 5   0  0.8195618E-07  0.3181950E+04  0.7818609E-02  0.8193600E-01
       -2   -1    0    0    0  501  0.00000000000E+00  0.00000000000E+00  0.10348505760E+04  0.10348505760E+04  0.25500000920E-02 0.  1.
        2   -1    0    0  501    0  0.00000000000E+00  0.00000000000E+00 -0.24459586089E+04  0.24459586089E+04  0.25500000920E-02 0. -1.
    10030    2    1    2    0    0  0.00000000000E+00  0.00000000000E+00 -0.14111080328E+04  0.34808091849E+04  0.31819501412E+04 0.  0.
        1    1    3    3  502    0  0.14029722099E+04 -0.44802241933E+03 -0.47246170329E+02  0.14735288632E+04  0.50400001928E-02 0.  1.
       -1    1    3    3    0  502 -0.14029722099E+04  0.44802241933E+03 -0.13638618625E+04  0.20072803217E+04  0.50400001928E-02 0. -1.
</event>
<event>
 5   0  0.8802800E-07  0.3200352E+04  0.7818609E-02  0.8188724E-01
       -2   -1    0    0    0  501  0.00000000000E+00  0.00000000000E+00  0.11325505051E+04  0.11325505051E+04  0.25500000920E-02 0. -1.
        2   -1    0    0  501    0  0.00000000000E+00  0.00000000000E+00 -0.22608820721E+04  0.22608820721E+04  0.25500000920E-02 0.  1.
    10030    2    1    2    0    0  0.00000000000E+00  0.00000000000E+00 -0.11283315670E+04  0.33934325772E+04  0.32003519386E+04 0.  0.
        5    1    3    3  502    0 -0.14355138512E+04  0.59812817342E+03 -0.16448466214E+03  0.15638205214E+04  0.46999998093E+01 0.  1.
       -5    1    3    3    0  502  0.14355138512E+04 -0.59812817342E+03 -0.96384690482E+03  0.18296120558E+04  0.46999998093E+01 0. -1.
</event>
<event>
 5   0  0.3075756E-07  0.3226158E+04  0.7818609E-02  0.8181943E-01
        1   -1    0    0  501    0  0.00000000000E+00  0.00000000000E+00  0.21883230214E+04  0.21883230214E+04  0.50400001928E-02 0. -1.
       -1   -1    0    0    0  501  0.00000000000E+00  0.00000000000E+00 -0.11890494363E+04  0.11890494364E+04  0.50400001928E-02 0.  1.
    10030    2    1    2    0    0  0.00000000000E+00  0.00000000000E+00  0.99927358510E+03  0.33773724578E+04  0.32261582448E+04 0.  0.
        5    1    3    3  502    0 -0.85874086836E+03  0.37652720242E+03 -0.87443653746E+03  0.12821349232E+04  0.46999998093E+01 0.  1.
       -5    1    3    3    0  502  0.85874086836E+03 -0.37652720242E+03  0.18737101226E+04  0.20952375346E+04  0.46999998093E+01 0. -1.
</event>
<event>
 5   0  0.8488469E-07  0.3187851E+04  0.7818609E-02  0.8192033E-01
       -2   -1    0    0    0  501  0.00000000000E+00  0.00000000000E+00  0.10317441683E+04  0.10317441683E+04  0.25500000920E-02 0. -1.
        2   -1    0    0  501    0  0.00000000000E+00  0.00000000000E+00 -0.24624301854E+04  0.24624301854E+04  0.25500000920E-02 0.  1.
    10030    2    1    2    0    0  0.00000000000E+00  0.00000000000E+00 -0.14306860170E+04  0.34941743537E+04  0.31878506763E+04 0.  0.
        3    1    3    3  502    0 -0.49436003391E+02  0.46998760577E+03  0.95318890901E+03  0.10639085367E+04  0.10100000352E+00 0. -1.
       -3    1    3    3    0  502  0.49436003391E+02 -0.46998760577E+03 -0.23838749260E+04  0.24302658170E+04  0.10100000352E+00 0.  1.
</event>
<event>
 5   0  0.2783875E-07  0.3197036E+04  0.7818609E-02  0.8189601E-01
       -1   -1    0    0    0  501  0.00000000000E+00  0.00000000000E+00  0.18727309810E+04  0.18727309810E+04  0.50400001928E-02 0. -1.
        1   -1    0    0  501    0  0.00000000000E+00  0.00000000000E+00 -0.13644559914E+04  0.13644559914E+04  0.50400001928E-02 0.  1.
    10030    2    1    2    0    0  0.00000000000E+00  0.00000000000E+00  0.50827498955E+03  0.32371869724E+04  0.31970355064E+04 0.  0.
        2    1    3    3  502    0  0.12003403337E+04 -0.84296166260E+03  0.89761670803E+03  0.17196270048E+04  0.25500000920E-02 0. -1.
       -2    1    3    3    0  502 -0.12003403337E+04  0.84296166260E+03 -0.38934171848E+03  0.15175599675E+04  0.25500000920E-02 0.  1.
</event>
<event>
 5   0  0.3013888E-07  0.3119819E+04  0.7818609E-02  0.8210320E-01
       -1   -1    0    0    0  501  0.00000000000E+00  0.00000000000E+00  0.86371636838E+03  0.86371636839E+03  0.50400001928E-02 0.  1.
        1   -1    0    0  501    0  0.00000000000E+00  0.00000000000E+00 -0.28172645098E+04  0.28172645098E+04  0.50400001928E-02 0. -1.
    10030    2    1    2    0    0  0.00000000000E+00  0.00000000000E+00 -0.19535481415E+04  0.36809808782E+04  0.31198188866E+04 0.  0.
        1    1    3    3  502    0 -0.52499466740E+03  0.11265219689E+04 -0.20890144374E+04  0.24307719899E+04  0.50400001928E-02 0. -1.
       -1    1    3    3    0  502  0.52499466740E+03 -0.11265219689E+04  0.13546629592E+03  0.12502088884E+04  0.50400001928E-02 0.  1.
</event>
<event>
 5   0  0.2997105E-07  0.3071379E+04  0.7818609E-02  0.8223637E-01
       -1   -1    0    0    0  501  0.00000000000E+00  0.00000000000E+00  0.23663032502E+04  0.23663032502E+04  0.50400001928E-02 0. -1.
        1   -1    0    0  501    0  0.00000000000E+00  0.00000000000E+00 -0.99663566569E+03  0.99663566570E+03  0.50400001928E-02 0.  1.
    10030    2    1    2    0    0  0.00000000000E+00  0.00000000000E+00  0.13696675845E+04  0.33629389159E+04  0.30713789835E+04 0.  0.
        3    1    3    3  502    0  0.44574559251E+02  0.11070063100E+04 -0.47955013645E+03  0.12072357704E+04  0.10100000352E+00 0.  1.
       -3    1    3    3    0  502 -0.44574559251E+02 -0.11070063100E+04  0.18492177210E+04  0.21557031455E+04  0.10100000352E+00 0. -1.
</event>
<event>
 5   0  0.2997105E-07  0.3198048E+04  0.7818609E-02  0.8189333E-01
        1   -1    0    0  501    0  0.00000000000E+00  0.00000000000E+00  0.12163692137E+04  0.12163692137E+04  0.50400001928E-02 0.  1.
       -1   -1    0    0    0  501  0.00000000000E+00  0.00000000000E+00 -0.21020577540E+04  0.21020577540E+04  0.50400001928E-02 0. -1.
    10030    2    1    2    0    0  0.00000000000E+00  0.00000000000E+00 -0.88568854026E+03  0.33184269677E+04  0.31980483658E+04 0.  0.
        3    1    3    3  502    0  0.62757268501E+03 -0.37670280749E+03 -0.19180205299E+04  0.20529381977E+04  0.10100000352E+00 0. -1.
       -3    1    3    3    0  502 -0.62757268501E+03  0.37670280749E+03  0.10323319896E+04  0.12654887701E+04  0.10100000352E+00 0.  1.
</event>
<event>
 5   0  0.8838951E-07  0.3198044E+04  0.7818609E-02  0.8189334E-01
       -2   -1    0    0    0  501  0.00000000000E+00  0.00000000000E+00  0.16302458735E+04  0.16302458735E+04  0.25500000920E-02 0.  1.
        2   -1    0    0  501    0  0.00000000000E+00  0.00000000000E+00 -0.15683964071E+04  0.15683964071E+04  0.25500000920E-02 0. -1.
    10030    2    1    2    0    0  0.00000000000E+00  0.00000000000E+00  0.61849466431E+02  0.31986422806E+04  0.31980442590E+04 0.  0.
        2    1    3    3  502    0  0.84220088997E+03  0.18071343604E+03 -0.13165139154E+04  0.15732668478E+04  0.25500000920E-02 0. -1.
       -2    1    3    3    0  502 -0.84220088997E+03 -0.18071343604E+03  0.13783633818E+04  0.16253754328E+04  0.25500000920E-02 0.  1.
</event>
<event>
 5   0  0.3075756E-07  0.3208350E+04  0.7818609E-02  0.8186615E-01
       -1   -1    0    0    0  501  0.00000000000E+00  0.00000000000E+00  0.10999250706E+04  0.10999250706E+04  0.50400001928E-02 0.  1.
        1   -1    0    0  501    0  0.00000000000E+00  0.00000000000E+00 -0.23395935086E+04  0.23395935086E+04  0.50400001928E-02 0. -1.
    10030    2    1    2    0    0  0.00000000000E+00  0.00000000000E+00 -0.12396684381E+04  0.34395185792E+04  0.32083500776E+04 0.  0.
        5    1    3    3  502    0  0.71139775809E+03  0.11646355503E+04 -0.15237291400E+04  0.20455403485E+04  0.46999998093E+01 0. -1.
       -5    1    3    3    0  502 -0.71139775809E+03 -0.11646355503E+04  0.28406070194E+03  0.13939782307E+04  0.46999998093E+01 0.  1.
</event>
<event>
 5   0  0.8802800E-07  0.3207996E+04  0.7818609E-02  0.8186709E-01
        2   -1    0    0  501    0  0.00000000000E+00  0.00000000000E+00  0.11178636075E+04  0.11178636075E+04  0.25500000920E-02 0. -1.
       -2   -1    0    0    0  501  0.00000000000E+00  0.00000000000E+00 -0.23015416932E+04  0.23015416932E+04  0.25500000920E-02 0.  1.
    10030    2    1    2    0    0  0.00000000000E+00  0.00000000000E+00 -0.11836780857E+04  0.34194053007E+04  0.32079960723E+04 0.  0.
        5    1    3    3  502    0  0.44192075304E+03  0.77161576362E+03 -0.20147676985E+04  0.22022706027E+04  0.46999998093E+01 0.  1.
       -5    1    3    3    0  502 -0.44192075304E+03 -0.77161576362E+03  0.83108961276E+03  0.12171346980E+04  0.46999998093E+01 0. -1.
</event>
<event>
 5   0  0.2783875E-07  0.3206950E+04  0.7818609E-02  0.8186984E-01
       -1   -1    0    0    0  501  0.00000000000E+00  0.00000000000E+00  0.10303605139E+04  0.10303605139E+04  0.50400001928E-02 0. -1.
        1   -1    0    0  501    0  0.00000000000E+00  0.00000000000E+00 -0.24953715586E+04  0.24953715586E+04  0.50400001928E-02 0.  1.
    10030    2    1    2    0    0  0.00000000000E+00  0.00000000000E+00 -0.14650110447E+04  0.35257320725E+04  0.32069501534E+04 0.  0.
        2    1    3    3  502    0  0.21547142841E+03  0.11902074820E+04 -0.18898126785E+04  0.22437499296E+04  0.25500000920E-02 0.  1.
       -2    1    3    3    0  502 -0.21547142841E+03 -0.11902074820E+04  0.42480163378E+03  0.12819821429E+04  0.25500000920E-02 0. -1.
</event>
<event>
 5   0  0.2783875E-07  0.3204365E+04  0.7818609E-02  0.8187665E-01
        4   -1    0    0  501    0  0.00000000000E+00  0.00000000000E+00  0.15114130064E+04  0.15114135399E+04  0.12699999809E+01 0.  1.
       -4   -1    0    0    0  501  0.00000000000E+00  0.00000000000E+00 -0.16984022227E+04  0.16984026975E+04  0.12699999809E+01 0. -1.
    10030    2    1    2    0    0  0.00000000000E+00  0.00000000000E+00 -0.18698921635E+03  0.32098162375E+04  0.32043650403E+04 0.  0.
        1    1    3    3  502    0  0.14755817007E+04  0.20415219669E+03  0.49739817061E+03  0.15704854074E+04  0.50400001928E-02 0.  1.
       -1    1    3    3    0  502 -0.14755817007E+04 -0.20415219669E+03 -0.68438738696E+03  0.16393308300E+04  0.50400001928E-02 0. -1.
</event>
<event>
 5   0  0.3013888E-07  0.3076580E+04  0.7818609E-02  0.8222195E-01
       -1   -1    0    0    0  501  0.00000000000E+00  0.00000000000E+00  0.21794980446E+04  0.21794980446E+04  0.50400001928E-02 0.  1.
        1   -1    0    0  501    0  0.00000000000E+00  0.00000000000E+00 -0.10857250267E+04  0.10857250267E+04  0.50400001928E-02 0. -1.
    10030    2    1    2    0    0  0.00000000000E+00  0.00000000000E+00  0.10937730179E+04  0.32652230713E+04  0.30765796415E+04 0.  0.
        1    1    3    3  502    0 -0.51401565319E+02  0.94270584436E+03 -0.74207686953E+03  0.12008390859E+04  0.50400001928E-02 0. -1.
       -1    1    3    3    0  502  0.51401565319E+02 -0.94270584436E+03  0.18358498875E+04  0.20643839854E+04  0.50400001928E-02 0.  1.
</event>
<event>
 5   0  0.2783875E-07  0.3208722E+04  0.7818609E-02  0.8186517E-01
        1   -1    0    0  501    0  0.00000000000E+00  0.00000000000E+00  0.19256727911E+04  0.19256727911E+04  0.50400001928E-02 0. -1.
       -1   -1    0    0    0  501  0.00000000000E+00  0.00000000000E+00 -0.13366624195E+04  0.13366624195E+04  0.50400001928E-02 0.  1.
    10030    2    1    2    0    0  0.00000000000E+00  0.00000000000E+00  0.58901037162E+03  0.32623352106E+04  0.32087221457E+04 0.  0.
        2    1    3    3  502    0  0.72462838788E+03 -0.82611108291E+03  0.14829799060E+04  0.18457451675E+04  0.25500000920E-02 0.  1.
       -2    1    3    3    0  502 -0.72462838788E+03  0.82611108291E+03 -0.89396953435E+03  0.14165900431E+04  0.25500000920E-02 0. -1.
</event>
<event>
 5   0  0.8195618E-07  0.3136854E+04  0.7818609E-02  0.8205696E-01
        2   -1    0    0  501    0  0.00000000000E+00  0.00000000000E+00  0.23471951200E+04  0.23471951201E+04  0.25500000920E-02 0. -1.
       -2   -1    0    0    0  501  0.00000000000E+00  0.00000000000E+00 -0.10480435512E+04  0.10480435512E+04  0.25500000920E-02 0.  1.
    10030    2    1    2    0    0  0.00000000000E+00  0.00000000000E+00  0.12991515689E+04  0.33952386712E+04  0.31368536523E+04 0.  0.
        1    1    3    3  502    0 -0.25544377266E+03  0.74169575620E+03  0.21196084587E+04  0.22601115313E+04  0.50400001928E-02 0. -1.
       -1    1    3    3    0  502  0.25544377266E+03 -0.74169575620E+03 -0.82045688982E+03  0.11351271399E+04  0.50400001928E-02 0.  1.
</event>
<event>
 5   0  0.8195618E-07  0.3199324E+04  0.7818609E-02  0.8188996E-01
       -2   -1    0    0    0  501  0.00000000000E+00  0.00000000000E+00  0.28610728500E+04  0.28610728500E+04  0.25500000920E-02 0.  1.
        2   -1    0    0  501    0  0.00000000000E+00  0.00000000000E+00 -0.89439132851E+03  0.89439132852E+03  0.25500000920E-02 0. -1.
    10030    2    1    2    0    0  0.00000000000E+00  0.00000000000E+00  0.19666815215E+04  0.37554641785E+04  0.31993241457E+04 0.  0.
        1    1    3    3  502    0  0.13443331703E+04 -0.33159553205E+03  0.43006951232E+02  0.13852930619E+04  0.50400001928E-02 0. -1.
       -1    1    3    3    0  502 -0.13443331703E+04  0.33159553205E+03  0.19236745703E+04  0.23701711166E+04  0.50400001928E-02 0.  1.
</event>
<event>
 5   0  0.2783875E-07  0.3205960E+04  0.7818609E-02  0.8187245E-01
        3   -1    0    0  501    0  0.00000000000E+00  0.00000000000E+00  0.27669084963E+04  0.27669084981E+04  0.10100000352E+00 0.  1.
       -3   -1    0    0    0  501  0.00000000000E+00  0.00000000000E+00 -0.92866976513E+03  0.92866977062E+03  0.10100000352E+00 0. -1.
    10030    2    1    2    0    0  0.00000000000E+00  0.00000000000E+00  0.18382387311E+04  0.36955782687E+04  0.32059596235E+04 0.  0.
        3    1    3    3  502    0 -0.12889317263E+04 -0.91514822413E+03  0.12256283970E+04  0.20002515454E+04  0.10100000352E+00 0. -1.
       -3    1    3    3    0  502  0.12889317263E+04  0.91514822413E+03  0.61261033414E+03  0.16953267233E+04  0.10100000352E+00 0.  1.
</event>
<event>
 5   0  0.2891204E-07  0.3241368E+04  0.7818609E-02  0.8177977E-01
        1   -1    0    0  501    0  0.00000000000E+00  0.00000000000E+00  0.15844859913E+04  0.15844859913E+04  0.50400001928E-02 0.  1.
       -1   -1    0    0    0  501  0.00000000000E+00  0.00000000000E+00 -0.16577093679E+04  0.16577093679E+04  0.50400001928E-02 0. -1.
    10030    2    1    2    0    0  0.00000000000E+00  0.00000000000E+00 -0.73223376591E+02  0.32421953593E+04  0.32413683969E+04 0.  0.
        4    1    3    3  502    0  0.52200915718E+03  0.15332154403E+04 -0.94699834198E+02  0.16224095716E+04  0.12699999809E+01 0. -1.
       -4    1    3    3    0  502 -0.52200915718E+03 -0.15332154403E+04  0.21476457607E+02  0.16197857876E+04  0.12699999809E+01 0.  1.
</event>
<event>
 5   0  0.8802800E-07  0.3199693E+04  0.7818609E-02  0.8188898E-01
        2   -1    0    0  501    0  0.00000000000E+00  0.00000000000E+00  0.24665133990E+04  0.24665133990E+04  0.25500000920E-02 0.  1.
       -2   -1    0    0    0  501  0.00000000000E+00  0.00000000000E+00 -0.10377030785E+04  0.10377030785E+04  0.25500000920E-02 0. -1.
    10030    2    1    2    0    0  0.00000000000E+00  0.00000000000E+00  0.14288103204E+04  0.35042164775E+04  0.31996928273E+04 0.  0.
        5    1    3    3  502    0  0.97104823695E+03  0.77174984022E+03  0.18209925562E+04  0.22033085290E+04  0.46999998093E+01 0.  1.
       -5    1    3    3    0  502 -0.97104823695E+03 -0.77174984022E+03 -0.39218223574E+03  0.13009079485E+04  0.46999998093E+01 0. -1.
</event>
<event>
 5   0  0.3075756E-07  0.3183409E+04  0.7818609E-02  0.8193212E-01
       -1   -1    0    0    0  501  0.00000000000E+00  0.00000000000E+00  0.14073877549E+04  0.14073877549E+04  0.50400001928E-02 0.  1.
        1   -1    0    0  501    0  0.00000000000E+00  0.00000000000E+00 -0.18001605103E+04  0.18001605104E+04  0.50400001928E-02 0. -1.
    10030    2    1    2    0    0  0.00000000000E+00  0.00000000000E+00 -0.39277275547E+03  0.32075482652E+04  0.31834094045E+04 0.  0.
        5    1    3    3  502    0 -0.13540798561E+04 -0.52377449684E+03  0.46096369134E+03  0.15232798807E+04  0.46999998093E+01 0.  1.
       -5    1    3    3    0  502  0.13540798561E+04  0.52377449684E+03 -0.85373644681E+03  0.16842683845E+04  0.46999998093E+01 0. -1.
</event>
<event>
 5   0  0.2783875E-07  0.3218113E+04  0.7818609E-02  0.8184050E-01
       -1   -1    0    0    0  501  0.00000000000E+00  0.00000000000E+00  0.10573914572E+04  0.10573914572E+04  0.50400001928E-02 0. -1.
        1   -1    0    0  501    0  0.00000000000E+00  0.00000000000E+00 -0.24485369819E+04  0.24485369819E+04  0.50400001928E-02 0.  1.
    10030    2    1    2    0    0  0.00000000000E+00  0.00000000000E+00 -0.13911455247E+04  0.35059284391E+04  0.32181125445E+04 0.  0.
        2    1    3    3  502    0 -0.17369923707E+03 -0.10518484067E+04  0.61741514270E+03  0.12319731954E+04  0.25500000920E-02 0. -1.
       -2    1    3    3    0  502  0.17369923707E+03  0.10518484067E+04 -0.20085606674E+04  0.22739552437E+04  0.25500000920E-02 0.  1.
</event>
<event>
 5   0  0.8802800E-07  0.3195271E+04  0.7818609E-02  0.8190067E-01
        2   -1    0    0  501    0  0.00000000000E+00  0.00000000000E+00  0.15371657690E+04  0.15371657690E+04  0.25500000920E-02 0.  1.
       -2   -1    0    0    0  501  0.00000000000E+00  0.00000000000E+00 -0.16604842004E+04  0.16604842004E+04  0.25500000920E-02 0. -1.
    10030    2    1    2    0    0  0.00000000000E+00  0.00000000000E+00 -0.12331843139E+03  0.31976499693E+04  0.31952711764E+04 0.  0.
        5    1    3    3  502    0 -0.38043058767E+03  0.77518529968E+03 -0.14068242232E+04  0.16507017192E+04  0.46999998093E+01 0.  1.
       -5    1    3    3    0  502  0.38043058767E+03 -0.77518529968E+03  0.12835057918E+04  0.15469482501E+04  0.46999998093E+01 0. -1.
</event>
<event>
 5   0  0.8195618E-07  0.3198017E+04  0.7818609E-02  0.8189341E-01
       -2   -1    0    0    0  501  0.00000000000E+00  0.00000000000E+00  0.11418131916E+04  0.11418131916E+04  0.25500000920E-02 0. -1.
        2   -1    0    0  501    0  0.00000000000E+00  0.00000000000E+00 -0.22392695521E+04  0.22392695521E+04  0.25500000920E-02 0.  1.
    10030    2    1    2    0    0  0.00000000000E+00  0.00000000000E+00 -0.10974563605E+04  0.33810827437E+04  0.31980165816E+04 0.  0.
        1    1    3    3  502    0 -0.50837378307E+03  0.15088918162E+04 -0.39324110696E+03  0.16400722498E+04  0.50400001928E-02 0.  1.
       -1    1    3    3    0  502  0.50837378307E+03 -0.15088918162E+04 -0.70421525349E+03  0.17410104938E+04  0.50400001928E-02 0. -1.
</event>
<event>
 5   0  0.2783875E-07  0.3203447E+04  0.7818609E-02  0.8187908E-01
        1   -1    0    0  501    0  0.00000000000E+00  0.00000000000E+00  0.16322239095E+04  0.16322239095E+04  0.50400001928E-02 0.  1.
       -1   -1    0    0    0  501  0.00000000000E+00  0.00000000000E+00 -0.15717927253E+04  0.15717927253E+04  0.50400001928E-02 0. -1.
    10030    2    1    2    0    0  0.00000000000E+00  0.00000000000E+00  0.60431184115E+02  0.32040166348E+04  0.32034466857E+04 0.  0.
        2    1    3    3  502    0  0.21912205115E+03 -0.94781820017E+03 -0.12424666355E+04  0.15780041680E+04  0.25500000920E-02 0. -1.
       -2    1    3    3    0  502 -0.21912205115E+03  0.94781820017E+03  0.13028978196E+04  0.16260124668E+04  0.25500000920E-02 0.  1.
</event>
<event>
 5   0  0.3075756E-07  0.3198143E+04  0.7818609E-02  0.8189308E-01
        1   -1    0    0  501    0  0.00000000000E+00  0.00000000000E+00  0.16679568615E+04  0.16679568615E+04  0.50400001928E-02 0.  1.
       -1   -1    0    0    0  501  0.00000000000E+00  0.00000000000E+00 -0.15330313851E+04  0.15330313851E+04  0.50400001928E-02 0. -1.
    10030    2    1    2    0    0  0.00000000000E+00  0.00000000000E+00  0.13492547641E+03  0.32009882466E+04  0.31981433475E+04 0.  0.
        5    1    3    3  502    0 -0.13426581742E+04 -0.79104462830E+03  0.42628624873E+03  0.16156189627E+04  0.46999998093E+01 0.  1.
       -5    1    3    3    0  502  0.13426581742E+04  0.79104462830E+03 -0.29136077232E+03  0.15853692839E+04  0.46999998093E+01 0. -1.
</event>
<event>
 5   0  0.2997105E-07  0.3197325E+04  0.7818609E-02  0.8189524E-01
       -1   -1    0    0    0  501  0.00000000000E+00  0.00000000000E+00  0.18141755310E+04  0.18141755310E+04  0.50400001928E-02 0.  1.
        1   -1    0    0  501    0  0.00000000000E+00  0.00000000000E+00 -0.14087511655E+04  0.14087511655E+04  0.50400001928E-02 0. -1.
    10030    2    1    2    0    0  0.00000000000E+00  0.00000000000E+00  0.40542436547E+03  0.32229266965E+04  0.31973250656E+04 0.  0.
        3    1    3    3  502    0 -0.15257974152E+04 -0.16727501370E+03  0.65314953882E+03  0.16681255986E+04  0.10100000352E+00 0. -1.
       -3    1    3    3    0  502  0.15257974152E+04  0.16727501370E+03 -0.24772517336E+03  0.15548010979E+04  0.10100000352E+00 0.  1.
</event>
<event>
 5   0  0.2997105E-07  0.3224248E+04  0.7818609E-02  0.8182442E-01
        1   -1    0    0  501    0  0.00000000000E+00  0.00000000000E+00  0.12898212993E+04  0.12898212993E+04  0.50400001928E-02 0.  1.
       -1   -1    0    0    0  501  0.00000000000E+00  0.00000000000E+00 -0.20149647679E+04  0.20149647679E+04  0.50400001928E-02 0. -1.
    10030    2    1    2    0    0  0.00000000000E+00  0.00000000000E+00 -0.72514346866E+03  0.33047860672E+04  0.32242484241E+04 0.  0.
        3    1    3    3  502    0 -0.74481105456E+03  0.13759783860E+04 -0.76071289784E+03  0.17397540484E+04  0.10100000352E+00 0. -1.
       -3    1    3    3    0  502  0.74481105456E+03 -0.13759783860E+04  0.35569429179E+02  0.15650320189E+04  0.10100000352E+00 0.  1.
</event>
<event>
 5   0  0.3075756E-07  0.3198556E+04  0.7818609E-02  0.8189199E-01
       -1   -1    0    0    0  501  0.00000000000E+00  0.00000000000E+00  0.15760712276E+04  0.15760712276E+04  0.50400001928E-02 0.  1.
        1   -1    0    0  501    0  0.00000000000E+00  0.00000000000E+00 -0.16228264967E+04  0.16228264967E+04  0.50400001928E-02 0. -1.
    10030    2    1    2    0    0  0.00000000000E+00  0.00000000000E+00 -0.46755269064E+02  0.31988977243E+04  0.31985560173E+04 0.  0.
        5    1    3    3  502    0 -0.55499870658E+03  0.10801083973E+04  0.10174113723E+04  0.15842366315E+04  0.46999998093E+01 0.  1.
       -5    1    3    3    0  502  0.55499870658E+03 -0.10801083973E+04 -0.10641666413E+04  0.16146610928E+04  0.46999998093E+01 0. -1.
</event>
<event>
 5   0  0.2891204E-07  0.3198604E+04  0.7818609E-02  0.8189186E-01
       -1   -1    0    0    0  501  0.00000000000E+00  0.00000000000E+00  0.11927017056E+04  0.11927017057E+04  0.50400001928E-02 0.  1.
        1   -1    0    0  501    0  0.00000000000E+00  0.00000000000E+00 -0.21445146616E+04  0.21445146616E+04  0.50400001928E-02 0. -1.
    10030    2    1    2    0    0  0.00000000000E+00  0.00000000000E+00 -0.95181295596E+03  0.33372163673E+04  0.31986036295E+04 0.  0.
        4    1    3    3  502    0 -0.51883421459E+03  0.92536738707E+03  0.77273146860E+03  0.13124821061E+04  0.12699999809E+01 0.  1.
       -4    1    3    3    0  502  0.51883421459E+03 -0.92536738707E+03 -0.17245444246E+04  0.20247342612E+04  0.12699999809E+01 0. -1.
</event>
<event>
 5   0  0.3075756E-07  0.3196974E+04  0.7818609E-02  0.8189617E-01
       -1   -1    0    0    0  501  0.00000000000E+00  0.00000000000E+00  0.83081128790E+03  0.83081128792E+03  0.50400001928E-02 0. -1.
        1   -1    0    0  501    0  0.00000000000E+00  0.00000000000E+00 -0.30755008450E+04  0.30755008450E+04  0.50400001928E-02 0.  1.
    10030    2    1    2    0    0  0.00000000000E+00  0.00000000000E+00 -0.22446895571E+04  0.39063121330E+04  0.31969740806E+04 0.  0.
        5    1    3    3  502    0  0.13133108097E+04 -0.20756330285E+03 -0.22064961721E+04  0.25761434850E+04  0.46999998093E+01 0.  1.
       -5    1    3    3    0  502 -0.13133108097E+04  0.20756330285E+03 -0.38193385022E+02  0.13301686480E+04  0.46999998093E+01 0. -1.
</event>
<event>
 5   0  0.8335929E-07  0.3205150E+04  0.7818609E-02  0.8187458E-01
       -2   -1    0    0    0  501  0.00000000000E+00  0.00000000000E+00  0.14623544702E+04  0.14623544702E+04  0.25500000920E-02 0.  1.
        2   -1    0    0  501    0  0.00000000000E+00  0.00000000000E+00 -0.17562405332E+04  0.17562405332E+04  0.25500000920E-02 0. -1.
    10030    2    1    2    0    0  0.00000000000E+00  0.00000000000E+00 -0.29388606294E+03  0.32185950034E+04  0.32051497278E+04 0.  0.
        4    1    3    3  502    0  0.96694213250E+02 -0.61110140735E+03 -0.16314711774E+04  0.17448479924E+04  0.12699999809E+01 0. -1.
       -4    1    3    3    0  502 -0.96694213250E+02  0.61110140735E+03  0.13375851145E+04  0.14737470110E+04  0.12699999809E+01 0.  1.
</event>
<event>
 5   0  0.3075756E-07  0.3182837E+04  0.7818609E-02  0.8193365E-01
        1   -1    0    0  501    0  0.00000000000E+00  0.00000000000E+00  0.16951291155E+04  0.16951291155E+04  0.50400001928E-02 0.  1.
       -1   -1    0    0    0  501  0.00000000000E+00  0.00000000000E+00 -0.14940528757E+04  0.14940528757E+04  0.50400001928E-02 0. -1.
    10030    2    1    2    0    0  0.00000000000E+00  0.00000000000E+00  0.20107623983E+03  0.31891819913E+04  0.31828368037E+04 0.  0.
        5    1    3    3  502    0  0.89779041409E+03  0.88835494369E+03  0.10706564210E+04  0.16557564420E+04  0.46999998093E+01 0.  1.
       -5    1    3    3    0  502 -0.89779041409E+03 -0.88835494369E+03 -0.86958018113E+03  0.15334255492E+04  0.46999998093E+01 0. -1.
</event>
<event>
 5   0  0.8488469E-07  0.3198071E+04  0.7818609E-02  0.8189327E-01
       -2   -1    0    0    0  501  0.00000000000E+00  0.00000000000E+00  0.25271863168E+04  0.25271863168E+04  0.25500000920E-02 0.  1.
        2   -1    0    0  501    0  0.00000000000E+00  0.00000000000E+00 -0.10117636231E+04  0.10117636231E+04  0.25500000920E-02 0. -1.
    10030    2    1    2    0    0  0.00000000000E+00  0.00000000000E+00  0.15154226937E+04  0.35389499399E+04  0.31980714090E+04 0.  0.
        3    1    3    3  502    0 -0.59277801799E+03 -0.82433651712E+02 -0.88315276869E+03  0.10668364020E+04  0.10100000352E+00 0. -1.
       -3    1    3    3    0  502  0.59277801799E+03  0.82433651712E+02  0.23985754624E+04  0.24721135379E+04  0.10100000352E+00 0.  1.
</event>
<event>
 5   0  0.8488469E-07  0.3197317E+04  0.7818609E-02  0.8189526E-01
       -2   -1    0    0    0  501  0.00000000000E+00  0.00000000000E+00  0.11782883453E+04  0.11782883453E+04  0.25500000920E-02 0. -1.
        2   -1    0    0  501    0  0.00000000000E+00  0.00000000000E+00 -0.21690018546E+04  0.21690018546E+04  0.25500000920E-02 0.  1.
    10030    2    1    2    0    0  0.00000000000E+00  0.00000000000E+00 -0.99071350922E+03  0.33472901999E+04  0.31973173795E+04 0.  0.
        3    1    3    3  502    0 -0.15058445052E+03  0.15300497832E+04 -0.95406589979E+03  0.18094114422E+04  0.10100000352E+00 0. -1.
       -3    1    3    3    0  502  0.15058445052E+03 -0.15300497832E+04 -0.36647609426E+02  0.15378787577E+04  0.10100000352E+00 0.  1.
</event>
<event>
 5   0  0.2783875E-07  0.3238020E+04  0.7818609E-02  0.8178848E-01
       -1   -1    0    0    0  501  0.00000000000E+00  0.00000000000E+00  0.19470291867E+04  0.19470291867E+04  0.50400001928E-02 0. -1.
        1   -1    0    0  501    0  0.00000000000E+00  0.00000000000E+00 -0.13462526347E+04  0.13462526348E+04  0.50400001928E-02 0.  1.
    10030    2    1    2    0    0  0.00000000000E+00  0.00000000000E+00  0.60077655194E+03  0.32932818214E+04  0.32380198718E+04 0.  0.
        2    1    3    3  502    0 -0.69535518143E+03  0.13410146664E+04  0.89287125590E+03  0.17547245492E+04  0.25500000920E-02 0. -1.
       -2    1    3    3    0  502  0.69535518143E+03 -0.13410146664E+04 -0.29209470396E+03  0.15385572723E+04  0.25500000920E-02 0.  1.
</event>
<event>
 5   0  0.8802800E-07  0.3185716E+04  0.7818609E-02  0.8192600E-01
       -2   -1    0    0    0  501  0.00000000000E+00  0.00000000000E+00  0.13814450204E+04  0.13814450204E+04  0.25500000920E-02 0. -1.
        2   -1    0    0  501    0  0.00000000000E+00  0.00000000000E+00 -0.18366247115E+04  0.18366247115E+04  0.25500000920E-02 0.  1.
    10030    2    1    2    0    0  0.00000000000E+00  0.00000000000E+00 -0.45517969111E+03  0.32180697319E+04  0.31857156572E+04 0.  0.
        5    1    3    3  502    0 -0.16221893879E+03  0.80553840277E+03 -0.16059871500E+04  0.18040021947E+04  0.46999998093E+01 0.  1.
       -5    1    3    3    0  502  0.16221893879E+03 -0.80553840277E+03  0.11508074589E+04  0.14140675373E+04  0.46999998093E+01 0. -1.
</event>
<event>
 5   0  0.3075756E-07  0.3188246E+04  0.7818609E-02  0.8191928E-01
        1   -1    0    0  501    0  0.00000000000E+00  0.00000000000E+00  0.15110763704E+04  0.15110763704E+04  0.50400001928E-02 0. -1.
       -1   -1    0    0    0  501  0.00000000000E+00  0.00000000000E+00 -0.16817334618E+04  0.16817334618E+04  0.50400001928E-02 0.  1.
    10030    2    1    2    0    0  0.00000000000E+00  0.00000000000E+00 -0.17065709137E+03  0.31928098322E+04  0.31882457217E+04 0.  0.
        5    1    3    3  502    0  0.20657787606E+02 -0.12963405653E+04  0.84351203188E+03  0.15467579783E+04  0.46999998093E+01 0. -1.
       -5    1    3    3    0  502 -0.20657787606E+02  0.12963405653E+04 -0.10141691232E+04  0.16460518540E+04  0.46999998093E+01 0.  1.
</event>
<event>
 5   0  0.2783875E-07  0.3170307E+04  0.7818609E-02  0.8196703E-01
       -1   -1    0    0    0  501  0.00000000000E+00  0.00000000000E+00  0.13083892237E+04  0.13083892237E+04  0.50400001928E-02 0.  1.
        1   -1    0    0  501    0  0.00000000000E+00  0.00000000000E+00 -0.19204617485E+04  0.19204617485E+04  0.50400001928E-02 0. -1.
    10030    2    1    2    0    0  0.00000000000E+00  0.00000000000E+00 -0.61207252478E+03  0.32288509723E+04  0.31703068977E+04 0.  0.
        2    1    3    3  502    0 -0.60563819903E+03 -0.11717044504E+04 -0.12014891990E+04  0.17841707436E+04  0.25500000920E-02 0. -1.
       -2    1    3    3    0  502  0.60563819903E+03  0.11717044504E+04  0.58941667417E+03  0.14446802286E+04  0.25500000920E-02 0.  1.
</event>
<event>
 5   0  0.8802800E-07  0.3197761E+04  0.7818609E-02  0.8189409E-01
        2   -1    0    0  501    0  0.00000000000E+00  0.00000000000E+00  0.27359493657E+04  0.27359493657E+04  0.25500000920E-02 0. -1.
       -2   -1    0    0    0  501  0.00000000000E+00  0.00000000000E+00 -0.93438082985E+03  0.93438082985E+03  0.25500000920E-02 0.  1.
    10030    2    1    2    0    0  0.00000000000E+00  0.00000000000E+00  0.18015685358E+04  0.36703301955E+04  0.31977608658E+04 0.  0.
        5    1    3    3  502    0 -0.52412305256E+02 -0.63398172046E+03  0.25844338089E+04  0.26615784930E+04  0.46999998093E+01 0. -1.
       -5    1    3    3    0  502  0.52412305256E+02  0.63398172046E+03 -0.78286527308E+03  0.10087517026E+04  0.46999998093E+01 0.  1.
</event>
<event>
 5   0  0.8195618E-07  0.3200657E+04  0.7818609E-02  0.8188644E-01
        2   -1    0    0  501    0  0.00000000000E+00  0.00000000000E+00  0.22136367929E+04  0.22136367929E+04  0.25500000920E-02 0.  1.
       -2   -1    0    0    0  501  0.00000000000E+00  0.00000000000E+00 -0.11569427169E+04  0.11569427169E+04  0.25500000920E-02 0. -1.
    10030    2    1    2    0    0  0.00000000000E+00  0.00000000000E+00  0.10566940760E+04  0.33705795097E+04  0.32006567859E+04 0.  0.
        1    1    3    3  502    0 -0.42472100576E+03  0.11476725690E+04  0.16143634875E+04  0.20257615180E+04  0.50400001928E-02 0.  1.
       -1    1    3    3    0  502  0.42472100576E+03 -0.11476725690E+04 -0.55766941143E+03  0.13448179917E+04  0.50400001928E-02 0. -1.
</event>
<event>
 5   0  0.2783875E-07  0.3208567E+04  0.7818609E-02  0.8186558E-01
        1   -1    0    0  501    0  0.00000000000E+00  0.00000000000E+00  0.14900917610E+04  0.14900917610E+04  0.50400001928E-02 0. -1.
       -1   -1    0    0    0  501  0.00000000000E+00  0.00000000000E+00 -0.17272262229E+04  0.17272262229E+04  0.50400001928E-02 0.  1.
    10030    2    1    2    0    0  0.00000000000E+00  0.00000000000E+00 -0.23713446188E+03  0.32173179839E+04  0.32085670098E+04 0.  0.
        2    1    3    3  502    0  0.13931032593E+04 -0.47742240900E+03  0.51960924536E+03  0.15616217902E+04  0.25500000920E-02 0. -1.
       -2    1    3    3    0  502 -0.13931032593E+04  0.47742240900E+03 -0.75674370724E+03  0.16556961938E+04  0.25500000920E-02 0.  1.
</event>
<event>
 5   0  0.8195618E-07  0.3204385E+04  0.7818609E-02  0.8187660E-01
        2   -1    0    0  501    0  0.00000000000E+00  0.00000000000E+00  0.19910801952E+04  0.19910801952E+04  0.25500000920E-02 0.  1.
       -2   -1    0    0    0  501  0.00000000000E+00  0.00000000000E+00 -0.12892600246E+04  0.12892600246E+04  0.25500000920E-02 0. -1.
    10030    2    1    2    0    0  0.00000000000E+00  0.00000000000E+00  0.70182017055E+03  0.32803402198E+04  0.32043845596E+04 0.  0.
        1    1    3    3  502    0  0.25664074664E+03 -0.18135348718E+03  0.19592220266E+04  0.19842642237E+04  0.50400001928E-02 0.  1.
       -1    1    3    3    0  502 -0.25664074664E+03  0.18135348718E+03 -0.12574018560E+04  0.12960759961E+04  0.50400001928E-02 0. -1.
</event>
<event>
 5   0  0.2891204E-07  0.3217742E+04  0.7818609E-02  0.8184147E-01
       -1   -1    0    0    0  501  0.00000000000E+00  0.00000000000E+00  0.13362542962E+04  0.13362542962E+04  0.50400001928E-02 0.  1.
        1   -1    0    0  501    0  0.00000000000E+00  0.00000000000E+00 -0.19371060725E+04  0.19371060725E+04  0.50400001928E-02 0. -1.
    10030    2    1    2    0    0  0.00000000000E+00  0.00000000000E+00 -0.60085177628E+03  0.32733603687E+04  0.32177422592E+04 0.  0.
        4    1    3    3  502    0 -0.97738020950E+03  0.79292782027E+03  0.71912399153E+03  0.14495335561E+04  0.12699999809E+01 0.  1.
       -4    1    3    3    0  502  0.97738020950E+03 -0.79292782027E+03 -0.13199757678E+04  0.18238268127E+04  0.12699999809E+01 0. -1.
</event>
<event>
 5   0  0.8488469E-07  0.3196884E+04  0.7818609E-02  0.8189641E-01
        2   -1    0    0  501    0  0.00000000000E+00  0.00000000000E+00  0.21340115881E+04  0.21340115881E+04  0.25500000920E-02 0.  1.
       -2   -1    0    0    0  501  0.00000000000E+00  0.00000000000E+00 -0.11972835216E+04  0.11972835216E+04  0.25500000920E-02 0. -1.
    10030    2    1    2    0    0  0.00000000000E+00  0.00000000000E+00  0.93672806645E+03  0.33312951097E+04  0.31968840513E+04 0.  0.
        3    1    3    3  502    0  0.42762649171E+03  0.58191100954E+03  0.19543398242E+04  0.20834896204E+04  0.10100000352E+00 0.  1.
       -3    1    3    3    0  502 -0.42762649171E+03 -0.58191100954E+03 -0.10176117578E+04  0.12478054893E+04  0.10100000352E+00 0. -1.
</event>
<event>
 5   0  0.2891204E-07  0.3190916E+04  0.7818609E-02  0.8191220E-01
       -1   -1    0    0    0  501  0.00000000000E+00  0.00000000000E+00  0.11023043211E+04  0.11023043211E+04  0.50400001928E-02 0. -1.
        1   -1    0    0  501    0  0.00000000000E+00  0.00000000000E+00 -0.23092404591E+04  0.23092404591E+04  0.50400001928E-02 0.  1.
    10030    2    1    2    0    0  0.00000000000E+00  0.00000000000E+00 -0.12069361380E+04  0.34115447802E+04  0.31909156909E+04 0.  0.
        4    1    3    3  502    0  0.15189363027E+04  0.48477223852E+03 -0.54193419475E+03  0.16840029392E+04  0.12699999809E+01 0. -1.
       -4    1    3    3    0  502 -0.15189363027E+04 -0.48477223852E+03 -0.66500194326E+03  0.17275418410E+04  0.12699999809E+01 0.  1.
</event>
<event>
 5   0  0.8488469E-07  0.3210448E+04  0.7818609E-02  0.8186063E-01
        2   -1    0    0  501    0  0.00000000000E+00  0.00000000000E+00  0.27790845252E+04  0.27790845252E+04  0.25500000920E-02 0.  1.
       -2   -1    0    0    0  501  0.00000000000E+00  0.00000000000E+00 -0.92719175109E+03  0.92719175110E+03  0.25500000920E-02 0. -1.
    10030    2    1    2    0    0  0.00000000000E+00  0.00000000000E+00  0.18518927741E+04  0.37062762763E+04  0.32104480979E+04 0.  0.
        3    1    3    3  502    0 -0.31846549747E+03 -0.99693786567E+03 -0.47917551138E+03  0.11510493308E+04  0.10100000352E+00 0. -1.
       -3    1    3    3    0  502  0.31846549747E+03  0.99693786567E+03  0.23310682855E+04  0.25552269455E+04  0.10100000352E+00 0.  1.
</event>
<event>
 5   0  0.8335929E-07  0.3208010E+04  0.7818609E-02  0.8186705E-01
       -2   -1    0    0    0  501  0.00000000000E+00  0.00000000000E+00  0.28572282404E+04  0.28572282404E+04  0.25500000920E-02 0.  1.
        2   -1    0    0  501    0  0.00000000000E+00  0.00000000000E+00 -0.90046408770E+03  0.90046408770E+03  0.25500000920E-02 0. -1.
    10030    2    1    2    0    0  0.00000000000E+00  0.00000000000E+00  0.19567641527E+04  0.37576923281E+04  0.32080096140E+04 0.  0.
        4    1    3    3  502    0  0.56466282249E+03  0.13280859636E+04  0.15829415164E+03  0.14517971901E+04  0.12699999809E+01 0. -1.
       -4    1    3    3    0  502 -0.56466282249E+03 -0.13280859636E+04  0.17984700011E+04  0.23058951380E+04  0.12699999809E+01 0.  1.
</event>
<event>
 5   0  0.8838951E-07  0.3205137E+04  0.7818609E-02  0.8187462E-01
        2   -1    0    0  501    0  0.00000000000E+00  0.00000000000E+00  0.22718273123E+04  0.22718273123E+04  0.25500000920E-02 0. -1.
       -2   -1    0    0    0  501  0.00000000000E+00  0.00000000000E+00 -0.11304667052E+04  0.11304667052E+04  0.25500000920E-02 0.  1.
    10030    2    1    2    0    0  0.00000000000E+00  0.00000000000E+00  0.11413606071E+04  0.34022940175E+04  0.32051365878E+04 0.  0.
        2    1    3    3  502    0 -0.53805072457E+03  0.13929398417E+04  0.11882264960E+04  0.19083139654E+04  0.25500000920E-02 0.  1.
       -2    1    3    3    0  502  0.53805072457E+03 -0.13929398417E+04 -0.46865888881E+02  0.14939800522E+04  0.25500000920E-02 0. -1.
</event>
<event>
 5   0  0.8838951E-07  0.3206911E+04  0.7818609E-02  0.8186994E-01
       -2   -1    0    0    0  501  0.00000000000E+00  0.00000000000E+00  0.30198520563E+04  0.30198520563E+04  0.25500000920E-02 0. -1.
        2   -1    0    0  501    0  0.00000000000E+00  0.00000000000E+00 -0.85138920304E+03  0.85138920304E+03  0.25500000920E-02 0.  1.
    10030    2    1    2    0    0  0.00000000000E+00  0.00000000000E+00  0.21684628533E+04  0.38712412594E+04  0.32069109345E+04 0.  0.
        2    1    3    3  502    0  0.13375677002E+03  0.12263209770E+03 -0.83895382627E+03  0.85835483777E+03  0.25500000920E-02 0.  1.
       -2    1    3    3    0  502 -0.13375677002E+03 -0.12263209770E+03  0.30074166796E+04  0.30128864216E+04  0.25500000920E-02 0. -1.
</event>
<event>
 5   0  0.2891204E-07  0.3202267E+04  0.7818609E-02  0.8188219E-01
       -1   -1    0    0    0  501  0.00000000000E+00  0.00000000000E+00  0.23668545676E+04  0.23668545676E+04  0.50400001928E-02 0. -1.
        1   -1    0    0  501    0  0.00000000000E+00  0.00000000000E+00 -0.10831373248E+04  0.10831373249E+04  0.50400001928E-02 0.  1.
    10030    2    1    2    0    0  0.00000000000E+00  0.00000000000E+00  0.12837172427E+04  0.34499918924E+04  0.32022670249E+04 0.  0.
        4    1    3    3  502    0 -0.13572517679E+04  0.77399046668E+03  0.26488555456E+03  0.15847269714E+04  0.12699999809E+01 0.  1.
       -4    1    3    3    0  502  0.13572517679E+04 -0.77399046668E+03  0.10188316882E+04  0.18652649210E+04  0.12699999809E+01 0. -1.
</event>
<event>
 5   0  0.8838951E-07  0.3202959E+04  0.7818609E-02  0.8188036E-01
        2   -1    0    0  501    0  0.00000000000E+00  0.00000000000E+00  0.24496484230E+04  0.24496484230E+04  0.25500000920E-02 0. -1.
       -2   -1    0    0    0  501  0.00000000000E+00  0.00000000000E+00 -0.10469817192E+04  0.10469817192E+04  0.25500000920E-02 0.  1.
    10030    2    1    2    0    0  0.00000000000E+00  0.00000000000E+00  0.14026667037E+04  0.34966301422E+04  0.32029593300E+04 0.  0.
        2    1    3    3  502    0 -0.78010687089E+03  0.13568934066E+04  0.33110698921E+03  0.15997994516E+04  0.25500000920E-02 0.  1.
       -2    1    3    3    0  502  0.78010687089E+03 -0.13568934066E+04  0.10715597145E+04  0.18968306906E+04  0.25500000920E-02 0. -1.
</event>
<event>
 5   0  0.8802800E-07  0.3171714E+04  0.7818609E-02  0.8196328E-01
        2   -1    0    0  501    0  0.00000000000E+00  0.00000000000E+00  0.15035105628E+04  0.15035105628E+04  0.25500000920E-02 0. -1.
       -2   -1    0    0    0  501  0.00000000000E+00  0.00000000000E+00 -0.16727138638E+04  0.16727138638E+04  0.25500000920E-02 0.  1.
    10030    2    1    2    0    0  0.00000000000E+00  0.00000000000E+00 -0.16920330104E+03  0.31762244265E+04  0.31717143394E+04 0.  0.
        5    1    3    3  502    0 -0.10520035905E+03  0.16696645699E+03 -0.16603625778E+04  0.16720558881E+04  0.46999998093E+01 0.  1.
       -5    1    3    3    0  502  0.10520035905E+03 -0.16696645699E+03  0.14911592768E+04  0.15041685384E+04  0.46999998093E+01 0. -1.
</event>
<event>
 5   0  0.8802800E-07  0.3207762E+04  0.7818609E-02  0.8186770E-01
       -2   -1    0    0    0  501  0.00000000000E+00  0.00000000000E+00  0.92431242009E+03  0.92431242009E+03  0.25500000920E-02 0.  1.
        2   -1    0    0  501    0  0.00000000000E+00  0.00000000000E+00 -0.27830779955E+04  0.27830779955E+04  0.25500000920E-02 0. -1.
    10030    2    1    2    0    0  0.00000000000E+00  0.00000000000E+00 -0.18587655754E+04  0.37073904156E+04  0.32077615605E+04 0.  0.
        5    1    3    3  502    0 -0.85176413444E+03  0.23588319895E+03  0.61746144177E+03  0.10781575703E+04  0.46999998093E+01 0.  1.
       -5    1    3    3    0  502  0.85176413444E+03 -0.23588319895E+03 -0.24762270172E+04  0.26292328453E+04  0.46999998093E+01 0. -1.
</event>
<event>
 5   0  0.8488469E-07  0.3208468E+04  0.7818609E-02  0.8186584E-01
       -2   -1    0    0    0  501  0.00000000000E+00  0.00000000000E+00  0.11372174756E+04  0.11372174756E+04  0.25500000920E-02 0. -1.
        2   -1    0    0  501    0  0.00000000000E+00  0.00000000000E+00 -0.22630379832E+04  0.22630379832E+04  0.25500000920E-02 0.  1.
    10030    2    1    2    0    0  0.00000000000E+00  0.00000000000E+00 -0.11258205075E+04  0.34002554588E+04  0.32084677605E+04 0.  0.
        3    1    3    3  502    0  0.98627855565E+03 -0.12647081983E+04 -0.60161914199E+03  0.17129441959E+04  0.10100000352E+00 0. -1.
       -3    1    3    3    0  502 -0.98627855565E+03  0.12647081983E+04 -0.52420136555E+03  0.16873112629E+04  0.10100000352E+00 0.  1.
</event>
<event>
 5   0  0.3075756E-07  0.3194373E+04  0.7818609E-02  0.8190305E-01
       -1   -1    0    0    0  501  0.00000000000E+00  0.00000000000E+00  0.13921073620E+04  0.13921073620E+04  0.50400001928E-02 0.  1.
        1   -1    0    0  501    0  0.00000000000E+00  0.00000000000E+00 -0.18324766831E+04  0.18324766831E+04  0.50400001928E-02 0. -1.
    10030    2    1    2    0    0  0.00000000000E+00  0.00000000000E+00 -0.44036932113E+03  0.32245840451E+04  0.31943727279E+04 0.  0.
        5    1    3    3  502    0 -0.76941289979E+03  0.84810488975E+03 -0.13441350085E+04  0.17657856964E+04  0.46999998093E+01 0. -1.
       -5    1    3    3    0  502  0.76941289979E+03 -0.84810488975E+03  0.90376568741E+03  0.14587983487E+04  0.46999998093E+01 0.  1.
</event>
<event>
 5   0  0.3013888E-07  0.3167575E+04  0.7818609E-02  0.8197433E-01
       -1   -1    0    0    0  501  0.00000000000E+00  0.00000000000E+00  0.14372890148E+04  0.14372890148E+04  0.50400001928E-02 0. -1.
        1   -1    0    0  501    0  0.00000000000E+00  0.00000000000E+00 -0.17452180337E+04  0.17452180337E+04  0.50400001928E-02 0.  1.
    10030    2    1    2    0    0  0.00000000000E+00  0.00000000000E+00 -0.30792901896E+03  0.31825070485E+04  0.31675749136E+04 0.  0.
        1    1    3    3  502    0  0.54881932829E+02  0.12114421695E+04 -0.11774809539E+04  0.16902856426E+04  0.50400001928E-02 0.  1.
       -1    1    3    3    0  502 -0.54881932829E+02 -0.12114421695E+04  0.86955193499E+03  0.14922214059E+04  0.50400001928E-02 0. -1.
</event>
<event>
 5   0  0.8488469E-07  0.3225749E+04  0.7818609E-02  0.8182050E-01
        2   -1    0    0  501    0  0.00000000000E+00  0.00000000000E+00  0.28601345241E+04  0.28601345241E+04  0.25500000920E-02 0. -1.
       -2   -1    0    0    0  501  0.00000000000E+00  0.00000000000E+00 -0.90952525188E+03  0.90952525188E+03  0.25500000920E-02 0.  1.
    10030    2    1    2    0    0  0.00000000000E+00  0.00000000000E+00  0.19506092722E+04  0.37696597759E+04  0.32257492608E+04 0.  0.
        3    1    3    3  502    0  0.61814840570E+03 -0.11909338362E+02 -0.76554588132E+03  0.98402733215E+03  0.10100000352E+00 0.  1.
       -3    1    3    3    0  502 -0.61814840570E+03  0.11909338362E+02  0.27161551535E+04  0.27856324438E+04  0.10100000352E+00 0. -1.
</event>
<event>
 5   0  0.2783875E-07  0.3191373E+04  0.7818609E-02  0.8191099E-01
       -1   -1    0    0    0  501  0.00000000000E+00  0.00000000000E+00  0.10472642504E+04  0.10472642504E+04  0.50400001928E-02 0.  1.
        1   -1    0    0  501    0  0.00000000000E+00  0.00000000000E+00 -0.24313015966E+04  0.24313015966E+04  0.50400001928E-02 0. -1.
    10030    2    1    2    0    0  0.00000000000E+00  0.00000000000E+00 -0.13840373462E+04  0.34785658470E+04  0.31913728983E+04 0.  0.
        2    1    3    3  502    0  0.29094877015E+03  0.15087570397E+03 -0.23942195927E+04  0.24165475628E+04  0.25500000920E-02 0. -1.
       -2    1    3    3    0  502 -0.29094877015E+03 -0.15087570397E+03  0.10101822465E+04  0.10620182843E+04  0.25500000920E-02 0.  1.
</event>
<event>
 5   0  0.8335929E-07  0.3195370E+04  0.7818609E-02  0.8190041E-01
       -2   -1    0    0    0  501  0.00000000000E+00  0.00000000000E+00  0.17638168369E+04  0.17638168369E+04  0.25500000920E-02 0.  1.
        2   -1    0    0  501    0  0.00000000000E+00  0.00000000000E+00 -0.14472006688E+04  0.14472006688E+04  0.25500000920E-02 0. -1.
    10030    2    1    2    0    0  0.00000000000E+00  0.00000000000E+00  0.31661616802E+03  0.32110175057E+04  0.31953697163E+04 0.  0.
        4    1    3    3  502    0 -0.82153142054E+03 -0.13670924891E+04  0.64364752585E+02  0.15962456524E+04  0.12699999809E+01 0. -1.
       -4    1    3    3    0  502  0.82153142054E+03  0.13670924891E+04  0.25225141543E+03  0.16147718533E+04  0.12699999809E+01 0.  1.
</event>
<event>
 5   0  0.2891204E-07  0.3202356E+04  0.7818609E-02  0.8188195E-01
        1   -1    0    0  501    0  0.00000000000E+00  0.00000000000E+00  0.21351604289E+04  0.21351604289E+04  0.50400001928E-02 0. -1.
       -1   -1    0    0    0  501  0.00000000000E+00  0.00000000000E+00 -0.12007396273E+04  0.12007396273E+04  0.50400001928E-02 0.  1.
    10030    2    1    2    0    0  0.00000000000E+00  0.00000000000E+00  0.93442080165E+03  0.33359000562E+04  0.32023564683E+04 0.  0.
        4    1    3    3  502    0  0.35797144053E+03 -0.61929332612E+03 -0.10250439915E+04  0.12499538285E+04  0.12699999809E+01 0.  1.
       -4    1    3    3    0  502 -0.35797144053E+03  0.61929332612E+03  0.19594647932E+04  0.20859462276E+04  0.12699999809E+01 0. -1.
</event>
<event>
 5   0  0.8335929E-07  0.3205966E+04  0.7818609E-02  0.8187243E-01
        2   -1    0    0  501    0  0.00000000000E+00  0.00000000000E+00  0.12752939531E+04  0.12752939531E+04  0.25500000920E-02 0.  1.
       -2   -1    0    0    0  501  0.00000000000E+00  0.00000000000E+00 -0.20148727051E+04  0.20148727051E+04  0.25500000920E-02 0. -1.
    10030    2    1    2    0    0  0.00000000000E+00  0.00000000000E+00 -0.73957875202E+03  0.32901666581E+04  0.32059662986E+04 0.  0.
        4    1    3    3  502    0 -0.13633214494E+04  0.84314773733E+03 -0.36656312553E+03  0.16443581177E+04  0.12699999809E+01 0.  1.
       -4    1    3    3    0  502  0.13633214494E+04 -0.84314773733E+03 -0.37301562649E+03  0.16458085404E+04  0.12699999809E+01 0. -1.
</event>
<event>
 5   0  0.8195618E-07  0.3195117E+04  0.7818609E-02  0.8190108E-01
       -2   -1    0    0    0  501  0.00000000000E+00  0.00000000000E+00  0.13753634672E+04  0.13753634672E+04  0.25500000920E-02 0. -1.
        2   -1    0    0  501    0  0.00000000000E+00  0.00000000000E+00 -0.18556503951E+04  0.18556503951E+04  0.25500000920E-02 0.  1.
    10030    2    1    2    0    0  0.00000000000E+00  0.00000000000E+00 -0.48028692795E+03  0.32310138623E+04  0.31951173758E+04 0.  0.
        1    1    3    3  502    0  0.29513484080E+03  0.96565302879E+02 -0.18248372235E+04  0.18510700485E+04  0.50400001928E-02 0.  1.
       -1    1    3    3    0  502 -0.29513484080E+03 -0.96565302879E+02  0.13445502956E+04  0.13799438138E+04  0.50400001928E-02 0. -1.
</event>
<event>
 5   0  0.8838951E-07  0.3213238E+04  0.7818609E-02  0.8185330E-01
        2   -1    0    0  501    0  0.00000000000E+00  0.00000000000E+00  0.25842869336E+04  0.25842869337E+04  0.25500000920E-02 0. -1.
       -2   -1    0    0    0  501  0.00000000000E+00  0.00000000000E+00 -0.99881504552E+03  0.99881504553E+03  0.25500000920E-02 0.  1.
    10030    2    1    2    0    0  0.00000000000E+00  0.00000000000E+00  0.15854718881E+04  0.35831019792E+04  0.32132380374E+04 0.  0.
        2    1    3    3  502    0 -0.94042960249E+03 -0.62838305872E+02 -0.65813185036E+03  0.11495625352E+04  0.25500000920E-02 0.  1.
       -2    1    3    3    0  502  0.94042960249E+03  0.62838305872E+02  0.22436037385E+04  0.24335394440E+04  0.25500000920E-02 0. -1.
</event>
<event>
 5   0  0.2997105E-07  0.3217653E+04  0.7818609E-02  0.8184171E-01
       -1   -1    0    0    0  501  0.00000000000E+00  0.00000000000E+00  0.20339074053E+04  0.20339074053E+04  0.50400001928E-02 0. -1.
        1   -1    0    0  501    0  0.00000000000E+00  0.00000000000E+00 -0.12725864682E+04  0.12725864682E+04  0.50400001928E-02 0.  1.
    10030    2    1    2    0    0  0.00000000000E+00  0.00000000000E+00  0.76132093713E+03  0.33064938736E+04  0.32176532079E+04 0.  0.
        3    1    3    3  502    0  0.14747373416E+04  0.34638763212E+02 -0.27915260074E+03  0.15013248333E+04  0.10100000352E+00 0.  1.
       -3    1    3    3    0  502 -0.14747373416E+04 -0.34638763212E+02  0.10404735379E+04  0.18051690402E+04  0.10100000352E+00 0. -1.
</event>
<event>
 5   0  0.3013888E-07  0.3200724E+04  0.7818609E-02  0.8188626E-01
       -1   -1    0    0    0  501  0.00000000000E+00  0.00000000000E+00  0.21829474758E+04  0.21829474758E+04  0.50400001928E-02 0. -1.
        1   -1    0    0  501    0  0.00000000000E+00  0.00000000000E+00 -0.11732567653E+04  0.11732567653E+04  0.50400001928E-02 0.  1.
    10030    2    1    2    0    0  0.00000000000E+00  0.00000000000E+00  0.10096907104E+04  0.33562042411E+04  0.32007236021E+04 0.  0.
        1    1    3    3  502    0  0.94268544184E+03  0.69047274841E+03  0.16514674386E+04  0.20230554019E+04  0.50400001928E-02 0. -1.
       -1    1    3    3    0  502 -0.94268544184E+03 -0.69047274841E+03 -0.64177672814E+03  0.13331488392E+04  0.50400001928E-02 0.  1.
</event>
<event>
 5   0  0.2783875E-07  0.3198277E+04  0.7818609E-02  0.8189272E-01
       -1   -1    0    0    0  501  0.00000000000E+00  0.00000000000E+00  0.12689731231E+04  0.12689731231E+04  0.50400001928E-02 0.  1.
        1   -1    0    0  501    0  0.00000000000E+00  0.00000000000E+00 -0.20152068578E+04  0.20152068578E+04  0.50400001928E-02 0. -1.
    10030    2    1    2    0    0  0.00000000000E+00  0.00000000000E+00 -0.74623373475E+03  0.32841799809E+04  0.31982766235E+04 0.  0.
        2    1    3    3  502    0 -0.22689550314E+03  0.82125210947E+02 -0.19964047624E+04  0.20109346322E+04  0.25500000920E-02 0. -1.
       -2    1    3    3    0  502  0.22689550314E+03 -0.82125210947E+02  0.12501710277E+04  0.12732453487E+04  0.25500000920E-02 0.  1.
</event>
<event>
 5   0  0.8838951E-07  0.3183852E+04  0.7818609E-02  0.8193095E-01
        2   -1    0    0  501    0  0.00000000000E+00  0.00000000000E+00  0.11716437783E+04  0.11716437783E+04  0.25500000920E-02 0.  1.
       -2   -1    0    0    0  501  0.00000000000E+00  0.00000000000E+00 -0.21629686409E+04  0.21629686409E+04  0.25500000920E-02 0. -1.
    10030    2    1    2    0    0  0.00000000000E+00  0.00000000000E+00 -0.99132486259E+03  0.33346124191E+04  0.31838522269E+04 0.  0.
        2    1    3    3  502    0 -0.58203229149E+03 -0.13446994264E+04 -0.11474236553E+04  0.18610639915E+04  0.25500000920E-02 0.  1.
       -2    1    3    3    0  502  0.58203229149E+03  0.13446994264E+04  0.15609879270E+03  0.14735484277E+04  0.25500000920E-02 0. -1.
</event>
<event>
 5   0  0.8802800E-07  0.3200449E+04  0.7818609E-02  0.8188699E-01
       -2   -1    0    0    0  501  0.00000000000E+00  0.00000000000E+00  0.16259810824E+04  0.16259810824E+04  0.25500000920E-02 0.  1.
        2   -1    0    0  501    0  0.00000000000E+00  0.00000000000E+00 -0.15748754352E+04  0.15748754352E+04  0.25500000920E-02 0. -1.
    10030    2    1    2    0    0  0.00000000000E+00  0.00000000000E+00  0.51105647129E+02  0.32008565176E+04  0.32004485090E+04 0.  0.
        5    1    3    3  502    0  0.36768854644E+03 -0.14923143939E+04  0.47114127895E+03  0.16075426315E+04  0.46999998093E+01 0.  1.
       -5    1    3    3    0  502 -0.36768854644E+03  0.14923143939E+04 -0.42003563182E+03  0.15933138861E+04  0.46999998093E+01 0. -1.
</event>
<event>
 5   0  0.3013888E-07  0.3203365E+04  0.7818609E-02  0.8187929E-01
       -1   -1    0    0    0  501  0.00000000000E+00  0.00000000000E+00  0.93614648989E+03  0.93614648991E+03  0.50400001928E-02 0.  1.
        1   -1    0    0  501    0  0.00000000000E+00  0.00000000000E+00 -0.27403690361E+04  0.27403690361E+04  0.50400001928E-02 0. -1.
    10030    2    1    2    0    0  0.00000000000E+00  0.00000000000E+00 -0.18042225462E+04  0.36765155260E+04  0.32033650146E+04 0.  0.
        1    1    3    3  502    0  0.12156568033E+04  0.72964092186E+03 -0.46944921328E+02  0.14185912604E+04  0.50400001928E-02 0. -1.
       -1    1    3    3    0  502 -0.12156568033E+04 -0.72964092186E+03 -0.17572776249E+04  0.22579242656E+04  0.50400001928E-02 0.  1.
</event>
<event>
 5   0  0.8195618E-07  0.3203618E+04  0.7818609E-02  0.8187862E-01
       -2   -1    0    0    0  501  0.00000000000E+00  0.00000000000E+00  0.32147997287E+04  0.32147997287E+04  0.25500000920E-02 0.  1.
        2   -1    0    0  501    0  0.00000000000E+00  0.00000000000E+00 -0.79811875414E+03  0.79811875414E+03  0.25500000920E-02 0. -1.
    10030    2    1    2    0    0  0.00000000000E+00  0.00000000000E+00  0.24166809745E+04  0.40129184828E+04  0.32036179262E+04 0.  0.
        1    1    3    3  502    0 -0.70700055437E+03 -0.14274382635E+04  0.14192952733E+04  0.21335015474E+04  0.50400001928E-02 0.  1.
       -1    1    3    3    0  502  0.70700055437E+03  0.14274382635E+04  0.99738570124E+03  0.18794169354E+04  0.50400001928E-02 0. -1.
</event>
<event>
 5   0  0.3013888E-07  0.3185412E+04  0.7818609E-02  0.8192681E-01
        1   -1    0    0  501    0  0.00000000000E+00  0.00000000000E+00  0.24911244261E+04  0.24911244261E+04  0.50400001928E-02 0.  1.
       -1   -1    0    0    0  501  0.00000000000E+00  0.00000000000E+00 -0.10183000920E+04  0.10183000921E+04  0.50400001928E-02 0. -1.
    10030    2    1    2    0    0  0.00000000000E+00  0.00000000000E+00  0.14728243340E+04  0.35094245182E+04  0.31854118933E+04 0.  0.
        1    1    3    3  502    0  0.13046291639E+04  0.82894175233E+03  0.11595499901E+04  0.19322934207E+04  0.50400001928E-02 0. -1.
       -1    1    3    3    0  502 -0.13046291639E+04 -0.82894175233E+03  0.31327434393E+03  0.15771310975E+04  0.50400001928E-02 0.  1.
</event>
<event>
 5   0  0.8802800E-07  0.3198402E+04  0.7818609E-02  0.8189239E-01
        2   -1    0    0  501    0  0.00000000000E+00  0.00000000000E+00  0.27586745888E+04  0.27586745888E+04  0.25500000920E-02 0. -1.
       -2   -1    0    0    0  501  0.00000000000E+00  0.00000000000E+00 -0.92705524812E+03  0.92705524813E+03  0.25500000920E-02 0.  1.
    10030    2    1    2    0    0  0.00000000000E+00  0.00000000000E+00  0.18316193407E+04  0.36857298369E+04  0.31984019481E+04 0.  0.
        5    1    3    3  502    0  0.76145891501E+03 -0.13268537126E+04  0.37892430190E+03  0.15760603321E+04  0.46999998093E+01 0.  1.
       -5    1    3    3    0  502 -0.76145891501E+03  0.13268537126E+04  0.14526950388E+04  0.21096695048E+04  0.46999998093E+01 0. -1.
</event>
<event>
 5   0  0.8335929E-07  0.3204580E+04  0.7818609E-02  0.8187609E-01
       -2   -1    0    0    0  501  0.00000000000E+00  0.00000000000E+00  0.10428067701E+04  0.10428067701E+04  0.25500000920E-02 0.  1.
        2   -1    0    0  501    0  0.00000000000E+00  0.00000000000E+00 -0.24619456077E+04  0.24619456077E+04  0.25500000920E-02 0. -1.
    10030    2    1    2    0    0  0.00000000000E+00  0.00000000000E+00 -0.14191388376E+04  0.35047523778E+04  0.32045801892E+04 0.  0.
        4    1    3    3  502    0 -0.46530297763E+03 -0.15063835683E+04 -0.39709050299E+03  0.16258477163E+04  0.12699999809E+01 0. -1.
       -4    1    3    3    0  502  0.46530297763E+03  0.15063835683E+04 -0.10220483346E+04  0.18789046615E+04  0.12699999809E+01 0.  1.
</event>
<event>
 5   0  0.8802800E-07  0.3198599E+04  0.7818609E-02  0.8189187E-01
       -2   -1    0    0    0  501  0.00000000000E+00  0.00000000000E+00  0.14088500383E+04  0.14088500383E+04  0.25500000920E-02 0.  1.
        2   -1    0    0  501    0  0.00000000000E+00  0.00000000000E+00 -0.18154943434E+04  0.18154943434E+04  0.25500000920E-02 0. -1.
    10030    2    1    2    0    0  0.00000000000E+00  0.00000000000E+00 -0.40664430513E+03  0.32243443817E+04  0.31985992405E+04 0.  0.
        5    1    3    3  502    0 -0.13619346422E+04  0.18150110615E+03  0.62175742796E+03  0.15081157152E+04  0.46999998093E+01 0.  1.
       -5    1    3    3    0  502  0.13619346422E+04 -0.18150110615E+03 -0.10284017331E+04  0.17162286665E+04  0.46999998093E+01 0. -1.
</event>
<event>
 5   0  0.8802800E-07  0.3193656E+04  0.7818609E-02  0.8190495E-01
        2   -1    0    0  501    0  0.00000000000E+00  0.00000000000E+00  0.24034511643E+04  0.24034511643E+04  0.25500000920E-02 0. -1.
       -2   -1    0    0    0  501  0.00000000000E+00  0.00000000000E+00 -0.10609159490E+04  0.10609159490E+04  0.25500000920E-02 0.  1.
    10030    2    1    2    0    0  0.00000000000E+00  0.00000000000E+00  0.13425352153E+04  0.34643671132E+04  0.31936560070E+04 0.  0.
        5    1    3    3  502    0  0.66153455724E+03 -0.13697313880E+04  0.14423963290E+03  0.15279460747E+04  0.46999998093E+01 0.  1.
       -5    1    3    3    0  502 -0.66153455724E+03  0.13697313880E+04  0.11982955824E+04  0.19364210385E+04  0.46999998093E+01 0. -1.
</event>
<event>
 5   0  0.2783875E-07  0.3192036E+04  0.7818609E-02  0.8190924E-01
        1   -1    0    0  501    0  0.00000000000E+00  0.00000000000E+00  0.22736764945E+04  0.22736764945E+04  0.50400001928E-02 0. -1.
       -1   -1    0    0    0  501  0.00000000000E+00  0.00000000000E+00 -0.11203321927E+04  0.11203321927E+04  0.50400001928E-02 0.  1.
    10030    2    1    2    0    0  0.00000000000E+00  0.00000000000E+00  0.11533443019E+04  0.33940086872E+04  0.31920356969E+04 0.  0.
        2    1    3    3  502    0 -0.58938930311E+03 -0.34760224614E+03 -0.95645910552E+03  0.11760191719E+04  0.25500000920E-02 0.  1.
       -2    1    3    3    0  502  0.58938930311E+03  0.34760224614E+03  0.21098034074E+04  0.22179895153E+04  0.25500000920E-02 0. -1.
</event>
<event>
 5   0  0.8195618E-07  0.3199763E+04  0.7818609E-02  0.8188880E-01
        2   -1    0    0  501    0  0.00000000000E+00  0.00000000000E+00  0.19000562951E+04  0.19000562951E+04  0.25500000920E-02 0. -1.
       -2   -1    0    0    0  501  0.00000000000E+00  0.00000000000E+00 -0.13471285238E+04  0.13471285238E+04  0.25500000920E-02 0.  1.
    10030    2    1    2    0    0  0.00000000000E+00  0.00000000000E+00  0.55292777127E+03  0.32471848189E+04  0.31997625111E+04 0.  0.
        1    1    3    3  502    0 -0.75655175864E+03  0.11815570020E+04  0.10567365294E+04  0.17564565481E+04  0.50400001928E-02 0. -1.
       -1    1    3    3    0  502  0.75655175864E+03 -0.11815570020E+04 -0.50380875817E+03  0.14907282708E+04  0.50400001928E-02 0.  1.
</event>
<event>
 5   0  0.2783875E-07  0.3046274E+04  0.7818609E-02  0.8230639E-01
       -1   -1    0    0    0  501  0.00000000000E+00  0.00000000000E+00  0.10649309501E+04  0.10649309501E+04  0.50400001928E-02 0. -1.
        1   -1    0    0  501    0  0.00000000000E+00  0.00000000000E+00 -0.21784939949E+04  0.21784939949E+04  0.50400001928E-02 0.  1.
    10030    2    1    2    0    0  0.00000000000E+00  0.00000000000E+00 -0.11135630448E+04  0.32434249450E+04  0.30462735792E+04 0.  0.
        2    1    3    3  502    0 -0.72053863993E+03 -0.10187246804E+04  0.37323061236E+03  0.13024119917E+04  0.25500000920E-02 0. -1.
       -2    1    3    3    0  502  0.72053863993E+03  0.10187246804E+04 -0.14867936572E+04  0.19410129533E+04  0.25500000920E-02 0.  1.
</event>
<event>
 5   0  0.8335929E-07  0.3202016E+04  0.7818609E-02  0.8188285E-01
       -2   -1    0    0    0  501  0.00000000000E+00  0.00000000000E+00  0.11221905155E+04  0.11221905155E+04  0.25500000920E-02 0.  1.
        2   -1    0    0  501    0  0.00000000000E+00  0.00000000000E+00 -0.22841276469E+04  0.22841276469E+04  0.25500000920E-02 0. -1.
    10030    2    1    2    0    0  0.00000000000E+00  0.00000000000E+00 -0.11619371314E+04  0.34063181624E+04  0.32020158536E+04 0.  0.
        4    1    3    3  502    0 -0.98034380638E+02  0.13290480129E+04 -0.15248486018E+04  0.20251282013E+04  0.12699999809E+01 0. -1.
       -4    1    3    3    0  502  0.98034380638E+02 -0.13290480129E+04  0.36291147048E+03  0.13811899611E+04  0.12699999809E+01 0.  1.
</event>
<event>
 5   0  0.2997105E-07  0.3186071E+04  0.7818609E-02  0.8192505E-01
       -1   -1    0    0    0  501  0.00000000000E+00  0.00000000000E+00  0.22787437261E+04  0.22787437261E+04  0.50400001928E-02 0. -1.
        1   -1    0    0  501    0  0.00000000000E+00  0.00000000000E+00 -0.11136673055E+04  0.11136673055E+04  0.50400001928E-02 0.  1.
    10030    2    1    2    0    0  0.00000000000E+00  0.00000000000E+00  0.11650764206E+04  0.33924110316E+04  0.31860711765E+04 0.  0.
        3    1    3    3  502    0  0.64293332503E+03 -0.50661077092E+02  0.21335266075E+04  0.22288709249E+04  0.10100000352E+00 0. -1.
       -3    1    3    3    0  502 -0.64293332503E+03  0.50661077092E+02 -0.96845018685E+03  0.11635401067E+04  0.10100000352E+00 0.  1.
</event>
<event>
 5   0  0.8488469E-07  0.3184046E+04  0.7818609E-02  0.8193043E-01
       -2   -1    0    0    0  501  0.00000000000E+00  0.00000000000E+00  0.10968160719E+04  0.10968160719E+04  0.25500000920E-02 0.  1.
        2   -1    0    0  501    0  0.00000000000E+00  0.00000000000E+00 -0.23108138158E+04  0.23108138158E+04  0.25500000920E-02 0. -1.
    10030    2    1    2    0    0  0.00000000000E+00  0.00000000000E+00 -0.12139977440E+04  0.34076298877E+04  0.31840463139E+04 0.  0.
        3    1    3    3  502    0 -0.96265758966E+03  0.96369636620E+03  0.27495418875E+03  0.13896115059E+04  0.10100000352E+00 0.  1.
       -3    1    3    3    0  502  0.96265758966E+03 -0.96369636620E+03 -0.14889519327E+04  0.20180183818E+04  0.10100000352E+00 0. -1.
</event>
<event>
 5   0  0.2891204E-07  0.3194363E+04  0.7818609E-02  0.8190307E-01
       -1   -1    0    0    0  501  0.00000000000E+00  0.00000000000E+00  0.12695312568E+04  0.12695312568E+04  0.50400001928E-02 0.  1.
        1   -1    0    0  501    0  0.00000000000E+00  0.00000000000E+00 -0.20093944118E+04  0.20093944118E+04  0.50400001928E-02 0. -1.
    10030    2    1    2    0    0  0.00000000000E+00  0.00000000000E+00 -0.73986315494E+03  0.32789256686E+04  0.31943631685E+04 0.  0.
        4    1    3    3  502    0 -0.13171374178E+04 -0.88798500096E+03 -0.19934229804E+03  0.16009707380E+04  0.12699999809E+01 0. -1.
       -4    1    3    3    0  502  0.13171374178E+04  0.88798500096E+03 -0.54052085691E+03  0.16779549306E+04  0.12699999809E+01 0.  1.
</event>
<event>
 5   0  0.8195618E-07  0.3208029E+04  0.7818609E-02  0.8186700E-01
       -2   -1    0    0    0  501  0.00000000000E+00  0.00000000000E+00  0.26644055418E+04  0.26644055418E+04  0.25500000920E-02 0.  1.
        2   -1    0    0  501    0  0.00000000000E+00  0.00000000000E+00 -0.96564212608E+03  0.96564212608E+03  0.25500000920E-02 0. -1.
    10030    2    1    2    0    0  0.00000000000E+00  0.00000000000E+00  0.16987634157E+04  0.36300476679E+04  0.32080288229E+04 0.  0.
        1    1    3    3  502    0 -0.11310260555E+04  0.25257803396E+03 -0.40549062515E+03  0.12277777684E+04  0.50400001928E-02 0. -1.
       -1    1    3    3    0  502  0.11310260555E+04 -0.25257803396E+03  0.21042540408E+04  0.24022698995E+04  0.50400001928E-02 0.  1.
</event>
<event>
 5   0  0.3075756E-07  0.3196290E+04  0.7818609E-02  0.8189798E-01
       -1   -1    0    0    0  501  0.00000000000E+00  0.00000000000E+00  0.13900364790E+04  0.13900364790E+04  0.50400001928E-02 0.  1.
        1   -1    0    0  501    0  0.00000000000E+00  0.00000000000E+00 -0.18374106514E+04  0.18374106514E+04  0.50400001928E-02 0. -1.
    10030    2    1    2    0    0  0.00000000000E+00  0.00000000000E+00 -0.44737417237E+03  0.32274471304E+04  0.31962902448E+04 0.  0.
        5    1    3    3  502    0  0.23417284607E+03 -0.18696687442E+03  0.13614086750E+04  0.13940047361E+04  0.46999998093E+01 0.  1.
       -5    1    3    3    0  502 -0.23417284607E+03  0.18696687442E+03 -0.18087828474E+04  0.18334423942E+04  0.46999998093E+01 0. -1.
</event>
<event>
 5   0  0.2891204E-07  0.3191644E+04  0.7818609E-02  0.8191027E-01
        1   -1    0    0  501    0  0.00000000000E+00  0.00000000000E+00  0.11670933996E+04  0.11670933997E+04  0.50400001928E-02 0.  1.
       -1   -1    0    0    0  501  0.00000000000E+00  0.00000000000E+00 -0.21820433292E+04  0.21820433292E+04  0.50400001928E-02 0. -1.
    10030    2    1    2    0    0  0.00000000000E+00  0.00000000000E+00 -0.10149499296E+04  0.33491367289E+04  0.31916443206E+04 0.  0.
        4    1    3    3  502    0 -0.32342924356E+03 -0.14036000116E+04 -0.12283585514E+04  0.18930308533E+04  0.12699999809E+01 0.  1.
       -4    1    3    3    0  502  0.32342924356E+03  0.14036000116E+04  0.21340862177E+03  0.14561058756E+04  0.12699999809E+01 0. -1.
</event>
<event>
 5   0  0.8488469E-07  0.3201542E+04  0.7818609E-02  0.8188410E-01
       -2   -1    0    0    0  501  0.00000000000E+00  0.00000000000E+00  0.11534290373E+04  0.11534290373E+04  0.25500000920E-02 0. -1.
        2   -1    0    0  501    0  0.00000000000E+00  0.00000000000E+00 -0.22216082452E+04  0.22216082452E+04  0.25500000920E-02 0.  1.
    10030    2    1    2    0    0  0.00000000000E+00  0.00000000000E+00 -0.10681792079E+04  0.33750372824E+04  0.32015417907E+04 0.  0.
        3    1    3    3  502    0 -0.70319168523E+03  0.10373759972E+04 -0.15839708949E+04  0.20197998197E+04  0.10100000352E+00 0.  1.
       -3    1    3    3    0  502  0.70319168523E+03 -0.10373759972E+04  0.51579168705E+03  0.13552374627E+04  0.10100000352E+00 0. -1.
</event>
<event>
 5   0  0.3075756E-07  0.3188400E+04  0.7818609E-02  0.8191888E-01
        1   -1    0    0  501    0  0.00000000000E+00  0.00000000000E+00  0.30928519584E+04  0.30928519584E+04  0.50400001928E-02 0.  1.
       -1   -1    0    0    0  501  0.00000000000E+00  0.00000000000E+00 -0.82172479916E+03  0.82172479917E+03  0.50400001928E-02 0. -1.
    10030    2    1    2    0    0  0.00000000000E+00  0.00000000000E+00  0.22711271592E+04  0.39145767575E+04  0.31883996954E+04 0.  0.
        5    1    3    3  502    0 -0.11006332793E+04 -0.11523460275E+04  0.11925727401E+04  0.19903634877E+04  0.46999998093E+01 0. -1.
       -5    1    3    3    0  502  0.11006332793E+04  0.11523460275E+04  0.10785544191E+04  0.19242132698E+04  0.46999998093E+01 0.  1.
</event>
<event>
 5   0  0.2997105E-07  0.3208414E+04  0.7818609E-02  0.8186598E-01
       -1   -1    0    0    0  501  0.00000000000E+00  0.00000000000E+00  0.12147931300E+04  0.12147931300E+04  0.50400001928E-02 0.  1.
        1   -1    0    0  501    0  0.00000000000E+00  0.00000000000E+00 -0.21184517846E+04  0.21184517847E+04  0.50400001928E-02 0. -1.
    10030    2    1    2    0    0  0.00000000000E+00  0.00000000000E+00 -0.90365865468E+03  0.33332449146E+04  0.32084143586E+04 0.  0.
        3    1    3    3  502    0 -0.31971653548E+03  0.14653848633E+04 -0.10431028312E+04  0.18269195350E+04  0.10100000352E+00 0. -1.
       -3    1    3    3    0  502  0.31971653548E+03 -0.14653848633E+04  0.13944417655E+03  0.15063253796E+04  0.10100000352E+00 0.  1.
</event>
<event>
 5   0  0.2783875E-07  0.3199920E+04  0.7818609E-02  0.8188838E-01
        1   -1    0    0  501    0  0.00000000000E+00  0.00000000000E+00  0.23989388227E+04  0.23989388227E+04  0.50400001928E-02 0.  1.
       -1   -1    0    0    0  501  0.00000000000E+00  0.00000000000E+00 -0.10670850124E+04  0.10670850125E+04  0.50400001928E-02 0. -1.
    10030    2    1    2    0    0  0.00000000000E+00  0.00000000000E+00  0.13318538102E+04  0.34660238352E+04  0.31999197887E+04 0.  0.
        2    1    3    3  502    0 -0.54039289183E+03  0.14824640836E+04  0.37904819105E+03  0.16227759450E+04  0.25500000920E-02 0. -1.
       -2    1    3    3    0  502  0.54039289183E+03 -0.14824640836E+04  0.95280561920E+03  0.18432478901E+04  0.25500000920E-02 0.  1.
</event>
<event>
 5   0  0.8838951E-07  0.3208078E+04  0.7818609E-02  0.8186687E-01
       -2   -1    0    0    0  501  0.00000000000E+00  0.00000000000E+00  0.13312378141E+04  0.13312378141E+04  0.25500000920E-02 0.  1.
        2   -1    0    0  501    0  0.00000000000E+00  0.00000000000E+00 -0.19327433738E+04  0.19327433738E+04  0.25500000920E-02 0. -1.
    10030    2    1    2    0    0  0.00000000000E+00  0.00000000000E+00 -0.60150555963E+03  0.32639811879E+04  0.32080779692E+04 0.  0.
        2    1    3    3  502    0 -0.74938087795E+03  0.20230172631E+03  0.11274330235E+04  0.13687961540E+04  0.25500000920E-02 0.  1.
       -2    1    3    3    0  502  0.74938087795E+03 -0.20230172631E+03 -0.17289385831E+04  0.18951850339E+04  0.25500000920E-02 0. -1.
</event>
<event>
 5   0  0.2783875E-07  0.3195698E+04  0.7818609E-02  0.8189954E-01
        1   -1    0    0  501    0  0.00000000000E+00  0.00000000000E+00  0.99826246338E+03  0.99826246339E+03  0.50400001928E-02 0.  1.
       -1   -1    0    0    0  501  0.00000000000E+00  0.00000000000E+00 -0.25575648535E+04  0.25575648535E+04  0.50400001928E-02 0. -1.
    10030    2    1    2    0    0  0.00000000000E+00  0.00000000000E+00 -0.15593023901E+04  0.35558273169E+04  0.31956977272E+04 0.  0.
        2    1    3    3  502    0  0.87321553440E+03 -0.12603236606E+04 -0.12799914296E+04  0.19973229981E+04  0.25500000920E-02 0. -1.
       -2    1    3    3    0  502 -0.87321553440E+03  0.12603236606E+04 -0.27931096055E+03  0.15585043188E+04  0.25500000920E-02 0.  1.
</event>
<event>
 5   0  0.2783875E-07  0.3179125E+04  0.7818609E-02  0.8194352E-01
       -1   -1    0    0    0  501  0.00000000000E+00  0.00000000000E+00  0.16752273703E+04  0.16752273703E+04  0.50400001928E-02 0.  1.
        1   -1    0    0  501    0  0.00000000000E+00  0.00000000000E+00 -0.15082777479E+04  0.15082777479E+04  0.50400001928E-02 0. -1.
    10030    2    1    2    0    0  0.00000000000E+00  0.00000000000E+00  0.16694962243E+03  0.31835051182E+04  0.31791245118E+04 0.  0.
        2    1    3    3  502    0  0.15285235699E+04  0.41138335286E+03  0.22889060517E+03  0.15993784655E+04  0.25500000920E-02 0.  1.
       -2    1    3    3    0  502 -0.15285235699E+04 -0.41138335286E+03 -0.61940982740E+02  0.15841266528E+04  0.25500000920E-02 0. -1.
</event>
<event>
 5   0  0.2997105E-07  0.3173131E+04  0.7818609E-02  0.8195949E-01
        1   -1    0    0  501    0  0.00000000000E+00  0.00000000000E+00  0.95427476071E+03  0.95427476072E+03  0.50400001928E-02 0. -1.
       -1   -1    0    0    0  501  0.00000000000E+00  0.00000000000E+00 -0.26378050216E+04  0.26378050216E+04  0.50400001928E-02 0.  1.
    10030    2    1    2    0    0  0.00000000000E+00  0.00000000000E+00 -0.16835302609E+04  0.35920797823E+04  0.31731314223E+04 0.  0.
        3    1    3    3  502    0  0.11910428034E+04  0.60833721096E+02 -0.20262964258E+04  0.23512041418E+04  0.10100000352E+00 0.  1.
       -3    1    3    3    0  502 -0.11910428034E+04 -0.60833721096E+02  0.34276616490E+03  0.12408756405E+04  0.10100000352E+00 0. -1.
</event>
<event>
 5   0  0.8195618E-07  0.3207714E+04  0.7818609E-02  0.8186783E-01
        2   -1    0    0  501    0  0.00000000000E+00  0.00000000000E+00  0.17571293873E+04  0.17571293873E+04  0.25500000920E-02 0.  1.
       -2   -1    0    0    0  501  0.00000000000E+00  0.00000000000E+00 -0.14639542269E+04  0.14639542269E+04  0.25500000920E-02 0. -1.
    10030    2    1    2    0    0  0.00000000000E+00  0.00000000000E+00  0.29317516038E+03  0.32210836143E+04  0.32077138238E+04 0.  0.
        1    1    3    3  502    0 -0.46260956361E+03  0.41354763401E+03  0.16317136208E+04  0.17457143507E+04  0.50400001928E-02 0.  1.
       -1    1    3    3    0  502  0.46260956361E+03 -0.41354763401E+03 -0.13385384604E+04  0.14753692636E+04  0.50400001928E-02 0. -1.
</event>
<event>
 5   0  0.8335929E-07  0.3204150E+04  0.7818609E-02  0.8187722E-01
       -2   -1    0    0    0  501  0.00000000000E+00  0.00000000000E+00  0.98121838365E+03  0.98121838365E+03  0.25500000920E-02 0. -1.
        2   -1    0    0  501    0  0.00000000000E+00  0.00000000000E+00 -0.26157721507E+04  0.26157721507E+04  0.25500000920E-02 0.  1.
    10030    2    1    2    0    0  0.00000000000E+00  0.00000000000E+00 -0.16345537670E+04  0.35969905343E+04  0.32041496355E+04 0.  0.
        4    1    3    3  502    0 -0.40889849556E+03  0.21495863627E+03  0.90482694173E+03  0.10159323808E+04  0.12699999809E+01 0. -1.
       -4    1    3    3    0  502  0.40889849556E+03 -0.21495863627E+03 -0.25393807087E+04  0.25810581535E+04  0.12699999809E+01 0.  1.
</event>
<event>
 5   0  0.3013888E-07  0.3216543E+04  0.7818609E-02  0.8184462E-01
       -1   -1    0    0    0  501  0.00000000000E+00  0.00000000000E+00  0.12764652235E+04  0.12764652235E+04  0.50400001928E-02 0.  1.
        1   -1    0    0  501    0  0.00000000000E+00  0.00000000000E+00 -0.20263278547E+04  0.20263278547E+04  0.50400001928E-02 0. -1.
    10030    2    1    2    0    0  0.00000000000E+00  0.00000000000E+00 -0.74986263117E+03  0.33027930782E+04  0.32165428882E+04 0.  0.
        1    1    3    3  502    0  0.12955923488E+04  0.28214418575E+03 -0.13094861041E+04  0.18635768653E+04  0.50400001928E-02 0. -1.
       -1    1    3    3    0  502 -0.12955923488E+04 -0.28214418575E+03  0.55962347294E+03  0.14392162129E+04  0.50400001928E-02 0.  1.
</event>
<event>
 5   0  0.8195618E-07  0.3204763E+04  0.7818609E-02  0.8187560E-01
        2   -1    0    0  501    0  0.00000000000E+00  0.00000000000E+00  0.24025864306E+04  0.24025864306E+04  0.25500000920E-02 0.  1.
       -2   -1    0    0    0  501  0.00000000000E+00  0.00000000000E+00 -0.10686929394E+04  0.10686929394E+04  0.25500000920E-02 0. -1.
    10030    2    1    2    0    0  0.00000000000E+00  0.00000000000E+00  0.13338934912E+04  0.34712793701E+04  0.32047634264E+04 0.  0.
        1    1    3    3  502    0  0.14281455661E+04  0.42652147283E+03  0.13041803592E+04  0.19805066862E+04  0.50400001928E-02 0.  1.
       -1    1    3    3    0  502 -0.14281455661E+04 -0.42652147283E+03  0.29713131966E+02  0.14907726839E+04  0.50400001928E-02 0. -1.
</event>
<event>
 5   0  0.8335929E-07  0.3201503E+04  0.7818609E-02  0.8188420E-01
        2   -1    0    0  501    0  0.00000000000E+00  0.00000000000E+00  0.29040768274E+04  0.29040768274E+04  0.25500000920E-02 0. -1.
       -2   -1    0    0    0  501  0.00000000000E+00  0.00000000000E+00 -0.88234788722E+03  0.88234788723E+03  0.25500000920E-02 0.  1.
    10030    2    1    2    0    0  0.00000000000E+00  0.00000000000E+00  0.20217289402E+04  0.37864247146E+04  0.32015034300E+04 0.  0.
        4    1    3    3  502    0  0.12605864254E+04  0.59638632589E+03  0.19403581822E+04  0.23895075379E+04  0.12699999809E+01 0. -1.
       -4    1    3    3    0  502 -0.12605864254E+04 -0.59638632589E+03  0.81370757961E+02  0.13969171767E+04  0.12699999809E+01 0.  1.
</event>
<event>
 5   0  0.8802800E-07  0.3080583E+04  0.7818609E-02  0.8221087E-01
        2   -1    0    0  501    0  0.00000000000E+00  0.00000000000E+00  0.24644792541E+04  0.24644792541E+04  0.25500000920E-02 0. -1.
       -2   -1    0    0    0  501  0.00000000000E+00  0.00000000000E+00 -0.96267729004E+03  0.96267729005E+03  0.25500000920E-02 0.  1.
    10030    2    1    2    0    0  0.00000000000E+00  0.00000000000E+00  0.15018019641E+04  0.34271565442E+04  0.30805831979E+04 0.  0.
        5    1    3    3  502    0 -0.10293647142E+04 -0.11183911454E+04  0.10281031478E+04  0.18350500378E+04  0.46999998093E+01 0. -1.
       -5    1    3    3    0  502  0.10293647142E+04  0.11183911454E+04  0.47369881632E+03  0.15921065063E+04  0.46999998093E+01 0.  1.
</event>
<event>
 5   0  0.8195618E-07  0.3220382E+04  0.7818609E-02  0.8183455E-01
        2   -1    0    0  501    0  0.00000000000E+00  0.00000000000E+00  0.25904426691E+04  0.25904426691E+04  0.25500000920E-02 0. -1.
       -2   -1    0    0    0  501  0.00000000000E+00  0.00000000000E+00 -0.10008770656E+04  0.10008770656E+04  0.25500000920E-02 0.  1.
    10030    2    1    2    0    0  0.00000000000E+00  0.00000000000E+00  0.15895656035E+04  0.35913197347E+04  0.32203817521E+04 0.  0.
        1    1    3    3  502    0  0.12046750276E+04  0.10344856070E+04  0.10925856364E+04  0.19274713399E+04  0.50400001928E-02 0. -1.
       -1    1    3    3    0  502 -0.12046750276E+04 -0.10344856070E+04  0.49697996715E+03  0.16638483948E+04  0.50400001928E-02 0.  1.
</event>
<event>
 5   0  0.8802800E-07  0.3154261E+04  0.7818609E-02  0.8201002E-01
       -2   -1    0    0    0  501  0.00000000000E+00  0.00000000000E+00  0.11987525405E+04  0.11987525405E+04  0.25500000920E-02 0.  1.
        2   -1    0    0  501    0  0.00000000000E+00  0.00000000000E+00 -0.20749409787E+04  0.20749409787E+04  0.25500000920E-02 0. -1.
    10030    2    1    2    0    0  0.00000000000E+00  0.00000000000E+00 -0.87618843819E+03  0.32736935192E+04  0.31542610987E+04 0.  0.
        5    1    3    3  502    0 -0.12910298646E+04  0.56452671092E+03 -0.11733459684E+04  0.18336333794E+04  0.46999998093E+01 0. -1.
       -5    1    3    3    0  502  0.12910298646E+04 -0.56452671092E+03  0.29715753020E+03  0.14400601398E+04  0.46999998093E+01 0.  1.
</event>
<event>
 5   0  0.8195618E-07  0.3199844E+04  0.7818609E-02  0.8188858E-01
       -2   -1    0    0    0  501  0.00000000000E+00  0.00000000000E+00  0.28704798815E+04  0.28704798815E+04  0.25500000920E-02 0. -1.
        2   -1    0    0  501    0  0.00000000000E+00  0.00000000000E+00 -0.89175010623E+03  0.89175010624E+03  0.25500000920E-02 0.  1.
    10030    2    1    2    0    0  0.00000000000E+00  0.00000000000E+00  0.19787297753E+04  0.37622299877E+04  0.31998442083E+04 0.  0.
        1    1    3    3  502    0 -0.13822354672E+04  0.68193530239E+03  0.14938991789E+04  0.21464727812E+04  0.50400001928E-02 0. -1.
       -1    1    3    3    0  502  0.13822354672E+04 -0.68193530239E+03  0.48483059633E+03  0.16157572066E+04  0.50400001928E-02 0.  1.
</event>
<event>
 5   0  0.2891204E-07  0.3189144E+04  0.7818609E-02  0.8191690E-01
       -1   -1    0    0    0  501  0.00000000000E+00  0.00000000000E+00  0.17783075906E+04  0.17783075906E+04  0.50400001928E-02 0.  1.
        1   -1    0    0  501    0  0.00000000000E+00  0.00000000000E+00 -0.14298196655E+04  0.14298196655E+04  0.50400001928E-02 0. -1.
    10030    2    1    2    0    0  0.00000000000E+00  0.00000000000E+00  0.34848792517E+03  0.32081272561E+04  0.31891435617E+04 0.  0.
        4    1    3    3  502    0  0.28473643312E+03  0.15304082238E+04  0.52189248291E+03  0.16418275014E+04  0.12699999809E+01 0. -1.
       -4    1    3    3    0  502 -0.28473643312E+03 -0.15304082238E+04 -0.17340455773E+03  0.15662997547E+04  0.12699999809E+01 0.  1.
</event>
<event>
 5   0  0.2997105E-07  0.3209397E+04  0.7818609E-02  0.8186340E-01
       -1   -1    0    0    0  501  0.00000000000E+00  0.00000000000E+00  0.13097290540E+04  0.13097290540E+04  0.50400001928E-02 0. -1.
        1   -1    0    0  501    0  0.00000000000E+00  0.00000000000E+00 -0.19660993493E+04  0.19660993493E+04  0.50400001928E-02 0.  1.
    10030    2    1    2    0    0  0.00000000000E+00  0.00000000000E+00 -0.65637029530E+03  0.32758284033E+04  0.32093971028E+04 0.  0.
        3    1    3    3  502    0 -0.68628010028E+03 -0.12453407726E+04  0.43098673371E+03  0.14858006564E+04  0.10100000352E+00 0. -1.
       -3    1    3    3    0  502  0.68628010028E+03  0.12453407726E+04 -0.10873570290E+04  0.17900277469E+04  0.10100000352E+00 0.  1.
</event>
<event>
 5   0  0.8195618E-07  0.3180989E+04  0.7818609E-02  0.8193856E-01
        2   -1    0    0  501    0  0.00000000000E+00  0.00000000000E+00  0.11769929395E+04  0.11769929395E+04  0.25500000920E-02 0. -1.
       -2   -1    0    0    0  501  0.00000000000E+00  0.00000000000E+00 -0.21492681268E+04  0.21492681268E+04  0.25500000920E-02 0.  1.
    10030    2    1    2    0    0  0.00000000000E+00  0.00000000000E+00 -0.97227518722E+03  0.33262610663E+04  0.31809894123E+04 0.  0.
        1    1    3    3  502    0  0.16391870575E+03 -0.59860437442E+03 -0.20174182349E+04  0.21107280435E+04  0.50400001928E-02 0.  1.
       -1    1    3    3    0  502 -0.16391870575E+03  0.59860437442E+03  0.10451430477E+04  0.12155330227E+04  0.50400001928E-02 0. -1.
</event>
<event>
 5   0  0.2783875E-07  0.3194408E+04  0.7818609E-02  0.8190296E-01
       -1   -1    0    0    0  501  0.00000000000E+00  0.00000000000E+00  0.84951435835E+03  0.84951435836E+03  0.50400001928E-02 0. -1.
        1   -1    0    0  501    0  0.00000000000E+00  0.00000000000E+00 -0.30029635202E+04  0.30029635202E+04  0.50400001928E-02 0.  1.
    10030    2    1    2    0    0  0.00000000000E+00  0.00000000000E+00 -0.21534491619E+04  0.38524778786E+04  0.31944080065E+04 0.  0.
        2    1    3    3  502    0 -0.79384902317E+03 -0.69121997457E+03  0.37203014919E+03  0.11164173757E+04  0.25500000920E-02 0. -1.
       -2    1    3    3    0  502  0.79384902317E+03  0.69121997457E+03 -0.25254793111E+04  0.27360605029E+04  0.25500000920E-02 0.  1.
</event>
<event>
 5   0  0.8838951E-07  0.3203249E+04  0.7818609E-02  0.8187960E-01
        2   -1    0    0  501    0  0.00000000000E+00  0.00000000000E+00  0.27863203313E+04  0.27863203313E+04  0.25500000920E-02 0.  1.
       -2   -1    0    0    0  501  0.00000000000E+00  0.00000000000E+00 -0.92064135287E+03  0.92064135287E+03  0.25500000920E-02 0. -1.
    10030    2    1    2    0    0  0.00000000000E+00  0.00000000000E+00  0.18656789785E+04  0.37069616842E+04  0.32032494248E+04 0.  0.
        2    1    3    3  502    0  0.13518003665E+04 -0.31522828874E+03  0.81474539996E+01  0.13880920308E+04  0.25500000920E-02 0. -1.
       -2    1    3    3    0  502 -0.13518003665E+04  0.31522828874E+03  0.18575315245E+04  0.23188696534E+04  0.25500000920E-02 0.  1.
</event>
<event>
 5   0  0.2891204E-07  0.3166505E+04  0.7818609E-02  0.8197720E-01
       -1   -1    0    0    0  501  0.00000000000E+00  0.00000000000E+00  0.12788688943E+04  0.12788688943E+04  0.50400001928E-02 0. -1.
        1   -1    0    0  501    0  0.00000000000E+00  0.00000000000E+00 -0.19600820899E+04  0.19600820899E+04  0.50400001928E-02 0.  1.
    10030    2    1    2    0    0  0.00000000000E+00  0.00000000000E+00 -0.68121319556E+03  0.32389509842E+04  0.31665047071E+04 0.  0.
        4    1    3    3  502    0  0.54571730953E+03  0.11916469549E+04 -0.12491030950E+04  0.18105496408E+04  0.12699999809E+01 0.  1.
       -4    1    3    3    0  502 -0.54571730953E+03 -0.11916469549E+04  0.56788989946E+03  0.14284013434E+04  0.12699999809E+01 0. -1.
</event>
<event>
 5   0  0.8802800E-07  0.3177634E+04  0.7818609E-02  0.8194749E-01
        2   -1    0    0  501    0  0.00000000000E+00  0.00000000000E+00  0.19616370103E+04  0.19616370103E+04  0.25500000920E-02 0. -1.
       -2   -1    0    0    0  501  0.00000000000E+00  0.00000000000E+00 -0.12868531550E+04  0.12868531550E+04  0.25500000920E-02 0.  1.
    10030    2    1    2    0    0  0.00000000000E+00  0.00000000000E+00  0.67478385528E+03  0.32484901653E+04  0.31776335697E+04 0.  0.
        5    1    3    3  502    0  0.15783399135E+04 -0.99460249596E+02  0.49333003148E+03  0.16566369046E+04  0.46999998093E+01 0. -1.
       -5    1    3    3    0  502 -0.15783399135E+04  0.99460249596E+02  0.18145382380E+03  0.15918532608E+04  0.46999998093E+01 0.  1.
</event>
<event>
 5   0  0.2891204E-07  0.3204001E+04  0.7818609E-02  0.8187761E-01
        1   -1    0    0  501    0  0.00000000000E+00  0.00000000000E+00  0.22984989215E+04  0.22984989215E+04  0.50400001928E-02 0. -1.
       -1   -1    0    0    0  501  0.00000000000E+00  0.00000000000E+00 -0.11165572618E+04  0.11165572618E+04  0.50400001928E-02 0.  1.
    10030    2    1    2    0    0  0.00000000000E+00  0.00000000000E+00  0.11819416597E+04  0.34150561833E+04  0.32040010375E+04 0.  0.
        4    1    3    3  502    0 -0.64952154417E+03  0.46200158836E+03  0.20721424311E+04  0.22201575556E+04  0.12699999809E+01 0. -1.
       -4    1    3    3    0  502  0.64952154417E+03 -0.46200158836E+03 -0.89020077146E+03  0.11948986277E+04  0.12699999809E+01 0.  1.
</event>
<event>
 5   0  0.8195618E-07  0.3176374E+04  0.7818609E-02  0.8195085E-01
        2   -1    0    0  501    0  0.00000000000E+00  0.00000000000E+00  0.14232145125E+04  0.14232145125E+04  0.25500000920E-02 0. -1.
       -2   -1    0    0    0  501  0.00000000000E+00  0.00000000000E+00 -0.17722823701E+04  0.17722823701E+04  0.25500000920E-02 0.  1.
    10030    2    1    2    0    0  0.00000000000E+00  0.00000000000E+00 -0.34906785762E+03  0.31954968826E+04  0.31763740267E+04 0.  0.
        1    1    3    3  502    0 -0.43995612353E+03 -0.14043974995E+04 -0.77515778255E+03  0.16633590457E+04  0.50400001928E-02 0. -1.
       -1    1    3    3    0  502  0.43995612353E+03  0.14043974995E+04  0.42608992493E+03  0.15321378369E+04  0.50400001928E-02 0.  1.
</event>
<event>
 5   0  0.2783875E-07  0.3199649E+04  0.7818609E-02  0.8188910E-01
       -1   -1    0    0    0  501  0.00000000000E+00  0.00000000000E+00  0.11004711286E+04  0.11004711286E+04  0.50400001928E-02 0. -1.
        1   -1    0    0  501    0  0.00000000000E+00  0.00000000000E+00 -0.23257665122E+04  0.23257665123E+04  0.50400001928E-02 0.  1.
    10030    2    1    2    0    0  0.00000000000E+00  0.00000000000E+00 -0.12252953837E+04  0.34262376409E+04  0.31996492924E+04 0.  0.
        2    1    3    3  502    0  0.14821521247E+04  0.52130403190E+03 -0.28978967236E+03  0.15976579323E+04  0.25500000920E-02 0. -1.
       -2    1    3    3    0  502 -0.14821521247E+04 -0.52130403190E+03 -0.93550571129E+03  0.18285797085E+04  0.25500000920E-02 0.  1.
</event>
<event>
 5   0  0.2783875E-07  0.3199937E+04  0.7818609E-02  0.8188834E-01
       -1   -1    0    0    0  501  0.00000000000E+00  0.00000000000E+00  0.29007279403E+04  0.29007279403E+04  0.50400001928E-02 0. -1.
        1   -1    0    0  501    0  0.00000000000E+00  0.00000000000E+00 -0.88250242820E+03  0.88250242821E+03  0.50400001928E-02 0.  1.
    10030    2    1    2    0    0  0.00000000000E+00  0.00000000000E+00  0.20182255121E+04  0.37832303686E+04  0.31999371562E+04 0.  0.
        2    1    3    3  502    0 -0.65337047796E+03 -0.12743087866E+04  0.18527222846E+04  0.23416523501E+04  0.25500000920E-02 0. -1.
       -2    1    3    3    0  502  0.65337047796E+03  0.12743087866E+04  0.16550322757E+03  0.14415780185E+04  0.25500000920E-02 0.  1.
</event>
<event>
 5   0  0.2997105E-07  0.3215574E+04  0.7818609E-02  0.8184716E-01
       -1   -1    0    0    0  501  0.00000000000E+00  0.00000000000E+00  0.98946725719E+03  0.98946725720E+03  0.50400001928E-02 0.  1.
        1   -1    0    0  501    0  0.00000000000E+00  0.00000000000E+00 -0.26124959202E+04  0.26124959202E+04  0.50400001928E-02 0. -1.
    10030    2    1    2    0    0  0.00000000000E+00  0.00000000000E+00 -0.16230286631E+04  0.36019631775E+04  0.32155740841E+04 0.  0.
        3    1    3    3  502    0 -0.15901924492E+04 -0.21043334105E+03 -0.93414491298E+03  0.18562383859E+04  0.10100000352E+00 0. -1.
       -3    1    3    3    0  502  0.15901924492E+04  0.21043334105E+03 -0.68888375007E+03  0.17457247916E+04  0.10100000352E+00 0.  1.
</event>
<event>
 5   0  0.3075756E-07  0.3187723E+04  0.7818609E-02  0.8192067E-01
       -1   -1    0    0    0  501  0.00000000000E+00  0.00000000000E+00  0.14549877699E+04  0.14549877700E+04  0.50400001928E-02 0.  1.
        1   -1    0    0  501    0  0.00000000000E+00  0.00000000000E+00 -0.17459906615E+04  0.17459906615E+04  0.50400001928E-02 0. -1.
    10030    2    1    2    0    0  0.00000000000E+00  0.00000000000E+00 -0.29100289154E+03  0.32009784315E+04  0.31877233625E+04 0.  0.
        5    1    3    3  502    0 -0.13738499632E+03  0.12456757566E+04  0.84337271121E+03  0.15105900661E+04  0.46999998093E+01 0.  1.
       -5    1    3    3    0  502  0.13738499632E+03 -0.12456757566E+04 -0.11343756027E+04  0.16903883654E+04  0.46999998093E+01 0. -1.
</event>
<event>
 5   0  0.2891204E-07  0.3213682E+04  0.7818609E-02  0.8185213E-01
       -1   -1    0    0    0  501  0.00000000000E+00  0.00000000000E+00  0.18818261963E+04  0.18818261963E+04  0.50400001928E-02 0. -1.
        1   -1    0    0  501    0  0.00000000000E+00  0.00000000000E+00 -0.13720389286E+04  0.13720389286E+04  0.50400001928E-02 0.  1.
    10030    2    1    2    0    0  0.00000000000E+00  0.00000000000E+00  0.50978726766E+03  0.32538651249E+04  0.32136824972E+04 0.  0.
        4    1    3    3  502    0  0.30903410159E+03  0.54619298547E+03 -0.12428276089E+04  0.13922826336E+04  0.12699999809E+01 0.  1.
       -4    1    3    3    0  502 -0.30903410159E+03 -0.54619298547E+03  0.17526148766E+04  0.18615824913E+04  0.12699999809E+01 0. -1.
</event>
<event>
 5   0  0.8335929E-07  0.3134973E+04  0.7818609E-02  0.8206205E-01
        2   -1    0    0  501    0  0.00000000000E+00  0.00000000000E+00  0.22476254610E+04  0.22476254610E+04  0.25500000920E-02 0.  1.
       -2   -1    0    0    0  501  0.00000000000E+00  0.00000000000E+00 -0.10931599844E+04  0.10931599844E+04  0.25500000920E-02 0. -1.
    10030    2    1    2    0    0  0.00000000000E+00  0.00000000000E+00  0.11544654766E+04  0.33407854453E+04  0.31349731825E+04 0.  0.
        4    1    3    3  502    0  0.11454102370E+03  0.18973843836E+03  0.22308434693E+04  0.22418261571E+04  0.12699999809E+01 0.  1.
       -4    1    3    3    0  502 -0.11454102370E+03 -0.18973843836E+03 -0.10763779927E+04  0.10989592882E+04  0.12699999809E+01 0. -1.
</event>
<event>
 5   0  0.8195618E-07  0.3165659E+04  0.7818609E-02  0.8197946E-01
       -2   -1    0    0    0  501  0.00000000000E+00  0.00000000000E+00  0.95288394189E+03  0.95288394189E+03  0.25500000920E-02 0.  1.
        2   -1    0    0  501    0  0.00000000000E+00  0.00000000000E+00 -0.26292273213E+04  0.26292273213E+04  0.25500000920E-02 0. -1.
    10030    2    1    2    0    0  0.00000000000E+00  0.00000000000E+00 -0.16763433794E+04  0.35821112632E+04  0.31656585375E+04 0.  0.
        1    1    3    3  502    0  0.14201295458E+04  0.47789387656E+03 -0.26097080448E+03  0.15209392641E+04  0.50400001928E-02 0.  1.
       -1    1    3    3    0  502 -0.14201295458E+04 -0.47789387656E+03 -0.14153725749E+04  0.20611719992E+04  0.50400001928E-02 0. -1.
</event>
<event>
 5   0  0.8802800E-07  0.3181656E+04  0.7818609E-02  0.8193679E-01
        2   -1    0    0  501    0  0.00000000000E+00  0.00000000000E+00  0.20897955936E+04  0.20897955936E+04  0.25500000920E-02 0.  1.
       -2   -1    0    0    0  501  0.00000000000E+00  0.00000000000E+00 -0.12109954944E+04  0.12109954944E+04  0.25500000920E-02 0. -1.
    10030    2    1    2    0    0  0.00000000000E+00  0.00000000000E+00  0.87880009928E+03  0.33007910880E+04  0.31816555741E+04 0.  0.
        5    1    3    3  502    0 -0.43972595835E+03 -0.12255469954E+04 -0.50881889288E+03  0.13979424567E+04  0.46999998093E+01 0. -1.
       -5    1    3    3    0  502  0.43972595835E+03  0.12255469954E+04  0.13876189922E+04  0.19028486313E+04  0.46999998093E+01 0.  1.
</event>
<event>
 5   0  0.8838951E-07  0.3110600E+04  0.7818609E-02  0.8212835E-01
       -2   -1    0    0    0  501  0.00000000000E+00  0.00000000000E+00  0.15534743227E+04  0.15534743227E+04  0.25500000920E-02 0.  1.
        2   -1    0    0  501    0  0.00000000000E+00  0.00000000000E+00 -0.15571276464E+04  0.15571276464E+04  0.25500000920E-02 0. -1.
    10030    2    1    2    0    0  0.00000000000E+00  0.00000000000E+00 -0.36533237567E+01  0.31106019691E+04  0.31105998237E+04 0.  0.
        2    1    3    3  502    0 -0.27802297422E+03  0.74506064182E+03 -0.13384448370E+04  0.15568708090E+04  0.25500000920E-02 0. -1.
       -2    1    3    3    0  502  0.27802297422E+03 -0.74506064182E+03  0.13347915132E+04  0.15537311601E+04  0.25500000920E-02 0.  1.
</event>
<event>
 5   0  0.2783875E-07  0.3181526E+04  0.7818609E-02  0.8193713E-01
        1   -1    0    0  501    0  0.00000000000E+00  0.00000000000E+00  0.28933277959E+04  0.28933277959E+04  0.50400001928E-02 0.  1.
       -1   -1    0    0    0  501  0.00000000000E+00  0.00000000000E+00 -0.87460758791E+03  0.87460758793E+03  0.50400001928E-02 0. -1.
    10030    2    1    2    0    0  0.00000000000E+00  0.00000000000E+00  0.20187202079E+04  0.37679353838E+04  0.31815256998E+04 0.  0.
        2    1    3    3  502    0  0.41122606093E+03  0.80082480054E+03  0.25626222522E+04  0.27161480155E+04  0.25500000920E-02 0.  1.
       -2    1    3    3    0  502 -0.41122606093E+03 -0.80082480054E+03 -0.54390204428E+03  0.10517873683E+04  0.25500000920E-02 0. -1.
</event>
<event>
 5   0  0.3013888E-07  0.3211685E+04  0.7818609E-02  0.8185738E-01
       -1   -1    0    0    0  501  0.00000000000E+00  0.00000000000E+00  0.16315364698E+04  0.16315364698E+04  0.50400001928E-02 0. -1.
        1   -1    0    0  501    0  0.00000000000E+00  0.00000000000E+00 -0.15805530391E+04  0.15805530392E+04  0.50400001928E-02 0.  1.
    10030    2    1    2    0    0  0.00000000000E+00  0.00000000000E+00  0.50983430682E+02  0.32120895090E+04  0.32116848699E+04 0.  0.
        1    1    3    3  502    0 -0.83116136709E+03  0.13344968628E+04  0.35267025845E+03  0.16112378491E+04  0.50400001928E-02 0. -1.
       -1    1    3    3    0  502  0.83116136709E+03 -0.13344968628E+04 -0.30168682777E+03  0.16008516599E+04  0.50400001928E-02 0.  1.
</event>
<event>
 5   0  0.8802800E-07  0.3202254E+04  0.7818609E-02  0.8188222E-01
       -2   -1    0    0    0  501  0.00000000000E+00  0.00000000000E+00  0.10623032737E+04  0.10623032738E+04  0.25500000920E-02 0.  1.
        2   -1    0    0  501    0  0.00000000000E+00  0.00000000000E+00 -0.24132533116E+04  0.24132533116E+04  0.25500000920E-02 0. -1.
    10030    2    1    2    0    0  0.00000000000E+00  0.00000000000E+00 -0.13509500379E+04  0.34755565854E+04  0.32022535149E+04 0.  0.
        5    1    3    3  502    0  0.14068406293E+04  0.67803250533E+03 -0.10586750538E+04  0.18867282778E+04  0.46999998093E+01 0. -1.
       -5    1    3    3    0  502 -0.14068406293E+04 -0.67803250533E+03 -0.29227498404E+03  0.15888283076E+04  0.46999998093E+01 0.  1.
</event>
<event>
 5   0  0.8195618E-07  0.3201881E+04  0.7818609E-02  0.8188321E-01
       -2   -1    0    0    0  501  0.00000000000E+00  0.00000000000E+00  0.10419081796E+04  0.10419081796E+04  0.25500000920E-02 0. -1.
        2   -1    0    0  501    0  0.00000000000E+00  0.00000000000E+00 -0.24599194089E+04  0.24599194089E+04  0.25500000920E-02 0.  1.
    10030    2    1    2    0    0  0.00000000000E+00  0.00000000000E+00 -0.14180112293E+04  0.35018275885E+04  0.32018807931E+04 0.  0.
        1    1    3    3  502    0 -0.35274706796E+03  0.88729778895E+03 -0.21144066297E+04  0.23200093224E+04  0.50400001928E-02 0.  1.
       -1    1    3    3    0  502  0.35274706796E+03 -0.88729778895E+03  0.69639540043E+03  0.11818182661E+04  0.50400001928E-02 0. -1.
</event>
<event>
 5   0  0.3075756E-07  0.3206247E+04  0.7818609E-02  0.8187169E-01
       -1   -1    0    0    0  501  0.00000000000E+00  0.00000000000E+00  0.11939883727E+04  0.11939883727E+04  0.50400001928E-02 0. -1.
        1   -1    0    0  501    0  0.00000000000E+00  0.00000000000E+00 -0.21524538983E+04  0.21524538983E+04  0.50400001928E-02 0.  1.
    10030    2    1    2    0    0  0.00000000000E+00  0.00000000000E+00 -0.95846552560E+03  0.33464422710E+04  0.32062469819E+04 0.  0.
        5    1    3    3  502    0  0.79243593703E+02 -0.14848858710E+04 -0.11044385863E+04  0.18522883895E+04  0.46999998093E+01 0.  1.
       -5    1    3    3    0  502 -0.79243593703E+02  0.14848858710E+04  0.14597306071E+03  0.14941538814E+04  0.46999998093E+01 0. -1.
</event>
<event>
 5   0  0.2997105E-07  0.3190926E+04  0.7818609E-02  0.8191218E-01
       -1   -1    0    0    0  501  0.00000000000E+00  0.00000000000E+00  0.11140097414E+04  0.11140097414E+04  0.50400001928E-02 0. -1.
        1   -1    0    0  501    0  0.00000000000E+00  0.00000000000E+00 -0.22849911323E+04  0.22849911323E+04  0.50400001928E-02 0.  1.
    10030    2    1    2    0    0  0.00000000000E+00  0.00000000000E+00 -0.11709813909E+04  0.33990008737E+04  0.31909261229E+04 0.  0.
        3    1    3    3  502    0 -0.44898081316E+03  0.11638317488E+04  0.47406455894E+03  0.13344756747E+04  0.10100000352E+00 0. -1.
       -3    1    3    3    0  502  0.44898081316E+03 -0.11638317488E+04 -0.16450459499E+04  0.20645251990E+04  0.10100000352E+00 0.  1.
</event>
<event>
 5   0  0.8802800E-07  0.3217537E+04  0.7818609E-02  0.8184201E-01
       -2   -1    0    0    0  501  0.00000000000E+00  0.00000000000E+00  0.15845927093E+04  0.15845927093E+04  0.25500000920E-02 0.  1.
        2   -1    0    0  501    0  0.00000000000E+00  0.00000000000E+00 -0.16333127669E+04  0.16333127669E+04  0.25500000920E-02 0. -1.
    10030    2    1    2    0    0  0.00000000000E+00  0.00000000000E+00 -0.48720057605E+02  0.32179054762E+04  0.32175366369E+04 0.  0.
        5    1    3    3  502    0 -0.97897307516E+03 -0.12085161213E+04 -0.43576337420E+03  0.16151815086E+04  0.46999998093E+01 0. -1.
       -5    1    3    3    0  502  0.97897307516E+03  0.12085161213E+04  0.38704331660E+03  0.16027239676E+04  0.46999998093E+01 0.  1.
</event>
<event>
 5   0  0.2997105E-07  0.3199859E+04  0.7818609E-02  0.8188854E-01
        1   -1    0    0  501    0  0.00000000000E+00  0.00000000000E+00  0.22933820725E+04  0.22933820725E+04  0.50400001928E-02 0.  1.
       -1   -1    0    0    0  501  0.00000000000E+00  0.00000000000E+00 -0.11161568977E+04  0.11161568977E+04  0.50400001928E-02 0. -1.
    10030    2    1    2    0    0  0.00000000000E+00  0.00000000000E+00  0.11772251748E+04  0.34095389703E+04  0.31998588840E+04 0.  0.
        3    1    3    3  502    0  0.68950699302E+03 -0.14405650479E+04  0.69040624888E+03  0.17399161903E+04  0.10100000352E+00 0.  1.
       -3    1    3    3    0  502 -0.68950699302E+03  0.14405650479E+04  0.48681892595E+03  0.16696227800E+04  0.10100000352E+00 0. -1.
</event>
<event>
 5   0  0.8488469E-07  0.3197347E+04  0.7818609E-02  0.8189518E-01
        2   -1    0    0  501    0  0.00000000000E+00  0.00000000000E+00  0.17558101264E+04  0.17558101264E+04  0.25500000920E-02 0. -1.
       -2   -1    0    0    0  501  0.00000000000E+00  0.00000000000E+00 -0.14555994699E+04  0.14555994699E+04  0.25500000920E-02 0.  1.
    10030    2    1    2    0    0  0.00000000000E+00  0.00000000000E+00  0.30021065650E+03  0.32114095962E+04  0.31973465806E+04 0.  0.
        3    1    3    3  502    0 -0.11519971984E+04  0.23689218415E+03  0.12377072661E+04  0.17073765662E+04  0.10100000352E+00 0. -1.
       -3    1    3    3    0  502  0.11519971984E+04 -0.23689218415E+03 -0.93749660963E+03  0.15040330300E+04  0.10100000352E+00 0.  1.
</event>
<event>
 5   0  0.2783875E-07  0.3200894E+04  0.7818609E-02  0.8188581E-01
       -1   -1    0    0    0  501  0.00000000000E+00  0.00000000000E+00  0.13479597312E+04  0.13479597312E+04  0.50400001928E-02 0. -1.
        1   -1    0    0  501    0  0.00000000000E+00  0.00000000000E+00 -0.19002282906E+04  0.19002282906E+04  0.50400001928E-02 0.  1.
    10030    2    1    2    0    0  0.00000000000E+00  0.00000000000E+00 -0.55226855939E+03  0.32481880218E+04  0.32008943849E+04 0.  0.
        2    1    3    3  502    0  0.81557061810E+03 -0.11955116886E+04  0.41735712445E+03  0.15061841189E+04  0.25500000920E-02 0. -1.
       -2    1    3    3    0  502 -0.81557061810E+03  0.11955116886E+04 -0.96962568385E+03  0.17420039028E+04  0.25500000920E-02 0.  1.
</event>
<event>
 5   0  0.8195618E-07  0.3177574E+04  0.7818609E-02  0.8194765E-01
        2   -1    0    0  501    0  0.00000000000E+00  0.00000000000E+00  0.21324453397E+04  0.21324453397E+04  0.25500000920E-02 0.  1.
       -2   -1    0    0    0  501  0.00000000000E+00  0.00000000000E+00 -0.11837322045E+04  0.11837322045E+04  0.25500000920E-02 0. -1.
    10030    2    1    2    0    0  0.00000000000E+00  0.00000000000E+00  0.94871313510E+03  0.33161775442E+04  0.31775740577E+04 0.  0.
        1    1    3    3  502    0  0.72309148861E+03 -0.13414330394E+04  0.94333580488E+03  0.17922573311E+04  0.50400001928E-02 0.  1.
       -1    1    3    3    0  502 -0.72309148861E+03  0.13414330394E+04  0.53773302246E+01  0.15239202131E+04  0.50400001928E-02 0. -1.
</event>
<event>
 5   0  0.2783875E-07  0.3247205E+04  0.7818609E-02  0.8176461E-01
       -1   -1    0    0    0  501  0.00000000000E+00  0.00000000000E+00  0.13040219708E+04  0.13040219708E+04  0.50400001928E-02 0.  1.
        1   -1    0    0  501    0  0.00000000000E+00  0.00000000000E+00 -0.20215031778E+04  0.20215031778E+04  0.50400001928E-02 0. -1.
    10030    2    1    2    0    0  0.00000000000E+00  0.00000000000E+00 -0.71748120703E+03  0.33255251486E+04  0.32472046797E+04 0.  0.
        2    1    3    3  502    0 -0.10379700186E+04  0.12294481846E+04 -0.58114188520E+03  0.17107455944E+04  0.25500000920E-02 0. -1.
       -2    1    3    3    0  502  0.10379700186E+04 -0.12294481846E+04 -0.13633932184E+03  0.16147795542E+04  0.25500000920E-02 0.  1.
</event>
<event>
 5   0  0.8335929E-07  0.3208335E+04  0.7818609E-02  0.8186619E-01
        2   -1    0    0  501    0  0.00000000000E+00  0.00000000000E+00  0.15132043629E+04  0.15132043629E+04  0.25500000920E-02 0.  1.
       -2   -1    0    0    0  501  0.00000000000E+00  0.00000000000E+00 -0.17005988061E+04  0.17005988061E+04  0.25500000920E-02 0. -1.
    10030    2    1    2    0    0  0.00000000000E+00  0.00000000000E+00 -0.18739444322E+03  0.32138031690E+04  0.32083351028E+04 0.  0.
        4    1    3    3  502    0 -0.43445361312E+03  0.13385174515E+04  0.67766260212E+03  0.15619241739E+04  0.12699999809E+01 0.  1.
       -4    1    3    3    0  502  0.43445361312E+03 -0.13385174515E+04 -0.86505704533E+03  0.16518789951E+04  0.12699999809E+01 0. -1.
</event>
<event>
 5   0  0.2891204E-07  0.3209423E+04  0.7818609E-02  0.8186333E-01
        1   -1    0    0  501    0  0.00000000000E+00  0.00000000000E+00  0.20876915314E+04  0.20876915314E+04  0.50400001928E-02 0. -1.
       -1   -1    0    0    0  501  0.00000000000E+00  0.00000000000E+00 -0.12334672555E+04  0.12334672556E+04  0.50400001928E-02 0.  1.
    10030    2    1    2    0    0  0.00000000000E+00  0.00000000000E+00  0.85422427588E+03  0.33211587870E+04  0.32094230907E+04 0.  0.
        4    1    3    3  502    0  0.14379610158E+04 -0.71215028306E+03  0.41220138577E+03  0.16567442482E+04  0.12699999809E+01 0.  1.
       -4    1    3    3    0  502 -0.14379610158E+04  0.71215028306E+03  0.44202289011E+03  0.16644145388E+04  0.12699999809E+01 0. -1.
</event>
<event>
 5   0  0.2783875E-07  0.3200699E+04  0.7818609E-02  0.8188633E-01
        1   -1    0    0  501    0  0.00000000000E+00  0.00000000000E+00  0.21522464065E+04  0.21522464065E+04  0.50400001928E-02 0.  1.
       -1   -1    0    0    0  501  0.00000000000E+00  0.00000000000E+00 -0.11899742556E+04  0.11899742556E+04  0.50400001928E-02 0. -1.
    10030    2    1    2    0    0  0.00000000000E+00  0.00000000000E+00  0.96227215087E+03  0.33422206621E+04  0.32006985584E+04 0.  0.
        2    1    3    3  502    0 -0.13212347998E+04 -0.80348913314E+03  0.91150211315E+03  0.17950187424E+04  0.25500000920E-02 0.  1.
       -2    1    3    3    0  502  0.13212347998E+04  0.80348913314E+03  0.50770037716E+02  0.15472019196E+04  0.25500000920E-02 0. -1.
</event>
<event>
 5   0  0.3075756E-07  0.3190790E+04  0.7818609E-02  0.8191254E-01
        1   -1    0    0  501    0  0.00000000000E+00  0.00000000000E+00  0.17335060487E+04  0.17335060487E+04  0.50400001928E-02 0.  1.
       -1   -1    0    0    0  501  0.00000000000E+00  0.00000000000E+00 -0.14682877312E+04  0.14682877312E+04  0.50400001928E-02 0. -1.
    10030    2    1    2    0    0  0.00000000000E+00  0.00000000000E+00  0.26521831752E+03  0.32017937799E+04  0.31907902866E+04 0.  0.
        5    1    3    3  502    0  0.21436636236E+03  0.15614264194E+04  0.38096656430E+03  0.16214693996E+04  0.46999998093E+01 0.  1.
       -5    1    3    3    0  502 -0.21436636236E+03 -0.15614264194E+04 -0.11574824679E+03  0.15803243804E+04  0.46999998093E+01 0. -1.
</event>
<event>
 5   0  0.2783875E-07  0.3203268E+04  0.7818609E-02  0.8187955E-01
        1   -1    0    0  501    0  0.00000000000E+00  0.00000000000E+00  0.15601930702E+04  0.15601930702E+04  0.50400001928E-02 0. -1.
       -1   -1    0    0    0  501  0.00000000000E+00  0.00000000000E+00 -0.16441757916E+04  0.16441757916E+04  0.50400001928E-02 0.  1.
    10030    2    1    2    0    0  0.00000000000E+00  0.00000000000E+00 -0.83982721393E+02  0.32043688619E+04  0.32032681289E+04 0.  0.
        2    1    3    3  502    0  0.11744996727E+04 -0.71377587163E+03 -0.86465233327E+03  0.16237454029E+04  0.25500000920E-02 0.  1.
       -2    1    3    3    0  502 -0.11744996727E+04  0.71377587163E+03  0.78066961187E+03  0.15806234590E+04  0.25500000920E-02 0. -1.
</event>
<event>
 5   0  0.2997105E-07  0.3201481E+04  0.7818609E-02  0.8188426E-01
       -1   -1    0    0    0  501  0.00000000000E+00  0.00000000000E+00  0.15357785745E+04  0.15357785745E+04  0.50400001928E-02 0. -1.
        1   -1    0    0  501    0  0.00000000000E+00  0.00000000000E+00 -0.16684505306E+04  0.16684505306E+04  0.50400001928E-02 0.  1.
    10030    2    1    2    0    0  0.00000000000E+00  0.00000000000E+00 -0.13267195611E+03  0.32042291050E+04  0.32014812680E+04 0.  0.
        3    1    3    3  502    0 -0.10874262452E+04 -0.79363403261E+03 -0.93311610583E+03  0.16380038136E+04  0.10100000352E+00 0.  1.
       -3    1    3    3    0  502  0.10874262452E+04  0.79363403261E+03  0.80044414972E+03  0.15662252914E+04  0.10100000352E+00 0. -1.
</event>
<event>
 5   0  0.3075756E-07  0.3205092E+04  0.7818609E-02  0.8187474E-01
       -1   -1    0    0    0  501  0.00000000000E+00  0.00000000000E+00  0.23035535361E+04  0.23035535361E+04  0.50400001928E-02 0. -1.
        1   -1    0    0  501    0  0.00000000000E+00  0.00000000000E+00 -0.11148659580E+04  0.11148659580E+04  0.50400001928E-02 0.  1.
    10030    2    1    2    0    0  0.00000000000E+00  0.00000000000E+00  0.11886875781E+04  0.34184194941E+04  0.32050918363E+04 0.  0.
        5    1    3    3  502    0  0.55801556685E+02  0.75197898301E+03 -0.91382685537E+03  0.11847733185E+04  0.46999998093E+01 0.  1.
       -5    1    3    3    0  502 -0.55801556685E+02 -0.75197898301E+03  0.21025144335E+04  0.22336461756E+04  0.46999998093E+01 0. -1.
</event>
<event>
 5   0  0.3075756E-07  0.3194473E+04  0.7818609E-02  0.8190278E-01
       -1   -1    0    0    0  501  0.00000000000E+00  0.00000000000E+00  0.19315661386E+04  0.19315661386E+04  0.50400001928E-02 0.  1.
        1   -1    0    0  501    0  0.00000000000E+00  0.00000000000E+00 -0.13207748138E+04  0.13207748139E+04  0.50400001928E-02 0. -1.
    10030    2    1    2    0    0  0.00000000000E+00  0.00000000000E+00  0.61079132475E+03  0.32523409525E+04  0.31944726683E+04 0.  0.
        5    1    3    3  502    0 -0.29561306967E+03 -0.14158341493E+04  0.99529048111E+03  0.17557330825E+04  0.46999998093E+01 0.  1.
       -5    1    3    3    0  502  0.29561306967E+03  0.14158341493E+04 -0.38449915636E+03  0.14966078700E+04  0.46999998093E+01 0. -1.
</event>
<event>
 5   0  0.3075756E-07  0.3198434E+04  0.7818609E-02  0.8189231E-01
       -1   -1    0    0    0  501  0.00000000000E+00  0.00000000000E+00  0.20316656188E+04  0.20316656188E+04  0.50400001928E-02 0.  1.
        1   -1    0    0  501    0  0.00000000000E+00  0.00000000000E+00 -0.12588172480E+04  0.12588172480E+04  0.50400001928E-02 0. -1.
    10030    2    1    2    0    0  0.00000000000E+00  0.00000000000E+00  0.77284837075E+03  0.32904828668E+04  0.31984344440E+04 0.  0.
        5    1    3    3  502    0 -0.83150449050E+03 -0.30626985435E+03 -0.98315596460E+03  0.13235628743E+04  0.46999998093E+01 0. -1.
       -5    1    3    3    0  502  0.83150449050E+03  0.30626985435E+03  0.17560043353E+04  0.19669199926E+04  0.46999998093E+01 0.  1.
</event>
<event>
 5   0  0.8335929E-07  0.3196714E+04  0.7818609E-02  0.8189685E-01
        2   -1    0    0  501    0  0.00000000000E+00  0.00000000000E+00  0.17032786428E+04  0.17032786428E+04  0.25500000920E-02 0.  1.
       -2   -1    0    0    0  501  0.00000000000E+00  0.00000000000E+00 -0.14998987969E+04  0.14998987969E+04  0.25500000920E-02 0. -1.
    10030    2    1    2    0    0  0.00000000000E+00  0.00000000000E+00  0.20337984586E+03  0.32031774397E+04  0.31967143051E+04 0.  0.
        4    1    3    3  502    0 -0.65042345376E+03  0.57561086099E+03 -0.12427998608E+04  0.15162228199E+04  0.12699999809E+01 0. -1.
       -4    1    3    3    0  502  0.65042345376E+03 -0.57561086099E+03  0.14461797067E+04  0.16869546198E+04  0.12699999809E+01 0.  1.
</event>
<event>
 5   0  0.2891204E-07  0.3118968E+04  0.7818609E-02  0.8210552E-01
       -1   -1    0    0    0  501  0.00000000000E+00  0.00000000000E+00  0.13880580417E+04  0.13880580417E+04  0.50400001928E-02 0. -1.
        1   -1    0    0  501    0  0.00000000000E+00  0.00000000000E+00 -0.17520807996E+04  0.17520807996E+04  0.50400001928E-02 0.  1.
    10030    2    1    2    0    0  0.00000000000E+00  0.00000000000E+00 -0.36402275790E+03  0.31401388414E+04  0.31189676777E+04 0.  0.
        4    1    3    3  502    0  0.14139699461E+04 -0.79859297824E+02 -0.83935960880E+03  0.16462729670E+04  0.12699999809E+01 0.  1.
       -4    1    3    3    0  502 -0.14139699461E+04  0.79859297824E+02  0.47533685090E+03  0.14938658744E+04  0.12699999809E+01 0. -1.
</event>
<event>
 5   0  0.8488469E-07  0.3100580E+04  0.7818609E-02  0.8215579E-01
        2   -1    0    0  501    0  0.00000000000E+00  0.00000000000E+00  0.17839613826E+04  0.17839613826E+04  0.25500000920E-02 0.  1.
       -2   -1    0    0    0  501  0.00000000000E+00  0.00000000000E+00 -0.13472259647E+04  0.13472259647E+04  0.25500000920E-02 0. -1.
    10030    2    1    2    0    0  0.00000000000E+00  0.00000000000E+00  0.43673541784E+03  0.31311873473E+04  0.31005800068E+04 0.  0.
        3    1    3    3  502    0 -0.97654993723E+03  0.89160572974E+03 -0.59881024545E+03  0.14516143694E+04  0.10100000352E+00 0. -1.
       -3    1    3    3    0  502  0.97654993723E+03 -0.89160572974E+03  0.10355456633E+04  0.16795729779E+04  0.10100000352E+00 0.  1.
</event>
<event>
 5   0  0.8195618E-07  0.3218672E+04  0.7818609E-02  0.8183903E-01
       -2   -1    0    0    0  501  0.00000000000E+00  0.00000000000E+00  0.12955417614E+04  0.12955417614E+04  0.25500000920E-02 0. -1.
        2   -1    0    0  501    0  0.00000000000E+00  0.00000000000E+00 -0.19991348870E+04  0.19991348870E+04  0.25500000920E-02 0.  1.
    10030    2    1    2    0    0  0.00000000000E+00  0.00000000000E+00 -0.70359312567E+03  0.32946766484E+04  0.32186722311E+04 0.  0.
        1    1    3    3  502    0 -0.57419785190E+03  0.40718043020E+03 -0.18331969678E+04  0.19636980926E+04  0.50400001928E-02 0.  1.
       -1    1    3    3    0  502  0.57419785190E+03 -0.40718043020E+03  0.11296038422E+04  0.13309785558E+04  0.50400001928E-02 0. -1.
</event>
<event>
 5   0  0.2891204E-07  0.3243808E+04  0.7818609E-02  0.8177343E-01
        1   -1    0    0  501    0  0.00000000000E+00  0.00000000000E+00  0.85913965300E+03  0.85913965301E+03  0.50400001928E-02 0. -1.
       -1   -1    0    0    0  501  0.00000000000E+00  0.00000000000E+00 -0.30618679900E+04  0.30618679900E+04  0.50400001928E-02 0.  1.
    10030    2    1    2    0    0  0.00000000000E+00  0.00000000000E+00 -0.22027283370E+04  0.39210076430E+04  0.32438077640E+04 0.  0.
        4    1    3    3  502    0 -0.83387949958E+03 -0.95679553512E+03 -0.23220140507E+04  0.26462357379E+04  0.12699999809E+01 0.  1.
       -4    1    3    3    0  502  0.83387949958E+03  0.95679553512E+03  0.11928571367E+03  0.12747719052E+04  0.12699999809E+01 0. -1.
</event>
<event>
 5   0  0.8195618E-07  0.3183787E+04  0.7818609E-02  0.8193112E-01
       -2   -1    0    0    0  501  0.00000000000E+00  0.00000000000E+00  0.15013327135E+04  0.15013327135E+04  0.25500000920E-02 0. -1.
        2   -1    0    0  501    0  0.00000000000E+00  0.00000000000E+00 -0.16879171941E+04  0.16879171941E+04  0.25500000920E-02 0.  1.
    10030    2    1    2    0    0  0.00000000000E+00  0.00000000000E+00 -0.18658448063E+03  0.31892499076E+04  0.31837872424E+04 0.  0.
        1    1    3    3  502    0  0.80006106956E+02 -0.13623227314E+03 -0.16800445235E+04  0.16874566099E+04  0.50400001928E-02 0.  1.
       -1    1    3    3    0  502 -0.80006106956E+02  0.13623227314E+03  0.14934600428E+04  0.15017932977E+04  0.50400001928E-02 0. -1.
</event>
<event>
 5   0  0.8195618E-07  0.3208559E+04  0.7818609E-02  0.8186560E-01
        2   -1    0    0  501    0  0.00000000000E+00  0.00000000000E+00  0.19396005968E+04  0.19396005968E+04  0.25500000920E-02 0.  1.
       -2   -1    0    0    0  501  0.00000000000E+00  0.00000000000E+00 -0.13269291232E+04  0.13269291232E+04  0.25500000920E-02 0. -1.
    10030    2    1    2    0    0  0.00000000000E+00  0.00000000000E+00  0.61267147358E+03  0.32665297200E+04  0.32085588785E+04 0.  0.
        1    1    3    3  502    0 -0.11882255050E+04 -0.79089718675E+03 -0.43923060299E+03  0.14934261727E+04  0.50400001928E-02 0. -1.
       -1    1    3    3    0  502  0.11882255050E+04  0.79089718675E+03  0.10519020766E+04  0.17731035473E+04  0.50400001928E-02 0.  1.
</event>
<event>
 5   0  0.2783875E-07  0.3205178E+04  0.7818609E-02  0.8187451E-01
       -1   -1    0    0    0  501  0.00000000000E+00  0.00000000000E+00  0.10254246671E+04  0.10254246671E+04  0.50400001928E-02 0. -1.
        1   -1    0    0  501    0  0.00000000000E+00  0.00000000000E+00 -0.25046131918E+04  0.25046131918E+04  0.50400001928E-02 0.  1.
    10030    2    1    2    0    0  0.00000000000E+00  0.00000000000E+00 -0.14791885247E+04  0.35300378589E+04  0.32051784028E+04 0.  0.
        2    1    3    3  502    0 -0.71747313708E+03  0.12927519718E+04 -0.14205812890E+04  0.20503722983E+04  0.25500000920E-02 0.  1.
       -2    1    3    3    0  502  0.71747313708E+03 -0.12927519718E+04 -0.58607235735E+02  0.14796655606E+04  0.25500000920E-02 0. -1.
</event>
<event>
 5   0  0.8195618E-07  0.3195981E+04  0.7818609E-02  0.8189879E-01
        2   -1    0    0  501    0  0.00000000000E+00  0.00000000000E+00  0.32307292167E+04  0.32307292167E+04  0.25500000920E-02 0. -1.
       -2   -1    0    0    0  501  0.00000000000E+00  0.00000000000E+00 -0.79040141782E+03  0.79040141783E+03  0.25500000920E-02 0.  1.
    10030    2    1    2    0    0  0.00000000000E+00  0.00000000000E+00  0.24403277989E+04  0.40211306346E+04  0.31959805716E+04 0.  0.
        1    1    3    3  502    0 -0.10132362560E+03  0.23099001642E+03 -0.76519657990E+03  0.80569762982E+03  0.50400001928E-02 0.  1.
       -1    1    3    3    0  502  0.10132362560E+03 -0.23099001642E+03  0.32055243788E+04  0.32154330047E+04  0.50400001928E-02 0. -1.
</event>
<event>
 5   0  0.2891204E-07  0.3132453E+04  0.7818609E-02  0.8206887E-01
       -1   -1    0    0    0  501  0.00000000000E+00  0.00000000000E+00  0.13620044235E+04  0.13620044235E+04  0.50400001928E-02 0.  1.
        1   -1    0    0  501    0  0.00000000000E+00  0.00000000000E+00 -0.18010702917E+04  0.18010702917E+04  0.50400001928E-02 0. -1.
    10030    2    1    2    0    0  0.00000000000E+00  0.00000000000E+00 -0.43906586817E+03  0.31630747152E+04  0.31324531628E+04 0.  0.
        4    1    3    3  502    0  0.11206513804E+04  0.97080358807E+03  0.29012368843E+03  0.15107920077E+04  0.12699999809E+01 0.  1.
       -4    1    3    3    0  502 -0.11206513804E+04 -0.97080358807E+03 -0.72918955661E+03  0.16522827075E+04  0.12699999809E+01 0. -1.
</event>
<event>
 5   0  0.2783875E-07  0.3215799E+04  0.7818609E-02  0.8184657E-01
       -1   -1    0    0    0  501  0.00000000000E+00  0.00000000000E+00  0.20577262222E+04  0.20577262223E+04  0.50400001928E-02 0. -1.
        1   -1    0    0  501    0  0.00000000000E+00  0.00000000000E+00 -0.12564068480E+04  0.12564068480E+04  0.50400001928E-02 0.  1.
    10030    2    1    2    0    0  0.00000000000E+00  0.00000000000E+00  0.80131937427E+03  0.33141330702E+04  0.32157993202E+04 0.  0.
        2    1    3    3  502    0  0.14114250731E+04  0.76908841012E+03  0.35787396163E+03  0.16467214373E+04  0.25500000920E-02 0.  1.
       -2    1    3    3    0  502 -0.14114250731E+04 -0.76908841012E+03  0.44344541263E+03  0.16674116329E+04  0.25500000920E-02 0. -1.
</event>
<event>
 5   0  0.2891204E-07  0.3210679E+04  0.7818609E-02  0.8186003E-01
        1   -1    0    0  501    0  0.00000000000E+00  0.00000000000E+00  0.15724877812E+04  0.15724877813E+04  0.50400001928E-02 0. -1.
       -1   -1    0    0    0  501  0.00000000000E+00  0.00000000000E+00 -0.16388775197E+04  0.16388775197E+04  0.50400001928E-02 0.  1.
    10030    2    1    2    0    0  0.00000000000E+00  0.00000000000E+00 -0.66389738465E+02  0.32113653010E+04  0.32106789779E+04 0.  0.
        4    1    3    3  502    0  0.90565236905E+03 -0.36418511184E+02 -0.13584613992E+04  0.16330803739E+04  0.12699999809E+01 0.  1.
       -4    1    3    3    0  502 -0.90565236905E+03  0.36418511184E+02  0.12920716608E+04  0.15782849271E+04  0.12699999809E+01 0. -1.
</event>
<event>
 5   0  0.8195618E-07  0.3143577E+04  0.7818609E-02  0.8203879E-01
        2   -1    0    0  501    0  0.00000000000E+00  0.00000000000E+00  0.28656202373E+04  0.28656202373E+04  0.25500000920E-02 0.  1.
       -2   -1    0    0    0  501  0.00000000000E+00  0.00000000000E+00 -0.86212383380E+03  0.86212383380E+03  0.25500000920E-02 0. -1.
    10030    2    1    2    0    0  0.00000000000E+00  0.00000000000E+00  0.20034964035E+04  0.37277440711E+04  0.31435772649E+04 0.  0.
        1    1    3    3  502    0  0.52841819537E+03 -0.10190004355E+04  0.22750277497E+04  0.25482030803E+04  0.50400001928E-02 0.  1.
       -1    1    3    3    0  502 -0.52841819537E+03  0.10190004355E+04 -0.27153134622E+03  0.11795409907E+04  0.50400001928E-02 0. -1.
</event>
<event>
 5   0  0.3013888E-07  0.3203826E+04  0.7818609E-02  0.8187807E-01
        1   -1    0    0  501    0  0.00000000000E+00  0.00000000000E+00  0.27340424829E+04  0.27340424829E+04  0.50400001928E-02 0. -1.
       -1   -1    0    0    0  501  0.00000000000E+00  0.00000000000E+00 -0.93858302616E+03  0.93858302617E+03  0.50400001928E-02 0.  1.
    10030    2    1    2    0    0  0.00000000000E+00  0.00000000000E+00  0.17954594568E+04  0.36726255091E+04  0.32038263794E+04 0.  0.
        1    1    3    3  502    0  0.14863847626E+04  0.40134537592E+03  0.39060817714E+03  0.15883930626E+04  0.50400001928E-02 0. -1.
       -1    1    3    3    0  502 -0.14863847626E+04 -0.40134537592E+03  0.14048512796E+04  0.20842324465E+04  0.50400001928E-02 0.  1.
</event>
<event>
 5   0  0.2891204E-07  0.3197794E+04  0.7818609E-02  0.8189400E-01
        1   -1    0    0  501    0  0.00000000000E+00  0.00000000000E+00  0.14128439714E+04  0.14128439714E+04  0.50400001928E-02 0.  1.
       -1   -1    0    0    0  501  0.00000000000E+00  0.00000000000E+00 -0.18094508877E+04  0.18094508877E+04  0.50400001928E-02 0. -1.
    10030    2    1    2    0    0  0.00000000000E+00  0.00000000000E+00 -0.39660691625E+03  0.32222948591E+04  0.31977941011E+04 0.  0.
        4    1    3    3  502    0 -0.12137161252E+04  0.86402954790E+03  0.38650186150E+03  0.15391683449E+04  0.12699999809E+01 0.  1.
       -4    1    3    3    0  502  0.12137161252E+04 -0.86402954790E+03 -0.78310877776E+03  0.16831265142E+04  0.12699999809E+01 0. -1.
</event>
<event>
 5   0  0.8838951E-07  0.3183408E+04  0.7818609E-02  0.8193213E-01
       -2   -1    0    0    0  501  0.00000000000E+00  0.00000000000E+00  0.97916630854E+03  0.97916630854E+03  0.25500000920E-02 0. -1.
        2   -1    0    0  501    0  0.00000000000E+00  0.00000000000E+00 -0.25874279677E+04  0.25874279677E+04  0.25500000920E-02 0.  1.
    10030    2    1    2    0    0  0.00000000000E+00  0.00000000000E+00 -0.16082616591E+04  0.35665942762E+04  0.31834084197E+04 0.  0.
        2    1    3    3  502    0 -0.60098948366E+03 -0.13693405205E+04 -0.19330791891E+03  0.15078626503E+04  0.25500000920E-02 0. -1.
       -2    1    3    3    0  502  0.60098948366E+03  0.13693405205E+04 -0.14149537402E+04  0.20587316259E+04  0.25500000920E-02 0.  1.
</event>
<event>
 5   0  0.8838951E-07  0.3192339E+04  0.7818609E-02  0.8190843E-01
       -2   -1    0    0    0  501  0.00000000000E+00  0.00000000000E+00  0.13520707119E+04  0.13520707119E+04  0.25500000920E-02 0. -1.
        2   -1    0    0  501    0  0.00000000000E+00  0.00000000000E+00 -0.18843375599E+04  0.18843375599E+04  0.25500000920E-02 0.  1.
    10030    2    1    2    0    0  0.00000000000E+00  0.00000000000E+00 -0.53226684800E+03  0.32364082718E+04  0.31923393467E+04 0.  0.
        2    1    3    3  502    0 -0.55559187581E+03 -0.28226286766E+03 -0.17559098529E+04  0.18632160557E+04  0.25500000920E-02 0.  1.
       -2    1    3    3    0  502  0.55559187581E+03  0.28226286766E+03  0.12236430049E+04  0.13731922161E+04  0.25500000920E-02 0. -1.
</event>
<event>
 5   0  0.8802800E-07  0.3205232E+04  0.7818609E-02  0.8187437E-01
       -2   -1    0    0    0  501  0.00000000000E+00  0.00000000000E+00  0.15152298246E+04  0.15152298246E+04  0.25500000920E-02 0.  1.
        2   -1    0    0  501    0  0.00000000000E+00  0.00000000000E+00 -0.16950417869E+04  0.16950417869E+04  0.25500000920E-02 0. -1.
    10030    2    1    2    0    0  0.00000000000E+00  0.00000000000E+00 -0.17981196232E+03  0.32102716116E+04  0.32052318915E+04 0.  0.
        5    1    3    3  502    0 -0.85301761762E+03  0.12880488793E+04  0.33696458351E+03  0.15812261672E+04  0.46999998093E+01 0.  1.
       -5    1    3    3    0  502  0.85301761762E+03 -0.12880488793E+04 -0.51677654583E+03  0.16290454443E+04  0.46999998093E+01 0. -1.
</event>
<event>
 5   0  0.8195618E-07  0.3211821E+04  0.7818609E-02  0.8185702E-01
        2   -1    0    0  501    0  0.00000000000E+00  0.00000000000E+00  0.15549253989E+04  0.15549253989E+04  0.25500000920E-02 0.  1.
       -2   -1    0    0    0  501  0.00000000000E+00  0.00000000000E+00 -0.16585669045E+04  0.16585669045E+04  0.25500000920E-02 0. -1.
    10030    2    1    2    0    0  0.00000000000E+00  0.00000000000E+00 -0.10364150555E+03  0.32134923034E+04  0.32118205464E+04 0.  0.
        1    1    3    3  502    0  0.45437443518E+03 -0.13339587430E+04 -0.82231622526E+03  0.16315961601E+04  0.50400001928E-02 0. -1.
       -1    1    3    3    0  502 -0.45437443518E+03  0.13339587430E+04  0.71867471971E+03  0.15818961433E+04  0.50400001928E-02 0.  1.
</event>
<event>
 5   0  0.2997105E-07  0.3167311E+04  0.7818609E-02  0.8197504E-01
       -1   -1    0    0    0  501  0.00000000000E+00  0.00000000000E+00  0.11168830983E+04  0.11168830983E+04  0.50400001928E-02 0.  1.
        1   -1    0    0  501    0  0.00000000000E+00  0.00000000000E+00 -0.22455035034E+04  0.22455035035E+04  0.50400001928E-02 0. -1.
    10030    2    1    2    0    0  0.00000000000E+00  0.00000000000E+00 -0.11286204051E+04  0.33623866018E+04  0.31673111058E+04 0.  0.
        3    1    3    3  502    0  0.15801535677E+04  0.67076086813E+02 -0.65042605574E+03  0.17100989922E+04  0.10100000352E+00 0. -1.
       -3    1    3    3    0  502 -0.15801535677E+04 -0.67076086813E+02 -0.47819434940E+03  0.16522876096E+04  0.10100000352E+00 0.  1.
</event>
<event>
 5   0  0.8335929E-07  0.3167137E+04  0.7818609E-02  0.8197551E-01
       -2   -1    0    0    0  501  0.00000000000E+00  0.00000000000E+00  0.94995609016E+03  0.94995609017E+03  0.25500000920E-02 0.  1.
        2   -1    0    0  501    0  0.00000000000E+00  0.00000000000E+00 -0.26397944479E+04  0.26397944479E+04  0.25500000920E-02 0. -1.
    10030    2    1    2    0    0  0.00000000000E+00  0.00000000000E+00 -0.16898383577E+04  0.35897505380E+04  0.31671367590E+04 0.  0.
        4    1    3    3  502    0 -0.11520668580E+04  0.50506961303E+03 -0.19352208428E+04  0.23081236281E+04  0.12699999809E+01 0. -1.
       -4    1    3    3    0  502  0.11520668580E+04 -0.50506961303E+03  0.24538248512E+03  0.12816269099E+04  0.12699999809E+01 0.  1.
</event>
<event>
 5   0  0.8802800E-07  0.3214531E+04  0.7818609E-02  0.8184990E-01
       -2   -1    0    0    0  501  0.00000000000E+00  0.00000000000E+00  0.12590765741E+04  0.12590765741E+04  0.25500000920E-02 0. -1.
        2   -1    0    0  501    0  0.00000000000E+00  0.00000000000E+00 -0.20517434701E+04  0.20517434701E+04  0.25500000920E-02 0.  1.
    10030    2    1    2    0    0  0.00000000000E+00  0.00000000000E+00 -0.79266689606E+03  0.33108200442E+04  0.32145308456E+04 0.  0.
        5    1    3    3  502    0  0.64412825113E+03  0.13845831076E+04 -0.91265652446E+03  0.17790265899E+04  0.46999998093E+01 0.  1.
       -5    1    3    3    0  502 -0.64412825113E+03 -0.13845831076E+04  0.11998962840E+03  0.15317934543E+04  0.46999998093E+01 0. -1.
</event>
<event>
 5   0  0.8195618E-07  0.3211285E+04  0.7818609E-02  0.8185843E-01
       -2   -1    0    0    0  501  0.00000000000E+00  0.00000000000E+00  0.22444965969E+04  0.22444965969E+04  0.25500000920E-02 0. -1.
        2   -1    0    0  501    0  0.00000000000E+00  0.00000000000E+00 -0.11486261562E+04  0.11486261563E+04  0.25500000920E-02 0.  1.
    10030    2    1    2    0    0  0.00000000000E+00  0.00000000000E+00  0.10958704407E+04  0.33931227532E+04  0.32112847889E+04 0.  0.
        1    1    3    3  502    0 -0.13644886016E+04  0.79949158358E+03  0.84127288595E+03  0.17913000879E+04  0.50400001928E-02 0.  1.
       -1    1    3    3    0  502  0.13644886016E+04 -0.79949158358E+03  0.25459755471E+03  0.16018226653E+04  0.50400001928E-02 0. -1.
</event>
<event>
 5   0  0.3013888E-07  0.3203048E+04  0.7818609E-02  0.8188013E-01
        1   -1    0    0  501    0  0.00000000000E+00  0.00000000000E+00  0.18278695558E+04  0.18278695558E+04  0.50400001928E-02 0. -1.
       -1   -1    0    0    0  501  0.00000000000E+00  0.00000000000E+00 -0.14032065140E+04  0.14032065140E+04  0.50400001928E-02 0.  1.
    10030    2    1    2    0    0  0.00000000000E+00  0.00000000000E+00  0.42466304182E+03  0.32310760698E+04  0.32030475910E+04 0.  0.
        1    1    3    3  502    0 -0.17267295498E+03 -0.15670230673E+04 -0.72095400787E+02  0.15781555657E+04  0.50400001928E-02 0.  1.
       -1    1    3    3    0  502  0.17267295498E+03  0.15670230673E+04  0.49675844261E+03  0.16529205041E+04  0.50400001928E-02 0. -1.
</event>
<event>
 5   0  0.2783875E-07  0.3209858E+04  0.7818609E-02  0.8186219E-01
       -1   -1    0    0    0  501  0.00000000000E+00  0.00000000000E+00  0.10546820235E+04  0.10546820235E+04  0.50400001928E-02 0.  1.
        1   -1    0    0  501    0  0.00000000000E+00  0.00000000000E+00 -0.24422497582E+04  0.24422497582E+04  0.50400001928E-02 0. -1.
    10030    2    1    2    0    0  0.00000000000E+00  0.00000000000E+00 -0.13875677347E+04  0.34969317817E+04  0.32098578890E+04 0.  0.
        2    1    3    3  502    0 -0.73554080970E+03 -0.14072677977E+04 -0.43974690267E+03  0.16476650982E+04  0.25500000920E-02 0.  1.
       -2    1    3    3    0  502  0.73554080970E+03  0.14072677977E+04 -0.94782083201E+03  0.18492666836E+04  0.25500000920E-02 0. -1.
</event>
<event>
 5   0  0.2783875E-07  0.3194900E+04  0.7818609E-02  0.8190165E-01
       -1   -1    0    0    0  501  0.00000000000E+00  0.00000000000E+00  0.19216830569E+04  0.19216830569E+04  0.50400001928E-02 0.  1.
        1   -1    0    0  501    0  0.00000000000E+00  0.00000000000E+00 -0.13279227070E+04  0.13279227070E+04  0.50400001928E-02 0. -1.
    10030    2    1    2    0    0  0.00000000000E+00  0.00000000000E+00  0.59376034994E+03  0.32496057639E+04  0.31949000403E+04 0.  0.
        2    1    3    3  502    0  0.15393304305E+04  0.32837637455E+03  0.19301877959E+02  0.15740844260E+04  0.25500000920E-02 0.  1.
       -2    1    3    3    0  502 -0.15393304305E+04 -0.32837637455E+03  0.57445847198E+03  0.16755213379E+04  0.25500000920E-02 0. -1.
</event>
<event>
 5   0  0.8838951E-07  0.3192848E+04  0.7818609E-02  0.8190709E-01
       -2   -1    0    0    0  501  0.00000000000E+00  0.00000000000E+00  0.17035977481E+04  0.17035977481E+04  0.25500000920E-02 0. -1.
        2   -1    0    0  501    0  0.00000000000E+00  0.00000000000E+00 -0.14959922595E+04  0.14959922595E+04  0.25500000920E-02 0.  1.
    10030    2    1    2    0    0  0.00000000000E+00  0.00000000000E+00  0.20760548861E+03  0.31995900076E+04  0.31928476597E+04 0.  0.
        2    1    3    3  502    0  0.10130004892E+04 -0.57338503346E+02  0.13389278187E+04  0.16799361294E+04  0.25500000920E-02 0. -1.
       -2    1    3    3    0  502 -0.10130004892E+04  0.57338503346E+02 -0.11313223301E+04  0.15196538782E+04  0.25500000920E-02 0.  1.
</event>
<event>
 5   0  0.8335929E-07  0.3196181E+04  0.7818609E-02  0.8189826E-01
       -2   -1    0    0    0  501  0.00000000000E+00  0.00000000000E+00  0.16745747570E+04  0.16745747570E+04  0.25500000920E-02 0.  1.
        2   -1    0    0  501    0  0.00000000000E+00  0.00000000000E+00 -0.15250996086E+04  0.15250996086E+04  0.25500000920E-02 0. -1.
    10030    2    1    2    0    0  0.00000000000E+00  0.00000000000E+00  0.14947514838E+03  0.31996743655E+04  0.31961810376E+04 0.  0.
        4    1    3    3  502    0 -0.11193073495E+04 -0.11404916274E+04  0.92690349959E+02  0.16006758599E+04  0.12699999809E+01 0. -1.
       -4    1    3    3    0  502  0.11193073495E+04  0.11404916274E+04  0.56784798426E+02  0.15989985056E+04  0.12699999809E+01 0.  1.
</event>
<event>
 5   0  0.8802800E-07  0.3213605E+04  0.7818609E-02  0.8185233E-01
        2   -1    0    0  501    0  0.00000000000E+00  0.00000000000E+00  0.13530928146E+04  0.13530928146E+04  0.25500000920E-02 0.  1.
       -2   -1    0    0    0  501  0.00000000000E+00  0.00000000000E+00 -0.19080834373E+04  0.19080834373E+04  0.25500000920E-02 0. -1.
    10030    2    1    2    0    0  0.00000000000E+00  0.00000000000E+00 -0.55499062278E+03  0.32611762519E+04  0.32136048224E+04 0.  0.
        5    1    3    3  502    0  0.15438718287E+04 -0.20464643450E+03  0.12379679617E+03  0.15622957862E+04  0.46999998093E+01 0. -1.
       -5    1    3    3    0  502 -0.15438718287E+04  0.20464643450E+03 -0.67878741895E+03  0.16988804657E+04  0.46999998093E+01 0.  1.
</event>
<event>
 5   0  0.2891204E-07  0.3205950E+04  0.7818609E-02  0.8187247E-01
        1   -1    0    0  501    0  0.00000000000E+00  0.00000000000E+00  0.22404665704E+04  0.22404665704E+04  0.50400001928E-02 0. -1.
       -1   -1    0    0    0  501  0.00000000000E+00  0.00000000000E+00 -0.11468725326E+04  0.11468725326E+04  0.50400001928E-02 0.  1.
    10030    2    1    2    0    0  0.00000000000E+00  0.00000000000E+00  0.10935940378E+04  0.33873391030E+04  0.32059504487E+04 0.  0.
        4    1    3    3  502    0 -0.54776903325E+03  0.80969453132E+03  0.18890562139E+04  0.21270146074E+04  0.12699999809E+01 0. -1.
       -4    1    3    3    0  502  0.54776903325E+03 -0.80969453132E+03 -0.79546217610E+03  0.12603244957E+04  0.12699999809E+01 0.  1.
</event>
<event>
 5   0  0.2891204E-07  0.3203059E+04  0.7818609E-02  0.8188010E-01
       -1   -1    0    0    0  501  0.00000000000E+00  0.00000000000E+00  0.12194414658E+04  0.12194414658E+04  0.50400001928E-02 0. -1.
        1   -1    0    0  501    0  0.00000000000E+00  0.00000000000E+00 -0.21033371071E+04  0.21033371071E+04  0.50400001928E-02 0.  1.
    10030    2    1    2    0    0  0.00000000000E+00  0.00000000000E+00 -0.88389564136E+03  0.33227785729E+04  0.32030588411E+04 0.  0.
        4    1    3    3  502    0  0.44937807910E+03 -0.13157378428E+04  0.38261209743E+03  0.14420472805E+04  0.12699999809E+01 0. -1.
       -4    1    3    3    0  502 -0.44937807910E+03  0.13157378428E+04 -0.12665077388E+04  0.18807312925E+04  0.12699999809E+01 0.  1.
</event>
<event>
 5   0  0.8838951E-07  0.3197271E+04  0.7818609E-02  0.8189538E-01
        2   -1    0    0  501    0  0.00000000000E+00  0.00000000000E+00  0.19383313334E+04  0.19383313334E+04  0.25500000920E-02 0. -1.
       -2   -1    0    0    0  501  0.00000000000E+00  0.00000000000E+00 -0.13184720487E+04  0.13184720487E+04  0.25500000920E-02 0.  1.
    10030    2    1    2    0    0  0.00000000000E+00  0.00000000000E+00  0.61985928465E+03  0.32568033821E+04  0.31972711391E+04 0.  0.
        2    1    3    3  502    0 -0.11205880704E+03 -0.20343285831E+03  0.19210542464E+04  0.19350430284E+04  0.25500000920E-02 0. -1.
       -2    1    3    3    0  502  0.11205880704E+03  0.20343285831E+03 -0.13011949618E+04  0.13217603537E+04  0.25500000920E-02 0.  1.
</event>
<event>
 5   0  0.8195618E-07  0.3193805E+04  0.7818609E-02  0.8190455E-01
        2   -1    0    0  501    0  0.00000000000E+00  0.00000000000E+00  0.23171002253E+04  0.23171002253E+04  0.25500000920E-02 0. -1.
       -2   -1    0    0    0  501  0.00000000000E+00  0.00000000000E+00 -0.11005558632E+04  0.11005558632E+04  0.25500000920E-02 0.  1.
    10030    2    1    2    0    0  0.00000000000E+00  0.00000000000E+00  0.12165443621E+04  0.34176560885E+04  0.31938054034E+04 0.  0.
        1    1    3    3  502    0 -0.23662743913E+03  0.13735701391E+04 -0.22571840797E+03  0.14119618521E+04  0.50400001928E-02 0.  1.
       -1    1    3    3    0  502  0.23662743913E+03 -0.13735701391E+04  0.14422627701E+04  0.20056942364E+04  0.50400001928E-02 0. -1.
</event>
<event>
 5   0  0.8195618E-07  0.3252955E+04  0.7818609E-02  0.8174970E-01
        2   -1    0    0  501    0  0.00000000000E+00  0.00000000000E+00  0.20530280054E+04  0.20530280054E+04  0.25500000920E-02 0. -1.
       -2   -1    0    0    0  501  0.00000000000E+00  0.00000000000E+00 -0.12885501328E+04  0.12885501329E+04  0.25500000920E-02 0.  1.
    10030    2    1    2    0    0  0.00000000000E+00  0.00000000000E+00  0.76447787253E+03  0.33415781382E+04  0.32529552773E+04 0.  0.
        1    1    3    3  502    0  0.28767103827E+01 -0.87651101625E+03  0.17896565419E+04  0.19927745420E+04  0.50400001928E-02 0. -1.
       -1    1    3    3    0  502 -0.28767103827E+01  0.87651101625E+03 -0.10251786694E+04  0.13488035963E+04  0.50400001928E-02 0.  1.
</event>
<event>
 5   0  0.2783875E-07  0.3206325E+04  0.7818609E-02  0.8187149E-01
       -1   -1    0    0    0  501  0.00000000000E+00  0.00000000000E+00  0.10640543602E+04  0.10640543602E+04  0.50400001928E-02 0.  1.
        1   -1    0    0  501    0  0.00000000000E+00  0.00000000000E+00 -0.24154120105E+04  0.24154120105E+04  0.50400001928E-02 0. -1.
    10030    2    1    2    0    0  0.00000000000E+00  0.00000000000E+00 -0.13513576503E+04  0.34794663706E+04  0.32063248003E+04 0.  0.
        2    1    3    3  502    0 -0.15045796908E+04 -0.53556918992E+03 -0.52400350181E+03  0.16808254142E+04  0.25500000920E-02 0. -1.
       -2    1    3    3    0  502  0.15045796908E+04  0.53556918992E+03 -0.82735414851E+03  0.17986409564E+04  0.25500000920E-02 0.  1.
</event>
<event>
 5   0  0.8802800E-07  0.3209093E+04  0.7818609E-02  0.8186420E-01
       -2   -1    0    0    0  501  0.00000000000E+00  0.00000000000E+00  0.17293848225E+04  0.17293848225E+04  0.25500000920E-02 0. -1.
        2   -1    0    0  501    0  0.00000000000E+00  0.00000000000E+00 -0.14887199405E+04  0.14887199405E+04  0.25500000920E-02 0.  1.
    10030    2    1    2    0    0  0.00000000000E+00  0.00000000000E+00  0.24066488198E+03  0.32181047630E+04  0.32090931243E+04 0.  0.
        5    1    3    3  502    0 -0.86314283849E+03 -0.13361637414E+04  0.33115714943E+03  0.16248188364E+04  0.46999998093E+01 0.  1.
       -5    1    3    3    0  502  0.86314283849E+03  0.13361637414E+04 -0.90492267450E+02  0.15932859266E+04  0.46999998093E+01 0. -1.
</event>
<event>
 5   0  0.2891204E-07  0.3200269E+04  0.7818609E-02  0.8188746E-01
        1   -1    0    0  501    0  0.00000000000E+00  0.00000000000E+00  0.13818978881E+04  0.13818978881E+04  0.50400001928E-02 0.  1.
       -1   -1    0    0    0  501  0.00000000000E+00  0.00000000000E+00 -0.18528364008E+04  0.18528364008E+04  0.50400001928E-02 0. -1.
    10030    2    1    2    0    0  0.00000000000E+00  0.00000000000E+00 -0.47093851272E+03  0.32347342889E+04  0.32002691819E+04 0.  0.
        4    1    3    3  502    0  0.13944237376E+04 -0.21299357816E+03  0.52807675784E+03  0.15062040033E+04  0.12699999809E+01 0.  1.
       -4    1    3    3    0  502 -0.13944237376E+04  0.21299357816E+03 -0.99901527056E+03  0.17285302856E+04  0.12699999809E+01 0. -1.
</event>
<event>
 5   0  0.3013888E-07  0.3192585E+04  0.7818609E-02  0.8190778E-01
       -1   -1    0    0    0  501  0.00000000000E+00  0.00000000000E+00  0.15762286590E+04  0.15762286590E+04  0.50400001928E-02 0. -1.
        1   -1    0    0  501    0  0.00000000000E+00  0.00000000000E+00 -0.16166116555E+04  0.16166116555E+04  0.50400001928E-02 0.  1.
    10030    2    1    2    0    0  0.00000000000E+00  0.00000000000E+00 -0.40382996457E+02  0.31928403145E+04  0.31925849225E+04 0.  0.
        1    1    3    3  502    0 -0.23681129163E+03 -0.15785088088E+04 -0.69700068226E+00  0.15961735911E+04  0.50400001928E-02 0. -1.
       -1    1    3    3    0  502  0.23681129163E+03  0.15785088088E+04 -0.39685995775E+02  0.15966667234E+04  0.50400001928E-02 0.  1.
</event>
<event>
 5   0  0.3013888E-07  0.3205653E+04  0.7818609E-02  0.8187326E-01
        1   -1    0    0  501    0  0.00000000000E+00  0.00000000000E+00  0.20393120836E+04  0.20393120836E+04  0.50400001928E-02 0. -1.
       -1   -1    0    0    0  501  0.00000000000E+00  0.00000000000E+00 -0.12597646338E+04  0.12597646338E+04  0.50400001928E-02 0.  1.
    10030    2    1    2    0    0  0.00000000000E+00  0.00000000000E+00  0.77954744974E+03  0.32990767174E+04  0.32056532815E+04 0.  0.
        1    1    3    3  502    0  0.40062977203E+03 -0.10128913208E+03 -0.12040000390E+04  0.12729413955E+04  0.50400001928E-02 0.  1.
       -1    1    3    3    0  502 -0.40062977203E+03  0.10128913208E+03  0.19835474887E+04  0.20261353219E+04  0.50400001928E-02 0. -1.
</event>
<event>
 5   0  0.2783875E-07  0.3194715E+04  0.7818609E-02  0.8190214E-01
       -1   -1    0    0    0  501  0.00000000000E+00  0.00000000000E+00  0.15826457575E+04  0.15826457575E+04  0.50400001928E-02 0.  1.
        1   -1    0    0  501    0  0.00000000000E+00  0.00000000000E+00 -0.16122064817E+04  0.16122064818E+04  0.50400001928E-02 0. -1.
    10030    2    1    2    0    0  0.00000000000E+00  0.00000000000E+00 -0.29560724273E+02  0.31948522392E+04  0.31947154794E+04 0.  0.
        2    1    3    3  502    0 -0.82427420173E+03  0.10371130878E+04  0.87773766493E+03  0.15891679977E+04  0.25500000920E-02 0.  1.
       -2    1    3    3    0  502  0.82427420173E+03 -0.10371130878E+04 -0.90729838920E+03  0.16056842415E+04  0.25500000920E-02 0. -1.
</event>
<event>
 5   0  0.3013888E-07  0.3209321E+04  0.7818609E-02  0.8186360E-01
        1   -1    0    0  501    0  0.00000000000E+00  0.00000000000E+00  0.13798529302E+04  0.13798529302E+04  0.50400001928E-02 0. -1.
       -1   -1    0    0    0  501  0.00000000000E+00  0.00000000000E+00 -0.18660936528E+04  0.18660936529E+04  0.50400001928E-02 0.  1.
    10030    2    1    2    0    0  0.00000000000E+00  0.00000000000E+00 -0.48624072265E+03  0.32459465831E+04  0.32093206726E+04 0.  0.
        1    1    3    3  502    0  0.10769851734E+04 -0.72494435699E+03  0.71077255242E+03  0.14800807430E+04  0.50400001928E-02 0. -1.
       -1    1    3    3    0  502 -0.10769851734E+04  0.72494435699E+03 -0.11970132751E+04  0.17658658401E+04  0.50400001928E-02 0.  1.
</event>
<event>
 5   0  0.8195618E-07  0.3189032E+04  0.7818609E-02  0.8191720E-01
       -2   -1    0    0    0  501  0.00000000000E+00  0.00000000000E+00  0.75743619354E+03  0.75743619355E+03  0.25500000920E-02 0.  1.
        2   -1    0    0  501    0  0.00000000000E+00  0.00000000000E+00 -0.33566928468E+04  0.33566928468E+04  0.25500000920E-02 0. -1.
    10030    2    1    2    0    0  0.00000000000E+00  0.00000000000E+00 -0.25992566532E+04  0.41141290403E+04  0.31890316102E+04 0.  0.
        1    1    3    3  502    0  0.13494472983E+04  0.66841639547E+03 -0.62347962144E+03  0.16298819979E+04  0.50400001928E-02 0.  1.
       -1    1    3    3    0  502 -0.13494472983E+04 -0.66841639547E+03 -0.19757770318E+04  0.24842470425E+04  0.50400001928E-02 0. -1.
</event>
<event>
 5   0  0.2997105E-07  0.3186343E+04  0.7818609E-02  0.8192433E-01
        1   -1    0    0  501    0  0.00000000000E+00  0.00000000000E+00  0.94472710389E+03  0.94472710390E+03  0.50400001928E-02 0. -1.
       -1   -1    0    0    0  501  0.00000000000E+00  0.00000000000E+00 -0.26866961290E+04  0.26866961290E+04  0.50400001928E-02 0.  1.
    10030    2    1    2    0    0  0.00000000000E+00  0.00000000000E+00 -0.17419690251E+04  0.36314232329E+04  0.31863425133E+04 0.  0.
        3    1    3    3  502    0  0.25379253995E+03  0.13628650514E+04 -0.17657509384E+04  0.22449249850E+04  0.10100000352E+00 0.  1.
       -3    1    3    3    0  502 -0.25379253995E+03 -0.13628650514E+04  0.23781913294E+02  0.13864982479E+04  0.10100000352E+00 0. -1.
</event>
<event>
 5   0  0.8335929E-07  0.3207137E+04  0.7818609E-02  0.8186935E-01
        2   -1    0    0  501    0  0.00000000000E+00  0.00000000000E+00  0.15036609972E+04  0.15036609972E+04  0.25500000920E-02 0. -1.
       -2   -1    0    0    0  501  0.00000000000E+00  0.00000000000E+00 -0.17101136807E+04  0.17101136807E+04  0.25500000920E-02 0.  1.
    10030    2    1    2    0    0  0.00000000000E+00  0.00000000000E+00 -0.20645268348E+03  0.32137746778E+04  0.32071365686E+04 0.  0.
        4    1    3    3  502    0 -0.10594006045E+04 -0.14818344516E+03  0.10938766385E+04  0.15299855187E+04  0.12699999809E+01 0. -1.
       -4    1    3    3    0  502  0.10594006045E+04  0.14818344516E+03 -0.13003293219E+04  0.16837891592E+04  0.12699999809E+01 0.  1.
</event>
<event>
 5   0  0.8488469E-07  0.3197382E+04  0.7818609E-02  0.8189509E-01
        2   -1    0    0  501    0  0.00000000000E+00  0.00000000000E+00  0.19861523943E+04  0.19861523944E+04  0.25500000920E-02 0. -1.
       -2   -1    0    0    0  501  0.00000000000E+00  0.00000000000E+00 -0.12868159581E+04  0.12868159581E+04  0.25500000920E-02 0.  1.
    10030    2    1    2    0    0  0.00000000000E+00  0.00000000000E+00  0.69933643628E+03  0.32729683524E+04  0.31973818016E+04 0.  0.
        3    1    3    3  502    0  0.21085984744E+03  0.91625716228E+03 -0.97388839715E+03  0.13536793132E+04  0.10100000352E+00 0.  1.
       -3    1    3    3    0  502 -0.21085984744E+03 -0.91625716228E+03  0.16732248334E+04  0.19192890392E+04  0.10100000352E+00 0. -1.
</event>
<event>
 5   0  0.8838951E-07  0.3196663E+04  0.7818609E-02  0.8189699E-01
        2   -1    0    0  501    0  0.00000000000E+00  0.00000000000E+00  0.20965883397E+04  0.20965883397E+04  0.25500000920E-02 0.  1.
       -2   -1    0    0    0  501  0.00000000000E+00  0.00000000000E+00 -0.12184860253E+04  0.12184860253E+04  0.25500000920E-02 0. -1.
    10030    2    1    2    0    0  0.00000000000E+00  0.00000000000E+00  0.87810231444E+03  0.33150743650E+04  0.31966630055E+04 0.  0.
        2    1    3    3  502    0  0.49439166630E+03  0.33630191771E+03 -0.10981313476E+04  0.12503657690E+04  0.25500000920E-02 0. -1.
       -2    1    3    3    0  502 -0.49439166630E+03 -0.33630191771E+03  0.19762336621E+04  0.20647085961E+04  0.25500000920E-02 0.  1.
</event>
<event>
 5   0  0.3075756E-07  0.3197032E+04  0.7818609E-02  0.8189601E-01
        1   -1    0    0  501    0  0.00000000000E+00  0.00000000000E+00  0.15940339464E+04  0.15940339464E+04  0.50400001928E-02 0.  1.
       -1   -1    0    0    0  501  0.00000000000E+00  0.00000000000E+00 -0.16030106768E+04  0.16030106768E+04  0.50400001928E-02 0. -1.
    10030    2    1    2    0    0  0.00000000000E+00  0.00000000000E+00 -0.89767303581E+01  0.31970446232E+04  0.31970320206E+04 0.  0.
        5    1    3    3  502    0 -0.14323908438E+04  0.70661233005E+03  0.60217615217E+02  0.15983406288E+04  0.46999998093E+01 0. -1.
       -5    1    3    3    0  502  0.14323908438E+04 -0.70661233005E+03 -0.69194345575E+02  0.15987039944E+04  0.46999998093E+01 0.  1.
</event>
<event>
 5   0  0.3013888E-07  0.3195266E+04  0.7818609E-02  0.8190069E-01
        1   -1    0    0  501    0  0.00000000000E+00  0.00000000000E+00  0.23282843757E+04  0.23282843757E+04  0.50400001928E-02 0.  1.
       -1   -1    0    0    0  501  0.00000000000E+00  0.00000000000E+00 -0.10962709763E+04  0.10962709763E+04  0.50400001928E-02 0. -1.
    10030    2    1    2    0    0  0.00000000000E+00  0.00000000000E+00  0.12320133995E+04  0.34245553520E+04  0.31952656137E+04 0.  0.
        1    1    3    3  502    0  0.51190424086E+03  0.63175628073E+03  0.20899264375E+04  0.22425330464E+04  0.50400001928E-02 0.  1.
       -1    1    3    3    0  502 -0.51190424086E+03 -0.63175628073E+03 -0.85791303803E+03  0.11820223056E+04  0.50400001928E-02 0. -1.
</event>
<event>
 5   0  0.8335929E-07  0.3213478E+04  0.7818609E-02  0.8185267E-01
       -2   -1    0    0    0  501  0.00000000000E+00  0.00000000000E+00  0.91195256446E+03  0.91195256447E+03  0.25500000920E-02 0.  1.
        2   -1    0    0  501    0  0.00000000000E+00  0.00000000000E+00 -0.28308597345E+04  0.28308597345E+04  0.25500000920E-02 0. -1.
    10030    2    1    2    0    0  0.00000000000E+00  0.00000000000E+00 -0.19189071701E+04  0.37428122990E+04  0.32134777389E+04 0.  0.
        4    1    3    3  502    0 -0.12647723771E+04 -0.94137925309E+03 -0.59902090773E+03  0.16866154644E+04  0.12699999809E+01 0. -1.
       -4    1    3    3    0  502  0.12647723771E+04  0.94137925309E+03 -0.13198862623E+04  0.20561968346E+04  0.12699999809E+01 0.  1.
</event>
<event>
 5   0  0.8335929E-07  0.3190753E+04  0.7818609E-02  0.8191264E-01
       -2   -1    0    0    0  501  0.00000000000E+00  0.00000000000E+00  0.74166610841E+03  0.74166610841E+03  0.25500000920E-02 0. -1.
        2   -1    0    0  501    0  0.00000000000E+00  0.00000000000E+00 -0.34317679670E+04  0.34317679670E+04  0.25500000920E-02 0.  1.
    10030    2    1    2    0    0  0.00000000000E+00  0.00000000000E+00 -0.26901018586E+04  0.41734340754E+04  0.31907528848E+04 0.  0.
        4    1    3    3  502    0  0.33264143996E+03  0.13980733305E+04 -0.43889032240E+03  0.15026262653E+04  0.12699999809E+01 0. -1.
       -4    1    3    3    0  502 -0.33264143996E+03 -0.13980733305E+04 -0.22512115361E+04  0.26708078101E+04  0.12699999809E+01 0.  1.
</event>
<event>
 5   0  0.8802800E-07  0.3196429E+04  0.7818609E-02  0.8189761E-01
       -2   -1    0    0    0  501  0.00000000000E+00  0.00000000000E+00  0.15446175037E+04  0.15446175037E+04  0.25500000920E-02 0.  1.
        2   -1    0    0  501    0  0.00000000000E+00  0.00000000000E+00 -0.16536711059E+04  0.16536711059E+04  0.25500000920E-02 0. -1.
    10030    2    1    2    0    0  0.00000000000E+00  0.00000000000E+00 -0.10905360227E+03  0.31982886096E+04  0.31964288420E+04 0.  0.
        5    1    3    3  502    0  0.11979464041E+04 -0.10015830811E+04 -0.39534646017E+03  0.16107653985E+04  0.46999998093E+01 0. -1.
       -5    1    3    3    0  502 -0.11979464041E+04  0.10015830811E+04  0.28629285790E+03  0.15875232111E+04  0.46999998093E+01 0.  1.
</event>
<event>
 5   0  0.8488469E-07  0.3213365E+04  0.7818609E-02  0.8185297E-01
        2   -1    0    0  501    0  0.00000000000E+00  0.00000000000E+00  0.20065481569E+04  0.20065481569E+04  0.25500000920E-02 0.  1.
       -2   -1    0    0    0  501  0.00000000000E+00  0.00000000000E+00 -0.12865018823E+04  0.12865018823E+04  0.25500000920E-02 0. -1.
    10030    2    1    2    0    0  0.00000000000E+00  0.00000000000E+00  0.72004627457E+03  0.32930500392E+04  0.32133645799E+04 0.  0.
        3    1    3    3  502    0  0.13926772871E+04 -0.44673314597E+03  0.10415774191E+04  0.17955511855E+04  0.10100000352E+00 0.  1.
       -3    1    3    3    0  502 -0.13926772871E+04  0.44673314597E+03 -0.32153114450E+03  0.14974988537E+04  0.10100000352E+00 0. -1.
</event>
<event>
 5   0  0.8335929E-07  0.3196214E+04  0.7818609E-02  0.8189818E-01
       -2   -1    0    0    0  501  0.00000000000E+00  0.00000000000E+00  0.14249959956E+04  0.14249959956E+04  0.25500000920E-02 0. -1.
        2   -1    0    0  501    0  0.00000000000E+00  0.00000000000E+00 -0.17922475787E+04  0.17922475787E+04  0.25500000920E-02 0.  1.
    10030    2    1    2    0    0  0.00000000000E+00  0.00000000000E+00 -0.36725158305E+03  0.32172435743E+04  0.31962137743E+04 0.  0.
        4    1    3    3  502    0 -0.15704577995E+04  0.24888197881E+03 -0.34487993865E+03  0.16270291099E+04  0.12699999809E+01 0.  1.
       -4    1    3    3    0  502  0.15704577995E+04 -0.24888197881E+03 -0.22371644402E+02  0.15902144644E+04  0.12699999809E+01 0. -1.
</event>
<event>
 5   0  0.3075756E-07  0.3203867E+04  0.7818609E-02  0.8187797E-01
        1   -1    0    0  501    0  0.00000000000E+00  0.00000000000E+00  0.17652668205E+04  0.17652668205E+04  0.50400001928E-02 0.  1.
       -1   -1    0    0    0  501  0.00000000000E+00  0.00000000000E+00 -0.14537130124E+04  0.14537130124E+04  0.50400001928E-02 0. -1.
    10030    2    1    2    0    0  0.00000000000E+00  0.00000000000E+00  0.31155380807E+03  0.32189798329E+04  0.32038672553E+04 0.  0.
        5    1    3    3  502    0  0.55545078211E+03  0.12098357701E+04  0.10510136152E+04  0.16961367490E+04  0.46999998093E+01 0.  1.
       -5    1    3    3    0  502 -0.55545078211E+03 -0.12098357701E+04 -0.73945980709E+03  0.15228430839E+04  0.46999998093E+01 0. -1.
</event>
<event>
 5   0  0.2783875E-07  0.3195237E+04  0.7818609E-02  0.8190076E-01
       -1   -1    0    0    0  501  0.00000000000E+00  0.00000000000E+00  0.22385750428E+04  0.22385750428E+04  0.50400001928E-02 0. -1.
        1   -1    0    0  501    0  0.00000000000E+00  0.00000000000E+00 -0.11401831872E+04  0.11401831872E+04  0.50400001928E-02 0.  1.
    10030    2    1    2    0    0  0.00000000000E+00  0.00000000000E+00  0.10983918556E+04  0.33787582300E+04  0.31952374729E+04 0.  0.
        2    1    3    3  502    0 -0.82965370557E+03  0.82213304916E+03  0.17018288018E+04  0.20640855826E+04  0.25500000920E-02 0. -1.
       -2    1    3    3    0  502  0.82965370557E+03 -0.82213304916E+03 -0.60343694623E+03  0.13146726474E+04  0.25500000920E-02 0.  1.
</event>
<event>
 5   0  0.8335929E-07  0.3216518E+04  0.7818609E-02  0.8184468E-01
        2   -1    0    0  501    0  0.00000000000E+00  0.00000000000E+00  0.21281833464E+04  0.21281833465E+04  0.25500000920E-02 0.  1.
       -2   -1    0    0    0  501  0.00000000000E+00  0.00000000000E+00 -0.12153542750E+04  0.12153542751E+04  0.25500000920E-02 0. -1.
    10030    2    1    2    0    0  0.00000000000E+00  0.00000000000E+00  0.91282907140E+03  0.33435376215E+04  0.32165178241E+04 0.  0.
        4    1    3    3  502    0  0.20264349489E+03  0.10782962579E+04  0.16787361050E+04  0.20054784289E+04  0.12699999809E+01 0.  1.
       -4    1    3    3    0  502 -0.20264349489E+03 -0.10782962579E+04 -0.76590703355E+03  0.13380591926E+04  0.12699999809E+01 0. -1.
</event>
<event>
 5   0  0.8488469E-07  0.3199518E+04  0.7818609E-02  0.8188944E-01
       -2   -1    0    0    0  501  0.00000000000E+00  0.00000000000E+00  0.17730930405E+04  0.17730930405E+04  0.25500000920E-02 0.  1.
        2   -1    0    0  501    0  0.00000000000E+00  0.00000000000E+00 -0.14433701999E+04  0.14433701999E+04  0.25500000920E-02 0. -1.
    10030    2    1    2    0    0  0.00000000000E+00  0.00000000000E+00  0.32972284063E+03  0.32164632405E+04  0.31995184990E+04 0.  0.
        3    1    3    3  502    0  0.40926257285E+03 -0.12423898918E+04 -0.76099447274E+03  0.15133212133E+04  0.10100000352E+00 0. -1.
       -3    1    3    3    0  502 -0.40926257285E+03  0.12423898918E+04  0.10907173134E+04  0.17031420272E+04  0.10100000352E+00 0.  1.
</event>
<event>
 5   0  0.2783875E-07  0.3195138E+04  0.7818609E-02  0.8190102E-01
        3   -1    0    0  501    0  0.00000000000E+00  0.00000000000E+00  0.16096371173E+04  0.16096371204E+04  0.10100000352E+00 0.  1.
       -3   -1    0    0    0  501  0.00000000000E+00  0.00000000000E+00 -0.15855916284E+04  0.15855916317E+04  0.10100000352E+00 0. -1.
    10030    2    1    2    0    0  0.00000000000E+00  0.00000000000E+00  0.24045488830E+02  0.31952287521E+04  0.31951382744E+04 0.  0.
        1    1    3    3  502    0  0.30661650878E+03 -0.14877607228E+04 -0.48274524114E+03  0.15938910313E+04  0.50400001928E-02 0. -1.
       -1    1    3    3    0  502 -0.30661650878E+03  0.14877607228E+04  0.50679072997E+03  0.16013377208E+04  0.50400001928E-02 0.  1.
</event>
<event>
 5   0  0.8838951E-07  0.3223393E+04  0.7818609E-02  0.8182666E-01
       -2   -1    0    0    0  501  0.00000000000E+00  0.00000000000E+00  0.18124350847E+04  0.18124350847E+04  0.25500000920E-02 0.  1.
        2   -1    0    0  501    0  0.00000000000E+00  0.00000000000E+00 -0.14331906865E+04  0.14331906865E+04  0.25500000920E-02 0. -1.
    10030    2    1    2    0    0  0.00000000000E+00  0.00000000000E+00  0.37924439821E+03  0.32456257713E+04  0.32233926744E+04 0.  0.
        2    1    3    3  502    0  0.10741686826E+04 -0.94158203401E+03  0.94119541608E+03  0.17106326013E+04  0.25500000920E-02 0. -1.
       -2    1    3    3    0  502 -0.10741686826E+04  0.94158203401E+03 -0.56195101787E+03  0.15349931700E+04  0.25500000920E-02 0.  1.
</event>
<event>
 5   0  0.8335929E-07  0.3233851E+04  0.7818609E-02  0.8179934E-01
        2   -1    0    0  501    0  0.00000000000E+00  0.00000000000E+00  0.12983001893E+04  0.12983001893E+04  0.25500000920E-02 0. -1.
       -2   -1    0    0    0  501  0.00000000000E+00  0.00000000000E+00 -0.20137470656E+04  0.20137470656E+04  0.25500000920E-02 0.  1.
    10030    2    1    2    0    0  0.00000000000E+00  0.00000000000E+00 -0.71544687631E+03  0.33120472549E+04  0.32338510767E+04 0.  0.
        4    1    3    3  502    0 -0.15912077828E+04 -0.28494979978E+03 -0.32068281592E+03  0.16480223535E+04  0.12699999809E+01 0.  1.
       -4    1    3    3    0  502  0.15912077828E+04  0.28494979978E+03 -0.39476406040E+03  0.16640249014E+04  0.12699999809E+01 0. -1.
</event>
<event>
 5   0  0.3013888E-07  0.3196863E+04  0.7818609E-02  0.8189646E-01
       -1   -1    0    0    0  501  0.00000000000E+00  0.00000000000E+00  0.13967956712E+04  0.13967956712E+04  0.50400001928E-02 0.  1.
        1   -1    0    0  501    0  0.00000000000E+00  0.00000000000E+00 -0.18291744169E+04  0.18291744169E+04  0.50400001928E-02 0. -1.
    10030    2    1    2    0    0  0.00000000000E+00  0.00000000000E+00 -0.43237874568E+03  0.32259700880E+04  0.31968627792E+04 0.  0.
        1    1    3    3  502    0  0.86754906835E+03  0.86474503986E+03  0.82007718050E+03  0.14740936035E+04  0.50400001928E-02 0.  1.
       -1    1    3    3    0  502 -0.86754906835E+03 -0.86474503986E+03 -0.12524559262E+04  0.17518764845E+04  0.50400001928E-02 0. -1.
</event>
<event>
 5   0  0.8838951E-07  0.3203512E+04  0.7818609E-02  0.8187890E-01
       -2   -1    0    0    0  501  0.00000000000E+00  0.00000000000E+00  0.17509654971E+04  0.17509654971E+04  0.25500000920E-02 0. -1.
        2   -1    0    0  501    0  0.00000000000E+00  0.00000000000E+00 -0.14652617310E+04  0.14652617310E+04  0.25500000920E-02 0.  1.
    10030    2    1    2    0    0  0.00000000000E+00  0.00000000000E+00  0.28570376611E+03  0.32162272281E+04  0.32035122820E+04 0.  0.
        2    1    3    3  502    0  0.16222199997E+03  0.15700509513E+04  0.41641598567E+03  0.16324148493E+04  0.25500000920E-02 0.  1.
       -2    1    3    3    0  502 -0.16222199997E+03 -0.15700509513E+04 -0.13071221956E+03  0.15838123788E+04  0.25500000920E-02 0. -1.
</event>
<event>
 5   0  0.3075756E-07  0.3198397E+04  0.7818609E-02  0.8189241E-01
        1   -1    0    0  501    0  0.00000000000E+00  0.00000000000E+00  0.21468122820E+04  0.21468122820E+04  0.50400001928E-02 0.  1.
       -1   -1    0    0    0  501  0.00000000000E+00  0.00000000000E+00 -0.11912709465E+04  0.11912709465E+04  0.50400001928E-02 0. -1.
    10030    2    1    2    0    0  0.00000000000E+00  0.00000000000E+00  0.95554133543E+03  0.33380832285E+04  0.31983965353E+04 0.  0.
        5    1    3    3  502    0  0.13967100545E+03 -0.11924501171E+04 -0.62475998888E+03  0.13534372558E+04  0.46999998093E+01 0. -1.
       -5    1    3    3    0  502 -0.13967100545E+03  0.11924501171E+04  0.15803013243E+04  0.19846459728E+04  0.46999998093E+01 0.  1.
</event>
<event>
 5   0  0.2997105E-07  0.3185464E+04  0.7818609E-02  0.8192667E-01
        1   -1    0    0  501    0  0.00000000000E+00  0.00000000000E+00  0.21532592604E+04  0.21532592604E+04  0.50400001928E-02 0.  1.
       -1   -1    0    0    0  501  0.00000000000E+00  0.00000000000E+00 -0.11781188713E+04  0.11781188713E+04  0.50400001928E-02 0. -1.
    10030    2    1    2    0    0  0.00000000000E+00  0.00000000000E+00  0.97514038908E+03  0.33313781317E+04  0.31854640915E+04 0.  0.
        3    1    3    3  502    0  0.50911272855E+03  0.10810348906E+04 -0.61374029349E+03  0.13433202757E+04  0.10100000352E+00 0. -1.
       -3    1    3    3    0  502 -0.50911272855E+03 -0.10810348906E+04  0.15888806826E+04  0.19880578560E+04  0.10100000352E+00 0.  1.
</event>
<event>
 5   0  0.8802800E-07  0.3215694E+04  0.7818609E-02  0.8184685E-01
        2   -1    0    0  501    0  0.00000000000E+00  0.00000000000E+00  0.20247523858E+04  0.20247523858E+04  0.25500000920E-02 0.  1.
       -2   -1    0    0    0  501  0.00000000000E+00  0.00000000000E+00 -0.12767844240E+04  0.12767844240E+04  0.25500000920E-02 0. -1.
    10030    2    1    2    0    0  0.00000000000E+00  0.00000000000E+00  0.74796796177E+03  0.33015368098E+04  0.32156942073E+04 0.  0.
        5    1    3    3  502    0 -0.48815402219E+02  0.93976338566E+03 -0.96450962756E+03  0.13475307329E+04  0.46999998093E+01 0. -1.
       -5    1    3    3    0  502  0.48815402219E+02 -0.93976338566E+03  0.17124775893E+04  0.19540060769E+04  0.46999998093E+01 0.  1.
</event>
<event>
 5   0  0.3075756E-07  0.3177192E+04  0.7818609E-02  0.8194867E-01
       -1   -1    0    0    0  501  0.00000000000E+00  0.00000000000E+00  0.99341737477E+03  0.99341737478E+03  0.50400001928E-02 0. -1.
        1   -1    0    0  501    0  0.00000000000E+00  0.00000000000E+00 -0.25403594957E+04  0.25403594957E+04  0.50400001928E-02 0.  1.
    10030    2    1    2    0    0  0.00000000000E+00  0.00000000000E+00 -0.15469421209E+04  0.35337768705E+04  0.31771920063E+04 0.  0.
        5    1    3    3  502    0  0.24658753447E+03  0.59225229501E+03 -0.23898658790E+04  0.24744795822E+04  0.46999998093E+01 0.  1.
       -5    1    3    3    0  502 -0.24658753447E+03 -0.59225229501E+03  0.84292375806E+03  0.10592972883E+04  0.46999998093E+01 0. -1.
</event>
<event>
 5   0  0.8488469E-07  0.3200430E+04  0.7818609E-02  0.8188704E-01
       -2   -1    0    0    0  501  0.00000000000E+00  0.00000000000E+00  0.19223250354E+04  0.19223250354E+04  0.25500000920E-02 0. -1.
        2   -1    0    0  501    0  0.00000000000E+00  0.00000000000E+00 -0.13320789474E+04  0.13320789474E+04  0.25500000920E-02 0.  1.
    10030    2    1    2    0    0  0.00000000000E+00  0.00000000000E+00  0.59024608806E+03  0.32544039828E+04  0.32004304146E+04 0.  0.
        3    1    3    3  502    0 -0.13185989424E+04 -0.84748267824E+03  0.62267123583E+03  0.16866088874E+04  0.10100000352E+00 0. -1.
       -3    1    3    3    0  502  0.13185989424E+04  0.84748267824E+03 -0.32425147769E+02  0.15677950954E+04  0.10100000352E+00 0.  1.
</event>
<event>
 5   0  0.3013888E-07  0.3198084E+04  0.7818609E-02  0.8189323E-01
        1   -1    0    0  501    0  0.00000000000E+00  0.00000000000E+00  0.22145440276E+04  0.22145440276E+04  0.50400001928E-02 0.  1.
       -1   -1    0    0    0  501  0.00000000000E+00  0.00000000000E+00 -0.11546105358E+04  0.11546105358E+04  0.50400001928E-02 0. -1.
    10030    2    1    2    0    0  0.00000000000E+00  0.00000000000E+00  0.10599334918E+04  0.33691545634E+04  0.31980843430E+04 0.  0.
        1    1    3    3  502    0  0.43971524634E+03 -0.94628392092E+03  0.18064459341E+04  0.20861566743E+04  0.50400001928E-02 0.  1.
       -1    1    3    3    0  502 -0.43971524634E+03  0.94628392092E+03 -0.74651244228E+03  0.12829978891E+04  0.50400001928E-02 0. -1.
</event>
<event>
 5   0  0.3075756E-07  0.3214845E+04  0.7818609E-02  0.8184908E-01
        1   -1    0    0  501    0  0.00000000000E+00  0.00000000000E+00  0.19072992282E+04  0.19072992282E+04  0.50400001928E-02 0. -1.
       -1   -1    0    0    0  501  0.00000000000E+00  0.00000000000E+00 -0.13546938870E+04  0.13546938870E+04  0.50400001928E-02 0.  1.
    10030    2    1    2    0    0  0.00000000000E+00  0.00000000000E+00  0.55260534117E+03  0.32619931153E+04  0.32148446962E+04 0.  0.
        5    1    3    3  502    0  0.69959470042E+03 -0.87847966530E+03  0.14432236471E+04  0.18286814520E+04  0.46999998093E+01 0. -1.
       -5    1    3    3    0  502 -0.69959470042E+03  0.87847966530E+03 -0.89061830594E+03  0.14333116633E+04  0.46999998093E+01 0.  1.
</event>
<event>
 5   0  0.8488469E-07  0.3176159E+04  0.7818609E-02  0.8195142E-01
        2   -1    0    0  501    0  0.00000000000E+00  0.00000000000E+00  0.25387809752E+04  0.25387809752E+04  0.25500000920E-02 0. -1.
       -2   -1    0    0    0  501  0.00000000000E+00  0.00000000000E+00 -0.99338857217E+03  0.99338857218E+03  0.25500000920E-02 0.  1.
    10030    2    1    2    0    0  0.00000000000E+00  0.00000000000E+00  0.15453924031E+04  0.35321695474E+04  0.31761586913E+04 0.  0.
        3    1    3    3  502    0  0.13735756058E+04  0.70187879220E+03  0.35266784888E+03  0.15823142563E+04  0.10100000352E+00 0.  1.
       -3    1    3    3    0  502 -0.13735756058E+04 -0.70187879220E+03  0.11927245542E+04  0.19498552911E+04  0.10100000352E+00 0. -1.
</event>
<event>
 5   0  0.8802800E-07  0.3273642E+04  0.7818609E-02  0.8169635E-01
        2   -1    0    0  501    0  0.00000000000E+00  0.00000000000E+00  0.14938855437E+04  0.14938855437E+04  0.25500000920E-02 0.  1.
       -2   -1    0    0    0  501  0.00000000000E+00  0.00000000000E+00 -0.17934326513E+04  0.17934326513E+04  0.25500000920E-02 0. -1.
    10030    2    1    2    0    0  0.00000000000E+00  0.00000000000E+00 -0.29954710761E+03  0.32873181950E+04  0.32736420765E+04 0.  0.
        5    1    3    3  502    0 -0.21867420622E+03 -0.97979139438E+03  0.11484349179E+04  0.15253637060E+04  0.46999998093E+01 0.  1.
       -5    1    3    3    0  502  0.21867420622E+03  0.97979139438E+03 -0.14479820255E+04  0.17619544890E+04  0.46999998093E+01 0. -1.
</event>
<event>
 5   0  0.8802800E-07  0.3213230E+04  0.7818609E-02  0.8185332E-01
       -2   -1    0    0    0  501  0.00000000000E+00  0.00000000000E+00  0.11678188368E+04  0.11678188368E+04  0.25500000920E-02 0. -1.
        2   -1    0    0  501    0  0.00000000000E+00  0.00000000000E+00 -0.22102845807E+04  0.22102845807E+04  0.25500000920E-02 0.  1.
    10030    2    1    2    0    0  0.00000000000E+00  0.00000000000E+00 -0.10424657439E+04  0.33781034176E+04  0.32132301306E+04 0.  0.
        5    1    3    3  502    0  0.42986203227E+03 -0.82229312916E+03 -0.19001112116E+04  0.21145666372E+04  0.46999998093E+01 0.  1.
       -5    1    3    3    0  502 -0.42986203227E+03  0.82229312916E+03  0.85764546763E+03  0.12635367803E+04  0.46999998093E+01 0. -1.
</event>
<event>
 5   0  0.2891204E-07  0.3209315E+04  0.7818609E-02  0.8186362E-01
        1   -1    0    0  501    0  0.00000000000E+00  0.00000000000E+00  0.20870950018E+04  0.20870950018E+04  0.50400001928E-02 0.  1.
       -1   -1    0    0    0  501  0.00000000000E+00  0.00000000000E+00 -0.12337364036E+04  0.12337364036E+04  0.50400001928E-02 0. -1.
    10030    2    1    2    0    0  0.00000000000E+00  0.00000000000E+00  0.85335859819E+03  0.33208314054E+04  0.32093146193E+04 0.  0.
        4    1    3    3  502    0 -0.71906490874E+03  0.13894835458E+04  0.57628674856E+02  0.15655802579E+04  0.12699999809E+01 0.  1.
       -4    1    3    3    0  502  0.71906490874E+03 -0.13894835458E+04  0.79572992334E+03  0.17552511475E+04  0.12699999809E+01 0. -1.
</event>
<event>
 5   0  0.2783875E-07  0.3247465E+04  0.7818609E-02  0.8176393E-01
       -3   -1    0    0    0  501  0.00000000000E+00  0.00000000000E+00  0.16301793635E+04  0.16301793666E+04  0.10100000352E+00 0. -1.
        3   -1    0    0  501    0  0.00000000000E+00  0.00000000000E+00 -0.16173114934E+04  0.16173114965E+04  0.10100000352E+00 0.  1.
    10030    2    1    2    0    0  0.00000000000E+00  0.00000000000E+00  0.12867870134E+02  0.32474908631E+04  0.32474653692E+04 0.  0.
        2    1    3    3  502    0  0.14081399142E+04 -0.28803303801E+03 -0.74901013456E+03  0.16207520571E+04  0.25500000920E-02 0.  1.
       -2    1    3    3    0  502 -0.14081399142E+04  0.28803303801E+03  0.76187800470E+03  0.16267388060E+04  0.25500000920E-02 0. -1.
</event>
<event>
 5   0  0.2891204E-07  0.3205308E+04  0.7818609E-02  0.8187417E-01
        1   -1    0    0  501    0  0.00000000000E+00  0.00000000000E+00  0.31378264861E+04  0.31378264861E+04  0.50400001928E-02 0. -1.
       -1   -1    0    0    0  501  0.00000000000E+00  0.00000000000E+00 -0.81855993770E+03  0.81855993772E+03  0.50400001928E-02 0.  1.
    10030    2    1    2    0    0  0.00000000000E+00  0.00000000000E+00  0.23192665484E+04  0.39563864238E+04  0.32053075066E+04 0.  0.
        4    1    3    3  502    0  0.38496450442E+02  0.15928988487E+04  0.94695420601E+03  0.18535189775E+04  0.12699999809E+01 0. -1.
       -4    1    3    3    0  502 -0.38496450442E+02 -0.15928988487E+04  0.13723123423E+04  0.21028674463E+04  0.12699999809E+01 0.  1.
</event>
<event>
 5   0  0.2997105E-07  0.3196558E+04  0.7818609E-02  0.8189727E-01
       -1   -1    0    0    0  501  0.00000000000E+00  0.00000000000E+00  0.11036500325E+04  0.11036500325E+04  0.50400001928E-02 0.  1.
        1   -1    0    0  501    0  0.00000000000E+00  0.00000000000E+00 -0.23145883515E+04  0.23145883515E+04  0.50400001928E-02 0. -1.
    10030    2    1    2    0    0  0.00000000000E+00  0.00000000000E+00 -0.12109383190E+04  0.34182383840E+04  0.31965578420E+04 0.  0.
        3    1    3    3  502    0  0.27198279260E+03 -0.15304293303E+04 -0.10031564771E+04  0.18500031087E+04  0.10100000352E+00 0. -1.
       -3    1    3    3    0  502 -0.27198279260E+03  0.15304293303E+04 -0.20778184195E+03  0.15682352753E+04  0.10100000352E+00 0.  1.
</event>
<event>
 5   0  0.2891204E-07  0.3307638E+04  0.7818609E-02  0.8160954E-01
        1   -1    0    0  501    0  0.00000000000E+00  0.00000000000E+00  0.17566819181E+04  0.17566819181E+04  0.50400001928E-02 0.  1.
       -1   -1    0    0    0  501  0.00000000000E+00  0.00000000000E+00 -0.15569796748E+04  0.15569796748E+04  0.50400001928E-02 0. -1.
    10030    2    1    2    0    0  0.00000000000E+00  0.00000000000E+00  0.19970224334E+03  0.33136615929E+04  0.33076384577E+04 0.  0.
        4    1    3    3  502    0  0.75884437758E+03 -0.14285049148E+04 -0.24522545256E+03  0.16360342957E+04  0.12699999809E+01 0.  1.
       -4    1    3    3    0  502 -0.75884437758E+03  0.14285049148E+04  0.44492769590E+03  0.16776272973E+04  0.12699999809E+01 0. -1.
</event>
<event>
 5   0  0.8488469E-07  0.3206740E+04  0.7818609E-02  0.8187040E-01
       -2   -1    0    0    0  501  0.00000000000E+00  0.00000000000E+00  0.15468260100E+04  0.15468260100E+04  0.25500000920E-02 0.  1.
        2   -1    0    0  501    0  0.00000000000E+00  0.00000000000E+00 -0.16619806499E+04  0.16619806499E+04  0.25500000920E-02 0. -1.
    10030    2    1    2    0    0  0.00000000000E+00  0.00000000000E+00 -0.11515463993E+03  0.32088066600E+04  0.32067397135E+04 0.  0.
        3    1    3    3  502    0  0.18729490208E+03 -0.11549788667E+04  0.10393679921E+04  0.15650371868E+04  0.10100000352E+00 0. -1.
       -3    1    3    3    0  502 -0.18729490208E+03  0.11549788667E+04 -0.11545226320E+04  0.16437694732E+04  0.10100000352E+00 0.  1.
</event>
<event>
 5   0  0.8802800E-07  0.3187093E+04  0.7818609E-02  0.8192234E-01
        2   -1    0    0  501    0  0.00000000000E+00  0.00000000000E+00  0.14046778514E+04  0.14046778514E+04  0.25500000920E-02 0. -1.
       -2   -1    0    0    0  501  0.00000000000E+00  0.00000000000E+00 -0.18078095156E+04  0.18078095156E+04  0.25500000920E-02 0.  1.
    10030    2    1    2    0    0  0.00000000000E+00  0.00000000000E+00 -0.40313166420E+03  0.32124873671E+04  0.31870927105E+04 0.  0.
        5    1    3    3  502    0 -0.38028705379E+03  0.75728457945E+03  0.11587315584E+04  0.14355413933E+04  0.46999998093E+01 0. -1.
       -5    1    3    3    0  502  0.38028705379E+03 -0.75728457945E+03 -0.15618632226E+04  0.17769459738E+04  0.46999998093E+01 0.  1.
</event>
<event>
 5   0  0.8802800E-07  0.3205145E+04  0.7818609E-02  0.8187460E-01
        2   -1    0    0  501    0  0.00000000000E+00  0.00000000000E+00  0.15893228801E+04  0.15893228801E+04  0.25500000920E-02 0.  1.
       -2   -1    0    0    0  501  0.00000000000E+00  0.00000000000E+00 -0.16159329843E+04  0.16159329843E+04  0.25500000920E-02 0. -1.
    10030    2    1    2    0    0  0.00000000000E+00  0.00000000000E+00 -0.26610104183E+02  0.32052558643E+04  0.32051454036E+04 0.  0.
        5    1    3    3  502    0 -0.70021161483E+03 -0.32637388017E+03  0.13908092042E+04  0.15909709450E+04  0.46999998093E+01 0.  1.
       -5    1    3    3    0  502  0.70021161483E+03  0.32637388017E+03 -0.14174193084E+04  0.16142849194E+04  0.46999998093E+01 0. -1.
</event>
<event>
 5   0  0.3013888E-07  0.3212665E+04  0.7818609E-02  0.8185480E-01
        1   -1    0    0  501    0  0.00000000000E+00  0.00000000000E+00  0.28279576298E+04  0.28279576298E+04  0.50400001928E-02 0.  1.
       -1   -1    0    0    0  501  0.00000000000E+00  0.00000000000E+00 -0.91242649525E+03  0.91242649526E+03  0.50400001928E-02 0. -1.
    10030    2    1    2    0    0  0.00000000000E+00  0.00000000000E+00  0.19155311345E+04  0.37403841250E+04  0.32126646068E+04 0.  0.
        1    1    3    3  502    0  0.47651125849E+03 -0.10403965592E+04 -0.35471253436E+03  0.11980438063E+04  0.50400001928E-02 0. -1.
       -1    1    3    3    0  502 -0.47651125849E+03  0.10403965592E+04  0.22702436689E+04  0.25423403187E+04  0.50400001928E-02 0.  1.
</event>
<event>
 5   0  0.8195618E-07  0.3211035E+04  0.7818609E-02  0.8185909E-01
        2   -1    0    0  501    0  0.00000000000E+00  0.00000000000E+00  0.26359152436E+04  0.26359152436E+04  0.25500000920E-02 0. -1.
       -2   -1    0    0    0  501  0.00000000000E+00  0.00000000000E+00 -0.97790930976E+03  0.97790930976E+03  0.25500000920E-02 0.  1.
    10030    2    1    2    0    0  0.00000000000E+00  0.00000000000E+00  0.16580059339E+04  0.36138245534E+04  0.32110347594E+04 0.  0.
        1    1    3    3  502    0  0.52058885959E+03  0.12097538346E+04 -0.20442297984E+03  0.13327812483E+04  0.50400001928E-02 0.  1.
       -1    1    3    3    0  502 -0.52058885959E+03 -0.12097538346E+04  0.18624289137E+04  0.22810433051E+04  0.50400001928E-02 0. -1.
</event>
<event>
 5   0  0.8195618E-07  0.3186363E+04  0.7818609E-02  0.8192428E-01
        2   -1    0    0  501    0  0.00000000000E+00  0.00000000000E+00  0.24887174830E+04  0.24887174830E+04  0.25500000920E-02 0. -1.
       -2   -1    0    0    0  501  0.00000000000E+00  0.00000000000E+00 -0.10198939740E+04  0.10198939740E+04  0.25500000920E-02 0.  1.
    10030    2    1    2    0    0  0.00000000000E+00  0.00000000000E+00  0.14688235090E+04  0.35086114570E+04  0.31863634218E+04 0.  0.
        1    1    3    3  502    0  0.10280437392E+04  0.17055681237E+03  0.20613869846E+04  0.23098224729E+04  0.50400001928E-02 0. -1.
       -1    1    3    3    0  502 -0.10280437392E+04 -0.17055681237E+03 -0.59256347561E+03  0.11987889841E+04  0.50400001928E-02 0.  1.
</event>
<event>
 5   0  0.2997105E-07  0.3196629E+04  0.7818609E-02  0.8189708E-01
        1   -1    0    0  501    0  0.00000000000E+00  0.00000000000E+00  0.15119658403E+04  0.15119658403E+04  0.50400001928E-02 0.  1.
       -1   -1    0    0    0  501  0.00000000000E+00  0.00000000000E+00 -0.16895947283E+04  0.16895947283E+04  0.50400001928E-02 0. -1.
    10030    2    1    2    0    0  0.00000000000E+00  0.00000000000E+00 -0.17762888799E+03  0.32015605686E+04  0.31966291703E+04 0.  0.
        3    1    3    3  502    0  0.38999859359E+03 -0.31188954434E+03  0.14318280228E+04  0.15164120443E+04  0.10100000352E+00 0.  1.
       -3    1    3    3    0  502 -0.38999859359E+03  0.31188954434E+03 -0.16094569108E+04  0.16851485243E+04  0.10100000352E+00 0. -1.
</event>
<event>
 5   0  0.8335929E-07  0.3195247E+04  0.7818609E-02  0.8190074E-01
        2   -1    0    0  501    0  0.00000000000E+00  0.00000000000E+00  0.16369863294E+04  0.16369863294E+04  0.25500000920E-02 0. -1.
       -2   -1    0    0    0  501  0.00000000000E+00  0.00000000000E+00 -0.15592071031E+04  0.15592071031E+04  0.25500000920E-02 0.  1.
    10030    2    1    2    0    0  0.00000000000E+00  0.00000000000E+00  0.77779226316E+02  0.31961934325E+04  0.31952469153E+04 0.  0.
        4    1    3    3  502    0 -0.58793135774E+03 -0.71393260877E+03  0.13419788701E+04  0.16298073359E+04  0.12699999809E+01 0. -1.
       -4    1    3    3    0  502  0.58793135774E+03  0.71393260877E+03 -0.12641996438E+04  0.15663860966E+04  0.12699999809E+01 0.  1.
</event>
<event>
 5   0  0.2783875E-07  0.3196625E+04  0.7818609E-02  0.8189709E-01
       -1   -1    0    0    0  501  0.00000000000E+00  0.00000000000E+00  0.11075443220E+04  0.11075443220E+04  0.50400001928E-02 0. -1.
        1   -1    0    0  501    0  0.00000000000E+00  0.00000000000E+00 -0.23065469058E+04  0.23065469058E+04  0.50400001928E-02 0.  1.
    10030    2    1    2    0    0  0.00000000000E+00  0.00000000000E+00 -0.11990025839E+04  0.34140912278E+04  0.31966250508E+04 0.  0.
        2    1    3    3  502    0 -0.11809263892E+04  0.40118597244E+03  0.46802954148E+03  0.13321369948E+04  0.25500000920E-02 0.  1.
       -2    1    3    3    0  502  0.11809263892E+04 -0.40118597244E+03 -0.16670321253E+04  0.20819542330E+04  0.25500000920E-02 0. -1.
</event>
<event>
 5   0  0.8838951E-07  0.3189500E+04  0.7818609E-02  0.8191596E-01
        2   -1    0    0  501    0  0.00000000000E+00  0.00000000000E+00  0.81763521896E+03  0.81763521897E+03  0.25500000920E-02 0.  1.
       -2   -1    0    0    0  501  0.00000000000E+00  0.00000000000E+00 -0.31104668367E+04  0.31104668367E+04  0.25500000920E-02 0. -1.
    10030    2    1    2    0    0  0.00000000000E+00  0.00000000000E+00 -0.22928316177E+04  0.39281020556E+04  0.31894997934E+04 0.  0.
        2    1    3    3  502    0 -0.34864138608E+03  0.78827833031E+02  0.76766532238E+03  0.84680262786E+03  0.25500000920E-02 0.  1.
       -2    1    3    3    0  502  0.34864138608E+03 -0.78827833031E+02 -0.30604969401E+04  0.30812994278E+04  0.25500000920E-02 0. -1.
</event>
<event>
 5   0  0.3013888E-07  0.3199613E+04  0.7818609E-02  0.8188919E-01
       -1   -1    0    0    0  501  0.00000000000E+00  0.00000000000E+00  0.12909258802E+04  0.12909258802E+04  0.50400001928E-02 0.  1.
        1   -1    0    0  501    0  0.00000000000E+00  0.00000000000E+00 -0.19825934247E+04  0.19825934248E+04  0.50400001928E-02 0. -1.
    10030    2    1    2    0    0  0.00000000000E+00  0.00000000000E+00 -0.69166754455E+03  0.32735193050E+04  0.31996132028E+04 0.  0.
        1    1    3    3  502    0  0.15927722916E+03 -0.12193187499E+04  0.70116826678E+03  0.14155367844E+04  0.50400001928E-02 0.  1.
       -1    1    3    3    0  502 -0.15927722916E+03  0.12193187499E+04 -0.13928358113E+04  0.18579825206E+04  0.50400001928E-02 0. -1.
</event>
<event>
 5   0  0.8838951E-07  0.3198971E+04  0.7818609E-02  0.8189089E-01
        2   -1    0    0  501    0  0.00000000000E+00  0.00000000000E+00  0.13657227041E+04  0.13657227041E+04  0.25500000920E-02 0.  1.
       -2   -1    0    0    0  501  0.00000000000E+00  0.00000000000E+00 -0.18732597491E+04  0.18732597491E+04  0.25500000920E-02 0. -1.
    10030    2    1    2    0    0  0.00000000000E+00  0.00000000000E+00 -0.50753704502E+03  0.32389824533E+04  0.31989706908E+04 0.  0.
        2    1    3    3  502    0  0.11867380330E+04 -0.10659335640E+04 -0.37267611013E+03  0.16381236232E+04  0.25500000920E-02 0. -1.
       -2    1    3    3    0  502 -0.11867380330E+04  0.10659335640E+04 -0.13486093489E+03  0.16008588300E+04  0.25500000920E-02 0.  1.
</event>
<event>
 5   0  0.8802800E-07  0.3208603E+04  0.7818609E-02  0.8186549E-01
        2   -1    0    0  501    0  0.00000000000E+00  0.00000000000E+00  0.94752405449E+03  0.94752405450E+03  0.25500000920E-02 0. -1.
       -2   -1    0    0    0  501  0.00000000000E+00  0.00000000000E+00 -0.27163248804E+04  0.27163248804E+04  0.25500000920E-02 0.  1.
    10030    2    1    2    0    0  0.00000000000E+00  0.00000000000E+00 -0.17688008259E+04  0.36638489349E+04  0.32086029134E+04 0.  0.
        5    1    3    3  502    0 -0.11826740515E+04  0.10811608302E+04 -0.97383559163E+03  0.18751011979E+04  0.46999998093E+01 0.  1.
       -5    1    3    3    0  502  0.11826740515E+04 -0.10811608302E+04 -0.79496523425E+03  0.17887477370E+04  0.46999998093E+01 0. -1.
</event>
<event>
 5   0  0.8802800E-07  0.3200230E+04  0.7818609E-02  0.8188756E-01
        2   -1    0    0  501    0  0.00000000000E+00  0.00000000000E+00  0.13489637124E+04  0.13489637124E+04  0.25500000920E-02 0. -1.
       -2   -1    0    0    0  501  0.00000000000E+00  0.00000000000E+00 -0.18980258788E+04  0.18980258788E+04  0.25500000920E-02 0.  1.
    10030    2    1    2    0    0  0.00000000000E+00  0.00000000000E+00 -0.54906216644E+03  0.32469895912E+04  0.32002300140E+04 0.  0.
        5    1    3    3  502    0 -0.56122780967E+03  0.30949675058E+03 -0.17620983560E+04  0.18750406927E+04  0.46999998093E+01 0.  1.
       -5    1    3    3    0  502  0.56122780967E+03 -0.30949675058E+03  0.12130361895E+04  0.13719488985E+04  0.46999998093E+01 0. -1.
</event>
<event>
 5   0  0.8802800E-07  0.3188130E+04  0.7818609E-02  0.8191959E-01
       -2   -1    0    0    0  501  0.00000000000E+00  0.00000000000E+00  0.16233372148E+04  0.16233372148E+04  0.25500000920E-02 0. -1.
        2   -1    0    0  501    0  0.00000000000E+00  0.00000000000E+00 -0.15653209137E+04  0.15653209137E+04  0.25500000920E-02 0.  1.
    10030    2    1    2    0    0  0.00000000000E+00  0.00000000000E+00  0.58016301124E+02  0.31886581285E+04  0.31881302936E+04 0.  0.
        5    1    3    3  502    0 -0.15145742179E+04 -0.25357135042E+03 -0.39859989628E+03  0.15865489147E+04  0.46999998093E+01 0.  1.
       -5    1    3    3    0  502  0.15145742179E+04  0.25357135042E+03  0.45661619741E+03  0.16021092138E+04  0.46999998093E+01 0. -1.
</event>
<event>
 5   0  0.3013888E-07  0.3197457E+04  0.7818609E-02  0.8189489E-01
        1   -1    0    0  501    0  0.00000000000E+00  0.00000000000E+00  0.11670852500E+04  0.11670852500E+04  0.50400001928E-02 0.  1.
       -1   -1    0    0    0  501  0.00000000000E+00  0.00000000000E+00 -0.21900139972E+04  0.21900139972E+04  0.50400001928E-02 0. -1.
    10030    2    1    2    0    0  0.00000000000E+00  0.00000000000E+00 -0.10229287473E+04  0.33570992472E+04  0.31974571356E+04 0.  0.
        1    1    3    3  502    0  0.77006545213E+02  0.15910980538E+04 -0.65392224265E+03  0.17219574107E+04  0.50400001928E-02 0. -1.
       -1    1    3    3    0  502 -0.77006545213E+02 -0.15910980538E+04 -0.36900650461E+03  0.16351418365E+04  0.50400001928E-02 0.  1.
</event>
<event>
 5   0  0.2997105E-07  0.3200508E+04  0.7818609E-02  0.8188683E-01
        1   -1    0    0  501    0  0.00000000000E+00  0.00000000000E+00  0.15389136955E+04  0.15389136955E+04  0.50400001928E-02 0. -1.
       -1   -1    0    0    0  501  0.00000000000E+00  0.00000000000E+00 -0.16640393354E+04  0.16640393354E+04  0.50400001928E-02 0.  1.
    10030    2    1    2    0    0  0.00000000000E+00  0.00000000000E+00 -0.12512563986E+03  0.32029530309E+04  0.32005080366E+04 0.  0.
        3    1    3    3  502    0 -0.15955355152E+04  0.12098124936E+02  0.59731058430E+02  0.15966990181E+04  0.10100000352E+00 0.  1.
       -3    1    3    3    0  502  0.15955355152E+04 -0.12098124936E+02 -0.18485669829E+03  0.16062540129E+04  0.10100000352E+00 0. -1.
</event>
<event>
 5   0  0.2997105E-07  0.3200825E+04  0.7818609E-02  0.8188599E-01
        1   -1    0    0  501    0  0.00000000000E+00  0.00000000000E+00  0.30355936681E+04  0.30355936681E+04  0.50400001928E-02 0.  1.
       -1   -1    0    0    0  501  0.00000000000E+00  0.00000000000E+00 -0.84376273881E+03  0.84376273882E+03  0.50400001928E-02 0. -1.
    10030    2    1    2    0    0  0.00000000000E+00  0.00000000000E+00  0.21918309293E+04  0.38793564070E+04  0.32008254107E+04 0.  0.
        3    1    3    3  502    0 -0.50529593275E+03 -0.39883798825E+02 -0.74391245507E+03  0.90017800910E+03  0.10100000352E+00 0. -1.
       -3    1    3    3    0  502  0.50529593275E+03  0.39883798825E+02  0.29357433844E+04  0.29791783979E+04  0.10100000352E+00 0.  1.
</event>
<event>
 5   0  0.8195618E-07  0.3191715E+04  0.7818609E-02  0.8191009E-01
        2   -1    0    0  501    0  0.00000000000E+00  0.00000000000E+00  0.23059767551E+04  0.23059767551E+04  0.25500000920E-02 0. -1.
       -2   -1    0    0    0  501  0.00000000000E+00  0.00000000000E+00 -0.11044175638E+04  0.11044175638E+04  0.25500000920E-02 0.  1.
    10030    2    1    2    0    0  0.00000000000E+00  0.00000000000E+00  0.12015591912E+04  0.34103943189E+04  0.31917150437E+04 0.  0.
        1    1    3    3  502    0 -0.61205337357E+03 -0.72101716363E+03 -0.77270286079E+03  0.12212881697E+04  0.50400001928E-02 0.  1.
       -1    1    3    3    0  502  0.61205337357E+03  0.72101716363E+03  0.19742620520E+04  0.21891061492E+04  0.50400001928E-02 0. -1.
</event>
<event>
 5   0  0.3075756E-07  0.3195642E+04  0.7818609E-02  0.8189969E-01
       -1   -1    0    0    0  501  0.00000000000E+00  0.00000000000E+00  0.17360073881E+04  0.17360073881E+04  0.50400001928E-02 0.  1.
        1   -1    0    0  501    0  0.00000000000E+00  0.00000000000E+00 -0.14706339264E+04  0.14706339264E+04  0.50400001928E-02 0. -1.
    10030    2    1    2    0    0  0.00000000000E+00  0.00000000000E+00  0.26537346170E+03  0.32066413145E+04  0.31956416329E+04 0.  0.
        5    1    3    3  502    0  0.56437972360E+03  0.10949056680E+04  0.11538666164E+04  0.16878309017E+04  0.46999998093E+01 0.  1.
       -5    1    3    3    0  502 -0.56437972360E+03 -0.10949056680E+04 -0.88849315467E+03  0.15188104129E+04  0.46999998093E+01 0. -1.
</event>
<event>
 5   0  0.8195618E-07  0.3200825E+04  0.7818609E-02  0.8188599E-01
       -2   -1    0    0    0  501  0.00000000000E+00  0.00000000000E+00  0.14487831375E+04  0.14487831375E+04  0.25500000920E-02 0.  1.
        2   -1    0    0  501    0  0.00000000000E+00  0.00000000000E+00 -0.17679115814E+04  0.17679115814E+04  0.25500000920E-02 0. -1.
    10030    2    1    2    0    0  0.00000000000E+00  0.00000000000E+00 -0.31912844383E+03  0.32166947189E+04  0.32008251984E+04 0.  0.
        1    1    3    3  502    0 -0.80126754181E+03 -0.68791197169E+03  0.10489234837E+04  0.14884532338E+04  0.50400001928E-02 0.  1.
       -1    1    3    3    0  502  0.80126754181E+03  0.68791197169E+03 -0.13680519276E+04  0.17282414851E+04  0.50400001928E-02 0. -1.
</event>
<event>
 5   0  0.8488469E-07  0.3194162E+04  0.7818609E-02  0.8190361E-01
        2   -1    0    0  501    0  0.00000000000E+00  0.00000000000E+00  0.15218197952E+04  0.15218197952E+04  0.25500000920E-02 0. -1.
       -2   -1    0    0    0  501  0.00000000000E+00  0.00000000000E+00 -0.16760647295E+04  0.16760647295E+04  0.25500000920E-02 0.  1.
    10030    2    1    2    0    0  0.00000000000E+00  0.00000000000E+00 -0.15424493426E+03  0.31978845248E+04  0.31941624777E+04 0.  0.
        3    1    3    3  502    0 -0.72459674653E+03  0.14222144016E+04 -0.13135406767E+03  0.16015580384E+04  0.10100000352E+00 0.  1.
       -3    1    3    3    0  502  0.72459674653E+03 -0.14222144016E+04 -0.22890866590E+02  0.15963264864E+04  0.10100000352E+00 0. -1.
</event>
<event>
 5   0  0.8838951E-07  0.3194116E+04  0.7818609E-02  0.8190373E-01
       -2   -1    0    0    0  501  0.00000000000E+00  0.00000000000E+00  0.96410451852E+03  0.96410451852E+03  0.25500000920E-02 0.  1.
        2   -1    0    0  501    0  0.00000000000E+00  0.00000000000E+00 -0.26455584864E+04  0.26455584864E+04  0.25500000920E-02 0. -1.
    10030    2    1    2    0    0  0.00000000000E+00  0.00000000000E+00 -0.16814539679E+04  0.36096630049E+04  0.31941163978E+04 0.  0.
        2    1    3    3  502    0 -0.14128577074E+04 -0.71267962747E+03 -0.59699311738E+03  0.16912953423E+04  0.25500000920E-02 0.  1.
       -2    1    3    3    0  502  0.14128577074E+04  0.71267962747E+03 -0.10844608505E+04  0.19183676626E+04  0.25500000920E-02 0. -1.
</event>
<event>
 5   0  0.2783875E-07  0.3203110E+04  0.7818609E-02  0.8187996E-01
       -1   -1    0    0    0  501  0.00000000000E+00  0.00000000000E+00  0.16022586886E+04  0.16022586887E+04  0.50400001928E-02 0. -1.
        1   -1    0    0  501    0  0.00000000000E+00  0.00000000000E+00 -0.16008514832E+04  0.16008514832E+04  0.50400001928E-02 0.  1.
    10030    2    1    2    0    0  0.00000000000E+00  0.00000000000E+00  0.14072054557E+01  0.32031101719E+04  0.32031098627E+04 0.  0.
        2    1    3    3  502    0  0.79663452773E+03  0.10708913843E+04  0.88588348364E+03  0.16019439673E+04  0.25500000920E-02 0. -1.
       -2    1    3    3    0  502 -0.79663452773E+03 -0.10708913843E+04 -0.88447627819E+03  0.16011662045E+04  0.25500000920E-02 0.  1.
</event>
<event>
 5   0  0.8802800E-07  0.3210338E+04  0.7818609E-02  0.8186092E-01
        2   -1    0    0  501    0  0.00000000000E+00  0.00000000000E+00  0.17156634897E+04  0.17156634897E+04  0.25500000920E-02 0. -1.
       -2   -1    0    0    0  501  0.00000000000E+00  0.00000000000E+00 -0.15017903007E+04  0.15017903007E+04  0.25500000920E-02 0.  1.
    10030    2    1    2    0    0  0.00000000000E+00  0.00000000000E+00  0.21387318899E+03  0.32174537904E+04  0.32103375450E+04 0.  0.
        5    1    3    3  502    0  0.85217095683E+03  0.12172380374E+04  0.71547354091E+03  0.16491780550E+04  0.46999998093E+01 0. -1.
       -5    1    3    3    0  502 -0.85217095683E+03 -0.12172380374E+04 -0.50160035192E+03  0.15682757354E+04  0.46999998093E+01 0.  1.
</event>
<event>
 5   0  0.2783875E-07  0.3204741E+04  0.7818609E-02  0.8187566E-01
       -3   -1    0    0    0  501  0.00000000000E+00  0.00000000000E+00  0.10392212046E+04  0.10392212095E+04  0.10100000352E+00 0. -1.
        3   -1    0    0  501    0  0.00000000000E+00  0.00000000000E+00 -0.24706878062E+04  0.24706878083E+04  0.10100000352E+00 0.  1.
    10030    2    1    2    0    0  0.00000000000E+00  0.00000000000E+00 -0.14314666017E+04  0.35099090178E+04  0.32047409694E+04 0.  0.
        5    1    3    3  502    0  0.15273821404E+04  0.48169375241E+03 -0.65941699403E+03  0.17319867020E+04  0.46999998093E+01 0. -1.
       -5    1    3    3    0  502 -0.15273821404E+04 -0.48169375241E+03 -0.77204960765E+03  0.17779223157E+04  0.46999998093E+01 0.  1.
</event>
<event>
 5   0  0.8802800E-07  0.3203399E+04  0.7818609E-02  0.8187920E-01
        2   -1    0    0  501    0  0.00000000000E+00  0.00000000000E+00  0.15944504077E+04  0.15944504077E+04  0.25500000920E-02 0.  1.
       -2   -1    0    0    0  501  0.00000000000E+00  0.00000000000E+00 -0.16089818048E+04  0.16089818048E+04  0.25500000920E-02 0. -1.
    10030    2    1    2    0    0  0.00000000000E+00  0.00000000000E+00 -0.14531397066E+02  0.32034322125E+04  0.32033992537E+04 0.  0.
        5    1    3    3  502    0  0.81746462975E+03  0.47294644402E+03  0.12863831260E+04  0.15958478614E+04  0.46999998093E+01 0.  1.
       -5    1    3    3    0  502 -0.81746462975E+03 -0.47294644402E+03 -0.13009145230E+04  0.16075843511E+04  0.46999998093E+01 0. -1.
</event>
<event>
 5   0  0.8195618E-07  0.3201902E+04  0.7818609E-02  0.8188315E-01
        2   -1    0    0  501    0  0.00000000000E+00  0.00000000000E+00  0.14245077923E+04  0.14245077923E+04  0.25500000920E-02 0. -1.
       -2   -1    0    0    0  501  0.00000000000E+00  0.00000000000E+00 -0.17992487612E+04  0.17992487612E+04  0.25500000920E-02 0.  1.
    10030    2    1    2    0    0  0.00000000000E+00  0.00000000000E+00 -0.37474096890E+03  0.32237565534E+04  0.32019018601E+04 0.  0.
        1    1    3    3  502    0 -0.11277124017E+04  0.74485871752E+03  0.67667948804E+03  0.15114380237E+04  0.50400001928E-02 0. -1.
       -1    1    3    3    0  502  0.11277124017E+04 -0.74485871752E+03 -0.10514204569E+04  0.17123185297E+04  0.50400001928E-02 0.  1.
</event>
<event>
 5   0  0.8335929E-07  0.3202092E+04  0.7818609E-02  0.8188265E-01
        2   -1    0    0  501    0  0.00000000000E+00  0.00000000000E+00  0.17660799091E+04  0.17660799091E+04  0.25500000920E-02 0.  1.
       -2   -1    0    0    0  501  0.00000000000E+00  0.00000000000E+00 -0.14514335324E+04  0.14514335324E+04  0.25500000920E-02 0. -1.
    10030    2    1    2    0    0  0.00000000000E+00  0.00000000000E+00  0.31464637676E+03  0.32175134415E+04  0.32020915671E+04 0.  0.
        4    1    3    3  502    0  0.59009969856E+03 -0.98521439705E+03  0.12782590028E+04  0.17183750329E+04  0.12699999809E+01 0.  1.
       -4    1    3    3    0  502 -0.59009969856E+03  0.98521439705E+03 -0.96361262604E+03  0.14991384087E+04  0.12699999809E+01 0. -1.
</event>
<event>
 5   0  0.2783875E-07  0.3142368E+04  0.7818609E-02  0.8204206E-01
        1   -1    0    0  501    0  0.00000000000E+00  0.00000000000E+00  0.20319079018E+04  0.20319079018E+04  0.50400001928E-02 0. -1.
       -1   -1    0    0    0  501  0.00000000000E+00  0.00000000000E+00 -0.12149263272E+04  0.12149263272E+04  0.50400001928E-02 0.  1.
    10030    2    1    2    0    0  0.00000000000E+00  0.00000000000E+00  0.81698157459E+03  0.32468342291E+04  0.31423675179E+04 0.  0.
        2    1    3    3  502    0 -0.28137994382E+03  0.15393962004E+04  0.26345669919E+03  0.15869230501E+04  0.25500000920E-02 0. -1.
       -2    1    3    3    0  502  0.28137994382E+03 -0.15393962004E+04  0.55352487539E+03  0.16599111790E+04  0.25500000920E-02 0.  1.
</event>
<event>
 5   0  0.2783875E-07  0.3231755E+04  0.7818609E-02  0.8180481E-01
       -1   -1    0    0    0  501  0.00000000000E+00  0.00000000000E+00  0.21164473270E+04  0.21164473270E+04  0.50400001928E-02 0. -1.
        1   -1    0    0  501    0  0.00000000000E+00  0.00000000000E+00 -0.12336995122E+04  0.12336995122E+04  0.50400001928E-02 0.  1.
    10030    2    1    2    0    0  0.00000000000E+00  0.00000000000E+00  0.88274781483E+03  0.33501468392E+04  0.32317549628E+04 0.  0.
        2    1    3    3  502    0 -0.54629069807E+03  0.59886325765E+03 -0.10076865648E+04  0.12932528527E+04  0.25500000920E-02 0.  1.
       -2    1    3    3    0  502  0.54629069807E+03 -0.59886325765E+03  0.18904343796E+04  0.20568939865E+04  0.25500000920E-02 0. -1.
</event>
<event>
 5   0  0.8802800E-07  0.3201037E+04  0.7818609E-02  0.8188543E-01
        2   -1    0    0  501    0  0.00000000000E+00  0.00000000000E+00  0.26171839861E+04  0.26171839861E+04  0.25500000920E-02 0. -1.
       -2   -1    0    0    0  501  0.00000000000E+00  0.00000000000E+00 -0.97878462616E+03  0.97878462617E+03  0.25500000920E-02 0.  1.
    10030    2    1    2    0    0  0.00000000000E+00  0.00000000000E+00  0.16383993599E+04  0.35959686122E+04  0.32010369879E+04 0.  0.
        5    1    3    3  502    0  0.80751800350E+03  0.15498787132E+03  0.23617594990E+04  0.25008071871E+04  0.46999998093E+01 0. -1.
       -5    1    3    3    0  502 -0.80751800350E+03 -0.15498787132E+03 -0.72336013907E+03  0.10951614251E+04  0.46999998093E+01 0.  1.
</event>
<event>
 5   0  0.8488469E-07  0.3204724E+04  0.7818609E-02  0.8187571E-01
        2   -1    0    0  501    0  0.00000000000E+00  0.00000000000E+00  0.14333341885E+04  0.14333341885E+04  0.25500000920E-02 0. -1.
       -2   -1    0    0    0  501  0.00000000000E+00  0.00000000000E+00 -0.17913224231E+04  0.17913224231E+04  0.25500000920E-02 0.  1.
    10030    2    1    2    0    0  0.00000000000E+00  0.00000000000E+00 -0.35798823461E+03  0.32246566116E+04  0.32047238082E+04 0.  0.
        3    1    3    3  502    0 -0.61391369025E+02 -0.18106287523E+03  0.14218162320E+04  0.14346128651E+04  0.10100000352E+00 0. -1.
       -3    1    3    3    0  502  0.61391369025E+02  0.18106287523E+03 -0.17798044666E+04  0.17900437465E+04  0.10100000352E+00 0.  1.
</event>
<event>
 5   0  0.2783875E-07  0.3395694E+04  0.7818609E-02  0.8138964E-01
        1   -1    0    0  501    0  0.00000000000E+00  0.00000000000E+00  0.20525179932E+04  0.20525179932E+04  0.50400001928E-02 0.  1.
       -1   -1    0    0    0  501  0.00000000000E+00  0.00000000000E+00 -0.14044625800E+04  0.14044625800E+04  0.50400001928E-02 0. -1.
    10030    2    1    2    0    0  0.00000000000E+00  0.00000000000E+00  0.64805541317E+03  0.34569805732E+04  0.33956941654E+04 0.  0.
        2    1    3    3  502    0 -0.77709425255E+03  0.10054883326E+04  0.14703168105E+04  0.19433769031E+04  0.25500000920E-02 0.  1.
       -2    1    3    3    0  502  0.77709425255E+03 -0.10054883326E+04 -0.82226139733E+03  0.15136036700E+04  0.25500000920E-02 0. -1.
</event>
<event>
 5   0  0.8335929E-07  0.3188619E+04  0.7818609E-02  0.8191829E-01
        2   -1    0    0  501    0  0.00000000000E+00  0.00000000000E+00  0.12524268219E+04  0.12524268219E+04  0.25500000920E-02 0.  1.
       -2   -1    0    0    0  501  0.00000000000E+00  0.00000000000E+00 -0.20295174120E+04  0.20295174120E+04  0.25500000920E-02 0. -1.
    10030    2    1    2    0    0  0.00000000000E+00  0.00000000000E+00 -0.77709059011E+03  0.32819442338E+04  0.31886185361E+04 0.  0.
        4    1    3    3  502    0  0.69558833061E+03 -0.13416861666E+04  0.13411181066E+03  0.15172186678E+04  0.12699999809E+01 0. -1.
       -4    1    3    3    0  502 -0.69558833061E+03  0.13416861666E+04 -0.91120240077E+03  0.17647255660E+04  0.12699999809E+01 0.  1.
</event>
<event>
 5   0  0.2891204E-07  0.3200382E+04  0.7818609E-02  0.8188716E-01
       -1   -1    0    0    0  501  0.00000000000E+00  0.00000000000E+00  0.18210106597E+04  0.18210106597E+04  0.50400001928E-02 0. -1.
        1   -1    0    0  501    0  0.00000000000E+00  0.00000000000E+00 -0.14061481925E+04  0.14061481925E+04  0.50400001928E-02 0.  1.
    10030    2    1    2    0    0  0.00000000000E+00  0.00000000000E+00  0.41486246724E+03  0.32271588522E+04  0.32003817570E+04 0.  0.
        4    1    3    3  502    0 -0.96627457333E+03 -0.12291096554E+04  0.55118249779E+03  0.16577698438E+04  0.12699999809E+01 0. -1.
       -4    1    3    3    0  502  0.96627457333E+03  0.12291096554E+04 -0.13632003055E+03  0.15693890084E+04  0.12699999809E+01 0.  1.
</event>
<event>
 5   0  0.2997105E-07  0.3190700E+04  0.7818609E-02  0.8191278E-01
        1   -1    0    0  501    0  0.00000000000E+00  0.00000000000E+00  0.19685585345E+04  0.19685585345E+04  0.50400001928E-02 0.  1.
       -1   -1    0    0    0  501  0.00000000000E+00  0.00000000000E+00 -0.12928962809E+04  0.12928962809E+04  0.50400001928E-02 0. -1.
    10030    2    1    2    0    0  0.00000000000E+00  0.00000000000E+00  0.67566225364E+03  0.32614548154E+04  0.31907002416E+04 0.  0.
        3    1    3    3  502    0 -0.70485874115E+03 -0.14283679399E+04  0.42971996945E+03  0.16497636434E+04  0.10100000352E+00 0.  1.
       -3    1    3    3    0  502  0.70485874115E+03  0.14283679399E+04  0.24594228419E+03  0.16116911720E+04  0.10100000352E+00 0. -1.
</event>
<event>
 5   0  0.8195618E-07  0.3197071E+04  0.7818609E-02  0.8189591E-01
       -2   -1    0    0    0  501  0.00000000000E+00  0.00000000000E+00  0.87387512184E+03  0.87387512185E+03  0.25500000920E-02 0. -1.
        2   -1    0    0  501    0  0.00000000000E+00  0.00000000000E+00 -0.29241193019E+04  0.29241193019E+04  0.25500000920E-02 0.  1.
    10030    2    1    2    0    0  0.00000000000E+00  0.00000000000E+00 -0.20502441801E+04  0.37979944238E+04  0.31970706037E+04 0.  0.
        1    1    3    3  502    0 -0.59730009623E+02  0.15083643312E+04 -0.40035808515E+03  0.15617353252E+04  0.50400001928E-02 0. -1.
       -1    1    3    3    0  502  0.59730009623E+02 -0.15083643312E+04 -0.16498860949E+04  0.22362590985E+04  0.50400001928E-02 0.  1.
</event>
<event>
 5   0  0.2783875E-07  0.3203816E+04  0.7818609E-02  0.8187810E-01
       -1   -1    0    0    0  501  0.00000000000E+00  0.00000000000E+00  0.16568517120E+04  0.16568517120E+04  0.50400001928E-02 0.  1.
        1   -1    0    0  501    0  0.00000000000E+00  0.00000000000E+00 -0.15487859176E+04  0.15487859176E+04  0.50400001928E-02 0. -1.
    10030    2    1    2    0    0  0.00000000000E+00  0.00000000000E+00  0.10806579440E+03  0.32056376297E+04  0.32038155997E+04 0.  0.
        2    1    3    3  502    0 -0.79500256327E+03  0.69684296173E+03 -0.11501836152E+04  0.15622232675E+04  0.25500000920E-02 0. -1.
       -2    1    3    3    0  502  0.79500256327E+03 -0.69684296173E+03  0.12582494096E+04  0.16434143621E+04  0.25500000920E-02 0.  1.
</event>
<event>
 5   0  0.8195618E-07  0.3185049E+04  0.7818609E-02  0.8192777E-01
        2   -1    0    0  501    0  0.00000000000E+00  0.00000000000E+00  0.16873128297E+04  0.16873128297E+04  0.25500000920E-02 0.  1.
       -2   -1    0    0    0  501  0.00000000000E+00  0.00000000000E+00 -0.15030612008E+04  0.15030612008E+04  0.25500000920E-02 0. -1.
    10030    2    1    2    0    0  0.00000000000E+00  0.00000000000E+00  0.18425162885E+03  0.31903740305E+04  0.31850491035E+04 0.  0.
        1    1    3    3  502    0  0.79283024785E+02 -0.10257337281E+04  0.13097727874E+04  0.16655090013E+04  0.50400001928E-02 0.  1.
       -1    1    3    3    0  502 -0.79283024785E+02  0.10257337281E+04 -0.11255211585E+04  0.15248650292E+04  0.50400001928E-02 0. -1.
</event>
<event>
 5   0  0.8488469E-07  0.3197841E+04  0.7818609E-02  0.8189388E-01
        2   -1    0    0  501    0  0.00000000000E+00  0.00000000000E+00  0.15291498797E+04  0.15291498797E+04  0.25500000920E-02 0. -1.
       -2   -1    0    0    0  501  0.00000000000E+00  0.00000000000E+00 -0.16718741507E+04  0.16718741507E+04  0.25500000920E-02 0.  1.
    10030    2    1    2    0    0  0.00000000000E+00  0.00000000000E+00 -0.14272427096E+03  0.32010240304E+04  0.31978406192E+04 0.  0.
        3    1    3    3  502    0  0.14041084734E+04 -0.28330874085E+03  0.63981095668E+03  0.15688028933E+04  0.10100000352E+00 0.  1.
       -3    1    3    3    0  502 -0.14041084734E+04  0.28330874085E+03 -0.78253522763E+03  0.16322211371E+04  0.10100000352E+00 0. -1.
</event>
<event>
 5   0  0.3013888E-07  0.3267431E+04  0.7818609E-02  0.8171232E-01
       -1   -1    0    0    0  501  0.00000000000E+00  0.00000000000E+00  0.15069543670E+04  0.15069543670E+04  0.50400001928E-02 0.  1.
        1   -1    0    0  501    0  0.00000000000E+00  0.00000000000E+00 -0.17711396279E+04  0.17711396279E+04  0.50400001928E-02 0. -1.
    10030    2    1    2    0    0  0.00000000000E+00  0.00000000000E+00 -0.26418526087E+03  0.32780939949E+04  0.32674311603E+04 0.  0.
        1    1    3    3  502    0 -0.93713968569E+03  0.13327088736E+04 -0.25366093307E+03  0.16488443229E+04  0.50400001928E-02 0. -1.
       -1    1    3    3    0  502  0.93713968569E+03 -0.13327088736E+04 -0.10524327802E+02  0.16292496720E+04  0.50400001928E-02 0.  1.
</event>
<event>
 5   0  0.3013888E-07  0.3189849E+04  0.7818609E-02  0.8191503E-01
       -1   -1    0    0    0  501  0.00000000000E+00  0.00000000000E+00  0.19592738269E+04  0.19592738269E+04  0.50400001928E-02 0.  1.
        1   -1    0    0  501    0  0.00000000000E+00  0.00000000000E+00 -0.12983303590E+04  0.12983303590E+04  0.50400001928E-02 0. -1.
    10030    2    1    2    0    0  0.00000000000E+00  0.00000000000E+00  0.66094346789E+03  0.32576041859E+04  0.31898493325E+04 0.  0.
        1    1    3    3  502    0  0.14790280310E+03 -0.89845040900E+03  0.16677498919E+04  0.19001258060E+04  0.50400001928E-02 0.  1.
       -1    1    3    3    0  502 -0.14790280310E+03  0.89845040900E+03 -0.10068064240E+04  0.13574783799E+04  0.50400001928E-02 0. -1.
</event>
<event>
 5   0  0.8195618E-07  0.3197719E+04  0.7818609E-02  0.8189420E-01
       -2   -1    0    0    0  501  0.00000000000E+00  0.00000000000E+00  0.17441878215E+04  0.17441878215E+04  0.25500000920E-02 0.  1.
        2   -1    0    0  501    0  0.00000000000E+00  0.00000000000E+00 -0.14656401350E+04  0.14656401350E+04  0.25500000920E-02 0. -1.
    10030    2    1    2    0    0  0.00000000000E+00  0.00000000000E+00  0.27854768644E+03  0.32098279565E+04  0.31977189834E+04 0.  0.
        1    1    3    3  502    0 -0.10689935694E+04 -0.56072968245E+02 -0.10528514020E+04  0.15014617891E+04  0.50400001928E-02 0.  1.
       -1    1    3    3    0  502  0.10689935694E+04  0.56072968245E+02  0.13313990885E+04  0.17083661675E+04  0.50400001928E-02 0. -1.
</event>
<event>
 5   0  0.2783875E-07  0.3197997E+04  0.7818609E-02  0.8189346E-01
       -1   -1    0    0    0  501  0.00000000000E+00  0.00000000000E+00  0.10463454718E+04  0.10463454718E+04  0.50400001928E-02 0.  1.
        1   -1    0    0  501    0  0.00000000000E+00  0.00000000000E+00 -0.24435490552E+04  0.24435490552E+04  0.50400001928E-02 0. -1.
    10030    2    1    2    0    0  0.00000000000E+00  0.00000000000E+00 -0.13972035834E+04  0.34898945270E+04  0.31979971789E+04 0.  0.
        2    1    3    3  502    0 -0.22293984519E+03 -0.79613837043E+03  0.79499380484E+03  0.11469758625E+04  0.25500000920E-02 0.  1.
       -2    1    3    3    0  502  0.22293984519E+03  0.79613837043E+03 -0.21921973882E+04  0.23429186645E+04  0.25500000920E-02 0. -1.
</event>
<event>
 5   0  0.3013888E-07  0.3198833E+04  0.7818609E-02  0.8189126E-01
       -1   -1    0    0    0  501  0.00000000000E+00  0.00000000000E+00  0.84591419944E+03  0.84591419946E+03  0.50400001928E-02 0.  1.
        1   -1    0    0  501    0  0.00000000000E+00  0.00000000000E+00 -0.30241043065E+04  0.30241043065E+04  0.50400001928E-02 0. -1.
    10030    2    1    2    0    0  0.00000000000E+00  0.00000000000E+00 -0.21781901071E+04  0.38700185060E+04  0.31988327706E+04 0.  0.
        1    1    3    3  502    0  0.16648499684E+03 -0.10574371773E+04  0.34863081758E+03  0.11258037507E+04  0.50400001928E-02 0.  1.
       -1    1    3    3    0  502 -0.16648499684E+03  0.10574371773E+04 -0.25268209247E+04  0.27442147553E+04  0.50400001928E-02 0. -1.
</event>
<event>
 5   0  0.8488469E-07  0.3209340E+04  0.7818609E-02  0.8186355E-01
       -2   -1    0    0    0  501  0.00000000000E+00  0.00000000000E+00  0.13555859627E+04  0.13555859627E+04  0.25500000920E-02 0.  1.
        2   -1    0    0  501    0  0.00000000000E+00  0.00000000000E+00 -0.18995220218E+04  0.18995220218E+04  0.25500000920E-02 0. -1.
    10030    2    1    2    0    0  0.00000000000E+00  0.00000000000E+00 -0.54393605905E+03  0.32551079845E+04  0.32093397381E+04 0.  0.
        3    1    3    3  502    0 -0.11522059401E+04  0.19931504868E+03 -0.13865759188E+04  0.18138075438E+04  0.10100000352E+00 0. -1.
       -3    1    3    3    0  502  0.11522059401E+04 -0.19931504868E+03  0.84263985974E+03  0.14413004408E+04  0.10100000352E+00 0.  1.
</event>
<event>
 5   0  0.2891204E-07  0.3220689E+04  0.7818609E-02  0.8183375E-01
       -1   -1    0    0    0  501  0.00000000000E+00  0.00000000000E+00  0.15658192653E+04  0.15658192653E+04  0.50400001928E-02 0. -1.
        1   -1    0    0  501    0  0.00000000000E+00  0.00000000000E+00 -0.16561356391E+04  0.16561356391E+04  0.50400001928E-02 0.  1.
    10030    2    1    2    0    0  0.00000000000E+00  0.00000000000E+00 -0.90316373785E+02  0.32219549043E+04  0.32206888018E+04 0.  0.
        4    1    3    3  502    0  0.58480113573E+03  0.65018844098E+03  0.13075827276E+04  0.15730580344E+04  0.12699999809E+01 0. -1.
       -4    1    3    3    0  502 -0.58480113573E+03 -0.65018844098E+03 -0.13978991014E+04  0.16488968699E+04  0.12699999809E+01 0.  1.
</event>
<event>
 5   0  0.2891204E-07  0.3173300E+04  0.7818609E-02  0.8195904E-01
        1   -1    0    0  501    0  0.00000000000E+00  0.00000000000E+00  0.12907898075E+04  0.12907898075E+04  0.50400001928E-02 0. -1.
       -1   -1    0    0    0  501  0.00000000000E+00  0.00000000000E+00 -0.19503234406E+04  0.19503234406E+04  0.50400001928E-02 0.  1.
    10030    2    1    2    0    0  0.00000000000E+00  0.00000000000E+00 -0.65953363312E+03  0.32411132482E+04  0.31732996193E+04 0.  0.
        4    1    3    3  502    0 -0.75672671954E+03  0.11442794601E+04  0.48441645759E+03  0.14548785957E+04  0.12699999809E+01 0. -1.
       -4    1    3    3    0  502  0.75672671954E+03 -0.11442794601E+04 -0.11439500907E+04  0.17862346525E+04  0.12699999809E+01 0.  1.
</event>
<event>
 5   0  0.2891204E-07  0.3234052E+04  0.7818609E-02  0.8179882E-01
       -1   -1    0    0    0  501  0.00000000000E+00  0.00000000000E+00  0.25581967753E+04  0.25581967753E+04  0.50400001928E-02 0.  1.
        1   -1    0    0  501    0  0.00000000000E+00  0.00000000000E+00 -0.10221158636E+04  0.10221158636E+04  0.50400001928E-02 0. -1.
    10030    2    1    2    0    0  0.00000000000E+00  0.00000000000E+00  0.15360809117E+04  0.35803126389E+04  0.32340522607E+04 0.  0.
        4    1    3    3  502    0 -0.41409490519E+03  0.18432042649E+03 -0.95034843670E+03  0.10529066313E+04  0.12699999809E+01 0. -1.
       -4    1    3    3    0  502  0.41409490519E+03 -0.18432042649E+03  0.24864293484E+04  0.25274060077E+04  0.12699999809E+01 0.  1.
</event>
<event>
 5   0  0.8838951E-07  0.3196098E+04  0.7818609E-02  0.8189849E-01
        2   -1    0    0  501    0  0.00000000000E+00  0.00000000000E+00  0.14354044389E+04  0.14354044389E+04  0.25500000920E-02 0. -1.
       -2   -1    0    0    0  501  0.00000000000E+00  0.00000000000E+00 -0.17791221478E+04  0.17791221478E+04  0.25500000920E-02 0.  1.
    10030    2    1    2    0    0  0.00000000000E+00  0.00000000000E+00 -0.34371770886E+03  0.32145265866E+04  0.31960975130E+04 0.  0.
        2    1    3    3  502    0  0.12703521641E+04  0.52887400497E+03  0.64538877704E+03  0.15198779581E+04  0.25500000920E-02 0. -1.
       -2    1    3    3    0  502 -0.12703521641E+04 -0.52887400497E+03 -0.98910648590E+03  0.16946486286E+04  0.25500000920E-02 0.  1.
</event>
<event>
 5   0  0.8335929E-07  0.3201887E+04  0.7818609E-02  0.8188319E-01
       -2   -1    0    0    0  501  0.00000000000E+00  0.00000000000E+00  0.13258934015E+04  0.13258934015E+04  0.25500000920E-02 0. -1.
        2   -1    0    0  501    0  0.00000000000E+00  0.00000000000E+00 -0.19330512664E+04  0.19330512664E+04  0.25500000920E-02 0.  1.
    10030    2    1    2    0    0  0.00000000000E+00  0.00000000000E+00 -0.60715786482E+03  0.32589446679E+04  0.32018868930E+04 0.  0.
        4    1    3    3  502    0 -0.11728564567E+04  0.30471879847E+03 -0.13684407752E+04  0.18278614779E+04  0.12699999809E+01 0.  1.
       -4    1    3    3    0  502  0.11728564567E+04 -0.30471879847E+03  0.76128291041E+03  0.14310831900E+04  0.12699999809E+01 0. -1.
</event>
<event>
 5   0  0.8488469E-07  0.3188554E+04  0.7818609E-02  0.8191847E-01
        2   -1    0    0  501    0  0.00000000000E+00  0.00000000000E+00  0.18188333723E+04  0.18188333724E+04  0.25500000920E-02 0.  1.
       -2   -1    0    0    0  501  0.00000000000E+00  0.00000000000E+00 -0.13974445987E+04  0.13974445987E+04  0.25500000920E-02 0. -1.
    10030    2    1    2    0    0  0.00000000000E+00  0.00000000000E+00  0.42138877369E+03  0.32162779710E+04  0.31885538239E+04 0.  0.
        3    1    3    3  502    0  0.47094281378E+03  0.14252787690E+04  0.75249798358E+03  0.16791247508E+04  0.10100000352E+00 0.  1.
       -3    1    3    3    0  502 -0.47094281378E+03 -0.14252787690E+04 -0.33110920989E+03  0.15371532202E+04  0.10100000352E+00 0. -1.
</event>
<event>
 5   0  0.2997105E-07  0.3193082E+04  0.7818609E-02  0.8190647E-01
        1   -1    0    0  501    0  0.00000000000E+00  0.00000000000E+00  0.17888947478E+04  0.17888947478E+04  0.50400001928E-02 0. -1.
       -1   -1    0    0    0  501  0.00000000000E+00  0.00000000000E+00 -0.14248702682E+04  0.14248702682E+04  0.50400001928E-02 0.  1.
    10030    2    1    2    0    0  0.00000000000E+00  0.00000000000E+00  0.36402447960E+03  0.32137650160E+04  0.31930818587E+04 0.  0.
        3    1    3    3  502    0  0.13449359152E+04  0.46223705571E+03 -0.54824056547E+03  0.15241664737E+04  0.10100000352E+00 0.  1.
       -3    1    3    3    0  502 -0.13449359152E+04 -0.46223705571E+03  0.91226504507E+03  0.16895985423E+04  0.10100000352E+00 0. -1.
</event>
<event>
 5   0  0.8488469E-07  0.3204676E+04  0.7818609E-02  0.8187583E-01
        2   -1    0    0  501    0  0.00000000000E+00  0.00000000000E+00  0.13476727602E+04  0.13476727602E+04  0.25500000920E-02 0.  1.
       -2   -1    0    0    0  501  0.00000000000E+00  0.00000000000E+00 -0.19051270033E+04  0.19051270033E+04  0.25500000920E-02 0. -1.
    10030    2    1    2    0    0  0.00000000000E+00  0.00000000000E+00 -0.55745424305E+03  0.32527997635E+04  0.32046764373E+04 0.  0.
        3    1    3    3  502    0 -0.24000549467E+03  0.13742472182E+04  0.52135432643E+03  0.14892845256E+04  0.10100000352E+00 0.  1.
       -3    1    3    3    0  502  0.24000549467E+03 -0.13742472182E+04 -0.10788085695E+04  0.17635152378E+04  0.10100000352E+00 0. -1.
</event>
<event>
 5   0  0.8838951E-07  0.3138037E+04  0.7818609E-02  0.8205376E-01
        2   -1    0    0  501    0  0.00000000000E+00  0.00000000000E+00  0.11571992444E+04  0.11571992444E+04  0.25500000920E-02 0. -1.
       -2   -1    0    0    0  501  0.00000000000E+00  0.00000000000E+00 -0.21273942985E+04  0.21273942985E+04  0.25500000920E-02 0.  1.
    10030    2    1    2    0    0  0.00000000000E+00  0.00000000000E+00 -0.97019505409E+03  0.32845935428E+04  0.31380370136E+04 0.  0.
        2    1    3    3  502    0 -0.69231002753E+02 -0.77092511639E+03 -0.19136463940E+04  0.20642579752E+04  0.25500000920E-02 0.  1.
       -2    1    3    3    0  502  0.69231002753E+02  0.77092511639E+03  0.94345133992E+03  0.12203355676E+04  0.25500000920E-02 0. -1.
</event>
<event>
 5   0  0.2997105E-07  0.3208091E+04  0.7818609E-02  0.8186684E-01
       -1   -1    0    0    0  501  0.00000000000E+00  0.00000000000E+00  0.13066767223E+04  0.13066767223E+04  0.50400001928E-02 0.  1.
        1   -1    0    0  501    0  0.00000000000E+00  0.00000000000E+00 -0.19690881005E+04  0.19690881005E+04  0.50400001928E-02 0. -1.
    10030    2    1    2    0    0  0.00000000000E+00  0.00000000000E+00 -0.66241137827E+03  0.32757648228E+04  0.32080907625E+04 0.  0.
        3    1    3    3  502    0  0.89035508169E+02  0.79442603265E+03 -0.17511963645E+04  0.19250269505E+04  0.10100000352E+00 0. -1.
       -3    1    3    3    0  502 -0.89035508169E+02 -0.79442603265E+03  0.10887849862E+04  0.13507378722E+04  0.10100000352E+00 0.  1.
</event>
<event>
 5   0  0.8802800E-07  0.3198652E+04  0.7818609E-02  0.8189173E-01
       -2   -1    0    0    0  501  0.00000000000E+00  0.00000000000E+00  0.15218993555E+04  0.15218993555E+04  0.25500000920E-02 0. -1.
        2   -1    0    0  501    0  0.00000000000E+00  0.00000000000E+00 -0.16806915971E+04  0.16806915971E+04  0.25500000920E-02 0.  1.
    10030    2    1    2    0    0  0.00000000000E+00  0.00000000000E+00 -0.15879224160E+03  0.32025909527E+04  0.31986518776E+04 0.  0.
        5    1    3    3  502    0  0.12034197936E+04 -0.55512893774E+03  0.81693481491E+03  0.15568532105E+04  0.46999998093E+01 0. -1.
       -5    1    3    3    0  502 -0.12034197936E+04  0.55512893774E+03 -0.97572705650E+03  0.16457377422E+04  0.46999998093E+01 0.  1.
</event>
<event>
 5   0  0.2783875E-07  0.3346291E+04  0.7818609E-02  0.8151215E-01
       -3   -1    0    0    0  501  0.00000000000E+00  0.00000000000E+00  0.17192774200E+04  0.17192774230E+04  0.10100000352E+00 0. -1.
        3   -1    0    0  501    0  0.00000000000E+00  0.00000000000E+00 -0.16282515946E+04  0.16282515977E+04  0.10100000352E+00 0.  1.
    10030    2    1    2    0    0  0.00000000000E+00  0.00000000000E+00  0.91025825470E+02  0.33475290207E+04  0.33462912072E+04 0.  0.
        2    1    3    3  502    0 -0.37657282119E+03 -0.16221148188E+04  0.20790791089E+03  0.16781803462E+04  0.25500000920E-02 0.  1.
       -2    1    3    3    0  502  0.37657282119E+03  0.16221148188E+04 -0.11688208542E+03  0.16693486745E+04  0.25500000920E-02 0. -1.
</event>
<event>
 5   0  0.8802800E-07  0.3210594E+04  0.7818609E-02  0.8186025E-01
        2   -1    0    0  501    0  0.00000000000E+00  0.00000000000E+00  0.92570255009E+03  0.92570255009E+03  0.25500000920E-02 0.  1.
       -2   -1    0    0    0  501  0.00000000000E+00  0.00000000000E+00 -0.27838084679E+04  0.27838084679E+04  0.25500000920E-02 0. -1.
    10030    2    1    2    0    0  0.00000000000E+00  0.00000000000E+00 -0.18581059179E+04  0.37095110180E+04  0.32105940869E+04 0.  0.
        5    1    3    3  502    0 -0.13820844112E+04  0.22910375074E+02  0.14047151247E+02  0.13823536514E+04  0.46999998093E+01 0.  1.
       -5    1    3    3    0  502  0.13820844112E+04 -0.22910375074E+02 -0.18721530691E+04  0.23271573667E+04  0.46999998093E+01 0. -1.
</event>
<event>
 5   0  0.8195618E-07  0.3199441E+04  0.7818609E-02  0.8188965E-01
       -2   -1    0    0    0  501  0.00000000000E+00  0.00000000000E+00  0.12851452400E+04  0.12851452400E+04  0.25500000920E-02 0. -1.
        2   -1    0    0  501    0  0.00000000000E+00  0.00000000000E+00 -0.19912965344E+04  0.19912965344E+04  0.25500000920E-02 0.  1.
    10030    2    1    2    0    0  0.00000000000E+00  0.00000000000E+00 -0.70615129441E+03  0.32764417744E+04  0.31994407402E+04 0.  0.
        1    1    3    3  502    0  0.56797407665E+03 -0.76408162982E+03  0.96343410367E+03  0.13544816577E+04  0.50400001928E-02 0. -1.
       -1    1    3    3    0  502 -0.56797407665E+03  0.76408162982E+03 -0.16695853981E+04  0.19219601167E+04  0.50400001928E-02 0.  1.
</event>
<event>
 5   0  0.8335929E-07  0.3201675E+04  0.7818609E-02  0.8188375E-01
       -2   -1    0    0    0  501  0.00000000000E+00  0.00000000000E+00  0.18363314771E+04  0.18363314771E+04  0.25500000920E-02 0. -1.
        2   -1    0    0  501    0  0.00000000000E+00  0.00000000000E+00 -0.13955432462E+04  0.13955432462E+04  0.25500000920E-02 0.  1.
    10030    2    1    2    0    0  0.00000000000E+00  0.00000000000E+00  0.44078823092E+03  0.32318747232E+04  0.32016745559E+04 0.  0.
        4    1    3    3  502    0 -0.85315077774E+03  0.10608332016E+04  0.10706246810E+04  0.17318984241E+04  0.12699999809E+01 0.  1.
       -4    1    3    3    0  502  0.85315077774E+03 -0.10608332016E+04 -0.62983645006E+03  0.14999762991E+04  0.12699999809E+01 0. -1.
</event>
<event>
 5   0  0.2997105E-07  0.3175414E+04  0.7818609E-02  0.8195341E-01
       -1   -1    0    0    0  501  0.00000000000E+00  0.00000000000E+00  0.12680694685E+04  0.12680694685E+04  0.50400001928E-02 0.  1.
        1   -1    0    0  501    0  0.00000000000E+00  0.00000000000E+00 -0.19879144247E+04  0.19879144247E+04  0.50400001928E-02 0. -1.
    10030    2    1    2    0    0  0.00000000000E+00  0.00000000000E+00 -0.71984495619E+03  0.32559838932E+04  0.31754140442E+04 0.  0.
        3    1    3    3  502    0 -0.10563892244E+04 -0.96111169922E+03 -0.10711498303E+04  0.17852327190E+04  0.10100000352E+00 0. -1.
       -3    1    3    3    0  502  0.10563892244E+04  0.96111169922E+03  0.35130487410E+03  0.14707511742E+04  0.10100000352E+00 0.  1.
</event>
<event>
 5   0  0.2891204E-07  0.3215255E+04  0.7818609E-02  0.8184800E-01
        1   -1    0    0  501    0  0.00000000000E+00  0.00000000000E+00  0.23621487654E+04  0.23621487654E+04  0.50400001928E-02 0. -1.
       -1   -1    0    0    0  501  0.00000000000E+00  0.00000000000E+00 -0.10941167614E+04  0.10941167614E+04  0.50400001928E-02 0.  1.
    10030    2    1    2    0    0  0.00000000000E+00  0.00000000000E+00  0.12680320040E+04  0.34562655268E+04  0.32152552353E+04 0.  0.
        4    1    3    3  502    0  0.89321096274E+03  0.85965995111E+03  0.17342735132E+04  0.21317943820E+04  0.12699999809E+01 0. -1.
       -4    1    3    3    0  502 -0.89321096274E+03 -0.85965995111E+03 -0.46624150923E+03  0.13244711448E+04  0.12699999809E+01 0.  1.
</event>
<event>
 5   0  0.8195618E-07  0.3185600E+04  0.7818609E-02  0.8192630E-01
       -2   -1    0    0    0  501  0.00000000000E+00  0.00000000000E+00  0.10258604209E+04  0.10258604209E+04  0.25500000920E-02 0. -1.
        2   -1    0    0  501    0  0.00000000000E+00  0.00000000000E+00 -0.24730579054E+04  0.24730579054E+04  0.25500000920E-02 0.  1.
    10030    2    1    2    0    0  0.00000000000E+00  0.00000000000E+00 -0.14471974845E+04  0.34989183263E+04  0.31856002409E+04 0.  0.
        1    1    3    3  502    0  0.87871016992E+03 -0.11299558333E+04 -0.14909394657E+04  0.20668411256E+04  0.50400001928E-02 0.  1.
       -1    1    3    3    0  502 -0.87871016992E+03  0.11299558333E+04  0.43741981187E+02  0.14320772007E+04  0.50400001928E-02 0. -1.
</event>
<event>
 5   0  0.3013888E-07  0.3178450E+04  0.7818609E-02  0.8194532E-01
       -1   -1    0    0    0  501  0.00000000000E+00  0.00000000000E+00  0.13625472206E+04  0.13625472206E+04  0.50400001928E-02 0. -1.
        1   -1    0    0  501    0  0.00000000000E+00  0.00000000000E+00 -0.18536137172E+04  0.18536137173E+04  0.50400001928E-02 0.  1.
    10030    2    1    2    0    0  0.00000000000E+00  0.00000000000E+00 -0.49106649661E+03  0.32161609379E+04  0.31784500742E+04 0.  0.
        1    1    3    3  502    0  0.42544431194E+03  0.15248833864E+04 -0.10472760138E+03  0.15865812539E+04  0.50400001928E-02 0. -1.
       -1    1    3    3    0  502 -0.42544431194E+03 -0.15248833864E+04 -0.38633889523E+03  0.16295796840E+04  0.50400001928E-02 0.  1.
</event>
<event>
 5   0  0.8335929E-07  0.3173926E+04  0.7818609E-02  0.8195737E-01
       -2   -1    0    0    0  501  0.00000000000E+00  0.00000000000E+00  0.14922171825E+04  0.14922171825E+04  0.25500000920E-02 0.  1.
        2   -1    0    0  501    0  0.00000000000E+00  0.00000000000E+00 -0.16877248008E+04  0.16877248008E+04  0.25500000920E-02 0. -1.
    10030    2    1    2    0    0  0.00000000000E+00  0.00000000000E+00 -0.19550761824E+03  0.31799419833E+04  0.31739262418E+04 0.  0.
        4    1    3    3  502    0 -0.97947411229E+03 -0.68075965629E+03 -0.11464693670E+04  0.16544476022E+04  0.12699999809E+01 0. -1.
       -4    1    3    3    0  502  0.97947411229E+03  0.68075965629E+03  0.95096174872E+03  0.15254943811E+04  0.12699999809E+01 0.  1.
</event>
<event>
 5   0  0.8488469E-07  0.3216865E+04  0.7818609E-02  0.8184377E-01
       -2   -1    0    0    0  501  0.00000000000E+00  0.00000000000E+00  0.13856417626E+04  0.13856417626E+04  0.25500000920E-02 0. -1.
        2   -1    0    0  501    0  0.00000000000E+00  0.00000000000E+00 -0.18670448113E+04  0.18670448113E+04  0.25500000920E-02 0.  1.
    10030    2    1    2    0    0  0.00000000000E+00  0.00000000000E+00 -0.48140304863E+03  0.32526865739E+04  0.32168650971E+04 0.  0.
        3    1    3    3  502    0 -0.12364726003E+04  0.99685822205E+03 -0.49742731423E+03  0.16643391329E+04  0.10100000352E+00 0. -1.
       -3    1    3    3    0  502  0.12364726003E+04 -0.99685822205E+03  0.16024265602E+02  0.15883474410E+04  0.10100000352E+00 0.  1.
</event>
<event>
 5   0  0.8802800E-07  0.3254484E+04  0.7818609E-02  0.8174575E-01
        2   -1    0    0  501    0  0.00000000000E+00  0.00000000000E+00  0.25007565065E+04  0.25007565065E+04  0.25500000920E-02 0.  1.
       -2   -1    0    0    0  501  0.00000000000E+00  0.00000000000E+00 -0.10588459792E+04  0.10588459792E+04  0.25500000920E-02 0. -1.
    10030    2    1    2    0    0  0.00000000000E+00  0.00000000000E+00  0.14419105272E+04  0.35596024857E+04  0.32544836591E+04 0.  0.
        5    1    3    3  502    0  0.10724045285E+04  0.83039144961E+03 -0.26238464907E+03  0.13814735707E+04  0.46999998093E+01 0. -1.
       -5    1    3    3    0  502 -0.10724045285E+04 -0.83039144961E+03  0.17042951763E+04  0.21781289150E+04  0.46999998093E+01 0.  1.
</event>
<event>
 5   0  0.2891204E-07  0.3151298E+04  0.7818609E-02  0.8201799E-01
        1   -1    0    0  501    0  0.00000000000E+00  0.00000000000E+00  0.14652219544E+04  0.14652219544E+04  0.50400001928E-02 0. -1.
       -1   -1    0    0    0  501  0.00000000000E+00  0.00000000000E+00 -0.16943984503E+04  0.16943984503E+04  0.50400001928E-02 0.  1.
    10030    2    1    2    0    0  0.00000000000E+00  0.00000000000E+00 -0.22917649589E+03  0.31596204047E+04  0.31512980239E+04 0.  0.
        4    1    3    3  502    0  0.30389543831E+03  0.13271485430E+04 -0.90977322633E+03  0.16374872912E+04  0.12699999809E+01 0.  1.
       -4    1    3    3    0  502 -0.30389543831E+03 -0.13271485430E+04  0.68059673045E+03  0.15221331135E+04  0.12699999809E+01 0. -1.
</event>
<event>
 5   0  0.2891204E-07  0.3196119E+04  0.7818609E-02  0.8189843E-01
        1   -1    0    0  501    0  0.00000000000E+00  0.00000000000E+00  0.25007155107E+04  0.25007155107E+04  0.50400001928E-02 0.  1.
       -1   -1    0    0    0  501  0.00000000000E+00  0.00000000000E+00 -0.10212254415E+04  0.10212254415E+04  0.50400001928E-02 0. -1.
    10030    2    1    2    0    0  0.00000000000E+00  0.00000000000E+00  0.14794900692E+04  0.35219409522E+04  0.31961190851E+04 0.  0.
        4    1    3    3  502    0  0.19861970084E+03 -0.15849673420E+04  0.79168183957E+03  0.17827879876E+04  0.12699999809E+01 0. -1.
       -4    1    3    3    0  502 -0.19861970084E+03  0.15849673420E+04  0.68780822967E+03  0.17391529646E+04  0.12699999809E+01 0.  1.
</event>
<event>
 5   0  0.3013888E-07  0.3187474E+04  0.7818609E-02  0.8192133E-01
       -1   -1    0    0    0  501  0.00000000000E+00  0.00000000000E+00  0.94831999931E+03  0.94831999933E+03  0.50400001928E-02 0.  1.
        1   -1    0    0  501    0  0.00000000000E+00  0.00000000000E+00 -0.26784183596E+04  0.26784183596E+04  0.50400001928E-02 0. -1.
    10030    2    1    2    0    0  0.00000000000E+00  0.00000000000E+00 -0.17300983603E+04  0.36267383589E+04  0.31874740450E+04 0.  0.
        1    1    3    3  502    0  0.10525581672E+04 -0.39749843187E+03  0.41927219976E+03  0.12006968294E+04  0.50400001928E-02 0.  1.
       -1    1    3    3    0  502 -0.10525581672E+04  0.39749843187E+03 -0.21493705600E+04  0.24260415295E+04  0.50400001928E-02 0. -1.
</event>
<event>
 5   0  0.8802800E-07  0.3301742E+04  0.7818609E-02  0.8162452E-01
       -2   -1    0    0    0  501  0.00000000000E+00  0.00000000000E+00  0.25866738655E+04  0.25866738655E+04  0.25500000920E-02 0. -1.
        2   -1    0    0  501    0  0.00000000000E+00  0.00000000000E+00 -0.10536212341E+04  0.10536212341E+04  0.25500000920E-02 0.  1.
    10030    2    1    2    0    0  0.00000000000E+00  0.00000000000E+00  0.15330526313E+04  0.36402950996E+04  0.33017416679E+04 0.  0.
        5    1    3    3  502    0 -0.15505433928E+04  0.56470459443E+03  0.81912937296E+03  0.18423004943E+04  0.46999998093E+01 0.  1.
       -5    1    3    3    0  502  0.15505433928E+04 -0.56470459443E+03  0.71392325836E+03  0.17979946053E+04  0.46999998093E+01 0. -1.
</event>
<event>
 5   0  0.8335929E-07  0.3199779E+04  0.7818609E-02  0.8188875E-01
       -2   -1    0    0    0  501  0.00000000000E+00  0.00000000000E+00  0.12267506202E+04  0.12267506202E+04  0.25500000920E-02 0. -1.
        2   -1    0    0  501    0  0.00000000000E+00  0.00000000000E+00 -0.20865260666E+04  0.20865260666E+04  0.25500000920E-02 0.  1.
    10030    2    1    2    0    0  0.00000000000E+00  0.00000000000E+00 -0.85977544639E+03  0.33132766868E+04  0.31997794588E+04 0.  0.
        4    1    3    3  502    0 -0.87820521511E+03  0.12736897792E+04 -0.85191712758E+03  0.17661524449E+04  0.12699999809E+01 0. -1.
       -4    1    3    3    0  502  0.87820521511E+03 -0.12736897792E+04 -0.78583188017E+01  0.15471242418E+04  0.12699999809E+01 0.  1.
</event>
<event>
 5   0  0.8195618E-07  0.3205126E+04  0.7818609E-02  0.8187465E-01
       -2   -1    0    0    0  501  0.00000000000E+00  0.00000000000E+00  0.18632390146E+04  0.18632390146E+04  0.25500000920E-02 0.  1.
        2   -1    0    0  501    0  0.00000000000E+00  0.00000000000E+00 -0.13783571748E+04  0.13783571748E+04  0.25500000920E-02 0. -1.
    10030    2    1    2    0    0  0.00000000000E+00  0.00000000000E+00  0.48488183981E+03  0.32415961895E+04  0.32051264339E+04 0.  0.
        1    1    3    3  502    0  0.13837304971E+04 -0.80460317257E+03  0.16336877036E+03  0.16089703879E+04  0.50400001928E-02 0. -1.
       -1    1    3    3    0  502 -0.13837304971E+04  0.80460317257E+03  0.32151306945E+03  0.16326258015E+04  0.50400001928E-02 0.  1.
</event>
<event>
 5   0  0.8195618E-07  0.3200694E+04  0.7818609E-02  0.8188634E-01
        2   -1    0    0  501    0  0.00000000000E+00  0.00000000000E+00  0.24771675201E+04  0.24771675201E+04  0.25500000920E-02 0.  1.
       -2   -1    0    0    0  501  0.00000000000E+00  0.00000000000E+00 -0.10338868484E+04  0.10338868484E+04  0.25500000920E-02 0. -1.
    10030    2    1    2    0    0  0.00000000000E+00  0.00000000000E+00  0.14432806716E+04  0.35110543685E+04  0.32006942499E+04 0.  0.
        1    1    3    3  502    0 -0.29124219468E+03  0.14455612974E+04  0.14037395743E+04  0.20359160771E+04  0.50400001928E-02 0. -1.
       -1    1    3    3    0  502  0.29124219468E+03 -0.14455612974E+04  0.39541097332E+02  0.14751382914E+04  0.50400001928E-02 0.  1.
</event>
<event>
 5   0  0.2783875E-07  0.3186628E+04  0.7818609E-02  0.8192358E-01
        1   -1    0    0  501    0  0.00000000000E+00  0.00000000000E+00  0.16561992932E+04  0.16561992932E+04  0.50400001928E-02 0.  1.
       -1   -1    0    0    0  501  0.00000000000E+00  0.00000000000E+00 -0.15328162627E+04  0.15328162628E+04  0.50400001928E-02 0. -1.
    10030    2    1    2    0    0  0.00000000000E+00  0.00000000000E+00  0.12338303046E+03  0.31890155560E+04  0.31866278170E+04 0.  0.
        2    1    3    3  502    0  0.54174567773E+03  0.45061973886E+02 -0.14371390499E+04  0.15365180147E+04  0.25500000920E-02 0. -1.
       -2    1    3    3    0  502 -0.54174567773E+03 -0.45061973886E+02  0.15605220803E+04  0.16524975413E+04  0.25500000920E-02 0.  1.
</event>
<event>
 5   0  0.3075756E-07  0.3201710E+04  0.7818609E-02  0.8188366E-01
       -1   -1    0    0    0  501  0.00000000000E+00  0.00000000000E+00  0.13249151060E+04  0.13249151060E+04  0.50400001928E-02 0.  1.
        1   -1    0    0  501    0  0.00000000000E+00  0.00000000000E+00 -0.19342654404E+04  0.19342654404E+04  0.50400001928E-02 0. -1.
    10030    2    1    2    0    0  0.00000000000E+00  0.00000000000E+00 -0.60935033441E+03  0.32591805464E+04  0.32017104810E+04 0.  0.
        5    1    3    3  502    0  0.87019853563E+03  0.14110505438E+03  0.10555584337E+04  0.13752751815E+04  0.46999998093E+01 0.  1.
       -5    1    3    3    0  502 -0.87019853563E+03 -0.14110505438E+03 -0.16649087681E+04  0.18839053649E+04  0.46999998093E+01 0. -1.
</event>
<event>
 5   0  0.8802800E-07  0.3186966E+04  0.7818609E-02  0.8192268E-01
        2   -1    0    0  501    0  0.00000000000E+00  0.00000000000E+00  0.95619038811E+03  0.95619038811E+03  0.25500000920E-02 0. -1.
       -2   -1    0    0    0  501  0.00000000000E+00  0.00000000000E+00 -0.26555253597E+04  0.26555253597E+04  0.25500000920E-02 0.  1.
    10030    2    1    2    0    0  0.00000000000E+00  0.00000000000E+00 -0.16993349716E+04  0.36117157478E+04  0.31869658450E+04 0.  0.
        5    1    3    3  502    0 -0.39134229288E+03 -0.12737501439E+03  0.89491423825E+03  0.98502120196E+03  0.46999998093E+01 0. -1.
       -5    1    3    3    0  502  0.39134229288E+03  0.12737501439E+03 -0.25942492098E+04  0.26266945458E+04  0.46999998093E+01 0.  1.
</event>
<event>
 5   0  0.2891204E-07  0.3204997E+04  0.7818609E-02  0.8187499E-01
       -1   -1    0    0    0  501  0.00000000000E+00  0.00000000000E+00  0.12957907148E+04  0.12957907148E+04  0.50400001928E-02 0.  1.
        1   -1    0    0  501    0  0.00000000000E+00  0.00000000000E+00 -0.19818022910E+04  0.19818022910E+04  0.50400001928E-02 0. -1.
    10030    2    1    2    0    0  0.00000000000E+00  0.00000000000E+00 -0.68601157623E+03  0.32775930058E+04  0.32049967284E+04 0.  0.
        4    1    3    3  502    0 -0.14417519057E+03  0.15849381022E+04 -0.53482883563E+03  0.16789457316E+04  0.12699999809E+01 0. -1.
       -4    1    3    3    0  502  0.14417519057E+03 -0.15849381022E+04 -0.15118274060E+03  0.15986472742E+04  0.12699999809E+01 0.  1.
</event>
<event>
 5   0  0.8838951E-07  0.3204829E+04  0.7818609E-02  0.8187543E-01
        2   -1    0    0  501    0  0.00000000000E+00  0.00000000000E+00  0.16794055751E+04  0.16794055751E+04  0.25500000920E-02 0.  1.
       -2   -1    0    0    0  501  0.00000000000E+00  0.00000000000E+00 -0.15289529714E+04  0.15289529714E+04  0.25500000920E-02 0. -1.
    10030    2    1    2    0    0  0.00000000000E+00  0.00000000000E+00  0.15045260371E+03  0.32083585465E+04  0.32048289466E+04 0.  0.
        2    1    3    3  502    0  0.14045652448E+04 -0.41010514840E+03 -0.57874837446E+03  0.15735118178E+04  0.25500000920E-02 0.  1.
       -2    1    3    3    0  502 -0.14045652448E+04  0.41010514840E+03  0.72920097817E+03  0.16348467287E+04  0.25500000920E-02 0. -1.
</event>
<event>
 5   0  0.3013888E-07  0.3195847E+04  0.7818609E-02  0.8189915E-01
       -1   -1    0    0    0  501  0.00000000000E+00  0.00000000000E+00  0.16144310760E+04  0.16144310760E+04  0.50400001928E-02 0.  1.
        1   -1    0    0  501    0  0.00000000000E+00  0.00000000000E+00 -0.15815843609E+04  0.15815843609E+04  0.50400001928E-02 0. -1.
    10030    2    1    2    0    0  0.00000000000E+00  0.00000000000E+00  0.32846715118E+02  0.31960154369E+04  0.31958466431E+04 0.  0.
        1    1    3    3  502    0  0.52633311922E+03  0.20594770437E+03  0.15111319962E+04  0.16133694305E+04  0.50400001928E-02 0.  1.
       -1    1    3    3    0  502 -0.52633311922E+03 -0.20594770437E+03 -0.14782852811E+04  0.15826460064E+04  0.50400001928E-02 0. -1.
</event>
<event>
 5   0  0.8488469E-07  0.3175881E+04  0.7818609E-02  0.8195216E-01
        2   -1    0    0  501    0  0.00000000000E+00  0.00000000000E+00  0.30093055134E+04  0.30093055134E+04  0.25500000920E-02 0. -1.
       -2   -1    0    0    0  501  0.00000000000E+00  0.00000000000E+00 -0.83791945694E+03  0.83791945695E+03  0.25500000920E-02 0.  1.
    10030    2    1    2    0    0  0.00000000000E+00  0.00000000000E+00  0.21713860564E+04  0.38472249703E+04  0.31758813841E+04 0.  0.
        3    1    3    3  502    0 -0.59839674987E+03  0.59860351317E+03  0.27132644394E+04  0.28422189861E+04  0.10100000352E+00 0. -1.
       -3    1    3    3    0  502  0.59839674987E+03 -0.59860351317E+03 -0.54187838300E+03  0.10050059843E+04  0.10100000352E+00 0.  1.
</event>
<event>
 5   0  0.8802800E-07  0.3185222E+04  0.7818609E-02  0.8192731E-01
        2   -1    0    0  501    0  0.00000000000E+00  0.00000000000E+00  0.21668518902E+04  0.21668518902E+04  0.25500000920E-02 0. -1.
       -2   -1    0    0    0  501  0.00000000000E+00  0.00000000000E+00 -0.11705508967E+04  0.11705508967E+04  0.25500000920E-02 0.  1.
    10030    2    1    2    0    0  0.00000000000E+00  0.00000000000E+00  0.99630099356E+03  0.33374027869E+04  0.31852223929E+04 0.  0.
        5    1    3    3  502    0 -0.12388395788E+03 -0.15424170286E+04  0.10333064665E+03  0.15508374633E+04  0.46999998093E+01 0.  1.
       -5    1    3    3    0  502  0.12388395788E+03  0.15424170286E+04  0.89297034691E+03  0.17865653236E+04  0.46999998093E+01 0. -1.
</event>
<event>
 5   0  0.3013888E-07  0.3196496E+04  0.7818609E-02  0.8189743E-01
       -1   -1    0    0    0  501  0.00000000000E+00  0.00000000000E+00  0.11348008214E+04  0.11348008214E+04  0.50400001928E-02 0.  1.
        1   -1    0    0  501    0  0.00000000000E+00  0.00000000000E+00 -0.22509642811E+04  0.22509642811E+04  0.50400001928E-02 0. -1.
    10030    2    1    2    0    0  0.00000000000E+00  0.00000000000E+00 -0.11161634597E+04  0.33857651025E+04  0.31964956531E+04 0.  0.
        1    1    3    3  502    0  0.87318351940E+03  0.93237746878E+03 -0.15754867648E+04  0.20282839419E+04  0.50400001928E-02 0. -1.
       -1    1    3    3    0  502 -0.87318351940E+03 -0.93237746878E+03  0.45932330507E+03  0.13574811606E+04  0.50400001928E-02 0.  1.
</event>
<event>
 5   0  0.2891204E-07  0.3273209E+04  0.7818609E-02  0.8169746E-01
        1   -1    0    0  501    0  0.00000000000E+00  0.00000000000E+00  0.22713986360E+04  0.22713986360E+04  0.50400001928E-02 0.  1.
       -1   -1    0    0    0  501  0.00000000000E+00  0.00000000000E+00 -0.11792178352E+04  0.11792178352E+04  0.50400001928E-02 0. -1.
    10030    2    1    2    0    0  0.00000000000E+00  0.00000000000E+00  0.10921808008E+04  0.34506164713E+04  0.32732086903E+04 0.  0.
        4    1    3    3  502    0 -0.25262043023E+03 -0.15429448110E+04  0.36162210905E+02  0.15639069953E+04  0.12699999809E+01 0.  1.
       -4    1    3    3    0  502  0.25262043023E+03  0.15429448110E+04  0.10560185899E+04  0.18867094760E+04  0.12699999809E+01 0. -1.
</event>
<event>
 5   0  0.2783875E-07  0.3177170E+04  0.7818609E-02  0.8194873E-01
        3   -1    0    0  501    0  0.00000000000E+00  0.00000000000E+00  0.15575670372E+04  0.15575670405E+04  0.10100000352E+00 0. -1.
       -3   -1    0    0    0  501  0.00000000000E+00  0.00000000000E+00 -0.16202204943E+04  0.16202204974E+04  0.10100000352E+00 0.  1.
    10030    2    1    2    0    0  0.00000000000E+00  0.00000000000E+00 -0.62653457076E+02  0.31777875379E+04  0.31771698382E+04 0.  0.
        2    1    3    3  502    0 -0.68635164930E+03 -0.98784672082E+03 -0.10691614981E+04  0.16093557839E+04  0.25500000920E-02 0.  1.
       -2    1    3    3    0  502  0.68635164930E+03  0.98784672082E+03  0.10065080410E+04  0.15684317540E+04  0.25500000920E-02 0. -1.
</event>
<event>
 5   0  0.3075756E-07  0.3204968E+04  0.7818609E-02  0.8187506E-01
        1   -1    0    0  501    0  0.00000000000E+00  0.00000000000E+00  0.23898409921E+04  0.23898409921E+04  0.50400001928E-02 0. -1.
       -1   -1    0    0    0  501  0.00000000000E+00  0.00000000000E+00 -0.10745299594E+04  0.10745299595E+04  0.50400001928E-02 0.  1.
    10030    2    1    2    0    0  0.00000000000E+00  0.00000000000E+00  0.13153110327E+04  0.34643709516E+04  0.32049684831E+04 0.  0.
        5    1    3    3  502    0 -0.63755633974E+03  0.34391884784E+03 -0.88743330411E+03  0.11455645855E+04  0.46999998093E+01 0.  1.
       -5    1    3    3    0  502  0.63755633974E+03 -0.34391884784E+03  0.22027443368E+04  0.23188063661E+04  0.46999998093E+01 0. -1.
</event>
<event>
 5   0  0.8802800E-07  0.3219277E+04  0.7818609E-02  0.8183745E-01
       -2   -1    0    0    0  501  0.00000000000E+00  0.00000000000E+00  0.11929460784E+04  0.11929460784E+04  0.25500000920E-02 0. -1.
        2   -1    0    0  501    0  0.00000000000E+00  0.00000000000E+00 -0.21718806818E+04  0.21718806818E+04  0.25500000920E-02 0.  1.
    10030    2    1    2    0    0  0.00000000000E+00  0.00000000000E+00 -0.97893460340E+03  0.33648267602E+04  0.32192772743E+04 0.  0.
        5    1    3    3  502    0  0.26561073680E+03  0.31882947109E+03  0.11360683874E+04  0.12094935990E+04  0.46999998093E+01 0. -1.
       -5    1    3    3    0  502 -0.26561073680E+03 -0.31882947109E+03 -0.21150029908E+04  0.21553331613E+04  0.46999998093E+01 0.  1.
</event>
<event>
 5   0  0.8802800E-07  0.3272820E+04  0.7818609E-02  0.8169846E-01
        2   -1    0    0  501    0  0.00000000000E+00  0.00000000000E+00  0.25866450675E+04  0.25866450675E+04  0.25500000920E-02 0.  1.
       -2   -1    0    0    0  501  0.00000000000E+00  0.00000000000E+00 -0.10352549910E+04  0.10352549911E+04  0.25500000920E-02 0. -1.
    10030    2    1    2    0    0  0.00000000000E+00  0.00000000000E+00  0.15513900765E+04  0.36219000586E+04  0.32728197117E+04 0.  0.
        5    1    3    3  502    0 -0.81349701070E+03 -0.14197422892E+04  0.79696976481E+03  0.18200627599E+04  0.46999998093E+01 0. -1.
       -5    1    3    3    0  502  0.81349701070E+03  0.14197422892E+04  0.75442031169E+03  0.18018372987E+04  0.46999998093E+01 0.  1.
</event>
<event>
 5   0  0.8488469E-07  0.3198043E+04  0.7818609E-02  0.8189334E-01
       -2   -1    0    0    0  501  0.00000000000E+00  0.00000000000E+00  0.99957702780E+03  0.99957702780E+03  0.25500000920E-02 0.  1.
        2   -1    0    0  501    0  0.00000000000E+00  0.00000000000E+00 -0.25579511188E+04  0.25579511188E+04  0.25500000920E-02 0. -1.
    10030    2    1    2    0    0  0.00000000000E+00  0.00000000000E+00 -0.15583740910E+04  0.35575281466E+04  0.31980426367E+04 0.  0.
        3    1    3    3  502    0 -0.30290686604E+03  0.63272105722E+03 -0.23776444113E+04  0.24789678220E+04  0.10100000352E+00 0. -1.
       -3    1    3    3    0  502  0.30290686604E+03 -0.63272105722E+03  0.81927032033E+03  0.10785603246E+04  0.10100000352E+00 0.  1.
</event>
<event>
 5   0  0.8802800E-07  0.3201276E+04  0.7818609E-02  0.8188480E-01
       -2   -1    0    0    0  501  0.00000000000E+00  0.00000000000E+00  0.13081169357E+04  0.13081169357E+04  0.25500000920E-02 0.  1.
        2   -1    0    0  501    0  0.00000000000E+00  0.00000000000E+00 -0.19585726371E+04  0.19585726371E+04  0.25500000920E-02 0. -1.
    10030    2    1    2    0    0  0.00000000000E+00  0.00000000000E+00 -0.65045570138E+03  0.32666895728E+04  0.32012760184E+04 0.  0.
        5    1    3    3  502    0  0.15294593558E+04  0.42805076556E+03 -0.52815452697E+03  0.16737510787E+04  0.46999998093E+01 0. -1.
       -5    1    3    3    0  502 -0.15294593558E+04 -0.42805076556E+03 -0.12230117441E+03  0.15929384942E+04  0.46999998093E+01 0.  1.
</event>
<event>
 5   0  0.2783875E-07  0.3211461E+04  0.7818609E-02  0.8185797E-01
       -1   -1    0    0    0  501  0.00000000000E+00  0.00000000000E+00  0.11834542034E+04  0.11834542034E+04  0.50400001928E-02 0. -1.
        1   -1    0    0  501    0  0.00000000000E+00  0.00000000000E+00 -0.21786817279E+04  0.21786817279E+04  0.50400001928E-02 0.  1.
    10030    2    1    2    0    0  0.00000000000E+00  0.00000000000E+00 -0.99522752444E+03  0.33621359313E+04  0.32114607572E+04 0.  0.
        2    1    3    3  502    0 -0.88390841093E+03  0.82422815647E+03  0.60921368515E+03  0.13534354240E+04  0.25500000920E-02 0. -1.
       -2    1    3    3    0  502  0.88390841093E+03 -0.82422815647E+03 -0.16044412096E+04  0.20087005073E+04  0.25500000920E-02 0.  1.
</event>
<event>
 5   0  0.8488469E-07  0.3223931E+04  0.7818609E-02  0.8182525E-01
        2   -1    0    0  501    0  0.00000000000E+00  0.00000000000E+00  0.20239303844E+04  0.20239303844E+04  0.25500000920E-02 0.  1.
       -2   -1    0    0    0  501  0.00000000000E+00  0.00000000000E+00 -0.12838550613E+04  0.12838550613E+04  0.25500000920E-02 0. -1.
    10030    2    1    2    0    0  0.00000000000E+00  0.00000000000E+00  0.74007532310E+03  0.33077854457E+04  0.32239313068E+04 0.  0.
        3    1    3    3  502    0  0.53714227701E+03  0.37984388063E+03  0.18799220256E+04  0.19917103283E+04  0.10100000352E+00 0.  1.
       -3    1    3    3    0  502 -0.53714227701E+03 -0.37984388063E+03 -0.11398467025E+04  0.13160751174E+04  0.10100000352E+00 0. -1.
</event>
<event>
 5   0  0.8335929E-07  0.3196799E+04  0.7818609E-02  0.8189663E-01
       -2   -1    0    0    0  501  0.00000000000E+00  0.00000000000E+00  0.15657227560E+04  0.15657227560E+04  0.25500000920E-02 0. -1.
        2   -1    0    0  501    0  0.00000000000E+00  0.00000000000E+00 -0.16317582380E+04  0.16317582380E+04  0.25500000920E-02 0.  1.
    10030    2    1    2    0    0  0.00000000000E+00  0.00000000000E+00 -0.66035481926E+02  0.31974809940E+04  0.31967990275E+04 0.  0.
        4    1    3    3  502    0  0.29707187761E+03 -0.41471169663E+03 -0.15481484375E+04  0.16300314995E+04  0.12699999809E+01 0.  1.
       -4    1    3    3    0  502 -0.29707187761E+03  0.41471169663E+03  0.14821129556E+04  0.15674494945E+04  0.12699999809E+01 0. -1.
</event>
<event>
 5   0  0.8488469E-07  0.3209142E+04  0.7818609E-02  0.8186407E-01
        2   -1    0    0  501    0  0.00000000000E+00  0.00000000000E+00  0.21692542474E+04  0.21692542474E+04  0.25500000920E-02 0.  1.
       -2   -1    0    0    0  501  0.00000000000E+00  0.00000000000E+00 -0.11868819671E+04  0.11868819671E+04  0.25500000920E-02 0. -1.
    10030    2    1    2    0    0  0.00000000000E+00  0.00000000000E+00  0.98237228029E+03  0.33561362145E+04  0.32091424077E+04 0.  0.
        3    1    3    3  502    0 -0.13231911735E+04  0.85639986093E+03  0.80561204017E+03  0.17701034922E+04  0.10100000352E+00 0.  1.
       -3    1    3    3    0  502  0.13231911735E+04 -0.85639986093E+03  0.17676024012E+03  0.15860327223E+04  0.10100000352E+00 0. -1.
</event>
<event>
 5   0  0.2783875E-07  0.3199546E+04  0.7818609E-02  0.8188937E-01
        1   -1    0    0  501    0  0.00000000000E+00  0.00000000000E+00  0.19116367693E+04  0.19116367693E+04  0.50400001928E-02 0.  1.
       -1   -1    0    0    0  501  0.00000000000E+00  0.00000000000E+00 -0.13387865217E+04  0.13387865217E+04  0.50400001928E-02 0. -1.
    10030    2    1    2    0    0  0.00000000000E+00  0.00000000000E+00  0.57285024758E+03  0.32504232911E+04  0.31995459311E+04 0.  0.
        2    1    3    3  502    0 -0.15700100478E+04 -0.92119458383E+02 -0.11246124539E+02  0.15727504634E+04  0.25500000920E-02 0. -1.
       -2    1    3    3    0  502  0.15700100478E+04  0.92119458383E+02  0.58409637212E+03  0.16776728277E+04  0.25500000920E-02 0.  1.
</event>
<event>
 5   0  0.8838951E-07  0.3140393E+04  0.7818609E-02  0.8204739E-01
        2   -1    0    0  501    0  0.00000000000E+00  0.00000000000E+00  0.11935680733E+04  0.11935680733E+04  0.25500000920E-02 0.  1.
       -2   -1    0    0    0  501  0.00000000000E+00  0.00000000000E+00 -0.20656694673E+04  0.20656694673E+04  0.25500000920E-02 0. -1.
    10030    2    1    2    0    0  0.00000000000E+00  0.00000000000E+00 -0.87210139399E+03  0.32592375406E+04  0.31403930494E+04 0.  0.
        2    1    3    3  502    0  0.78116735522E+03 -0.11516353247E+04 -0.11909212291E+04  0.18316057796E+04  0.25500000920E-02 0. -1.
       -2    1    3    3    0  502 -0.78116735522E+03  0.11516353247E+04  0.31881983507E+03  0.14276317611E+04  0.25500000920E-02 0.  1.
</event>
<event>
 5   0  0.2891204E-07  0.3194595E+04  0.7818609E-02  0.8190246E-01
        1   -1    0    0  501    0  0.00000000000E+00  0.00000000000E+00  0.22009053556E+04  0.22009053556E+04  0.50400001928E-02 0.  1.
       -1   -1    0    0    0  501  0.00000000000E+00  0.00000000000E+00 -0.11592320075E+04  0.11592320075E+04  0.50400001928E-02 0. -1.
    10030    2    1    2    0    0  0.00000000000E+00  0.00000000000E+00  0.10416733480E+04  0.33601373631E+04  0.31945953946E+04 0.  0.
        4    1    3    3  502    0  0.15925495911E+04  0.38160762254E+02  0.64389449416E+03  0.17182177325E+04  0.12699999809E+01 0.  1.
       -4    1    3    3    0  502 -0.15925495911E+04 -0.38160762254E+02  0.39777885389E+03  0.16419196306E+04  0.12699999809E+01 0. -1.
</event>
<event>
 5   0  0.2891204E-07  0.3194496E+04  0.7818609E-02  0.8190272E-01
       -1   -1    0    0    0  501  0.00000000000E+00  0.00000000000E+00  0.92345350097E+03  0.92345350099E+03  0.50400001928E-02 0. -1.
        1   -1    0    0  501    0  0.00000000000E+00  0.00000000000E+00 -0.27626739926E+04  0.27626739926E+04  0.50400001928E-02 0.  1.
    10030    2    1    2    0    0  0.00000000000E+00  0.00000000000E+00 -0.18392204916E+04  0.36861274936E+04  0.31944958729E+04 0.  0.
        4    1    3    3  502    0 -0.11048015990E+04  0.98736212379E+03 -0.16078306548E+04  0.21864563943E+04  0.12699999809E+01 0.  1.
       -4    1    3    3    0  502  0.11048015990E+04 -0.98736212379E+03 -0.23138983684E+03  0.14996710993E+04  0.12699999809E+01 0. -1.
</event>
<event>
 5   0  0.8335929E-07  0.3198590E+04  0.7818609E-02  0.8189190E-01
       -2   -1    0    0    0  501  0.00000000000E+00  0.00000000000E+00  0.12715036639E+04  0.12715036639E+04  0.25500000920E-02 0. -1.
        2   -1    0    0  501    0  0.00000000000E+00  0.00000000000E+00 -0.20115900140E+04  0.20115900140E+04  0.25500000920E-02 0.  1.
    10030    2    1    2    0    0  0.00000000000E+00  0.00000000000E+00 -0.74008635013E+03  0.32830936779E+04  0.31985897349E+04 0.  0.
        4    1    3    3  502    0  0.12967734791E+04  0.94131234461E+02 -0.13259145862E+04  0.18570226838E+04  0.12699999809E+01 0.  1.
       -4    1    3    3    0  502 -0.12967734791E+04 -0.94131234461E+02  0.58582823605E+03  0.14260709942E+04  0.12699999809E+01 0. -1.
</event>
<event>
 5   0  0.2997105E-07  0.3264034E+04  0.7818609E-02  0.8172108E-01
       -1   -1    0    0    0  501  0.00000000000E+00  0.00000000000E+00  0.13960147341E+04  0.13960147341E+04  0.50400001928E-02 0. -1.
        1   -1    0    0  501    0  0.00000000000E+00  0.00000000000E+00 -0.19079160228E+04  0.19079160228E+04  0.50400001928E-02 0.  1.
    10030    2    1    2    0    0  0.00000000000E+00  0.00000000000E+00 -0.51190128869E+03  0.33039307568E+04  0.32640336268E+04 0.  0.
        3    1    3    3  502    0  0.98420596951E+03  0.70233847417E+03  0.85359479901E+03  0.14800556793E+04  0.10100000352E+00 0. -1.
       -3    1    3    3    0  502 -0.98420596951E+03 -0.70233847417E+03 -0.13654960877E+04  0.18238750775E+04  0.10100000352E+00 0.  1.
</event>
<event>
 5   0  0.2783875E-07  0.3193304E+04  0.7818609E-02  0.8190588E-01
       -1   -1    0    0    0  501  0.00000000000E+00  0.00000000000E+00  0.13891661705E+04  0.13891661705E+04  0.50400001928E-02 0. -1.
        1   -1    0    0  501    0  0.00000000000E+00  0.00000000000E+00 -0.18351274509E+04  0.18351274509E+04  0.50400001928E-02 0.  1.
    10030    2    1    2    0    0  0.00000000000E+00  0.00000000000E+00 -0.44596128039E+03  0.32242936214E+04  0.31933036019E+04 0.  0.
        2    1    3    3  502    0  0.43987152219E+03  0.68517428308E+03  0.11637913978E+04  0.14203384005E+04  0.25500000920E-02 0. -1.
       -2    1    3    3    0  502 -0.43987152219E+03 -0.68517428308E+03 -0.16097526782E+04  0.18039552210E+04  0.25500000920E-02 0.  1.
</event>
<event>
 5   0  0.8195618E-07  0.3200342E+04  0.7818609E-02  0.8188727E-01
        2   -1    0    0  501    0  0.00000000000E+00  0.00000000000E+00  0.18907296493E+04  0.18907296493E+04  0.25500000920E-02 0.  1.
       -2   -1    0    0    0  501  0.00000000000E+00  0.00000000000E+00 -0.13542637034E+04  0.13542637034E+04  0.25500000920E-02 0. -1.
    10030    2    1    2    0    0  0.00000000000E+00  0.00000000000E+00  0.53646594591E+03  0.32449933526E+04  0.32003415673E+04 0.  0.
        1    1    3    3  502    0 -0.82051087879E+02 -0.10727614942E+04 -0.93277486001E+03  0.14239447124E+04  0.50400001928E-02 0. -1.
       -1    1    3    3    0  502  0.82051087879E+02  0.10727614942E+04  0.14692408059E+04  0.18210486403E+04  0.50400001928E-02 0.  1.
</event>
<event>
 5   0  0.8488469E-07  0.3197795E+04  0.7818609E-02  0.8189400E-01
       -2   -1    0    0    0  501  0.00000000000E+00  0.00000000000E+00  0.11337941695E+04  0.11337941695E+04  0.25500000920E-02 0. -1.
        2   -1    0    0  501    0  0.00000000000E+00  0.00000000000E+00 -0.22547941886E+04  0.22547941886E+04  0.25500000920E-02 0.  1.
    10030    2    1    2    0    0  0.00000000000E+00  0.00000000000E+00 -0.11210000191E+04  0.33885883581E+04  0.31977945552E+04 0.  0.
        3    1    3    3  502    0  0.52534432269E+03  0.60012993044E+02 -0.21594641896E+04  0.22232574779E+04  0.10100000352E+00 0.  1.
       -3    1    3    3    0  502 -0.52534432269E+03 -0.60012993044E+02  0.10384641705E+04  0.11653308802E+04  0.10100000352E+00 0. -1.
</event>
<event>
 5   0  0.8335929E-07  0.3198263E+04  0.7818609E-02  0.8189276E-01
       -2   -1    0    0    0  501  0.00000000000E+00  0.00000000000E+00  0.10477144933E+04  0.10477144933E+04  0.25500000920E-02 0. -1.
        2   -1    0    0  501    0  0.00000000000E+00  0.00000000000E+00 -0.24407611644E+04  0.24407611644E+04  0.25500000920E-02 0.  1.
    10030    2    1    2    0    0  0.00000000000E+00  0.00000000000E+00 -0.13930466711E+04  0.34884756576E+04  0.31982625574E+04 0.  0.
        4    1    3    3  502    0 -0.71181426158E+03  0.60418464713E+03  0.71955095872E+03  0.11787594436E+04  0.12699999809E+01 0. -1.
       -4    1    3    3    0  502  0.71181426158E+03 -0.60418464713E+03 -0.21125976298E+04  0.23097162140E+04  0.12699999809E+01 0.  1.
</event>
<event>
 5   0  0.3013888E-07  0.3160662E+04  0.7818609E-02  0.8199284E-01
       -1   -1    0    0    0  501  0.00000000000E+00  0.00000000000E+00  0.13976469094E+04  0.13976469094E+04  0.50400001928E-02 0.  1.
        1   -1    0    0  501    0  0.00000000000E+00  0.00000000000E+00 -0.17868931211E+04  0.17868931211E+04  0.50400001928E-02 0. -1.
    10030    2    1    2    0    0  0.00000000000E+00  0.00000000000E+00 -0.38924621164E+03  0.31845400305E+04  0.31606617334E+04 0.  0.
        1    1    3    3  502    0 -0.89006967824E+02  0.58560170799E+02 -0.17832703611E+04  0.17864503113E+04  0.50400001928E-02 0. -1.
       -1    1    3    3    0  502  0.89006967824E+02 -0.58560170799E+02  0.13940241494E+04  0.13980897193E+04  0.50400001928E-02 0.  1.
</event>
<event>
 5   0  0.8335929E-07  0.3210700E+04  0.7818609E-02  0.8185997E-01
        2   -1    0    0  501    0  0.00000000000E+00  0.00000000000E+00  0.21160529736E+04  0.21160529736E+04  0.25500000920E-02 0. -1.
       -2   -1    0    0    0  501  0.00000000000E+00  0.00000000000E+00 -0.12179034810E+04  0.12179034810E+04  0.25500000920E-02 0.  1.
    10030    2    1    2    0    0  0.00000000000E+00  0.00000000000E+00  0.89814949259E+03  0.33339564546E+04  0.32106997882E+04 0.  0.
        4    1    3    3  502    0 -0.10921755946E+04  0.25212596853E+03  0.16424238579E+04  0.19884599004E+04  0.12699999809E+01 0. -1.
       -4    1    3    3    0  502  0.10921755946E+04 -0.25212596853E+03 -0.74427436534E+03  0.13454965542E+04  0.12699999809E+01 0.  1.
</event>
<event>
 5   0  0.2997105E-07  0.3231443E+04  0.7818609E-02  0.8180562E-01
        1   -1    0    0  501    0  0.00000000000E+00  0.00000000000E+00  0.12584898968E+04  0.12584898968E+04  0.50400001928E-02 0.  1.
       -1   -1    0    0    0  501  0.00000000000E+00  0.00000000000E+00 -0.20743553924E+04  0.20743553924E+04  0.50400001928E-02 0. -1.
    10030    2    1    2    0    0  0.00000000000E+00  0.00000000000E+00 -0.81586549566E+03  0.33328452892E+04  0.32314425904E+04 0.  0.
        3    1    3    3  502    0  0.41514295782E+03  0.11438422056E+04  0.68835998243E+03  0.13980551285E+04  0.10100000352E+00 0. -1.
       -3    1    3    3    0  502 -0.41514295782E+03 -0.11438422056E+04 -0.15042254781E+04  0.19347901607E+04  0.10100000352E+00 0.  1.
</event>
<event>
 5   0  0.8488469E-07  0.3209827E+04  0.7818609E-02  0.8186227E-01
       -2   -1    0    0    0  501  0.00000000000E+00  0.00000000000E+00  0.17642917358E+04  0.17642917358E+04  0.25500000920E-02 0. -1.
        2   -1    0    0  501    0  0.00000000000E+00  0.00000000000E+00 -0.14599326244E+04  0.14599326244E+04  0.25500000920E-02 0.  1.
    10030    2    1    2    0    0  0.00000000000E+00  0.00000000000E+00  0.30435911139E+03  0.32242243603E+04  0.32098268266E+04 0.  0.
        3    1    3    3  502    0  0.90810588680E+03  0.11377092325E+04  0.83101291791E+03  0.16761924351E+04  0.10100000352E+00 0. -1.
       -3    1    3    3    0  502 -0.90810588680E+03 -0.11377092325E+04 -0.52665380652E+03  0.15480319252E+04  0.10100000352E+00 0.  1.
</event>
<event>
 5   0  0.8488469E-07  0.3242852E+04  0.7818609E-02  0.8177591E-01
        2   -1    0    0  501    0  0.00000000000E+00  0.00000000000E+00  0.17328908347E+04  0.17328908347E+04  0.25500000920E-02 0.  1.
       -2   -1    0    0    0  501  0.00000000000E+00  0.00000000000E+00 -0.15171305802E+04  0.15171305802E+04  0.25500000920E-02 0. -1.
    10030    2    1    2    0    0  0.00000000000E+00  0.00000000000E+00  0.21576025449E+03  0.32500214150E+04  0.32428516325E+04 0.  0.
        3    1    3    3  502    0  0.21704441892E+03 -0.65745476066E+03  0.15772959104E+04  0.17225613026E+04  0.10100000352E+00 0.  1.
       -3    1    3    3    0  502 -0.21704441892E+03  0.65745476066E+03 -0.13615356559E+04  0.15274601123E+04  0.10100000352E+00 0. -1.
</event>
<event>
 5   0  0.2891204E-07  0.3184619E+04  0.7818609E-02  0.8192891E-01
        1   -1    0    0  501    0  0.00000000000E+00  0.00000000000E+00  0.16035621880E+04  0.16035621880E+04  0.50400001928E-02 0.  1.
       -1   -1    0    0    0  501  0.00000000000E+00  0.00000000000E+00 -0.15811360915E+04  0.15811360916E+04  0.50400001928E-02 0. -1.
    10030    2    1    2    0    0  0.00000000000E+00  0.00000000000E+00  0.22426096462E+02  0.31846982796E+04  0.31846193182E+04 0.  0.
        4    1    3    3  502    0 -0.95540414449E+03 -0.43143323263E+03 -0.11873644256E+04  0.15839089638E+04  0.12699999809E+01 0. -1.
       -4    1    3    3    0  502  0.95540414449E+03  0.43143323263E+03  0.12097905220E+04  0.16007893158E+04  0.12699999809E+01 0.  1.
</event>
<event>
 5   0  0.3013888E-07  0.3199744E+04  0.7818609E-02  0.8188885E-01
        1   -1    0    0  501    0  0.00000000000E+00  0.00000000000E+00  0.23271992228E+04  0.23271992228E+04  0.50400001928E-02 0.  1.
       -1   -1    0    0    0  501  0.00000000000E+00  0.00000000000E+00 -0.10998584754E+04  0.10998584754E+04  0.50400001928E-02 0. -1.
    10030    2    1    2    0    0  0.00000000000E+00  0.00000000000E+00  0.12273407474E+04  0.34270576983E+04  0.31997436080E+04 0.  0.
        1    1    3    3  502    0 -0.13459634565E+04 -0.80063748605E+03  0.96393819611E+03  0.18389711407E+04  0.50400001928E-02 0. -1.
       -1    1    3    3    0  502  0.13459634565E+04  0.80063748605E+03  0.26340255132E+03  0.15880865576E+04  0.50400001928E-02 0.  1.
</event>
<event>
 5   0  0.8195618E-07  0.3194694E+04  0.7818609E-02  0.8190220E-01
        2   -1    0    0  501    0  0.00000000000E+00  0.00000000000E+00  0.20871704157E+04  0.20871704157E+04  0.25500000920E-02 0. -1.
       -2   -1    0    0    0  501  0.00000000000E+00  0.00000000000E+00 -0.12224770712E+04  0.12224770712E+04  0.25500000920E-02 0.  1.
    10030    2    1    2    0    0  0.00000000000E+00  0.00000000000E+00  0.86469334442E+03  0.33096474869E+04  0.31946943371E+04 0.  0.
        1    1    3    3  502    0  0.66045768216E+03 -0.80549661622E+03  0.16869077416E+04  0.19825959945E+04  0.50400001928E-02 0. -1.
       -1    1    3    3    0  502 -0.66045768216E+03  0.80549661622E+03 -0.82221439715E+03  0.13270514924E+04  0.50400001928E-02 0.  1.
</event>
<event>
 5   0  0.2891204E-07  0.3234499E+04  0.7818609E-02  0.8179765E-01
       -1   -1    0    0    0  501  0.00000000000E+00  0.00000000000E+00  0.16128811749E+04  0.16128811749E+04  0.50400001928E-02 0. -1.
        1   -1    0    0  501    0  0.00000000000E+00  0.00000000000E+00 -0.16216295711E+04  0.16216295711E+04  0.50400001928E-02 0.  1.
    10030    2    1    2    0    0  0.00000000000E+00  0.00000000000E+00 -0.87483961899E+01  0.32345107461E+04  0.32344989151E+04 0.  0.
        4    1    3    3  502    0 -0.64261626964E+03  0.66643470244E+03  0.13216786576E+04  0.16136687917E+04  0.12699999809E+01 0. -1.
       -4    1    3    3    0  502  0.64261626964E+03 -0.66643470244E+03 -0.13304270538E+04  0.16208419543E+04  0.12699999809E+01 0.  1.
</event>
<event>
 5   0  0.8802800E-07  0.3206820E+04  0.7818609E-02  0.8187018E-01
       -2   -1    0    0    0  501  0.00000000000E+00  0.00000000000E+00  0.13224356802E+04  0.13224356802E+04  0.25500000920E-02 0. -1.
        2   -1    0    0  501    0  0.00000000000E+00  0.00000000000E+00 -0.19440820607E+04  0.19440820607E+04  0.25500000920E-02 0.  1.
    10030    2    1    2    0    0  0.00000000000E+00  0.00000000000E+00 -0.62164638044E+03  0.32665177409E+04  0.32068199091E+04 0.  0.
        5    1    3    3  502    0 -0.62405593392E+03  0.13048099725E+03  0.11877648140E+04  0.13480647027E+04  0.46999998093E+01 0. -1.
       -5    1    3    3    0  502  0.62405593392E+03 -0.13048099725E+03 -0.18094111944E+04  0.19184530382E+04  0.46999998093E+01 0.  1.
</event>
<event>
 5   0  0.2783875E-07  0.3290670E+04  0.7818609E-02  0.8165274E-01
        1   -1    0    0  501    0  0.00000000000E+00  0.00000000000E+00  0.11559284986E+04  0.11559284986E+04  0.50400001928E-02 0. -1.
       -1   -1    0    0    0  501  0.00000000000E+00  0.00000000000E+00 -0.23419499157E+04  0.23419499157E+04  0.50400001928E-02 0.  1.
    10030    2    1    2    0    0  0.00000000000E+00  0.00000000000E+00 -0.11860214171E+04  0.34978784144E+04  0.32906696279E+04 0.  0.
        2    1    3    3  502    0 -0.10400216364E+04 -0.13279955545E+03 -0.19408640546E+04  0.22059542163E+04  0.25500000920E-02 0.  1.
       -2    1    3    3    0  502  0.10400216364E+04  0.13279955545E+03  0.75484263749E+03  0.12919241981E+04  0.25500000920E-02 0. -1.
</event>
<event>
 5   0  0.3075756E-07  0.3201929E+04  0.7818609E-02  0.8188308E-01
       -1   -1    0    0    0  501  0.00000000000E+00  0.00000000000E+00  0.21295269882E+04  0.21295269882E+04  0.50400001928E-02 0. -1.
        1   -1    0    0  501    0  0.00000000000E+00  0.00000000000E+00 -0.12035949888E+04  0.12035949889E+04  0.50400001928E-02 0.  1.
    10030    2    1    2    0    0  0.00000000000E+00  0.00000000000E+00  0.92593199936E+03  0.33331219771E+04  0.32019294256E+04 0.  0.
        5    1    3    3  502    0 -0.14984791148E+04 -0.28371582598E+03  0.96987985578E+03  0.18073802455E+04  0.46999998093E+01 0. -1.
       -5    1    3    3    0  502  0.14984791148E+04  0.28371582598E+03 -0.43947856416E+02  0.15257417315E+04  0.46999998093E+01 0.  1.
</event>
<event>
 5   0  0.3013888E-07  0.3150012E+04  0.7818609E-02  0.8202145E-01
        1   -1    0    0  501    0  0.00000000000E+00  0.00000000000E+00  0.14347326664E+04  0.14347326664E+04  0.50400001928E-02 0.  1.
       -1   -1    0    0    0  501  0.00000000000E+00  0.00000000000E+00 -0.17289942588E+04  0.17289942588E+04  0.50400001928E-02 0. -1.
    10030    2    1    2    0    0  0.00000000000E+00  0.00000000000E+00 -0.29426159244E+03  0.31637269252E+04  0.31500124083E+04 0.  0.
        1    1    3    3  502    0  0.71117636861E+03 -0.75039553515E+03  0.10462254877E+04  0.14708681306E+04  0.50400001928E-02 0.  1.
       -1    1    3    3    0  502 -0.71117636861E+03  0.75039553515E+03 -0.13404870801E+04  0.16928587946E+04  0.50400001928E-02 0. -1.
</event>
<event>
 5   0  0.8802800E-07  0.3200060E+04  0.7818609E-02  0.8188801E-01
       -2   -1    0    0    0  501  0.00000000000E+00  0.00000000000E+00  0.10901093811E+04  0.10901093811E+04  0.25500000920E-02 0.  1.
        2   -1    0    0  501    0  0.00000000000E+00  0.00000000000E+00 -0.23484767586E+04  0.23484767586E+04  0.25500000920E-02 0. -1.
    10030    2    1    2    0    0  0.00000000000E+00  0.00000000000E+00 -0.12583673775E+04  0.34385861397E+04  0.32000603406E+04 0.  0.
        5    1    3    3  502    0  0.27565069012E+03 -0.15648986293E+04 -0.42762995553E+03  0.16455334976E+04  0.46999998093E+01 0.  1.
       -5    1    3    3    0  502 -0.27565069012E+03  0.15648986293E+04 -0.83073742201E+03  0.17930526421E+04  0.46999998093E+01 0. -1.
</event>
<event>
 5   0  0.2783875E-07  0.3201015E+04  0.7818609E-02  0.8188549E-01
       -1   -1    0    0    0  501  0.00000000000E+00  0.00000000000E+00  0.95885357051E+03  0.95885357052E+03  0.50400001928E-02 0. -1.
        1   -1    0    0  501    0  0.00000000000E+00  0.00000000000E+00 -0.26715493923E+04  0.26715493923E+04  0.50400001928E-02 0.  1.
    10030    2    1    2    0    0  0.00000000000E+00  0.00000000000E+00 -0.17126958218E+04  0.36304029628E+04  0.32010152600E+04 0.  0.
        2    1    3    3  502    0  0.63753415455E+03  0.10515192742E+03 -0.25170488242E+04  0.25986614842E+04  0.25500000920E-02 0.  1.
       -2    1    3    3    0  502 -0.63753415455E+03 -0.10515192742E+03  0.80435300245E+03  0.10317414786E+04  0.25500000920E-02 0. -1.
</event>
<event>
 5   0  0.2997105E-07  0.3190439E+04  0.7818609E-02  0.8191347E-01
        1   -1    0    0  501    0  0.00000000000E+00  0.00000000000E+00  0.15144482043E+04  0.15144482043E+04  0.50400001928E-02 0.  1.
       -1   -1    0    0    0  501  0.00000000000E+00  0.00000000000E+00 -0.16802982259E+04  0.16802982259E+04  0.50400001928E-02 0. -1.
    10030    2    1    2    0    0  0.00000000000E+00  0.00000000000E+00 -0.16585002163E+03  0.31947464302E+04  0.31904386099E+04 0.  0.
        3    1    3    3  502    0 -0.14111017347E+04  0.71516929269E+03 -0.28826138585E+03  0.16080329163E+04  0.10100000352E+00 0. -1.
       -3    1    3    3    0  502  0.14111017347E+04 -0.71516929269E+03  0.12241136422E+03  0.15867135139E+04  0.10100000352E+00 0.  1.
</event>
<event>
 5   0  0.8488469E-07  0.3196044E+04  0.7818609E-02  0.8189863E-01
        2   -1    0    0  501    0  0.00000000000E+00  0.00000000000E+00  0.15172442424E+04  0.15172442424E+04  0.25500000920E-02 0.  1.
       -2   -1    0    0    0  501  0.00000000000E+00  0.00000000000E+00 -0.16831002062E+04  0.16831002062E+04  0.25500000920E-02 0. -1.
    10030    2    1    2    0    0  0.00000000000E+00  0.00000000000E+00 -0.16585596382E+03  0.32003444486E+04  0.31960438653E+04 0.  0.
        3    1    3    3  502    0 -0.34477276899E+03  0.11434886523E+04 -0.11460719917E+04  0.16552690357E+04  0.10100000352E+00 0. -1.
       -3    1    3    3    0  502  0.34477276899E+03 -0.11434886523E+04  0.98021602787E+03  0.15450754129E+04  0.10100000352E+00 0.  1.
</event>
<event>
 5   0  0.8802800E-07  0.3193820E+04  0.7818609E-02  0.8190451E-01
       -2   -1    0    0    0  501  0.00000000000E+00  0.00000000000E+00  0.18974862592E+04  0.18974862592E+04  0.25500000920E-02 0. -1.
        2   -1    0    0  501    0  0.00000000000E+00  0.00000000000E+00 -0.13439471695E+04  0.13439471695E+04  0.25500000920E-02 0.  1.
    10030    2    1    2    0    0  0.00000000000E+00  0.00000000000E+00  0.55353908964E+03  0.32414334287E+04  0.31938198366E+04 0.  0.
        5    1    3    3  502    0  0.55922916934E+03  0.12377959234E+04 -0.57552553972E+03  0.14751704134E+04  0.46999998093E+01 0.  1.
       -5    1    3    3    0  502 -0.55922916934E+03 -0.12377959234E+04  0.11290646294E+04  0.17662630152E+04  0.46999998093E+01 0. -1.
</event>
<event>
 5   0  0.8195618E-07  0.3207419E+04  0.7818609E-02  0.8186861E-01
        2   -1    0    0  501    0  0.00000000000E+00  0.00000000000E+00  0.24511515514E+04  0.24511515514E+04  0.25500000920E-02 0.  1.
       -2   -1    0    0    0  501  0.00000000000E+00  0.00000000000E+00 -0.10492551823E+04  0.10492551823E+04  0.25500000920E-02 0. -1.
    10030    2    1    2    0    0  0.00000000000E+00  0.00000000000E+00  0.14018963691E+04  0.35004067337E+04  0.32074185682E+04 0.  0.
        1    1    3    3  502    0 -0.12677798879E+04  0.12671725876E+03 -0.36195903624E+03  0.13245140436E+04  0.50400001928E-02 0. -1.
       -1    1    3    3    0  502  0.12677798879E+04 -0.12671725876E+03  0.17638554053E+04  0.21758926901E+04  0.50400001928E-02 0.  1.
</event>
<event>
 5   0  0.2891204E-07  0.3187524E+04  0.7818609E-02  0.8192120E-01
        1   -1    0    0  501    0  0.00000000000E+00  0.00000000000E+00  0.14468152388E+04  0.14468152388E+04  0.50400001928E-02 0.  1.
       -1   -1    0    0    0  501  0.00000000000E+00  0.00000000000E+00 -0.17556332219E+04  0.17556332219E+04  0.50400001928E-02 0. -1.
    10030    2    1    2    0    0  0.00000000000E+00  0.00000000000E+00 -0.30881798308E+03  0.32024484607E+04  0.31875237405E+04 0.  0.
        4    1    3    3  502    0  0.11204150511E+04  0.10006038579E+03 -0.12887363054E+04  0.17106094952E+04  0.12699999809E+01 0. -1.
       -4    1    3    3    0  502 -0.11204150511E+04 -0.10006038579E+03  0.97991832230E+03  0.14918389654E+04  0.12699999809E+01 0.  1.
</event>
<event>
 5   0  0.2997105E-07  0.3203147E+04  0.7818609E-02  0.8187987E-01
       -1   -1    0    0    0  501  0.00000000000E+00  0.00000000000E+00  0.87900137138E+03  0.87900137140E+03  0.50400001928E-02 0.  1.
        1   -1    0    0  501    0  0.00000000000E+00  0.00000000000E+00 -0.29181266324E+04  0.29181266324E+04  0.50400001928E-02 0. -1.
    10030    2    1    2    0    0  0.00000000000E+00  0.00000000000E+00 -0.20391252610E+04  0.37971280038E+04  0.32031467726E+04 0.  0.
        3    1    3    3  502    0  0.15550084309E+04 -0.13260984415E+03 -0.14459916279E+04  0.21275639565E+04  0.10100000352E+00 0. -1.
       -3    1    3    3    0  502 -0.15550084309E+04  0.13260984415E+03 -0.59313363308E+03  0.16695640472E+04  0.10100000352E+00 0.  1.
</event>
<event>
 5   0  0.3013888E-07  0.3198283E+04  0.7818609E-02  0.8189271E-01
        1   -1    0    0  501    0  0.00000000000E+00  0.00000000000E+00  0.24297363480E+04  0.24297363480E+04  0.50400001928E-02 0.  1.
       -1   -1    0    0    0  501  0.00000000000E+00  0.00000000000E+00 -0.10524817814E+04  0.10524817814E+04  0.50400001928E-02 0. -1.
    10030    2    1    2    0    0  0.00000000000E+00  0.00000000000E+00  0.13772545666E+04  0.34822181294E+04  0.31982828142E+04 0.  0.
        1    1    3    3  502    0 -0.14118315947E+04 -0.64721489346E+03  0.11033609837E+04  0.19051406852E+04  0.50400001928E-02 0.  1.
       -1    1    3    3    0  502  0.14118315947E+04  0.64721489346E+03  0.27389358290E+03  0.15770774442E+04  0.50400001928E-02 0. -1.
</event>
<event>
 5   0  0.8838951E-07  0.3182081E+04  0.7818609E-02  0.8193566E-01
        2   -1    0    0  501    0  0.00000000000E+00  0.00000000000E+00  0.13721448489E+04  0.13721448489E+04  0.25500000920E-02 0.  1.
       -2   -1    0    0    0  501  0.00000000000E+00  0.00000000000E+00 -0.18448561664E+04  0.18448561664E+04  0.25500000920E-02 0. -1.
    10030    2    1    2    0    0  0.00000000000E+00  0.00000000000E+00 -0.47271131743E+03  0.32170010153E+04  0.31820810082E+04 0.  0.
        2    1    3    3  502    0 -0.45919382767E+03  0.12380544815E+04 -0.11336609750E+04  0.17403519980E+04  0.25500000920E-02 0. -1.
       -2    1    3    3    0  502  0.45919382767E+03 -0.12380544815E+04  0.66094965762E+03  0.14766490173E+04  0.25500000920E-02 0.  1.
</event>
<event>
 5   0  0.3013888E-07  0.3205549E+04  0.7818609E-02  0.8187353E-01
        1   -1    0    0  501    0  0.00000000000E+00  0.00000000000E+00  0.10475340094E+04  0.10475340095E+04  0.50400001928E-02 0. -1.
       -1   -1    0    0    0  501  0.00000000000E+00  0.00000000000E+00 -0.24523183243E+04  0.24523183243E+04  0.50400001928E-02 0.  1.
    10030    2    1    2    0    0  0.00000000000E+00  0.00000000000E+00 -0.14047843148E+04  0.34998523337E+04  0.32055494672E+04 0.  0.
        1    1    3    3  502    0 -0.51661941097E+02 -0.11182767291E+04 -0.19547301521E+04  0.22525944523E+04  0.50400001928E-02 0.  1.
       -1    1    3    3    0  502  0.51661941097E+02  0.11182767291E+04  0.54994583727E+03  0.12472578815E+04  0.50400001928E-02 0. -1.
</event>
<event>
 5   0  0.2783875E-07  0.3206294E+04  0.7818609E-02  0.8187157E-01
       -1   -1    0    0    0  501  0.00000000000E+00  0.00000000000E+00  0.13490048660E+04  0.13490048660E+04  0.50400001928E-02 0.  1.
        1   -1    0    0  501    0  0.00000000000E+00  0.00000000000E+00 -0.19051680857E+04  0.19051680857E+04  0.50400001928E-02 0. -1.
    10030    2    1    2    0    0  0.00000000000E+00  0.00000000000E+00 -0.55616321962E+03  0.32541729517E+04  0.32062944457E+04 0.  0.
        2    1    3    3  502    0  0.15963619221E+04 -0.12565425818E+03 -0.19998691536E+03  0.16137394911E+04  0.25500000920E-02 0. -1.
       -2    1    3    3    0  502 -0.15963619221E+04  0.12565425818E+03 -0.35617630426E+03  0.16404334606E+04  0.25500000920E-02 0.  1.
</event>
<event>
 5   0  0.2891204E-07  0.3192589E+04  0.7818609E-02  0.8190777E-01
       -1   -1    0    0    0  501  0.00000000000E+00  0.00000000000E+00  0.14659693876E+04  0.14659693876E+04  0.50400001928E-02 0.  1.
        1   -1    0    0  501    0  0.00000000000E+00  0.00000000000E+00 -0.17382054947E+04  0.17382054947E+04  0.50400001928E-02 0. -1.
    10030    2    1    2    0    0  0.00000000000E+00  0.00000000000E+00 -0.27223610709E+03  0.32041748824E+04  0.31925889461E+04 0.  0.
        4    1    3    3  502    0  0.12879187056E+03  0.15358822745E+04 -0.55311681849E+03  0.16375168808E+04  0.12699999809E+01 0. -1.
       -4    1    3    3    0  502 -0.12879187056E+03 -0.15358822745E+04  0.28088071140E+03  0.15666580016E+04  0.12699999809E+01 0.  1.
</event>
<event>
 5   0  0.8195618E-07  0.3186823E+04  0.7818609E-02  0.8192306E-01
       -2   -1    0    0    0  501  0.00000000000E+00  0.00000000000E+00  0.21846976366E+04  0.21846976366E+04  0.25500000920E-02 0.  1.
        2   -1    0    0  501    0  0.00000000000E+00  0.00000000000E+00 -0.11621562878E+04  0.11621562878E+04  0.25500000920E-02 0. -1.
    10030    2    1    2    0    0  0.00000000000E+00  0.00000000000E+00  0.10225413488E+04  0.33468539244E+04  0.31868229290E+04 0.  0.
        1    1    3    3  502    0  0.35045235153E+02 -0.51533715389E+03 -0.10717924622E+04  0.11897645283E+04  0.50400001928E-02 0. -1.
       -1    1    3    3    0  502 -0.35045235153E+02  0.51533715389E+03  0.20943338110E+04  0.21570893961E+04  0.50400001928E-02 0.  1.
</event>
<event>
 5   0  0.8488469E-07  0.3210480E+04  0.7818609E-02  0.8186055E-01
        2   -1    0    0  501    0  0.00000000000E+00  0.00000000000E+00  0.21936098164E+04  0.21936098164E+04  0.25500000920E-02 0.  1.
       -2   -1    0    0    0  501  0.00000000000E+00  0.00000000000E+00 -0.11746825811E+04  0.11746825811E+04  0.25500000920E-02 0. -1.
    10030    2    1    2    0    0  0.00000000000E+00  0.00000000000E+00  0.10189272354E+04  0.33682923975E+04  0.32104798651E+04 0.  0.
        3    1    3    3  502    0  0.10383983018E+04  0.83473510800E+02  0.17907897106E+04  0.20717544879E+04  0.10100000352E+00 0.  1.
       -3    1    3    3    0  502 -0.10383983018E+04 -0.83473510800E+02 -0.77186247523E+03  0.12965379096E+04  0.10100000352E+00 0. -1.
</event>
<event>
 5   0  0.2783875E-07  0.3188055E+04  0.7818609E-02  0.8191979E-01
        1   -1    0    0  501    0  0.00000000000E+00  0.00000000000E+00  0.16998349394E+04  0.16998349394E+04  0.50400001928E-02 0. -1.
       -1   -1    0    0    0  501  0.00000000000E+00  0.00000000000E+00 -0.14948058581E+04  0.14948058581E+04  0.50400001928E-02 0.  1.
    10030    2    1    2    0    0  0.00000000000E+00  0.00000000000E+00  0.20502908124E+03  0.31946407975E+04  0.31880547205E+04 0.  0.
        2    1    3    3  502    0  0.15138461435E+04 -0.48528113891E+03 -0.14754120538E+02  0.15897942049E+04  0.25500000920E-02 0. -1.
       -2    1    3    3    0  502 -0.15138461435E+04  0.48528113891E+03  0.21978320177E+03  0.16048465926E+04  0.25500000920E-02 0.  1.
</event>
<event>
 5   0  0.3075756E-07  0.3194660E+04  0.7818609E-02  0.8190229E-01
        1   -1    0    0  501    0  0.00000000000E+00  0.00000000000E+00  0.16845648025E+04  0.16845648025E+04  0.50400001928E-02 0.  1.
       -1   -1    0    0    0  501  0.00000000000E+00  0.00000000000E+00 -0.15146126076E+04  0.15146126076E+04  0.50400001928E-02 0. -1.
    10030    2    1    2    0    0  0.00000000000E+00  0.00000000000E+00  0.16995219484E+03  0.31991774101E+04  0.31946599745E+04 0.  0.
        5    1    3    3  502    0  0.28205429217E+03  0.32956966301E+03 -0.14544908691E+04  0.15178064978E+04  0.46999998093E+01 0. -1.
       -5    1    3    3    0  502 -0.28205429217E+03 -0.32956966301E+03  0.16244430640E+04  0.16813709123E+04  0.46999998093E+01 0.  1.
</event>
<event>
 5   0  0.8802800E-07  0.3197332E+04  0.7818609E-02  0.8189522E-01
       -2   -1    0    0    0  501  0.00000000000E+00  0.00000000000E+00  0.84084508847E+03  0.84084508847E+03  0.25500000920E-02 0. -1.
        2   -1    0    0  501    0  0.00000000000E+00  0.00000000000E+00 -0.30394819247E+04  0.30394819247E+04  0.25500000920E-02 0.  1.
    10030    2    1    2    0    0  0.00000000000E+00  0.00000000000E+00 -0.21986368362E+04  0.38803270132E+04  0.31973322930E+04 0.  0.
        5    1    3    3  502    0 -0.89150507286E+03 -0.13262025967E+04 -0.10434824767E+04  0.19085262355E+04  0.46999998093E+01 0. -1.
       -5    1    3    3    0  502  0.89150507286E+03  0.13262025967E+04 -0.11551543596E+04  0.19718007777E+04  0.46999998093E+01 0.  1.
</event>
<event>
 5   0  0.8195618E-07  0.3183792E+04  0.7818609E-02  0.8193111E-01
        2   -1    0    0  501    0  0.00000000000E+00  0.00000000000E+00  0.17124849887E+04  0.17124849887E+04  0.25500000920E-02 0. -1.
       -2   -1    0    0    0  501  0.00000000000E+00  0.00000000000E+00 -0.14797985865E+04  0.14797985865E+04  0.25500000920E-02 0.  1.
    10030    2    1    2    0    0  0.00000000000E+00  0.00000000000E+00  0.23268640214E+03  0.31922835752E+04  0.31837919942E+04 0.  0.
        1    1    3    3  502    0 -0.94742317585E+03 -0.42323486473E+03  0.13267889550E+04  0.16843715018E+04  0.50400001928E-02 0. -1.
       -1    1    3    3    0  502  0.94742317585E+03  0.42323486473E+03 -0.10941025529E+04  0.15079120734E+04  0.50400001928E-02 0.  1.
</event>
<event>
 5   0  0.2783875E-07  0.3198506E+04  0.7818609E-02  0.8189212E-01
       -3   -1    0    0    0  501  0.00000000000E+00  0.00000000000E+00  0.12544866946E+04  0.12544866987E+04  0.10100000352E+00 0. -1.
        3   -1    0    0  501    0  0.00000000000E+00  0.00000000000E+00 -0.20387698741E+04  0.20387698766E+04  0.10100000352E+00 0.  1.
    10030    2    1    2    0    0  0.00000000000E+00  0.00000000000E+00 -0.78428317946E+03  0.32932565753E+04  0.31985057081E+04 0.  0.
        2    1    3    3  502    0  0.14052157593E+04  0.24837609054E+03  0.35124918527E+03  0.14695911005E+04  0.25500000920E-02 0. -1.
       -2    1    3    3    0  502 -0.14052157593E+04 -0.24837609054E+03 -0.11355323647E+04  0.18236654748E+04  0.25500000920E-02 0.  1.
</event>
<event>
 5   0  0.2891204E-07  0.3204371E+04  0.7818609E-02  0.8187664E-01
        1   -1    0    0  501    0  0.00000000000E+00  0.00000000000E+00  0.10355500817E+04  0.10355500817E+04  0.50400001928E-02 0. -1.
       -1   -1    0    0    0  501  0.00000000000E+00  0.00000000000E+00 -0.24788739548E+04  0.24788739548E+04  0.50400001928E-02 0.  1.
    10030    2    1    2    0    0  0.00000000000E+00  0.00000000000E+00 -0.14433238731E+04  0.35144240365E+04  0.32043708440E+04 0.  0.
        4    1    3    3  502    0  0.13809827060E+04 -0.11679710476E+03  0.16001378819E+03  0.13951203615E+04  0.12699999809E+01 0. -1.
       -4    1    3    3    0  502 -0.13809827060E+04  0.11679710476E+03 -0.16033376613E+04  0.21193036750E+04  0.12699999809E+01 0.  1.
</event>
<event>
 5   0  0.8335929E-07  0.3244911E+04  0.7818609E-02  0.8177056E-01
       -2   -1    0    0    0  501  0.00000000000E+00  0.00000000000E+00  0.10597738936E+04  0.10597738936E+04  0.25500000920E-02 0. -1.
        2   -1    0    0  501    0  0.00000000000E+00  0.00000000000E+00 -0.24838903937E+04  0.24838903937E+04  0.25500000920E-02 0.  1.
    10030    2    1    2    0    0  0.00000000000E+00  0.00000000000E+00 -0.14241165001E+04  0.35436642873E+04  0.32449112122E+04 0.  0.
        4    1    3    3  502    0  0.63265934417E+03  0.25912359708E+03 -0.23189050088E+04  0.24175865935E+04  0.12699999809E+01 0.  1.
       -4    1    3    3    0  502 -0.63265934417E+03 -0.25912359708E+03  0.89478850869E+03  0.11260776938E+04  0.12699999809E+01 0. -1.
</event>
<event>
 5   0  0.8195618E-07  0.3214650E+04  0.7818609E-02  0.8184959E-01
       -2   -1    0    0    0  501  0.00000000000E+00  0.00000000000E+00  0.15688574925E+04  0.15688574925E+04  0.25500000920E-02 0.  1.
        2   -1    0    0  501    0  0.00000000000E+00  0.00000000000E+00 -0.16467355479E+04  0.16467355479E+04  0.25500000920E-02 0. -1.
    10030    2    1    2    0    0  0.00000000000E+00  0.00000000000E+00 -0.77878055380E+02  0.32155930405E+04  0.32146498426E+04 0.  0.
        1    1    3    3  502    0 -0.10155942623E+04 -0.12423441246E+04  0.54054765482E+02  0.16055443149E+04  0.50400001928E-02 0. -1.
       -1    1    3    3    0  502  0.10155942623E+04  0.12423441246E+04 -0.13193282086E+03  0.16100487256E+04  0.50400001928E-02 0.  1.
</event>
<event>
 5   0  0.8802800E-07  0.3180684E+04  0.7818609E-02  0.8193937E-01
       -2   -1    0    0    0  501  0.00000000000E+00  0.00000000000E+00  0.12396742396E+04  0.12396742396E+04  0.25500000920E-02 0. -1.
        2   -1    0    0  501    0  0.00000000000E+00  0.00000000000E+00 -0.20402036798E+04  0.20402036798E+04  0.25500000920E-02 0.  1.
    10030    2    1    2    0    0  0.00000000000E+00  0.00000000000E+00 -0.80052944025E+03  0.32798779194E+04  0.31806841688E+04 0.  0.
        5    1    3    3  502    0 -0.12951069007E+04  0.78101059448E+03  0.10689280918E+03  0.15161555315E+04  0.46999998093E+01 0. -1.
       -5    1    3    3    0  502  0.12951069007E+04 -0.78101059448E+03 -0.90742224943E+03  0.17637223879E+04  0.46999998093E+01 0.  1.
</event>
<event>
 5   0  0.8802800E-07  0.3195568E+04  0.7818609E-02  0.8189989E-01
       -2   -1    0    0    0  501  0.00000000000E+00  0.00000000000E+00  0.15696819110E+04  0.15696819110E+04  0.25500000920E-02 0. -1.
        2   -1    0    0  501    0  0.00000000000E+00  0.00000000000E+00 -0.16263896430E+04  0.16263896430E+04  0.25500000920E-02 0.  1.
    10030    2    1    2    0    0  0.00000000000E+00  0.00000000000E+00 -0.56707732038E+02  0.31960715540E+04  0.31955684333E+04 0.  0.
        5    1    3    3  502    0 -0.64715663185E+03 -0.10774037885E+03  0.14287463393E+04  0.15721825236E+04  0.46999998093E+01 0. -1.
       -5    1    3    3    0  502  0.64715663185E+03  0.10774037885E+03 -0.14854540713E+04  0.16238890305E+04  0.46999998093E+01 0.  1.
</event>
<event>
 5   0  0.8802800E-07  0.3209863E+04  0.7818609E-02  0.8186217E-01
       -2   -1    0    0    0  501  0.00000000000E+00  0.00000000000E+00  0.28151115186E+04  0.28151115186E+04  0.25500000920E-02 0. -1.
        2   -1    0    0  501    0  0.00000000000E+00  0.00000000000E+00 -0.91499203954E+03  0.91499203954E+03  0.25500000920E-02 0.  1.
    10030    2    1    2    0    0  0.00000000000E+00  0.00000000000E+00  0.19001194790E+04  0.37301035581E+04  0.32098626948E+04 0.  0.
        5    1    3    3  502    0 -0.35078075662E+02 -0.15498025900E+04  0.14329354204E+04  0.21110292627E+04  0.46999998093E+01 0. -1.
       -5    1    3    3    0  502  0.35078075662E+02  0.15498025900E+04  0.46718405867E+03  0.16190742954E+04  0.46999998093E+01 0.  1.
</event>
<event>
 5   0  0.3075756E-07  0.3184658E+04  0.7818609E-02  0.8192881E-01
        1   -1    0    0  501    0  0.00000000000E+00  0.00000000000E+00  0.15896765928E+04  0.15896765928E+04  0.50400001928E-02 0. -1.
       -1   -1    0    0    0  501  0.00000000000E+00  0.00000000000E+00 -0.15949861834E+04  0.15949861834E+04  0.50400001928E-02 0.  1.
    10030    2    1    2    0    0  0.00000000000E+00  0.00000000000E+00 -0.53095906275E+01  0.31846627761E+04  0.31846583500E+04 0.  0.
        5    1    3    3  502    0  0.67898000737E+03  0.14387446112E+04 -0.69663878794E+02  0.15924431082E+04  0.46999998093E+01 0.  1.
       -5    1    3    3    0  502 -0.67898000737E+03 -0.14387446112E+04  0.64354288166E+02  0.15922196680E+04  0.46999998093E+01 0. -1.
</event>
<event>
 5   0  0.8195618E-07  0.3179253E+04  0.7818609E-02  0.8194318E-01
       -2   -1    0    0    0  501  0.00000000000E+00  0.00000000000E+00  0.16427664361E+04  0.16427664361E+04  0.25500000920E-02 0.  1.
        2   -1    0    0  501    0  0.00000000000E+00  0.00000000000E+00 -0.15382059594E+04  0.15382059594E+04  0.25500000920E-02 0. -1.
    10030    2    1    2    0    0  0.00000000000E+00  0.00000000000E+00  0.10456047671E+03  0.31809723955E+04  0.31792534482E+04 0.  0.
        1    1    3    3  502    0 -0.84830085169E+03 -0.10718974456E+03  0.13930828241E+04  0.16345591856E+04  0.50400001928E-02 0.  1.
       -1    1    3    3    0  502  0.84830085169E+03  0.10718974456E+03 -0.12885223474E+04  0.15464132100E+04  0.50400001928E-02 0. -1.
</event>
<event>
 5   0  0.2783875E-07  0.3193014E+04  0.7818609E-02  0.8190664E-01
       -1   -1    0    0    0  501  0.00000000000E+00  0.00000000000E+00  0.12236183594E+04  0.12236183594E+04  0.50400001928E-02 0. -1.
        1   -1    0    0  501    0  0.00000000000E+00  0.00000000000E+00 -0.20830312226E+04  0.20830312226E+04  0.50400001928E-02 0.  1.
    10030    2    1    2    0    0  0.00000000000E+00  0.00000000000E+00 -0.85941286315E+03  0.33066495820E+04  0.31930144047E+04 0.  0.
        2    1    3    3  502    0 -0.12315070266E+02  0.15751022318E+04 -0.69923128457E+03  0.17233754933E+04  0.25500000920E-02 0.  1.
       -2    1    3    3    0  502  0.12315070266E+02 -0.15751022318E+04 -0.16018157858E+03  0.15832740887E+04  0.25500000920E-02 0. -1.
</event>
<event>
 5   0  0.2783875E-07  0.3196046E+04  0.7818609E-02  0.8189862E-01
        1   -1    0    0  501    0  0.00000000000E+00  0.00000000000E+00  0.12583634816E+04  0.12583634816E+04  0.50400001928E-02 0. -1.
       -1   -1    0    0    0  501  0.00000000000E+00  0.00000000000E+00 -0.20293641526E+04  0.20293641526E+04  0.50400001928E-02 0.  1.
    10030    2    1    2    0    0  0.00000000000E+00  0.00000000000E+00 -0.77100067103E+03  0.32877276342E+04  0.31960461451E+04 0.  0.
        2    1    3    3  502    0  0.81569010051E+03 -0.66900084601E+02 -0.17974075446E+04  0.19749683144E+04  0.25500000920E-02 0.  1.
       -2    1    3    3    0  502 -0.81569010051E+03  0.66900084601E+02  0.10264068736E+04  0.13127593198E+04  0.25500000920E-02 0. -1.
</event>
<event>
 5   0  0.2997105E-07  0.3190544E+04  0.7818609E-02  0.8191319E-01
       -1   -1    0    0    0  501  0.00000000000E+00  0.00000000000E+00  0.14939957291E+04  0.14939957291E+04  0.50400001928E-02 0.  1.
        1   -1    0    0  501    0  0.00000000000E+00  0.00000000000E+00 -0.17034135967E+04  0.17034135967E+04  0.50400001928E-02 0. -1.
    10030    2    1    2    0    0  0.00000000000E+00  0.00000000000E+00 -0.20941786755E+03  0.31974093258E+04  0.31905439275E+04 0.  0.
        3    1    3    3  502    0 -0.15475150188E+04 -0.29593580084E+03 -0.35527072578E+03  0.16151154852E+04  0.10100000352E+00 0.  1.
       -3    1    3    3    0  502  0.15475150188E+04  0.29593580084E+03  0.14585285823E+03  0.15822938406E+04  0.10100000352E+00 0. -1.
</event>
<event>
 5   0  0.8195618E-07  0.3197399E+04  0.7818609E-02  0.8189504E-01
        2   -1    0    0  501    0  0.00000000000E+00  0.00000000000E+00  0.14811722766E+04  0.14811722766E+04  0.25500000920E-02 0.  1.
       -2   -1    0    0    0  501  0.00000000000E+00  0.00000000000E+00 -0.17255520576E+04  0.17255520576E+04  0.25500000920E-02 0. -1.
    10030    2    1    2    0    0  0.00000000000E+00  0.00000000000E+00 -0.24437978102E+03  0.32067243342E+04  0.31973988613E+04 0.  0.
        1    1    3    3  502    0 -0.79228588040E+03 -0.13132510067E+04  0.33022971051E+03  0.15688839297E+04  0.50400001928E-02 0.  1.
       -1    1    3    3    0  502  0.79228588040E+03  0.13132510067E+04 -0.57460949153E+03  0.16378404046E+04  0.50400001928E-02 0. -1.
</event>
<event>
 5   0  0.2891204E-07  0.3198103E+04  0.7818609E-02  0.8189318E-01
        1   -1    0    0  501    0  0.00000000000E+00  0.00000000000E+00  0.25218505051E+04  0.25218505051E+04  0.50400001928E-02 0.  1.
       -1   -1    0    0    0  501  0.00000000000E+00  0.00000000000E+00 -0.10139245859E+04  0.10139245859E+04  0.50400001928E-02 0. -1.
    10030    2    1    2    0    0  0.00000000000E+00  0.00000000000E+00  0.15079259192E+04  0.35357750910E+04  0.31981033311E+04 0.  0.
        4    1    3    3  502    0  0.51600313134E+03  0.87501333686E+03  0.21192852626E+04  0.23501657831E+04  0.12699999809E+01 0.  1.
       -4    1    3    3    0  502 -0.51600313134E+03 -0.87501333686E+03 -0.61135934339E+03  0.11856093079E+04  0.12699999809E+01 0. -1.
</event>
<event>
 5   0  0.2891204E-07  0.3200227E+04  0.7818609E-02  0.8188757E-01
       -1   -1    0    0    0  501  0.00000000000E+00  0.00000000000E+00  0.77462565363E+03  0.77462565365E+03  0.50400001928E-02 0. -1.
        1   -1    0    0  501    0  0.00000000000E+00  0.00000000000E+00 -0.33052916137E+04  0.33052916137E+04  0.50400001928E-02 0.  1.
    10030    2    1    2    0    0  0.00000000000E+00  0.00000000000E+00 -0.25306659601E+04  0.40799172674E+04  0.32002272899E+04 0.  0.
        4    1    3    3  502    0 -0.97276822525E+03  0.12210534183E+04 -0.81800942047E+03  0.17624955306E+04  0.12699999809E+01 0. -1.
       -4    1    3    3    0  502  0.97276822525E+03 -0.12210534183E+04 -0.17126565396E+04  0.23174217368E+04  0.12699999809E+01 0.  1.
</event>
<event>
 5   0  0.3075756E-07  0.3221232E+04  0.7818609E-02  0.8183232E-01
       -1   -1    0    0    0  501  0.00000000000E+00  0.00000000000E+00  0.17616196338E+04  0.17616196338E+04  0.50400001928E-02 0. -1.
        1   -1    0    0  501    0  0.00000000000E+00  0.00000000000E+00 -0.14725561951E+04  0.14725561951E+04  0.50400001928E-02 0.  1.
    10030    2    1    2    0    0  0.00000000000E+00  0.00000000000E+00  0.28906343870E+03  0.32341758289E+04  0.32212320035E+04 0.  0.
        5    1    3    3  502    0  0.59075099080E+03  0.13903247462E+04  0.70541068167E+03  0.16672180280E+04  0.46999998093E+01 0. -1.
       -5    1    3    3    0  502 -0.59075099080E+03 -0.13903247462E+04 -0.41634724297E+03  0.15669578009E+04  0.46999998093E+01 0.  1.
</event>
<event>
 5   0  0.8838951E-07  0.3197605E+04  0.7818609E-02  0.8189450E-01
       -2   -1    0    0    0  501  0.00000000000E+00  0.00000000000E+00  0.11615505124E+04  0.11615505124E+04  0.25500000920E-02 0.  1.
        2   -1    0    0  501    0  0.00000000000E+00  0.00000000000E+00 -0.22006526339E+04  0.22006526339E+04  0.25500000920E-02 0. -1.
    10030    2    1    2    0    0  0.00000000000E+00  0.00000000000E+00 -0.10391021215E+04  0.33622031464E+04  0.31976048503E+04 0.  0.
        2    1    3    3  502    0 -0.60390376649E+03  0.88280504461E+03 -0.17690493885E+04  0.20672639514E+04  0.25500000920E-02 0. -1.
       -2    1    3    3    0  502  0.60390376649E+03 -0.88280504461E+03  0.72994726701E+03  0.12949391949E+04  0.25500000920E-02 0.  1.
</event>
<event>
 5   0  0.8335929E-07  0.3202955E+04  0.7818609E-02  0.8188037E-01
        2   -1    0    0  501    0  0.00000000000E+00  0.00000000000E+00  0.13785100865E+04  0.13785100866E+04  0.25500000920E-02 0.  1.
       -2   -1    0    0    0  501  0.00000000000E+00  0.00000000000E+00 -0.18605087304E+04  0.18605087304E+04  0.25500000920E-02 0. -1.
    10030    2    1    2    0    0  0.00000000000E+00  0.00000000000E+00 -0.48199864390E+03  0.32390188170E+04  0.32029549176E+04 0.  0.
        4    1    3    3  502    0  0.88746133877E+02  0.15960903159E+04 -0.33877439786E+03  0.16340593252E+04  0.12699999809E+01 0.  1.
       -4    1    3    3    0  502 -0.88746133877E+02 -0.15960903159E+04 -0.14322424604E+03  0.16049594918E+04  0.12699999809E+01 0. -1.
</event>
<event>
 5   0  0.8802800E-07  0.3216314E+04  0.7818609E-02  0.8184522E-01
        2   -1    0    0  501    0  0.00000000000E+00  0.00000000000E+00  0.95975623759E+03  0.95975623760E+03  0.25500000920E-02 0.  1.
       -2   -1    0    0    0  501  0.00000000000E+00  0.00000000000E+00 -0.26946110171E+04  0.26946110171E+04  0.25500000920E-02 0. -1.
    10030    2    1    2    0    0  0.00000000000E+00  0.00000000000E+00 -0.17348547795E+04  0.36543672547E+04  0.32163144943E+04 0.  0.
        5    1    3    3  502    0 -0.37785574736E+02  0.69587336915E+03  0.77926687639E+03  0.10454407923E+04  0.46999998093E+01 0.  1.
       -5    1    3    3    0  502  0.37785574736E+02 -0.69587336915E+03 -0.25141216559E+04  0.26089264624E+04  0.46999998093E+01 0. -1.
</event>
<event>
 5   0  0.8488469E-07  0.3188473E+04  0.7818609E-02  0.8191868E-01
       -2   -1    0    0    0  501  0.00000000000E+00  0.00000000000E+00  0.10531313760E+04  0.10531313760E+04  0.25500000920E-02 0. -1.
        2   -1    0    0  501    0  0.00000000000E+00  0.00000000000E+00 -0.24133641051E+04  0.24133641051E+04  0.25500000920E-02 0.  1.
    10030    2    1    2    0    0  0.00000000000E+00  0.00000000000E+00 -0.13602327291E+04  0.34664954811E+04  0.31884726505E+04 0.  0.
        3    1    3    3  502    0 -0.11619487141E+04  0.53206970095E+03 -0.17163042004E+04  0.21398418398E+04  0.10100000352E+00 0.  1.
       -3    1    3    3    0  502  0.11619487141E+04 -0.53206970095E+03  0.35607147136E+03  0.13266536412E+04  0.10100000352E+00 0. -1.
</event>
<event>
 5   0  0.8802800E-07  0.3202847E+04  0.7818609E-02  0.8188066E-01
        2   -1    0    0  501    0  0.00000000000E+00  0.00000000000E+00  0.16762993858E+04  0.16762993858E+04  0.25500000920E-02 0. -1.
       -2   -1    0    0    0  501  0.00000000000E+00  0.00000000000E+00 -0.15298919860E+04  0.15298919860E+04  0.25500000920E-02 0.  1.
    10030    2    1    2    0    0  0.00000000000E+00  0.00000000000E+00  0.14640739974E+03  0.32061913718E+04  0.32028468565E+04 0.  0.
        5    1    3    3  502    0  0.10853313003E+04  0.71877627424E+03 -0.86048219687E+03  0.15604598890E+04  0.46999998093E+01 0.  1.
       -5    1    3    3    0  502 -0.10853313003E+04 -0.71877627424E+03  0.10068895966E+04  0.16457314829E+04  0.46999998093E+01 0. -1.
</event>
<event>
 5   0  0.8838951E-07  0.3196821E+04  0.7818609E-02  0.8189657E-01
        2   -1    0    0  501    0  0.00000000000E+00  0.00000000000E+00  0.25247520324E+04  0.25247520324E+04  0.25500000920E-02 0.  1.
       -2   -1    0    0    0  501  0.00000000000E+00  0.00000000000E+00 -0.10119470927E+04  0.10119470927E+04  0.25500000920E-02 0. -1.
    10030    2    1    2    0    0  0.00000000000E+00  0.00000000000E+00  0.15128049397E+04  0.35366991252E+04  0.31968205949E+04 0.  0.
        2    1    3    3  502    0 -0.23875682448E+03  0.71812195541E+03 -0.80119361871E+03  0.11020958120E+04  0.25500000920E-02 0. -1.
       -2    1    3    3    0  502  0.23875682448E+03 -0.71812195541E+03  0.23139985584E+04  0.24346033132E+04  0.25500000920E-02 0.  1.
</event>
<event>
 5   0  0.3013888E-07  0.3167347E+04  0.7818609E-02  0.8197494E-01
       -1   -1    0    0    0  501  0.00000000000E+00  0.00000000000E+00  0.89438841281E+03  0.89438841283E+03  0.50400001928E-02 0.  1.
        1   -1    0    0  501    0  0.00000000000E+00  0.00000000000E+00 -0.28041747941E+04  0.28041747941E+04  0.50400001928E-02 0. -1.
    10030    2    1    2    0    0  0.00000000000E+00  0.00000000000E+00 -0.19097863813E+04  0.36985632070E+04  0.31673468035E+04 0.  0.
        1    1    3    3  502    0  0.48558891418E+03 -0.29618365726E+03  0.77099819166E+03  0.95810206344E+03  0.50400001928E-02 0.  1.
       -1    1    3    3    0  502 -0.48558891418E+03  0.29618365726E+03 -0.26807845730E+04  0.27404611435E+04  0.50400001928E-02 0. -1.
</event>
<event>
 5   0  0.2891204E-07  0.3197955E+04  0.7818609E-02  0.8189358E-01
        1   -1    0    0  501    0  0.00000000000E+00  0.00000000000E+00  0.18838224887E+04  0.18838224887E+04  0.50400001928E-02 0. -1.
       -1   -1    0    0    0  501  0.00000000000E+00  0.00000000000E+00 -0.13572025755E+04  0.13572025755E+04  0.50400001928E-02 0.  1.
    10030    2    1    2    0    0  0.00000000000E+00  0.00000000000E+00  0.52661991320E+03  0.32410250642E+04  0.31979548048E+04 0.  0.
        4    1    3    3  502    0 -0.30389772774E+03 -0.14289355218E+04 -0.39545719955E+03  0.15134723532E+04  0.12699999809E+01 0.  1.
       -4    1    3    3    0  502  0.30389772774E+03  0.14289355218E+04  0.92207711275E+03  0.17275527110E+04  0.12699999809E+01 0. -1.
</event>
<event>
 5   0  0.8335929E-07  0.3197270E+04  0.7818609E-02  0.8189539E-01
       -2   -1    0    0    0  501  0.00000000000E+00  0.00000000000E+00  0.10067820106E+04  0.10067820106E+04  0.25500000920E-02 0.  1.
        2   -1    0    0  501    0  0.00000000000E+00  0.00000000000E+00 -0.25384181022E+04  0.25384181022E+04  0.25500000920E-02 0. -1.
    10030    2    1    2    0    0  0.00000000000E+00  0.00000000000E+00 -0.15316360916E+04  0.35452001129E+04  0.31972698859E+04 0.  0.
        4    1    3    3  502    0  0.14173826003E+04  0.69552825095E+03 -0.48772916819E+03  0.16524570608E+04  0.12699999809E+01 0.  1.
       -4    1    3    3    0  502 -0.14173826003E+04 -0.69552825095E+03 -0.10439069234E+04  0.18927430520E+04  0.12699999809E+01 0. -1.
</event>
<event>
 5   0  0.8335929E-07  0.3203327E+04  0.7818609E-02  0.8187939E-01
        2   -1    0    0  501    0  0.00000000000E+00  0.00000000000E+00  0.29021794277E+04  0.29021794277E+04  0.25500000920E-02 0.  1.
       -2   -1    0    0    0  501  0.00000000000E+00  0.00000000000E+00 -0.88393076638E+03  0.88393076639E+03  0.25500000920E-02 0. -1.
    10030    2    1    2    0    0  0.00000000000E+00  0.00000000000E+00  0.20182486613E+04  0.37861101941E+04  0.32033268242E+04 0.  0.
        4    1    3    3  502    0 -0.10634457054E+04 -0.11760784670E+04  0.12766867644E+04  0.20356836778E+04  0.12699999809E+01 0.  1.
       -4    1    3    3    0  502  0.10634457054E+04  0.11760784670E+04  0.74156189688E+03  0.17504265162E+04  0.12699999809E+01 0. -1.
</event>
<event>
 5   0  0.2783875E-07  0.3190532E+04  0.7818609E-02  0.8191322E-01
       -1   -1    0    0    0  501  0.00000000000E+00  0.00000000000E+00  0.10067281434E+04  0.10067281434E+04  0.50400001928E-02 0.  1.
        1   -1    0    0  501    0  0.00000000000E+00  0.00000000000E+00 -0.25278654319E+04  0.25278654319E+04  0.50400001928E-02 0. -1.
    10030    2    1    2    0    0  0.00000000000E+00  0.00000000000E+00 -0.15211372884E+04  0.35345935753E+04  0.31905317883E+04 0.  0.
        2    1    3    3  502    0 -0.31578952631E+03 -0.62941144673E+03  0.82522430983E+03  0.10848395991E+04  0.25500000920E-02 0.  1.
       -2    1    3    3    0  502  0.31578952631E+03  0.62941144673E+03 -0.23463615983E+04  0.24497539762E+04  0.25500000920E-02 0. -1.
</event>
<event>
 5   0  0.2783875E-07  0.3185880E+04  0.7818609E-02  0.8192556E-01
       -1   -1    0    0    0  501  0.00000000000E+00  0.00000000000E+00  0.13363920568E+04  0.13363920568E+04  0.50400001928E-02 0. -1.
        1   -1    0    0  501    0  0.00000000000E+00  0.00000000000E+00 -0.18987379560E+04  0.18987379560E+04  0.50400001928E-02 0.  1.
    10030    2    1    2    0    0  0.00000000000E+00  0.00000000000E+00 -0.56234589919E+03  0.32351300128E+04  0.31858803005E+04 0.  0.
        2    1    3    3  502    0  0.10399077082E+04 -0.12040548054E+04 -0.36178724077E+03  0.16315777712E+04  0.25500000920E-02 0. -1.
       -2    1    3    3    0  502 -0.10399077082E+04  0.12040548054E+04 -0.20055865842E+03  0.16035522416E+04  0.25500000920E-02 0.  1.
</event>
<event>
 5   0  0.8838951E-07  0.3189820E+04  0.7818609E-02  0.8191511E-01
       -2   -1    0    0    0  501  0.00000000000E+00  0.00000000000E+00  0.27169545823E+04  0.27169545823E+04  0.25500000920E-02 0.  1.
        2   -1    0    0  501    0  0.00000000000E+00  0.00000000000E+00 -0.93624626997E+03  0.93624626998E+03  0.25500000920E-02 0. -1.
    10030    2    1    2    0    0  0.00000000000E+00  0.00000000000E+00  0.17807083123E+04  0.36532008523E+04  0.31898204297E+04 0.  0.
        2    1    3    3  502    0 -0.68387583993E+02 -0.12714556266E+04 -0.20961785110E+03  0.12904324529E+04  0.25500000920E-02 0. -1.
       -2    1    3    3    0  502  0.68387583993E+02  0.12714556266E+04  0.19903261634E+04  0.23627683993E+04  0.25500000920E-02 0.  1.
</event>
<event>
 5   0  0.8488469E-07  0.3159812E+04  0.7818609E-02  0.8199512E-01
        2   -1    0    0  501    0  0.00000000000E+00  0.00000000000E+00  0.27806221362E+04  0.27806221362E+04  0.25500000920E-02 0.  1.
       -2   -1    0    0    0  501  0.00000000000E+00  0.00000000000E+00 -0.89767772399E+03  0.89767772399E+03  0.25500000920E-02 0. -1.
    10030    2    1    2    0    0  0.00000000000E+00  0.00000000000E+00  0.18829444122E+04  0.36782998601E+04  0.31598117352E+04 0.  0.
        3    1    3    3  502    0 -0.16528115873E+02 -0.14064356978E+04  0.17791047100E+04  0.22679391813E+04  0.10100000352E+00 0. -1.
       -3    1    3    3    0  502  0.16528115873E+02  0.14064356978E+04  0.10383970214E+03  0.14103606789E+04  0.10100000352E+00 0.  1.
</event>
<event>
 5   0  0.8838951E-07  0.3208549E+04  0.7818609E-02  0.8186563E-01
        2   -1    0    0  501    0  0.00000000000E+00  0.00000000000E+00  0.11812390671E+04  0.11812390671E+04  0.25500000920E-02 0. -1.
       -2   -1    0    0    0  501  0.00000000000E+00  0.00000000000E+00 -0.21788106646E+04  0.21788106646E+04  0.25500000920E-02 0.  1.
    10030    2    1    2    0    0  0.00000000000E+00  0.00000000000E+00 -0.99757159754E+03  0.33600497317E+04  0.32085487541E+04 0.  0.
        2    1    3    3  502    0  0.14868467713E+04 -0.60216537770E+03 -0.51919482020E+03  0.16860841393E+04  0.25500000920E-02 0. -1.
       -2    1    3    3    0  502 -0.14868467713E+04  0.60216537770E+03 -0.47837677734E+03  0.16739655924E+04  0.25500000920E-02 0.  1.
</event>
<event>
 5   0  0.8195618E-07  0.3175171E+04  0.7818609E-02  0.8195405E-01
       -2   -1    0    0    0  501  0.00000000000E+00  0.00000000000E+00  0.23029725410E+04  0.23029725410E+04  0.25500000920E-02 0. -1.
        2   -1    0    0  501    0  0.00000000000E+00  0.00000000000E+00 -0.10944236952E+04  0.10944236952E+04  0.25500000920E-02 0.  1.
    10030    2    1    2    0    0  0.00000000000E+00  0.00000000000E+00  0.12085488459E+04  0.33973962362E+04  0.31751709990E+04 0.  0.
        1    1    3    3  502    0  0.40127775098E+03 -0.14752539905E+04  0.14651247770E+03  0.15358593933E+04  0.50400001928E-02 0.  1.
       -1    1    3    3    0  502 -0.40127775098E+03  0.14752539905E+04  0.10620363682E+04  0.18615368429E+04  0.50400001928E-02 0. -1.
</event>
<event>
 5   0  0.2997105E-07  0.3201072E+04  0.7818609E-02  0.8188534E-01
        1   -1    0    0  501    0  0.00000000000E+00  0.00000000000E+00  0.26993652854E+04  0.26993652854E+04  0.50400001928E-02 0.  1.
       -1   -1    0    0    0  501  0.00000000000E+00  0.00000000000E+00 -0.94900682146E+03  0.94900682147E+03  0.50400001928E-02 0. -1.
    10030    2    1    2    0    0  0.00000000000E+00  0.00000000000E+00  0.17503584640E+04  0.36483721069E+04  0.32010723638E+04 0.  0.
        3    1    3    3  502    0 -0.49143694484E+03 -0.14991356169E+04  0.11826925485E+04  0.19717199455E+04  0.10100000352E+00 0.  1.
       -3    1    3    3    0  502  0.49143694484E+03  0.14991356169E+04  0.56766591544E+03  0.16766521615E+04  0.10100000352E+00 0. -1.
</event>
<event>
 5   0  0.8802800E-07  0.3205383E+04  0.7818609E-02  0.8187397E-01
        2   -1    0    0  501    0  0.00000000000E+00  0.00000000000E+00  0.22295036404E+04  0.22295036404E+04  0.25500000920E-02 0. -1.
       -2   -1    0    0    0  501  0.00000000000E+00  0.00000000000E+00 -0.11521041844E+04  0.11521041844E+04  0.25500000920E-02 0.  1.
    10030    2    1    2    0    0  0.00000000000E+00  0.00000000000E+00  0.10773994560E+04  0.33816078248E+04  0.32053832677E+04 0.  0.
        5    1    3    3  502    0  0.39971297015E+03  0.35897408861E+03  0.21316690592E+04  0.21983329872E+04  0.46999998093E+01 0. -1.
       -5    1    3    3    0  502 -0.39971297015E+03 -0.35897408861E+03 -0.10542696033E+04  0.11832748375E+04  0.46999998093E+01 0.  1.
</event>
<event>
 5   0  0.8335929E-07  0.3248926E+04  0.7818609E-02  0.8176014E-01
       -2   -1    0    0    0  501  0.00000000000E+00  0.00000000000E+00  0.22371507316E+04  0.22371507316E+04  0.25500000920E-02 0. -1.
        2   -1    0    0  501    0  0.00000000000E+00  0.00000000000E+00 -0.11795720286E+04  0.11795720286E+04  0.25500000920E-02 0.  1.
    10030    2    1    2    0    0  0.00000000000E+00  0.00000000000E+00  0.10575787031E+04  0.34167227602E+04  0.32489262391E+04 0.  0.
        4    1    3    3  502    0  0.12202760046E+04  0.60769870748E+03 -0.40030206565E+03  0.14207795759E+04  0.12699999809E+01 0.  1.
       -4    1    3    3    0  502 -0.12202760046E+04 -0.60769870748E+03  0.14578807687E+04  0.19959431844E+04  0.12699999809E+01 0. -1.
</event>
<event>
 5   0  0.8838951E-07  0.3195950E+04  0.7818609E-02  0.8189888E-01
       -2   -1    0    0    0  501  0.00000000000E+00  0.00000000000E+00  0.17648379051E+04  0.17648379051E+04  0.25500000920E-02 0. -1.
        2   -1    0    0  501    0  0.00000000000E+00  0.00000000000E+00 -0.14468885781E+04  0.14468885781E+04  0.25500000920E-02 0.  1.
    10030    2    1    2    0    0  0.00000000000E+00  0.00000000000E+00  0.31794932702E+03  0.32117264832E+04  0.31959498163E+04 0.  0.
        2    1    3    3  502    0 -0.11390205171E+04 -0.55757669520E+02 -0.96594707205E+03  0.14945000509E+04  0.25500000920E-02 0.  1.
       -2    1    3    3    0  502  0.11390205171E+04  0.55757669520E+02  0.12838963991E+04  0.17172264323E+04  0.25500000920E-02 0. -1.
</event>
<event>
 5   0  0.2997105E-07  0.3350062E+04  0.7818609E-02  0.8150273E-01
        1   -1    0    0  501    0  0.00000000000E+00  0.00000000000E+00  0.18727424411E+04  0.18727424411E+04  0.50400001928E-02 0. -1.
       -1   -1    0    0    0  501  0.00000000000E+00  0.00000000000E+00 -0.14981926209E+04  0.14981926210E+04  0.50400001928E-02 0.  1.
    10030    2    1    2    0    0  0.00000000000E+00  0.00000000000E+00  0.37454982016E+03  0.33709350621E+04  0.33500620330E+04 0.  0.
        3    1    3    3  502    0  0.14403085900E+04  0.19928462310E+03  0.10240364299E+04  0.17784414006E+04  0.10100000352E+00 0. -1.
       -3    1    3    3    0  502 -0.14403085900E+04 -0.19928462310E+03 -0.64948660977E+03  0.15924936615E+04  0.10100000352E+00 0.  1.
</event>
<event>
 5   0  0.3075756E-07  0.3188193E+04  0.7818609E-02  0.8191942E-01
        1   -1    0    0  501    0  0.00000000000E+00  0.00000000000E+00  0.19524429418E+04  0.19524429418E+04  0.50400001928E-02 0. -1.
       -1   -1    0    0    0  501  0.00000000000E+00  0.00000000000E+00 -0.13015200286E+04  0.13015200286E+04  0.50400001928E-02 0.  1.
    10030    2    1    2    0    0  0.00000000000E+00  0.00000000000E+00  0.65092291323E+03  0.32539629704E+04  0.31881929637E+04 0.  0.
        5    1    3    3  502    0  0.10773916852E+04  0.11324791773E+04  0.64470732225E+03  0.16908434439E+04  0.46999998093E+01 0. -1.
       -5    1    3    3    0  502 -0.10773916852E+04 -0.11324791773E+04  0.62155909786E+01  0.15631195265E+04  0.46999998093E+01 0.  1.
</event>
<event>
 5   0  0.8195618E-07  0.3182491E+04  0.7818609E-02  0.8193457E-01
       -2   -1    0    0    0  501  0.00000000000E+00  0.00000000000E+00  0.22720494516E+04  0.22720494516E+04  0.25500000920E-02 0. -1.
        2   -1    0    0  501    0  0.00000000000E+00  0.00000000000E+00 -0.11144394102E+04  0.11144394102E+04  0.25500000920E-02 0.  1.
    10030    2    1    2    0    0  0.00000000000E+00  0.00000000000E+00  0.11576100414E+04  0.33864888619E+04  0.31824905033E+04 0.  0.
        1    1    3    3  502    0 -0.12353561368E+04  0.96504719883E+03  0.28808830133E+03  0.15938681721E+04  0.50400001928E-02 0.  1.
       -1    1    3    3    0  502  0.12353561368E+04 -0.96504719883E+03  0.86952174009E+03  0.17926206897E+04  0.50400001928E-02 0. -1.
</event>
<event>
 5   0  0.8802800E-07  0.3220271E+04  0.7818609E-02  0.8183484E-01
        2   -1    0    0  501    0  0.00000000000E+00  0.00000000000E+00  0.16239688706E+04  0.16239688706E+04  0.25500000920E-02 0.  1.
       -2   -1    0    0    0  501  0.00000000000E+00  0.00000000000E+00 -0.15964197045E+04  0.15964197045E+04  0.25500000920E-02 0. -1.
    10030    2    1    2    0    0  0.00000000000E+00  0.00000000000E+00  0.27549166118E+02  0.32203885751E+04  0.32202707368E+04 0.  0.
        5    1    3    3  502    0 -0.23372007676E+03 -0.20989421039E+03  0.15930198699E+04  0.16237041140E+04  0.46999998093E+01 0.  1.
       -5    1    3    3    0  502  0.23372007676E+03  0.20989421039E+03 -0.15654707038E+04  0.15966844611E+04  0.46999998093E+01 0. -1.
</event>
<event>
 5   0  0.8802800E-07  0.3199523E+04  0.7818609E-02  0.8188943E-01
       -2   -1    0    0    0  501  0.00000000000E+00  0.00000000000E+00  0.12147889893E+04  0.12147889893E+04  0.25500000920E-02 0.  1.
        2   -1    0    0  501    0  0.00000000000E+00  0.00000000000E+00 -0.21067340297E+04  0.21067340297E+04  0.25500000920E-02 0. -1.
    10030    2    1    2    0    0  0.00000000000E+00  0.00000000000E+00 -0.89194504034E+03  0.33215230190E+04  0.31995232787E+04 0.  0.
        5    1    3    3  502    0  0.11275524641E+04 -0.98495161507E+03 -0.10311237164E+04  0.18178950607E+04  0.46999998093E+01 0. -1.
       -5    1    3    3    0  502 -0.11275524641E+04  0.98495161507E+03  0.13917867604E+03  0.15036279583E+04  0.46999998093E+01 0.  1.
</event>
<event>
 5   0  0.2891204E-07  0.3153541E+04  0.7818609E-02  0.8201196E-01
       -1   -1    0    0    0  501  0.00000000000E+00  0.00000000000E+00  0.18860805155E+04  0.18860805155E+04  0.50400001928E-02 0. -1.
        1   -1    0    0  501    0  0.00000000000E+00  0.00000000000E+00 -0.13181857782E+04  0.13181857782E+04  0.50400001928E-02 0.  1.
    10030    2    1    2    0    0  0.00000000000E+00  0.00000000000E+00  0.56789473728E+03  0.32042662937E+04  0.31535405575E+04 0.  0.
        4    1    3    3  502    0 -0.13840606535E+04  0.63816935568E+03  0.69457519596E+03  0.16749090527E+04  0.12699999809E+01 0. -1.
       -4    1    3    3    0  502  0.13840606535E+04 -0.63816935568E+03 -0.12668045868E+03  0.15293572410E+04  0.12699999809E+01 0.  1.
</event>
<event>
 5   0  0.2891204E-07  0.3192678E+04  0.7818609E-02  0.8190754E-01
        1   -1    0    0  501    0  0.00000000000E+00  0.00000000000E+00  0.17291792947E+04  0.17291792947E+04  0.50400001928E-02 0.  1.
       -1   -1    0    0    0  501  0.00000000000E+00  0.00000000000E+00 -0.14737039221E+04  0.14737039221E+04  0.50400001928E-02 0. -1.
    10030    2    1    2    0    0  0.00000000000E+00  0.00000000000E+00  0.25547537261E+03  0.32028832169E+04  0.31926780663E+04 0.  0.
        4    1    3    3  502    0 -0.15093431085E+04 -0.38426224516E+03 -0.22341345423E+03  0.15734323236E+04  0.12699999809E+01 0. -1.
       -4    1    3    3    0  502  0.15093431085E+04  0.38426224516E+03  0.47888882685E+03  0.16294508933E+04  0.12699999809E+01 0.  1.
</event>
<event>
 5   0  0.2783875E-07  0.3193556E+04  0.7818609E-02  0.8190521E-01
       -1   -1    0    0    0  501  0.00000000000E+00  0.00000000000E+00  0.13095013324E+04  0.13095013324E+04  0.50400001928E-02 0. -1.
        1   -1    0    0  501    0  0.00000000000E+00  0.00000000000E+00 -0.19470773961E+04  0.19470773961E+04  0.50400001928E-02 0.  1.
    10030    2    1    2    0    0  0.00000000000E+00  0.00000000000E+00 -0.63757606366E+03  0.32565787285E+04  0.31935562901E+04 0.  0.
        2    1    3    3  502    0  0.26304723483E+02 -0.13846957795E+04  0.49164482792E+03  0.14696220524E+04  0.25500000920E-02 0. -1.
       -2    1    3    3    0  502 -0.26304723483E+02  0.13846957795E+04 -0.11292208916E+04  0.17869566761E+04  0.25500000920E-02 0.  1.
</event>
<event>
 5   0  0.8195618E-07  0.3169811E+04  0.7818609E-02  0.8196836E-01
        2   -1    0    0  501    0  0.00000000000E+00  0.00000000000E+00  0.14854510596E+04  0.14854510596E+04  0.25500000920E-02 0.  1.
       -2   -1    0    0    0  501  0.00000000000E+00  0.00000000000E+00 -0.16910182612E+04  0.16910182612E+04  0.25500000920E-02 0. -1.
    10030    2    1    2    0    0  0.00000000000E+00  0.00000000000E+00 -0.20556720164E+03  0.31764693208E+04  0.31698106365E+04 0.  0.
        1    1    3    3  502    0 -0.10340376920E+04  0.10447701636E+04  0.49103712086E+03  0.15498051805E+04  0.50400001928E-02 0.  1.
       -1    1    3    3    0  502  0.10340376920E+04 -0.10447701636E+04 -0.69660432250E+03  0.16266641403E+04  0.50400001928E-02 0. -1.
</event>
<event>
 5   0  0.8802800E-07  0.3192505E+04  0.7818609E-02  0.8190799E-01
       -2   -1    0    0    0  501  0.00000000000E+00  0.00000000000E+00  0.87623411572E+03  0.87623411572E+03  0.25500000920E-02 0.  1.
        2   -1    0    0  501    0  0.00000000000E+00  0.00000000000E+00 -0.29079241368E+04  0.29079241368E+04  0.25500000920E-02 0. -1.
    10030    2    1    2    0    0  0.00000000000E+00  0.00000000000E+00 -0.20316900211E+04  0.37841582525E+04  0.31925051822E+04 0.  0.
        5    1    3    3  502    0 -0.37844733890E+03  0.15139514328E+02  0.82219289531E+03  0.90524849644E+03  0.46999998093E+01 0.  1.
       -5    1    3    3    0  502  0.37844733890E+03 -0.15139514328E+02 -0.28538829164E+04  0.28789097561E+04  0.46999998093E+01 0. -1.
</event>
<event>
 5   0  0.8488469E-07  0.3180063E+04  0.7818609E-02  0.8194102E-01
        2   -1    0    0  501    0  0.00000000000E+00  0.00000000000E+00  0.23543808513E+04  0.23543808513E+04  0.25500000920E-02 0. -1.
       -2   -1    0    0    0  501  0.00000000000E+00  0.00000000000E+00 -0.10738280257E+04  0.10738280257E+04  0.25500000920E-02 0.  1.
    10030    2    1    2    0    0  0.00000000000E+00  0.00000000000E+00  0.12805528257E+04  0.34282088770E+04  0.31800629813E+04 0.  0.
        3    1    3    3  502    0 -0.28467161228E+03  0.34518097047E+03  0.22851184220E+04  0.23285089740E+04  0.10100000352E+00 0. -1.
       -3    1    3    3    0  502  0.28467161228E+03 -0.34518097047E+03 -0.10045655963E+04  0.10996999030E+04  0.10100000352E+00 0.  1.
</event>
<event>
 5   0  0.2891204E-07  0.3211674E+04  0.7818609E-02  0.8185741E-01
        1   -1    0    0  501    0  0.00000000000E+00  0.00000000000E+00  0.18064520550E+04  0.18064520550E+04  0.50400001928E-02 0.  1.
       -1   -1    0    0    0  501  0.00000000000E+00  0.00000000000E+00 -0.14275016388E+04  0.14275016388E+04  0.50400001928E-02 0. -1.
    10030    2    1    2    0    0  0.00000000000E+00  0.00000000000E+00  0.37895041616E+03  0.32339536938E+04  0.32116744972E+04 0.  0.
        4    1    3    3  502    0 -0.50152746963E+03  0.10068519423E+02  0.17255344843E+04  0.17969702411E+04  0.12699999809E+01 0.  1.
       -4    1    3    3    0  502  0.50152746963E+03 -0.10068519423E+02 -0.13465840682E+04  0.14369834527E+04  0.12699999809E+01 0. -1.
</event>
<event>
 5   0  0.8195618E-07  0.3183882E+04  0.7818609E-02  0.8193087E-01
       -2   -1    0    0    0  501  0.00000000000E+00  0.00000000000E+00  0.94968867007E+03  0.94968867007E+03  0.25500000920E-02 0.  1.
        2   -1    0    0  501    0  0.00000000000E+00  0.00000000000E+00 -0.26685331938E+04  0.26685331938E+04  0.25500000920E-02 0. -1.
    10030    2    1    2    0    0  0.00000000000E+00  0.00000000000E+00 -0.17188445237E+04  0.36182218639E+04  0.31838817440E+04 0.  0.
        1    1    3    3  502    0  0.90114528219E+03  0.43844748503E+03  0.54623900070E+03  0.11413483529E+04  0.50400001928E-02 0.  1.
       -1    1    3    3    0  502 -0.90114528219E+03 -0.43844748503E+03 -0.22650835244E+04  0.24768735110E+04  0.50400001928E-02 0. -1.
</event>
<event>
 5   0  0.2891204E-07  0.3225408E+04  0.7818609E-02  0.8182139E-01
       -1   -1    0    0    0  501  0.00000000000E+00  0.00000000000E+00  0.15721349559E+04  0.15721349559E+04  0.50400001928E-02 0. -1.
        1   -1    0    0  501    0  0.00000000000E+00  0.00000000000E+00 -0.16543201395E+04  0.16543201395E+04  0.50400001928E-02 0.  1.
    10030    2    1    2    0    0  0.00000000000E+00  0.00000000000E+00 -0.82185183621E+02  0.32264550954E+04  0.32254082033E+04 0.  0.
        4    1    3    3  502    0  0.92781808711E+03 -0.20436057821E+03 -0.13446668440E+04  0.16464325625E+04  0.12699999809E+01 0.  1.
       -4    1    3    3    0  502 -0.92781808711E+03  0.20436057821E+03  0.12624816604E+04  0.15800225329E+04  0.12699999809E+01 0. -1.
</event>
<event>
 5   0  0.8488469E-07  0.3187294E+04  0.7818609E-02  0.8192181E-01
       -2   -1    0    0    0  501  0.00000000000E+00  0.00000000000E+00  0.11035333549E+04  0.11035333549E+04  0.25500000920E-02 0.  1.
        2   -1    0    0  501    0  0.00000000000E+00  0.00000000000E+00 -0.23014349875E+04  0.23014349875E+04  0.25500000920E-02 0. -1.
    10030    2    1    2    0    0  0.00000000000E+00  0.00000000000E+00 -0.11979016326E+04  0.34049683424E+04  0.31872936939E+04 0.  0.
        3    1    3    3  502    0  0.81285778025E+01  0.31917088598E+03 -0.22669188657E+04  0.22892918735E+04  0.10100000352E+00 0. -1.
       -3    1    3    3    0  502 -0.81285778025E+01 -0.31917088598E+03  0.10690172331E+04  0.11156764689E+04  0.10100000352E+00 0.  1.
</event>
<event>
 5   0  0.8335929E-07  0.3201121E+04  0.7818609E-02  0.8188521E-01
        2   -1    0    0  501    0  0.00000000000E+00  0.00000000000E+00  0.25825599976E+04  0.25825599977E+04  0.25500000920E-02 0.  1.
       -2   -1    0    0    0  501  0.00000000000E+00  0.00000000000E+00 -0.99195940749E+03  0.99195940750E+03  0.25500000920E-02 0. -1.
    10030    2    1    2    0    0  0.00000000000E+00  0.00000000000E+00  0.15906005902E+04  0.35745194051E+04  0.32011214817E+04 0.  0.
        4    1    3    3  502    0  0.12528584292E+03  0.13200300146E+04  0.17963142673E+04  0.22326939651E+04  0.12699999809E+01 0.  1.
       -4    1    3    3    0  502 -0.12528584292E+03 -0.13200300146E+04 -0.20571367717E+03  0.13418254401E+04  0.12699999809E+01 0. -1.
</event>
<event>
 5   0  0.3013888E-07  0.3177295E+04  0.7818609E-02  0.8194839E-01
        1   -1    0    0  501    0  0.00000000000E+00  0.00000000000E+00  0.22658434117E+04  0.22658434117E+04  0.50400001928E-02 0.  1.
       -1   -1    0    0    0  501  0.00000000000E+00  0.00000000000E+00 -0.11138462480E+04  0.11138462480E+04  0.50400001928E-02 0. -1.
    10030    2    1    2    0    0  0.00000000000E+00  0.00000000000E+00  0.11519971636E+04  0.33796896597E+04  0.31772951910E+04 0.  0.
        1    1    3    3  502    0 -0.83127046591E+03 -0.60280161910E+03  0.18654124876E+04  0.21293529835E+04  0.50400001928E-02 0.  1.
       -1    1    3    3    0  502  0.83127046591E+03  0.60280161910E+03 -0.71341532394E+03  0.12503366762E+04  0.50400001928E-02 0. -1.
</event>
<event>
 5   0  0.8195618E-07  0.3231106E+04  0.7818609E-02  0.8180650E-01
       -2   -1    0    0    0  501  0.00000000000E+00  0.00000000000E+00  0.13712164846E+04  0.13712164846E+04  0.25500000920E-02 0. -1.
        2   -1    0    0  501    0  0.00000000000E+00  0.00000000000E+00 -0.19034274309E+04  0.19034274309E+04  0.25500000920E-02 0.  1.
    10030    2    1    2    0    0  0.00000000000E+00  0.00000000000E+00 -0.53221094629E+03  0.32746439155E+04  0.32311057367E+04 0.  0.
        1    1    3    3  502    0 -0.12074764124E+04 -0.27730133735E+03 -0.13169549779E+04  0.18081110950E+04  0.50400001928E-02 0. -1.
       -1    1    3    3    0  502  0.12074764124E+04  0.27730133735E+03  0.78474403157E+03  0.14665328204E+04  0.50400001928E-02 0.  1.
</event>
<event>
 5   0  0.3075756E-07  0.3204456E+04  0.7818609E-02  0.8187641E-01
       -1   -1    0    0    0  501  0.00000000000E+00  0.00000000000E+00  0.13809371443E+04  0.13809371443E+04  0.50400001928E-02 0.  1.
        1   -1    0    0  501    0  0.00000000000E+00  0.00000000000E+00 -0.18589804514E+04  0.18589804514E+04  0.50400001928E-02 0. -1.
    10030    2    1    2    0    0  0.00000000000E+00  0.00000000000E+00 -0.47804330708E+03  0.32399175957E+04  0.32044563695E+04 0.  0.
        5    1    3    3  502    0 -0.15054538543E+04  0.46222932604E+03 -0.53735611372E+03  0.16639774458E+04  0.46999998093E+01 0. -1.
       -5    1    3    3    0  502  0.15054538543E+04 -0.46222932604E+03  0.59312806638E+02  0.15759401499E+04  0.46999998093E+01 0.  1.
</event>
<event>
 5   0  0.3075756E-07  0.3200588E+04  0.7818609E-02  0.8188662E-01
       -1   -1    0    0    0  501  0.00000000000E+00  0.00000000000E+00  0.98882045373E+03  0.98882045374E+03  0.50400001928E-02 0.  1.
        1   -1    0    0  501    0  0.00000000000E+00  0.00000000000E+00 -0.25898949649E+04  0.25898949649E+04  0.50400001928E-02 0. -1.
    10030    2    1    2    0    0  0.00000000000E+00  0.00000000000E+00 -0.16010745112E+04  0.35787154186E+04  0.32005881424E+04 0.  0.
        5    1    3    3  502    0  0.14458222297E+04  0.26412021750E+03 -0.92692099731E+02  0.14726762456E+04  0.46999998093E+01 0.  1.
       -5    1    3    3    0  502 -0.14458222297E+04 -0.26412021750E+03 -0.15083824114E+04  0.21060391730E+04  0.46999998093E+01 0. -1.
</event>
<event>
 5   0  0.2891204E-07  0.3212616E+04  0.7818609E-02  0.8185493E-01
        1   -1    0    0  501    0  0.00000000000E+00  0.00000000000E+00  0.23872293082E+04  0.23872293082E+04  0.50400001928E-02 0.  1.
       -1   -1    0    0    0  501  0.00000000000E+00  0.00000000000E+00 -0.10808449240E+04  0.10808449240E+04  0.50400001928E-02 0. -1.
    10030    2    1    2    0    0  0.00000000000E+00  0.00000000000E+00  0.13063843841E+04  0.34680742322E+04  0.32126155576E+04 0.  0.
        4    1    3    3  502    0  0.27103699532E+03 -0.15318918448E+04  0.10850927569E+04  0.18967291797E+04  0.12699999809E+01 0. -1.
       -4    1    3    3    0  502 -0.27103699532E+03  0.15318918448E+04  0.22129162723E+03  0.15713450525E+04  0.12699999809E+01 0.  1.
</event>
<event>
 5   0  0.2997105E-07  0.3181909E+04  0.7818609E-02  0.8193611E-01
       -1   -1    0    0    0  501  0.00000000000E+00  0.00000000000E+00  0.24278263761E+04  0.24278263761E+04  0.50400001928E-02 0. -1.
        1   -1    0    0  501    0  0.00000000000E+00  0.00000000000E+00 -0.10425523666E+04  0.10425523666E+04  0.50400001928E-02 0.  1.
    10030    2    1    2    0    0  0.00000000000E+00  0.00000000000E+00  0.13852740095E+04  0.34703787427E+04  0.31819089454E+04 0.  0.
        3    1    3    3  502    0 -0.12632297398E+04  0.36589583184E+03 -0.28379674861E+03  0.13454254866E+04  0.10100000352E+00 0.  1.
       -3    1    3    3    0  502  0.12632297398E+04 -0.36589583184E+03  0.16690707581E+04  0.21249532562E+04  0.10100000352E+00 0. -1.
</event>
<event>
 5   0  0.2997105E-07  0.3190209E+04  0.7818609E-02  0.8191408E-01
       -1   -1    0    0    0  501  0.00000000000E+00  0.00000000000E+00  0.19315112646E+04  0.19315112646E+04  0.50400001928E-02 0.  1.
        1   -1    0    0  501    0  0.00000000000E+00  0.00000000000E+00 -0.13172892109E+04  0.13172892109E+04  0.50400001928E-02 0. -1.
    10030    2    1    2    0    0  0.00000000000E+00  0.00000000000E+00  0.61422205368E+03  0.32488004756E+04  0.31902093660E+04 0.  0.
        3    1    3    3  502    0 -0.18385274323E+03  0.61902055616E+03  0.17924495227E+04  0.19052200875E+04  0.10100000352E+00 0.  1.
       -3    1    3    3    0  502  0.18385274323E+03 -0.61902055616E+03 -0.11782274690E+04  0.13435803880E+04  0.10100000352E+00 0. -1.
</event>
<event>
 5   0  0.2891204E-07  0.3198921E+04  0.7818609E-02  0.8189102E-01
        1   -1    0    0  501    0  0.00000000000E+00  0.00000000000E+00  0.18878502049E+04  0.18878502049E+04  0.50400001928E-02 0. -1.
       -1   -1    0    0    0  501  0.00000000000E+00  0.00000000000E+00 -0.13551255529E+04  0.13551255529E+04  0.50400001928E-02 0.  1.
    10030    2    1    2    0    0  0.00000000000E+00  0.00000000000E+00  0.53272465203E+03  0.32429757578E+04  0.31989211011E+04 0.  0.
        4    1    3    3  502    0 -0.30026613261E+03 -0.60749152993E+03 -0.12024059924E+04  0.13802128433E+04  0.12699999809E+01 0.  1.
       -4    1    3    3    0  502  0.30026613261E+03  0.60749152993E+03  0.17351306445E+04  0.18627629145E+04  0.12699999809E+01 0. -1.
</event>
<event>
 5   0  0.2997105E-07  0.3201970E+04  0.7818609E-02  0.8188297E-01
        1   -1    0    0  501    0  0.00000000000E+00  0.00000000000E+00  0.11241302069E+04  0.11241302069E+04  0.50400001928E-02 0. -1.
       -1   -1    0    0    0  501  0.00000000000E+00  0.00000000000E+00 -0.22801205277E+04  0.22801205277E+04  0.50400001928E-02 0.  1.
    10030    2    1    2    0    0  0.00000000000E+00  0.00000000000E+00 -0.11559903208E+04  0.34042507346E+04  0.32019696192E+04 0.  0.
        3    1    3    3  502    0  0.44058677407E+03  0.12312830436E+04  0.40391821165E+03  0.13686944768E+04  0.10100000352E+00 0. -1.
       -3    1    3    3    0  502 -0.44058677407E+03 -0.12312830436E+04 -0.15599085324E+04  0.20355562578E+04  0.10100000352E+00 0.  1.
</event>
<event>
 5   0  0.3013888E-07  0.3192322E+04  0.7818609E-02  0.8190848E-01
       -1   -1    0    0    0  501  0.00000000000E+00  0.00000000000E+00  0.18651466437E+04  0.18651466437E+04  0.50400001928E-02 0. -1.
        1   -1    0    0  501    0  0.00000000000E+00  0.00000000000E+00 -0.13659677450E+04  0.13659677450E+04  0.50400001928E-02 0.  1.
    10030    2    1    2    0    0  0.00000000000E+00  0.00000000000E+00  0.49917889868E+03  0.32311143888E+04  0.31923221361E+04 0.  0.
        1    1    3    3  502    0 -0.10263689831E+04  0.79542512668E+03 -0.68991186879E+03  0.14704124620E+04  0.50400001928E-02 0.  1.
       -1    1    3    3    0  502  0.10263689831E+04 -0.79542512668E+03  0.11890907675E+04  0.17607019268E+04  0.50400001928E-02 0. -1.
</event>
<event>
 5   0  0.3075756E-07  0.3179327E+04  0.7818609E-02  0.8194298E-01
        1   -1    0    0  501    0  0.00000000000E+00  0.00000000000E+00  0.18546694413E+04  0.18546694413E+04  0.50400001928E-02 0. -1.
       -1   -1    0    0    0  501  0.00000000000E+00  0.00000000000E+00 -0.13625233982E+04  0.13625233982E+04  0.50400001928E-02 0.  1.
    10030    2    1    2    0    0  0.00000000000E+00  0.00000000000E+00  0.49214604308E+03  0.32171928396E+04  0.31793272935E+04 0.  0.
        5    1    3    3  502    0 -0.28163671549E+03 -0.15642626490E+04  0.21796550261E+03  0.16042967073E+04  0.46999998093E+01 0.  1.
       -5    1    3    3    0  502  0.28163671549E+03  0.15642626490E+04  0.27418054047E+03  0.16128961323E+04  0.46999998093E+01 0. -1.
</event>
<event>
 5   0  0.8488469E-07  0.3212278E+04  0.7818609E-02  0.8185582E-01
        2   -1    0    0  501    0  0.00000000000E+00  0.00000000000E+00  0.24544012062E+04  0.24544012062E+04  0.25500000920E-02 0. -1.
       -2   -1    0    0    0  501  0.00000000000E+00  0.00000000000E+00 -0.10510435340E+04  0.10510435340E+04  0.25500000920E-02 0.  1.
    10030    2    1    2    0    0  0.00000000000E+00  0.00000000000E+00  0.14033576723E+04  0.35054447402E+04  0.32122780188E+04 0.  0.
        3    1    3    3  502    0 -0.12336095568E+04  0.99481292621E+03  0.41661597997E+03  0.16386012882E+04  0.10100000352E+00 0.  1.
       -3    1    3    3    0  502  0.12336095568E+04 -0.99481292621E+03  0.98674169232E+03  0.18668434520E+04  0.10100000352E+00 0. -1.
</event>
<event>
 5   0  0.8838951E-07  0.3189483E+04  0.7818609E-02  0.8191600E-01
       -2   -1    0    0    0  501  0.00000000000E+00  0.00000000000E+00  0.12797613579E+04  0.12797613579E+04  0.25500000920E-02 0. -1.
        2   -1    0    0  501    0  0.00000000000E+00  0.00000000000E+00 -0.19872458715E+04  0.19872458715E+04  0.25500000920E-02 0.  1.
    10030    2    1    2    0    0  0.00000000000E+00  0.00000000000E+00 -0.70748451364E+03  0.32670072294E+04  0.31894830145E+04 0.  0.
        2    1    3    3  502    0  0.11617720667E+04  0.90884318984E+03  0.26720209452E+03  0.14990354358E+04  0.25500000920E-02 0. -1.
       -2    1    3    3    0  502 -0.11617720667E+04 -0.90884318984E+03 -0.97468660816E+03  0.17679717935E+04  0.25500000920E-02 0.  1.
</event>
<event>
 5   0  0.3075756E-07  0.3216904E+04  0.7818609E-02  0.8184367E-01
        1   -1    0    0  501    0  0.00000000000E+00  0.00000000000E+00  0.14667873396E+04  0.14667873396E+04  0.50400001928E-02 0. -1.
       -1   -1    0    0    0  501  0.00000000000E+00  0.00000000000E+00 -0.17637990926E+04  0.17637990926E+04  0.50400001928E-02 0.  1.
    10030    2    1    2    0    0  0.00000000000E+00  0.00000000000E+00 -0.29701175301E+03  0.32305864322E+04  0.32169042128E+04 0.  0.
        5    1    3    3  502    0 -0.49598801475E+03  0.32468691809E+03  0.13530694453E+04  0.14772422684E+04  0.46999998093E+01 0. -1.
       -5    1    3    3    0  502  0.49598801475E+03 -0.32468691809E+03 -0.16500811984E+04  0.17533441638E+04  0.46999998093E+01 0.  1.
</event>
<event>
 5   0  0.8488469E-07  0.3187459E+04  0.7818609E-02  0.8192137E-01
       -2   -1    0    0    0  501  0.00000000000E+00  0.00000000000E+00  0.11423331721E+04  0.11423331721E+04  0.25500000920E-02 0.  1.
        2   -1    0    0  501    0  0.00000000000E+00  0.00000000000E+00 -0.22234959706E+04  0.22234959706E+04  0.25500000920E-02 0. -1.
    10030    2    1    2    0    0  0.00000000000E+00  0.00000000000E+00 -0.10811627986E+04  0.33658291427E+04  0.31874586775E+04 0.  0.
        3    1    3    3  502    0 -0.67467970960E+03 -0.12346080476E+04  0.24999600523E+03  0.14289673735E+04  0.10100000352E+00 0.  1.
       -3    1    3    3    0  502  0.67467970960E+03  0.12346080476E+04 -0.13311588038E+04  0.19368617692E+04  0.10100000352E+00 0. -1.
</event>
<event>
 5   0  0.8195618E-07  0.3203644E+04  0.7818609E-02  0.8187855E-01
       -2   -1    0    0    0  501  0.00000000000E+00  0.00000000000E+00  0.13914516629E+04  0.13914516629E+04  0.25500000920E-02 0. -1.
        2   -1    0    0  501    0  0.00000000000E+00  0.00000000000E+00 -0.18439981502E+04  0.18439981502E+04  0.25500000920E-02 0.  1.
    10030    2    1    2    0    0  0.00000000000E+00  0.00000000000E+00 -0.45254648731E+03  0.32354498130E+04  0.32036443575E+04 0.  0.
        1    1    3    3  502    0 -0.13927011776E+04  0.61206619966E+03  0.28029665341E+03  0.15468703296E+04  0.50400001928E-02 0.  1.
       -1    1    3    3    0  502  0.13927011776E+04 -0.61206619966E+03 -0.73284314072E+03  0.16885794834E+04  0.50400001928E-02 0. -1.
</event>
<event>
 5   0  0.8335929E-07  0.3206535E+04  0.7818609E-02  0.8187093E-01
       -2   -1    0    0    0  501  0.00000000000E+00  0.00000000000E+00  0.11027682799E+04  0.11027682799E+04  0.25500000920E-02 0. -1.
        2   -1    0    0  501    0  0.00000000000E+00  0.00000000000E+00 -0.23309215199E+04  0.23309215199E+04  0.25500000920E-02 0.  1.
    10030    2    1    2    0    0  0.00000000000E+00  0.00000000000E+00 -0.12281532400E+04  0.34336897998E+04  0.32065347745E+04 0.  0.
        4    1    3    3  502    0  0.15672925326E+04  0.13931777401E+03 -0.94352242697E+03  0.18346802196E+04  0.12699999809E+01 0.  1.
       -4    1    3    3    0  502 -0.15672925326E+04 -0.13931777401E+03 -0.28463081298E+03  0.15990095802E+04  0.12699999809E+01 0. -1.
</event>
<event>
 5   0  0.8838951E-07  0.3201962E+04  0.7818609E-02  0.8188299E-01
        2   -1    0    0  501    0  0.00000000000E+00  0.00000000000E+00  0.14080009239E+04  0.14080009239E+04  0.25500000920E-02 0. -1.
       -2   -1    0    0    0  501  0.00000000000E+00  0.00000000000E+00 -0.18204113428E+04  0.18204113428E+04  0.25500000920E-02 0.  1.
    10030    2    1    2    0    0  0.00000000000E+00  0.00000000000E+00 -0.41241041886E+03  0.32284122667E+04  0.32019624311E+04 0.  0.
        2    1    3    3  502    0  0.29942885672E+01 -0.64257430753E+03 -0.16846844467E+04  0.18030730410E+04  0.25500000920E-02 0.  1.
       -2    1    3    3    0  502 -0.29942885672E+01  0.64257430753E+03  0.12722740278E+04  0.14253392257E+04  0.25500000920E-02 0. -1.
</event>
<event>
 5   0  0.3075756E-07  0.3235835E+04  0.7818609E-02  0.8179417E-01
       -1   -1    0    0    0  501  0.00000000000E+00  0.00000000000E+00  0.11206094773E+04  0.11206094773E+04  0.50400001928E-02 0.  1.
        1   -1    0    0  501    0  0.00000000000E+00  0.00000000000E+00 -0.23359219917E+04  0.23359219917E+04  0.50400001928E-02 0. -1.
    10030    2    1    2    0    0  0.00000000000E+00  0.00000000000E+00 -0.12153125144E+04  0.34565314690E+04  0.32358345583E+04 0.  0.
        5    1    3    3  502    0  0.76310744539E+02 -0.14113331734E+04 -0.14487267363E+04  0.20239851538E+04  0.46999998093E+01 0. -1.
       -5    1    3    3    0  502 -0.76310744539E+02  0.14113331734E+04  0.23341422194E+03  0.14325463152E+04  0.46999998093E+01 0.  1.
</event>
<event>
 5   0  0.8838951E-07  0.3171023E+04  0.7818609E-02  0.8196512E-01
        2   -1    0    0  501    0  0.00000000000E+00  0.00000000000E+00  0.22739407574E+04  0.22739407574E+04  0.25500000920E-02 0.  1.
       -2   -1    0    0    0  501  0.00000000000E+00  0.00000000000E+00 -0.11055025711E+04  0.11055025711E+04  0.25500000920E-02 0. -1.
    10030    2    1    2    0    0  0.00000000000E+00  0.00000000000E+00  0.11684381863E+04  0.33794433285E+04  0.31710234019E+04 0.  0.
        2    1    3    3  502    0 -0.14236740766E+04 -0.61795008402E+03  0.23865877526E+03  0.15702446286E+04  0.25500000920E-02 0. -1.
       -2    1    3    3    0  502  0.14236740766E+04  0.61795008402E+03  0.92977941106E+03  0.18091986999E+04  0.25500000920E-02 0.  1.
</event>
<event>
 5   0  0.3075756E-07  0.3184307E+04  0.7818609E-02  0.8192974E-01
        1   -1    0    0  501    0  0.00000000000E+00  0.00000000000E+00  0.94972033682E+03  0.94972033683E+03  0.50400001928E-02 0. -1.
       -1   -1    0    0    0  501  0.00000000000E+00  0.00000000000E+00 -0.26691562833E+04  0.26691562833E+04  0.50400001928E-02 0.  1.
    10030    2    1    2    0    0  0.00000000000E+00  0.00000000000E+00 -0.17194359464E+04  0.36188766201E+04  0.31843065207E+04 0.  0.
        5    1    3    3  502    0 -0.13775391946E+04 -0.57397138906E+03 -0.14903040514E+04  0.21090485162E+04  0.46999998093E+01 0.  1.
       -5    1    3    3    0  502  0.13775391946E+04  0.57397138906E+03 -0.22913189505E+03  0.15098281039E+04  0.46999998093E+01 0. -1.
</event>
<event>
 5   0  0.2783875E-07  0.3192919E+04  0.7818609E-02  0.8190690E-01
        1   -1    0    0  501    0  0.00000000000E+00  0.00000000000E+00  0.24619713029E+04  0.24619713029E+04  0.50400001928E-02 0.  1.
       -1   -1    0    0    0  501  0.00000000000E+00  0.00000000000E+00 -0.10352205847E+04  0.10352205847E+04  0.50400001928E-02 0. -1.
    10030    2    1    2    0    0  0.00000000000E+00  0.00000000000E+00  0.14267507182E+04  0.34971918876E+04  0.31929192734E+04 0.  0.
        2    1    3    3  502    0 -0.99068660557E+03 -0.27577323974E+03  0.20508805397E+04  0.22942584463E+04  0.25500000920E-02 0.  1.
       -2    1    3    3    0  502  0.99068660557E+03  0.27577323974E+03 -0.62412982146E+03  0.12029334413E+04  0.25500000920E-02 0. -1.
</event>
<event>
 5   0  0.2783875E-07  0.3201024E+04  0.7818609E-02  0.8188547E-01
        1   -1    0    0  501    0  0.00000000000E+00  0.00000000000E+00  0.12850491750E+04  0.12850491750E+04  0.50400001928E-02 0. -1.
       -1   -1    0    0    0  501  0.00000000000E+00  0.00000000000E+00 -0.19934167342E+04  0.19934167342E+04  0.50400001928E-02 0.  1.
    10030    2    1    2    0    0  0.00000000000E+00  0.00000000000E+00 -0.70836755919E+03  0.32784659092E+04  0.32010239173E+04 0.  0.
        2    1    3    3  502    0 -0.83990805743E+02  0.47008347638E+03  0.12103879622E+04  0.13011809825E+04  0.25500000920E-02 0. -1.
       -2    1    3    3    0  502  0.83990805743E+02 -0.47008347638E+03 -0.19187555214E+04  0.19772849267E+04  0.25500000920E-02 0.  1.
</event>
<event>
 5   0  0.2891204E-07  0.3183355E+04  0.7818609E-02  0.8193227E-01
       -1   -1    0    0    0  501  0.00000000000E+00  0.00000000000E+00  0.13843472368E+04  0.13843472368E+04  0.50400001928E-02 0.  1.
        1   -1    0    0  501    0  0.00000000000E+00  0.00000000000E+00 -0.18300589058E+04  0.18300589058E+04  0.50400001928E-02 0. -1.
    10030    2    1    2    0    0  0.00000000000E+00  0.00000000000E+00 -0.44571166899E+03  0.32144061425E+04  0.31833548274E+04 0.  0.
        4    1    3    3  502    0 -0.93237537891E+03  0.12875597885E+04 -0.30301099255E+03  0.16183174382E+04  0.12699999809E+01 0.  1.
       -4    1    3    3    0  502  0.93237537891E+03 -0.12875597885E+04 -0.14270067644E+03  0.15960887044E+04  0.12699999809E+01 0. -1.
</event>
<event>
 5   0  0.8195618E-07  0.3201412E+04  0.7818609E-02  0.8188444E-01
       -2   -1    0    0    0  501  0.00000000000E+00  0.00000000000E+00  0.10875350497E+04  0.10875350497E+04  0.25500000920E-02 0.  1.
        2   -1    0    0  501    0  0.00000000000E+00  0.00000000000E+00 -0.23560253703E+04  0.23560253703E+04  0.25500000920E-02 0. -1.
    10030    2    1    2    0    0  0.00000000000E+00  0.00000000000E+00 -0.12684903207E+04  0.34435604200E+04  0.32014122934E+04 0.  0.
        1    1    3    3  502    0  0.51077532829E+03 -0.10249483521E+04 -0.18372535261E+04  0.21649274999E+04  0.50400001928E-02 0. -1.
       -1    1    3    3    0  502 -0.51077532829E+03  0.10249483521E+04  0.56876320546E+03  0.12786329201E+04  0.50400001928E-02 0.  1.
</event>
<event>
 5   0  0.8335929E-07  0.3235878E+04  0.7818609E-02  0.8179406E-01
       -2   -1    0    0    0  501  0.00000000000E+00  0.00000000000E+00  0.17534847356E+04  0.17534847356E+04  0.25500000920E-02 0. -1.
        2   -1    0    0  501    0  0.00000000000E+00  0.00000000000E+00 -0.14928708426E+04  0.14928708426E+04  0.25500000920E-02 0.  1.
    10030    2    1    2    0    0  0.00000000000E+00  0.00000000000E+00  0.26061389300E+03  0.32463555782E+04  0.32358777695E+04 0.  0.
        4    1    3    3  502    0  0.10722140084E+04  0.64376254543E+03  0.11601059781E+04  0.17058489347E+04  0.12699999809E+01 0. -1.
       -4    1    3    3    0  502 -0.10722140084E+04 -0.64376254543E+03 -0.89949208508E+03  0.15405066435E+04  0.12699999809E+01 0.  1.
</event>
<event>
 5   0  0.2997105E-07  0.3201993E+04  0.7818609E-02  0.8188291E-01
       -1   -1    0    0    0  501  0.00000000000E+00  0.00000000000E+00  0.13999116295E+04  0.13999116295E+04  0.50400001928E-02 0. -1.
        1   -1    0    0  501    0  0.00000000000E+00  0.00000000000E+00 -0.18309648829E+04  0.18309648829E+04  0.50400001928E-02 0.  1.
    10030    2    1    2    0    0  0.00000000000E+00  0.00000000000E+00 -0.43105325336E+03  0.32308765124E+04  0.32019925252E+04 0.  0.
        3    1    3    3  502    0  0.59762690215E+03  0.16440028267E+03 -0.17049872447E+04  0.18141573477E+04  0.10100000352E+00 0.  1.
       -3    1    3    3    0  502 -0.59762690215E+03 -0.16440028267E+03  0.12739339914E+04  0.14167191647E+04  0.10100000352E+00 0. -1.
</event>
<event>
 5   0  0.8488469E-07  0.3029049E+04  0.7818609E-02  0.8235484E-01
       -2   -1    0    0    0  501  0.00000000000E+00  0.00000000000E+00  0.15304962017E+04  0.15304962017E+04  0.25500000920E-02 0. -1.
        2   -1    0    0  501    0  0.00000000000E+00  0.00000000000E+00 -0.14987196778E+04  0.14987196778E+04  0.25500000920E-02 0.  1.
    10030    2    1    2    0    0  0.00000000000E+00  0.00000000000E+00  0.31776523868E+02  0.30292158795E+04  0.30290492068E+04 0.  0.
        3    1    3    3  502    0 -0.80466134318E+00 -0.57800710866E+03 -0.13840787263E+04  0.14999222633E+04  0.10100000352E+00 0.  1.
       -3    1    3    3    0  502  0.80466134318E+00  0.57800710866E+03  0.14158552501E+04  0.15292936162E+04  0.10100000352E+00 0. -1.
</event>
<event>
 5   0  0.2997105E-07  0.3188898E+04  0.7818609E-02  0.8191755E-01
       -1   -1    0    0    0  501  0.00000000000E+00  0.00000000000E+00  0.10909163513E+04  0.10909163513E+04  0.50400001928E-02 0. -1.
        1   -1    0    0  501    0  0.00000000000E+00  0.00000000000E+00 -0.23303957591E+04  0.23303957591E+04  0.50400001928E-02 0.  1.
    10030    2    1    2    0    0  0.00000000000E+00  0.00000000000E+00 -0.12394794078E+04  0.34213121104E+04  0.31888975139E+04 0.  0.
        3    1    3    3  502    0 -0.12074259275E+04  0.19301276074E+03  0.47813702847E+03  0.13129152008E+04  0.10100000352E+00 0. -1.
       -3    1    3    3    0  502  0.12074259275E+04 -0.19301276074E+03 -0.17176164363E+04  0.21083969096E+04  0.10100000352E+00 0.  1.
</event>
<event>
 5   0  0.2783875E-07  0.3156504E+04  0.7818609E-02  0.8200400E-01
        1   -1    0    0  501    0  0.00000000000E+00  0.00000000000E+00  0.17417583004E+04  0.17417583005E+04  0.50400001928E-02 0. -1.
       -1   -1    0    0    0  501  0.00000000000E+00  0.00000000000E+00 -0.14300951879E+04  0.14300951879E+04  0.50400001928E-02 0.  1.
    10030    2    1    2    0    0  0.00000000000E+00  0.00000000000E+00  0.31166311252E+03  0.31718534884E+04  0.31565044996E+04 0.  0.
        2    1    3    3  502    0 -0.13692577882E+04 -0.75435044189E+03 -0.61944888013E+02  0.15645282513E+04  0.25500000920E-02 0.  1.
       -2    1    3    3    0  502  0.13692577882E+04  0.75435044189E+03  0.37360800053E+03  0.16073252371E+04  0.25500000920E-02 0. -1.
</event>
<event>
 5   0  0.8838951E-07  0.3201115E+04  0.7818609E-02  0.8188523E-01
       -2   -1    0    0    0  501  0.00000000000E+00  0.00000000000E+00  0.19393835600E+04  0.19393835600E+04  0.25500000920E-02 0. -1.
        2   -1    0    0  501    0  0.00000000000E+00  0.00000000000E+00 -0.13209274723E+04  0.13209274723E+04  0.25500000920E-02 0.  1.
    10030    2    1    2    0    0  0.00000000000E+00  0.00000000000E+00  0.61845608768E+03  0.32603110323E+04  0.32011154455E+04 0.  0.
        2    1    3    3  502    0  0.93544412359E+03  0.69530873462E+03  0.14264517896E+04  0.18420843230E+04  0.25500000920E-02 0. -1.
       -2    1    3    3    0  502 -0.93544412359E+03 -0.69530873462E+03 -0.80799570195E+03  0.14182267094E+04  0.25500000920E-02 0.  1.
</event>
<event>
 5   0  0.3075756E-07  0.3220387E+04  0.7818609E-02  0.8183454E-01
        1   -1    0    0  501    0  0.00000000000E+00  0.00000000000E+00  0.22704267849E+04  0.22704267849E+04  0.50400001928E-02 0.  1.
       -1   -1    0    0    0  501  0.00000000000E+00  0.00000000000E+00 -0.11419542138E+04  0.11419542138E+04  0.50400001928E-02 0. -1.
    10030    2    1    2    0    0  0.00000000000E+00  0.00000000000E+00  0.11284725710E+04  0.34123809987E+04  0.32203872029E+04 0.  0.
        5    1    3    3  502    0  0.86691530419E+03  0.13120356367E+04  0.19759966777E+03  0.15849439660E+04  0.46999998093E+01 0.  1.
       -5    1    3    3    0  502 -0.86691530419E+03 -0.13120356367E+04  0.93087290326E+03  0.18274370327E+04  0.46999998093E+01 0. -1.
</event>
<event>
 5   0  0.3013888E-07  0.3206271E+04  0.7818609E-02  0.8187163E-01
        1   -1    0    0  501    0  0.00000000000E+00  0.00000000000E+00  0.14335449198E+04  0.14335449198E+04  0.50400001928E-02 0.  1.
       -1   -1    0    0    0  501  0.00000000000E+00  0.00000000000E+00 -0.17927885132E+04  0.17927885132E+04  0.50400001928E-02 0. -1.
    10030    2    1    2    0    0  0.00000000000E+00  0.00000000000E+00 -0.35924359341E+03  0.32263334330E+04  0.32062706469E+04 0.  0.
        1    1    3    3  502    0 -0.11214567325E+04  0.10591751194E+04 -0.61884561712E+03  0.16620731134E+04  0.50400001928E-02 0.  1.
       -1    1    3    3    0  502  0.11214567325E+04 -0.10591751194E+04  0.25960202371E+03  0.15642603195E+04  0.50400001928E-02 0. -1.
</event>
<event>
 5   0  0.8335929E-07  0.3194567E+04  0.7818609E-02  0.8190253E-01
       -2   -1    0    0    0  501  0.00000000000E+00  0.00000000000E+00  0.11545509915E+04  0.11545509915E+04  0.25500000920E-02 0.  1.
        2   -1    0    0  501    0  0.00000000000E+00  0.00000000000E+00 -0.22097899236E+04  0.22097899236E+04  0.25500000920E-02 0. -1.
    10030    2    1    2    0    0  0.00000000000E+00  0.00000000000E+00 -0.10552389321E+04  0.33643409151E+04  0.31945673556E+04 0.  0.
        4    1    3    3  502    0 -0.91991750588E+03 -0.49234588523E+03 -0.18012978133E+04  0.20816647457E+04  0.12699999809E+01 0. -1.
       -4    1    3    3    0  502  0.91991750588E+03  0.49234588523E+03  0.74605888127E+03  0.12826761694E+04  0.12699999809E+01 0.  1.
</event>
<event>
 5   0  0.3013888E-07  0.3204011E+04  0.7818609E-02  0.8187759E-01
        1   -1    0    0  501    0  0.00000000000E+00  0.00000000000E+00  0.17083112080E+04  0.17083112080E+04  0.50400001928E-02 0. -1.
       -1   -1    0    0    0  501  0.00000000000E+00  0.00000000000E+00 -0.15023150493E+04  0.15023150493E+04  0.50400001928E-02 0.  1.
    10030    2    1    2    0    0  0.00000000000E+00  0.00000000000E+00  0.20599615873E+03  0.32106262573E+04  0.32040110092E+04 0.  0.
        1    1    3    3  502    0 -0.14227866425E+03  0.12621058462E+04  0.10813679956E+04  0.16680860672E+04  0.50400001928E-02 0. -1.
       -1    1    3    3    0  502  0.14227866425E+03 -0.12621058462E+04 -0.87537183692E+03  0.15425401902E+04  0.50400001928E-02 0.  1.
</event>
<event>
 5   0  0.8335929E-07  0.3197459E+04  0.7818609E-02  0.8189489E-01
        2   -1    0    0  501    0  0.00000000000E+00  0.00000000000E+00  0.12816600009E+04  0.12816600009E+04  0.25500000920E-02 0. -1.
       -2   -1    0    0    0  501  0.00000000000E+00  0.00000000000E+00 -0.19942385786E+04  0.19942385786E+04  0.25500000920E-02 0.  1.
    10030    2    1    2    0    0  0.00000000000E+00  0.00000000000E+00 -0.71257857778E+03  0.32758985795E+04  0.31974588776E+04 0.  0.
        4    1    3    3  502    0 -0.75154011032E+03 -0.19762310542E+03  0.10751496103E+04  0.13265804637E+04  0.12699999809E+01 0. -1.
       -4    1    3    3    0  502  0.75154011032E+03  0.19762310542E+03 -0.17877281881E+04  0.19493181158E+04  0.12699999809E+01 0.  1.
</event>
<event>
 5   0  0.8802800E-07  0.3156080E+04  0.7818609E-02  0.8200514E-01
        2   -1    0    0  501    0  0.00000000000E+00  0.00000000000E+00  0.12879455635E+04  0.12879455635E+04  0.25500000920E-02 0. -1.
       -2   -1    0    0    0  501  0.00000000000E+00  0.00000000000E+00 -0.19334745121E+04  0.19334745121E+04  0.25500000920E-02 0.  1.
    10030    2    1    2    0    0  0.00000000000E+00  0.00000000000E+00 -0.64552894863E+03  0.32214200756E+04  0.31560797962E+04 0.  0.
        5    1    3    3  502    0  0.12902555591E+04  0.31171626788E+03  0.54828541276E+03  0.14361634389E+04  0.46999998093E+01 0. -1.
       -5    1    3    3    0  502 -0.12902555591E+04 -0.31171626788E+03 -0.11938143614E+04  0.17852566367E+04  0.46999998093E+01 0.  1.
</event>
<event>
 5   0  0.2891204E-07  0.3197502E+04  0.7818609E-02  0.8189477E-01
       -1   -1    0    0    0  501  0.00000000000E+00  0.00000000000E+00  0.11842760205E+04  0.11842760206E+04  0.50400001928E-02 0. -1.
        1   -1    0    0  501    0  0.00000000000E+00  0.00000000000E+00 -0.21582840393E+04  0.21582840393E+04  0.50400001928E-02 0.  1.
    10030    2    1    2    0    0  0.00000000000E+00  0.00000000000E+00 -0.97400801871E+03  0.33425600598E+04  0.31975015454E+04 0.  0.
        4    1    3    3  502    0  0.19079914554E+03 -0.15444595001E+04 -0.10399039208E+03  0.15596714641E+04  0.12699999809E+01 0.  1.
       -4    1    3    3    0  502 -0.19079914554E+03  0.15444595001E+04 -0.87001762664E+03  0.17828885958E+04  0.12699999809E+01 0. -1.
</event>
<event>
 5   0  0.8802800E-07  0.3256344E+04  0.7818609E-02  0.8174093E-01
        2   -1    0    0  501    0  0.00000000000E+00  0.00000000000E+00  0.20900734416E+04  0.20900734416E+04  0.25500000920E-02 0.  1.
       -2   -1    0    0    0  501  0.00000000000E+00  0.00000000000E+00 -0.12683494132E+04  0.12683494132E+04  0.25500000920E-02 0. -1.
    10030    2    1    2    0    0  0.00000000000E+00  0.00000000000E+00  0.82172402844E+03  0.33584228548E+04  0.32563436079E+04 0.  0.
        5    1    3    3  502    0  0.11690210581E+04 -0.57578008695E+03  0.14175696897E+04  0.19255282024E+04  0.46999998093E+01 0.  1.
       -5    1    3    3    0  502 -0.11690210581E+04  0.57578008695E+03 -0.59584566131E+03  0.14328946524E+04  0.46999998093E+01 0. -1.
</event>
<event>
 5   0  0.2783875E-07  0.3200988E+04  0.7818609E-02  0.8188556E-01
       -1   -1    0    0    0  501  0.00000000000E+00  0.00000000000E+00  0.13215935401E+04  0.13215935401E+04  0.50400001928E-02 0. -1.
        1   -1    0    0  501    0  0.00000000000E+00  0.00000000000E+00 -0.19382516832E+04  0.19382516832E+04  0.50400001928E-02 0.  1.
    10030    2    1    2    0    0  0.00000000000E+00  0.00000000000E+00 -0.61665814318E+03  0.32598452233E+04  0.32009879123E+04 0.  0.
        2    1    3    3  502    0  0.32446329294E+03  0.47499537870E+03 -0.18293386858E+04  0.19176488380E+04  0.25500000920E-02 0.  1.
       -2    1    3    3    0  502 -0.32446329294E+03 -0.47499537870E+03  0.12126805427E+04  0.13421963853E+04  0.25500000920E-02 0. -1.
</event>
<event>
 5   0  0.8838951E-07  0.3127270E+04  0.7818609E-02  0.8208294E-01
        2   -1    0    0  501    0  0.00000000000E+00  0.00000000000E+00  0.12890348146E+04  0.12890348146E+04  0.25500000920E-02 0.  1.
       -2   -1    0    0    0  501  0.00000000000E+00  0.00000000000E+00 -0.18967321165E+04  0.18967321165E+04  0.25500000920E-02 0. -1.
    10030    2    1    2    0    0  0.00000000000E+00  0.00000000000E+00 -0.60769730188E+03  0.31857669311E+04  0.31272695644E+04 0.  0.
        2    1    3    3  502    0 -0.49889500240E+03  0.64785419108E+03 -0.16615743226E+04  0.18518748623E+04  0.25500000920E-02 0. -1.
       -2    1    3    3    0  502  0.49889500240E+03 -0.64785419108E+03  0.10538770207E+04  0.13338920687E+04  0.25500000920E-02 0.  1.
</event>
<event>
 5   0  0.3075756E-07  0.3203364E+04  0.7818609E-02  0.8187929E-01
       -1   -1    0    0    0  501  0.00000000000E+00  0.00000000000E+00  0.12632718307E+04  0.12632718307E+04  0.50400001928E-02 0.  1.
        1   -1    0    0  501    0  0.00000000000E+00  0.00000000000E+00 -0.20307468991E+04  0.20307468991E+04  0.50400001928E-02 0. -1.
    10030    2    1    2    0    0  0.00000000000E+00  0.00000000000E+00 -0.76747506839E+03  0.32940187298E+04  0.32033640772E+04 0.  0.
        5    1    3    3  502    0 -0.51549475144E+03  0.35392743008E+03  0.11325650235E+04  0.12937252749E+04  0.46999998093E+01 0.  1.
       -5    1    3    3    0  502  0.51549475144E+03 -0.35392743008E+03 -0.19000400919E+04  0.20002934548E+04  0.46999998093E+01 0. -1.
</event>
</LesHouchesEvents>
