<LesHouchesEvents version="3.0">
<header>
<!--
#*********************************************************************
#                                                                    *
#                        MadGraph5_aMC@NLO                           *
#                                                                    *
#                           Going Beyond                             *
#                                                                    *
#                   http://madgraph.hep.uiuc.edu                     *
#                   http://madgraph.phys.ucl.ac.be                   *
#                   http://amcatnlo.cern.ch                          *
#                                                                    *
#                     The MadGraph5_aMC@NLO team                     *
#                                                                    *
#....................................................................*
#                                                                    *
# This file contains all the information necessary to reproduce      *
# the events generated:                                              *
#                                                                    *
# 1. software version                                                *
# 2. proc_card          : code generation info including model       *
# 3. param_card         : model primary parameters in the LH format  *
# 4. run_card           : running parameters (collider and cuts)     *
# 5. pythia_card        : present only if pythia has been run        *
# 6. pgs_card           : present only if pgs has been run           *
# 7. delphes_cards      : present only if delphes has been run       *
#                                                                    *
#                                                                    *
#*********************************************************************
-->
<MGVersion>
#5.2.2.3
</MGVersion>
<MG5ProcCard>
#************************************************************
#*                     MadGraph5_aMC@NLO                    *
#*                                                          *
#*                *                       *                 *
#*                  *        * *        *                   *
#*                    * * * * 5 * * * *                     *
#*                  *        * *        *                   *
#*                *                       *                 *
#*                                                          *
#*                                                          *
#*         VERSION 2.2.3                 2015-02-10         *
#*                                                          *
#*    The MadGraph5_aMC@NLO Development Team - Find us at   *
#*    https://server06.fynu.ucl.ac.be/projects/madgraph     *
#*                                                          *
#************************************************************
#*                                                          *
#*               Command File for MadGraph5_aMC@NLO         *
#*                                                          *
#*     run as ./bin/mg5_aMC  filename                       *
#*                                                          *
#************************************************************
set group_subprocesses Auto
set ignore_six_quark_processes False
set loop_optimized_output True
set gauge unitary
set complex_mass_scheme False
import model sm
define p = g u c d s u~ c~ d~ s~
define j = g u c d s u~ c~ d~ s~
define l+ = e+ mu+
define l- = e- mu-
define vl = ve vm vt
define vl~ = ve~ vm~ vt~
import model Zprime_UFO
generate p p > zph, zph > j j
add process p p > zph, zph > b b~
output Dijet_signal
</MG5ProcCard>
<MGProcCard>
#*********************************************************************
#                        MadGraph/MadEvent                           *
#                   http://madgraph.hep.uiuc.edu                     *
#                                                                    *
#                          proc_card.dat                             *
#*********************************************************************
#                                                                    *
#            This Files is generated by MADGRAPH 5                   *
#                                                                    *
# WARNING: This Files is generated for MADEVENT (compatibility issue)*
#          This files is NOT a valid MG4 proc_card.dat               *
#          Running this in MG4 will NEVER reproduce the result of MG5*
#                                                                    *
#*********************************************************************
#*********************************************************************
# Process(es) requested : mg2 input                                  *
#*********************************************************************
# Begin PROCESS # This is TAG. Do not modify this line
p p > zph , zph > j j           #Process
# Be carefull the coupling are here in MG5 convention
          
end_coup           # End the couplings input

done               # this tells MG there are no more procs
# End PROCESS  # This is TAG. Do not modify this line
#*********************************************************************
# Model information                                                  *
#*********************************************************************
# Begin MODEL  # This is TAG. Do not modify this line
Zprime_UFO
# End   MODEL  # This is TAG. Do not modify this line
#*********************************************************************
# Start multiparticle definitions                                    *
#*********************************************************************
# Begin MULTIPARTICLES # This is TAG. Do not modify this line

# End  MULTIPARTICLES # This is TAG. Do not modify this line
</MGProcCard>
<MGRunCard>
#*********************************************************************
#                       MadGraph5_aMC@NLO                            *
#                                                                    *
#                     run_card.dat MadEvent                          *
#                                                                    *
#  This file is used to set the parameters of the run.               *
#                                                                    *
#  Some notation/conventions:                                        *
#                                                                    *
#   Lines starting with a '# ' are info or comments                  *
#                                                                    *
#   mind the format:   value    = variable     ! comment             *
#*********************************************************************
#
#*******************                                                 
# Running parameters
#*******************                                                 
#                                                                    
#*********************************************************************
# Tag name for the run (one word)                                    *
#*********************************************************************
  tag_1     = run_tag ! name of the run 
#*********************************************************************
# Run to generate the grid pack                                      *
#*********************************************************************
  .false.     = gridpack  !True = setting up the grid pack
#*********************************************************************
# Number of events and rnd seed                                      *
# Warning: Do not generate more than 1M events in a single run       *
# If you want to run Pythia, avoid more than 50k events in a run.    *
#*********************************************************************
  2000 = nevents ! Number of unweighted events requested 
 1704 = iseed   ! rnd seed (0=assigned automatically=default))
#*********************************************************************
# Collider type and energy                                           *
# lpp: 0=No PDF, 1=proton, -1=antiproton, 2=photon from proton,      *
#                                         3=photon from electron     *
#*********************************************************************
        1     = lpp1    ! beam 1 type 
        1     = lpp2    ! beam 2 type
     4000     = ebeam1  ! beam 1 total energy in GeV
     4000     = ebeam2  ! beam 2 total energy in GeV
#*********************************************************************
# Beam polarization from -100 (left-handed) to 100 (right-handed)    *
#*********************************************************************
        0     = polbeam1 ! beam polarization for beam 1
        0     = polbeam2 ! beam polarization for beam 2
#*********************************************************************
# PDF CHOICE: this automatically fixes also alpha_s and its evol.    *
#*********************************************************************
 'nn23lo1'    = pdlabel     ! PDF set                                     
 230000    = lhaid     ! if pdlabel=lhapdf, this is the lhapdf number
#*********************************************************************
# Renormalization and factorization scales                           *
#*********************************************************************
 F        = fixed_ren_scale  ! if .true. use fixed ren scale
 F        = fixed_fac_scale  ! if .true. use fixed fac scale
 91.1880  = scale            ! fixed ren scale
 91.1880  = dsqrt_q2fact1    ! fixed fact scale for pdf1
 91.1880  = dsqrt_q2fact2    ! fixed fact scale for pdf2
 1        = scalefact        ! scale factor for event-by-event scales
#*********************************************************************
# Matching - Warning! ickkw > 1 is still beta
#*********************************************************************
 0        = ickkw            ! 0 no matching, 1 MLM, 2 CKKW matching
 1        = highestmult      ! for ickkw=2, highest mult group
 1        = ktscheme         ! for ickkw=1, 1 Durham kT, 2 Pythia pTE
 1        = alpsfact         ! scale factor for QCD emission vx
 F        = chcluster        ! cluster only according to channel diag
 T        = pdfwgt           ! for ickkw=1, perform pdf reweighting
 5        = asrwgtflavor     ! highest quark flavor for a_s reweight
 T        = clusinfo         ! include clustering tag in output
 3.0      = lhe_version       ! Change the way clustering information pass to shower.        
#*********************************************************************
#**********************************************************
#
#**********************************************************
# Automatic ptj and mjj cuts if xqcut > 0
# (turn off for VBF and single top processes)
#**********************************************************
   T  = auto_ptj_mjj  ! Automatic setting of ptj and mjj
#**********************************************************
#                                                                    
#**********************************
# BW cutoff (M+/-bwcutoff*Gamma)
#**********************************
  15  = bwcutoff      ! (M+/-bwcutoff*Gamma)
#**********************************************************
# Apply pt/E/eta/dr/mij cuts on decay products or not
# (note that etmiss/ptll/ptheavy/ht/sorted cuts always apply)
#**********************************************************
   T  = cut_decays    ! Cut decay products 
#*************************************************************
# Number of helicities to sum per event (0 = all helicities)
# 0 gives more stable result, but longer run time (needed for
# long decay chains e.g.).
# Use >=2 if most helicities contribute, e.g. pure QCD.
#*************************************************************
   0  = nhel          ! Number of helicities used per event
#*******************                                                 
# Standard Cuts
#*******************                                                 
#                                                                    
#*********************************************************************
# Minimum and maximum pt's (for max, -1 means no cut)                *
#*********************************************************************
 20  = ptj       ! minimum pt for the jets 
  0  = ptb       ! minimum pt for the b 
 10  = pta       ! minimum pt for the photons 
 10  = ptl       ! minimum pt for the charged leptons 
  0  = misset    ! minimum missing Et (sum of neutrino's momenta)
  0  = ptheavy   ! minimum pt for one heavy final state
 1.0 = ptonium   ! minimum pt for the quarkonium states
 -1  = ptjmax    ! maximum pt for the jets
 -1  = ptbmax    ! maximum pt for the b
 -1  = ptamax    ! maximum pt for the photons
 -1  = ptlmax    ! maximum pt for the charged leptons
 -1  = missetmax ! maximum missing Et (sum of neutrino's momenta)
#*********************************************************************
# Minimum and maximum E's (in the center of mass frame)              *
#*********************************************************************
  0  = ej     ! minimum E for the jets 
  0  = eb     ! minimum E for the b 
  0  = ea     ! minimum E for the photons 
  0  = el     ! minimum E for the charged leptons 
 -1   = ejmax ! maximum E for the jets
 -1   = ebmax ! maximum E for the b
 -1   = eamax ! maximum E for the photons
 -1   = elmax ! maximum E for the charged leptons
#*********************************************************************
# Maximum and minimum absolute rapidity (for max, -1 means no cut)   *
#*********************************************************************
   5  = etaj    ! max rap for the jets 
  -1  = etab    ! max rap for the b
 2.5  = etaa    ! max rap for the photons 
 2.5  = etal    ! max rap for the charged leptons 
 0.6  = etaonium ! max rap for the quarkonium states
   0  = etajmin ! min rap for the jets
   0  = etabmin ! min rap for the b
   0  = etaamin ! min rap for the photons
   0  = etalmin ! main rap for the charged leptons
#*********************************************************************
# Minimum and maximum DeltaR distance                                *
#*********************************************************************
 0.4 = drjj    ! min distance between jets 
 0   = drbb    ! min distance between b's 
 0.4 = drll    ! min distance between leptons 
 0.4 = draa    ! min distance between gammas 
 0   = drbj    ! min distance between b and jet 
 0.4 = draj    ! min distance between gamma and jet 
 0.4 = drjl    ! min distance between jet and lepton 
 0   = drab    ! min distance between gamma and b 
 0   = drbl    ! min distance between b and lepton 
 0.4 = dral    ! min distance between gamma and lepton 
 -1  = drjjmax ! max distance between jets
 -1  = drbbmax ! max distance between b's
 -1  = drllmax ! max distance between leptons
 -1  = draamax ! max distance between gammas
 -1  = drbjmax ! max distance between b and jet
 -1  = drajmax ! max distance between gamma and jet
 -1  = drjlmax ! max distance between jet and lepton
 -1  = drabmax ! max distance between gamma and b
 -1  = drblmax ! max distance between b and lepton
 -1  = dralmax ! maxdistance between gamma and lepton
#*********************************************************************
# Minimum and maximum invariant mass for pairs                       *
# WARNING: for four lepton final state mmll cut require to have      *
#          different lepton masses for each flavor!                  *           
#*********************************************************************
 0   = mmjj    ! min invariant mass of a jet pair 
 0   = mmbb    ! min invariant mass of a b pair 
 0   = mmaa    ! min invariant mass of gamma gamma pair
 0   = mmll    ! min invariant mass of l+l- (same flavour) lepton pair
 -1  = mmjjmax ! max invariant mass of a jet pair
 -1  = mmbbmax ! max invariant mass of a b pair
 -1  = mmaamax ! max invariant mass of gamma gamma pair
 -1  = mmllmax ! max invariant mass of l+l- (same flavour) lepton pair
#*********************************************************************
# Minimum and maximum invariant mass for all letpons                 *
#*********************************************************************
 0   = mmnl    ! min invariant mass for all letpons (l+- and vl) 
 -1  = mmnlmax ! max invariant mass for all letpons (l+- and vl) 
#*********************************************************************
# Minimum and maximum pt for 4-momenta sum of leptons                *
#*********************************************************************
 0   = ptllmin  ! Minimum pt for 4-momenta sum of leptons(l and vl)
 -1  = ptllmax  ! Maximum pt for 4-momenta sum of leptons(l and vl)
#*********************************************************************
# Inclusive cuts                                                     *
#*********************************************************************
 0  = xptj ! minimum pt for at least one jet  
 0  = xptb ! minimum pt for at least one b 
 0  = xpta ! minimum pt for at least one photon 
 0  = xptl ! minimum pt for at least one charged lepton 
#*********************************************************************
# Control the pt's of the jets sorted by pt                          *
#*********************************************************************
 0   = ptj1min ! minimum pt for the leading jet in pt
 0   = ptj2min ! minimum pt for the second jet in pt
 0   = ptj3min ! minimum pt for the third jet in pt
 0   = ptj4min ! minimum pt for the fourth jet in pt
 -1  = ptj1max ! maximum pt for the leading jet in pt 
 -1  = ptj2max ! maximum pt for the second jet in pt
 -1  = ptj3max ! maximum pt for the third jet in pt
 -1  = ptj4max ! maximum pt for the fourth jet in pt
 0   = cutuse  ! reject event if fails any (0) / all (1) jet pt cuts
#*********************************************************************
# Control the pt's of leptons sorted by pt                           *
#*********************************************************************
 0   = ptl1min ! minimum pt for the leading lepton in pt
 0   = ptl2min ! minimum pt for the second lepton in pt
 0   = ptl3min ! minimum pt for the third lepton in pt
 0   = ptl4min ! minimum pt for the fourth lepton in pt
 -1  = ptl1max ! maximum pt for the leading lepton in pt 
 -1  = ptl2max ! maximum pt for the second lepton in pt
 -1  = ptl3max ! maximum pt for the third lepton in pt
 -1  = ptl4max ! maximum pt for the fourth lepton in pt
#*********************************************************************
# Control the Ht(k)=Sum of k leading jets                            *
#*********************************************************************
 0   = htjmin ! minimum jet HT=Sum(jet pt)
 -1  = htjmax ! maximum jet HT=Sum(jet pt)
 0   = ihtmin  !inclusive Ht for all partons (including b)
 -1  = ihtmax  !inclusive Ht for all partons (including b)
 0   = ht2min ! minimum Ht for the two leading jets
 0   = ht3min ! minimum Ht for the three leading jets
 0   = ht4min ! minimum Ht for the four leading jets
 -1  = ht2max ! maximum Ht for the two leading jets
 -1  = ht3max ! maximum Ht for the three leading jets
 -1  = ht4max ! maximum Ht for the four leading jets
#***********************************************************************
# Photon-isolation cuts, according to hep-ph/9801442                   *
# When ptgmin=0, all the other parameters are ignored                  *
# When ptgmin>0, pta and draj are not going to be used                 *
#***********************************************************************
   0 = ptgmin ! Min photon transverse momentum
 0.4 = R0gamma ! Radius of isolation code
 1.0 = xn ! n parameter of eq.(3.4) in hep-ph/9801442
 1.0 = epsgamma ! epsilon_gamma parameter of eq.(3.4) in hep-ph/9801442
 .true. = isoEM ! isolate photons from EM energy (photons and leptons)
#*********************************************************************
# WBF cuts                                                           *
#*********************************************************************
 0   = xetamin ! minimum rapidity for two jets in the WBF case  
 0   = deltaeta ! minimum rapidity for two jets in the WBF case 
#*********************************************************************
# KT DURHAM CUT                                                      *
#*********************************************************************
 -1    =  ktdurham        
 0.4  =  dparameter 
#*********************************************************************
# maximal pdg code for quark to be considered as a light jet         *
# (otherwise b cuts are applied)                                     *
#*********************************************************************
 4 = maxjetflavor    ! Maximum jet pdg code
#*********************************************************************
# Jet measure cuts                                                   *
#*********************************************************************
 0   = xqcut   ! minimum kt jet measure between partons
#*********************************************************************
#
#*********************************************************************
# Store info for systematics studies                                 *
# WARNING: If use_syst is T, matched Pythia output is                *
#          meaningful ONLY if plotted taking matchscale              *
#          reweighting into account!                                 *
#*********************************************************************
   F  = use_syst      ! Enable systematics studies
#
#**************************************
# Parameter of the systematics study
#  will be used by SysCalc (if installed)
#**************************************                                  
#
0.5 1 2 = sys_scalefact  # factorization/renormalization scale factor
0.5 1 2 = sys_alpsfact  # \alpha_s emission scale factors
30 50 = sys_matchscale # variation of merging scale
# PDF sets and number of members (0 or none for all members).
CT10nlo.LHgrid = sys_pdf # matching scales
# MSTW2008nlo68cl.LHgrid 1  = sys_pdf
</MGRunCard>
<slha>
######################################################################
## PARAM_CARD AUTOMATICALY GENERATED BY MG5 FOLLOWING UFO MODEL   ####
######################################################################
##                                                                  ##
##  Width set on Auto will be computed following the information    ##
##        present in the decay.py files of the model.               ##
##        See  arXiv:1402.1178 for more details.                    ##
##                                                                  ##
######################################################################

###################################
## INFORMATION FOR CKMBLOCK
###################################
Block ckmblock 
    1 2.277360e-01 # cabi 

###################################
## INFORMATION FOR FRBLOCK
###################################
Block frblock 
    1 8.000000e-01 # gz 

###################################
## INFORMATION FOR MASS
###################################
Block mass 
    1 5.040000e-03 # MD 
    2 2.550000e-03 # MU 
    3 1.010000e-01 # MS 
    4 1.270000e+00 # MC 
    5 4.700000e+00 # MB 
    6 1.720000e+02 # MT 
   11 5.110000e-04 # Me 
   13 1.056600e-01 # MM 
   15 1.777000e+00 # MTA 
   23 9.118760e+01 # MZ 
   25 1.200000e+02 # MH 
  10030 3.100000e+03 # MZph 
  10031 3.000000e+02 # MZpl 
## Dependent parameters, given by model restrictions.
## Those values should be edited following the 
## analytical expression. MG5 ignores those values 
## but they are important for interfacing the output of MG5
## to external program such as Pythia.
  12 0.000000 # ve : 0.0 
  14 0.000000 # vm : 0.0 
  16 0.000000 # vt : 0.0 
  21 0.000000 # g : 0.0 
  22 0.000000 # a : 0.0 
  24 79.824360 # w+ : cmath.sqrt(MZ__exp__2/2. + cmath.sqrt(MZ__exp__4/4. - (aEW*cmath.pi*MZ__exp__2)/(Gf*sqrt__2))) 

###################################
## INFORMATION FOR SMINPUTS
###################################
Block sminputs 
    1 1.279000e+02 # aEWM1 
    2 1.166370e-05 # Gf 
    3 1.184000e-01 # aS 

###################################
## INFORMATION FOR YUKAWA
###################################
Block yukawa 
    1 5.040000e-03 # ymdo 
    2 2.550000e-03 # ymup 
    3 1.010000e-01 # yms 
    4 1.270000e+00 # ymc 
    5 4.700000e+00 # ymb 
    6 1.720000e+02 # ymt 
   11 5.110000e-04 # yme 
   13 1.056600e-01 # ymm 
   15 1.777000e+00 # ymtau 

###################################
## INFORMATION FOR DECAY
###################################
DECAY   6 1.508336e+00 # WT 
DECAY  23 2.495200e+00 # WZ 
DECAY  24 2.085000e+00 # WW 
DECAY  25 5.753088e-03 # WH 
## Dependent parameters, given by model restrictions.
## Those values should be edited following the 
## analytical expression. MG5 ignores those values 
## but they are important for interfacing the output of MG5
## to external program such as Pythia.
DECAY  1 0.000000 # d : 0.0 
DECAY  2 0.000000 # u : 0.0 
DECAY  3 0.000000 # s : 0.0 
DECAY  4 0.000000 # c : 0.0 
DECAY  5 0.000000 # b : 0.0 
DECAY  11 0.000000 # e- : 0.0 
DECAY  12 0.000000 # ve : 0.0 
DECAY  13 0.000000 # mu- : 0.0 
DECAY  14 0.000000 # vm : 0.0 
DECAY  15 0.000000 # ta- : 0.0 
DECAY  16 0.000000 # vt : 0.0 
DECAY  21 0.000000 # g : 0.0 
DECAY  22 0.000000 # a : 0.0 
DECAY  10030 0.308725 # zph : (gz__exp__2*MZph*(5 + cmath.sqrt(1 - (4*MT__exp__2)/MZph__exp__2)))/(144.*cmath.pi) 
DECAY  10031 0.132629 # zpl : (5*gz__exp__2*MZpl)/(144.*cmath.pi) 
#===========================================================
# QUANTUM NUMBERS OF NEW STATE(S) (NON SM PDG CODE)
#===========================================================

Block QNUMBERS 10030  # zph 
        1 0  # 3 times electric charge
        2 3  # number of spin states (2S+1)
        3 1  # colour rep (1: singlet, 3: triplet, 8: octet)
        4 0  # Particle/Antiparticle distinction (0=own anti)
Block QNUMBERS 10031  # zpl 
        1 0  # 3 times electric charge
        2 3  # number of spin states (2S+1)
        3 1  # colour rep (1: singlet, 3: triplet, 8: octet)
        4 0  # Particle/Antiparticle distinction (0=own anti)
</slha>
## END BANNER##
<MGGenerationInfo>
#  Number of Events        :         3921
#  Integrated weight (pb)  :  0.55837E-03
#  Max wgt                 :  0.22263E-06
#  Average wgt             :  0.14240E-06
</MGGenerationInfo>
</header>
<init>
     2212     2212  0.40000000000E+04  0.40000000000E+04 0 0  247000  247000 2   1
  0.55869819586E-03  0.13288806238E-05  0.22263340000E-06   0
</init>
<event>
 5   0  0.2067926E-06  0.2980363E+04  0.7818609E-02  0.8249361E-01
       -2   -1    0    0    0  501  0.00000000000E+00  0.00000000000E+00  0.11486868720E+04  0.11486868720E+04  0.25500000920E-02 0.  1.
        2   -1    0    0  501    0  0.00000000000E+00  0.00000000000E+00 -0.19331996933E+04  0.19331996933E+04  0.25500000920E-02 0. -1.
    10030    2    1    2    0    0  0.00000000000E+00  0.00000000000E+00 -0.78451282131E+03  0.30818865653E+04  0.29803631381E+04 0.  0.
        1    1    3    3  502    0  0.14586554697E+04  0.27924479275E+03 -0.26566198000E+03  0.15087179065E+04  0.50400001928E-02 0. -1.
       -1    1    3    3    0  502 -0.14586554697E+04 -0.27924479275E+03 -0.51885084132E+03  0.15731686589E+04  0.50400001928E-02 0.  1.
</event>
<event>
 5   0  0.2067926E-06  0.3101485E+04  0.7818609E-02  0.8215330E-01
       -2   -1    0    0    0  501  0.00000000000E+00  0.00000000000E+00  0.12615321731E+04  0.12615321731E+04  0.25500000920E-02 0.  1.
        2   -1    0    0  501    0  0.00000000000E+00  0.00000000000E+00 -0.19062553820E+04  0.19062553820E+04  0.25500000920E-02 0. -1.
    10030    2    1    2    0    0  0.00000000000E+00  0.00000000000E+00 -0.64472320897E+03  0.31677875551E+04  0.31014851246E+04 0.  0.
        1    1    3    3  502    0  0.41358093816E+03 -0.13235645619E+04 -0.10314141092E+04  0.17282035200E+04  0.50400001928E-02 0.  1.
       -1    1    3    3    0  502 -0.41358093816E+03  0.13235645619E+04  0.38669090018E+03  0.14395840351E+04  0.50400001928E-02 0. -1.
</event>
<event>
 5   0  0.2078009E-06  0.3120662E+04  0.7818609E-02  0.8210090E-01
       -2   -1    0    0    0  501  0.00000000000E+00  0.00000000000E+00  0.12217650232E+04  0.12217650232E+04  0.25500000920E-02 0. -1.
        2   -1    0    0  501    0  0.00000000000E+00  0.00000000000E+00 -0.19927170987E+04  0.19927170987E+04  0.25500000920E-02 0.  1.
    10030    2    1    2    0    0  0.00000000000E+00  0.00000000000E+00 -0.77095207553E+03  0.32144821218E+04  0.31206615018E+04 0.  0.
        3    1    3    3  502    0 -0.77841304014E+03  0.85581844809E+03 -0.14639883069E+04  0.18659083177E+04  0.10100000352E+00 0.  1.
       -3    1    3    3    0  502  0.77841304014E+03 -0.85581844809E+03  0.69303623133E+03  0.13485738042E+04  0.10100000352E+00 0. -1.
</event>
<event>
 5   0  0.2067926E-06  0.3090957E+04  0.7818609E-02  0.8218224E-01
       -2   -1    0    0    0  501  0.00000000000E+00  0.00000000000E+00  0.21550171409E+04  0.21550171409E+04  0.25500000920E-02 0.  1.
        2   -1    0    0  501    0  0.00000000000E+00  0.00000000000E+00 -0.11083458166E+04  0.11083458166E+04  0.25500000920E-02 0. -1.
    10030    2    1    2    0    0  0.00000000000E+00  0.00000000000E+00  0.10466713243E+04  0.32633629575E+04  0.30909572840E+04 0.  0.
        1    1    3    3  502    0 -0.15174358974E+04  0.11232474279E+03  0.23754218557E+03  0.15400178053E+04  0.50400001928E-02 0.  1.
       -1    1    3    3    0  502  0.15174358974E+04 -0.11232474279E+03  0.80912913872E+03  0.17233451522E+04  0.50400001928E-02 0. -1.
</event>
<event>
 5   0  0.2078009E-06  0.3097859E+04  0.7818609E-02  0.8216326E-01
        2   -1    0    0  501    0  0.00000000000E+00  0.00000000000E+00  0.17580910868E+04  0.17580910868E+04  0.25500000920E-02 0. -1.
       -2   -1    0    0    0  501  0.00000000000E+00  0.00000000000E+00 -0.13646517296E+04  0.13646517296E+04  0.25500000920E-02 0.  1.
    10030    2    1    2    0    0  0.00000000000E+00  0.00000000000E+00  0.39343935719E+03  0.31227428164E+04  0.30978586426E+04 0.  0.
        3    1    3    3  502    0  0.13809493358E+04 -0.15356595257E+03 -0.49330684187E+03  0.14744338643E+04  0.10100000352E+00 0. -1.
       -3    1    3    3    0  502 -0.13809493358E+04  0.15356595257E+03  0.88674619905E+03  0.16483089521E+04  0.10100000352E+00 0.  1.
</event>
<event>
 5   0  0.7726743E-07  0.3051722E+04  0.7818609E-02  0.8229114E-01
       -1   -1    0    0    0  501  0.00000000000E+00  0.00000000000E+00  0.18311918017E+04  0.18311918017E+04  0.50400001928E-02 0. -1.
        1   -1    0    0  501    0  0.00000000000E+00  0.00000000000E+00 -0.12714405005E+04  0.12714405006E+04  0.50400001928E-02 0.  1.
    10030    2    1    2    0    0  0.00000000000E+00  0.00000000000E+00  0.55975130118E+03  0.31026323023E+04  0.30517217573E+04 0.  0.
        1    1    3    3  502    0  0.96421510126E+03 -0.89227772865E+03 -0.50920437416E+03  0.14089568486E+04  0.50400001928E-02 0.  1.
       -1    1    3    3    0  502 -0.96421510126E+03  0.89227772865E+03  0.10689556753E+04  0.16936754537E+04  0.50400001928E-02 0. -1.
</event>
<event>
 5   0  0.7561815E-07  0.3099218E+04  0.7818609E-02  0.8215952E-01
       -1   -1    0    0    0  501  0.00000000000E+00  0.00000000000E+00  0.14921675779E+04  0.14921675779E+04  0.50400001928E-02 0.  1.
        1   -1    0    0  501    0  0.00000000000E+00  0.00000000000E+00 -0.16092621252E+04  0.16092621252E+04  0.50400001928E-02 0. -1.
    10030    2    1    2    0    0  0.00000000000E+00  0.00000000000E+00 -0.11709454731E+03  0.31014297030E+04  0.30992184611E+04 0.  0.
        3    1    3    3  502    0  0.13959152027E+04  0.34102834894E+03  0.52187445721E+03  0.15288010162E+04  0.10100000352E+00 0.  1.
       -3    1    3    3    0  502 -0.13959152027E+04 -0.34102834894E+03 -0.63896900452E+03  0.15726286869E+04  0.10100000352E+00 0. -1.
</event>
<event>
 5   0  0.2067926E-06  0.3128158E+04  0.7818609E-02  0.8208053E-01
       -2   -1    0    0    0  501  0.00000000000E+00  0.00000000000E+00  0.13911058041E+04  0.13911058041E+04  0.25500000920E-02 0.  1.
        2   -1    0    0  501    0  0.00000000000E+00  0.00000000000E+00 -0.17585596722E+04  0.17585596722E+04  0.25500000920E-02 0. -1.
    10030    2    1    2    0    0  0.00000000000E+00  0.00000000000E+00 -0.36745386813E+03  0.31496654763E+04  0.31281576474E+04 0.  0.
        1    1    3    3  502    0  0.13596330972E+04 -0.75675866334E+03 -0.34310847580E+03  0.15934268918E+04  0.50400001928E-02 0. -1.
       -1    1    3    3    0  502 -0.13596330972E+04  0.75675866334E+03 -0.24345392334E+02  0.15562385844E+04  0.50400001928E-02 0.  1.
</event>
<event>
 5   0  0.7656332E-07  0.3086580E+04  0.7818609E-02  0.8219431E-01
       -1   -1    0    0    0  501  0.00000000000E+00  0.00000000000E+00  0.94331286569E+03  0.94331286571E+03  0.50400001928E-02 0.  1.
        1   -1    0    0  501    0  0.00000000000E+00  0.00000000000E+00 -0.25248719284E+04  0.25248719284E+04  0.50400001928E-02 0. -1.
    10030    2    1    2    0    0  0.00000000000E+00  0.00000000000E+00 -0.15815590627E+04  0.34681847941E+04  0.30865800973E+04 0.  0.
        2    1    3    3  502    0 -0.58682735268E+03 -0.13140132026E+04 -0.14171456321E+04  0.20197274027E+04  0.25500000920E-02 0. -1.
       -2    1    3    3    0  502  0.58682735268E+03  0.13140132026E+04 -0.16441343057E+03  0.14484573914E+04  0.25500000920E-02 0.  1.
</event>
<event>
 5   0  0.2067926E-06  0.3077213E+04  0.7818609E-02  0.8222020E-01
        2   -1    0    0  501    0  0.00000000000E+00  0.00000000000E+00  0.23567317197E+04  0.23567317197E+04  0.25500000920E-02 0. -1.
       -2   -1    0    0    0  501  0.00000000000E+00  0.00000000000E+00 -0.10044882694E+04  0.10044882694E+04  0.25500000920E-02 0.  1.
    10030    2    1    2    0    0  0.00000000000E+00  0.00000000000E+00  0.13522434504E+04  0.33612199891E+04  0.30772126131E+04 0.  0.
        1    1    3    3  502    0  0.34973574370E+03  0.14067941392E+04  0.12393943313E+04  0.19072186946E+04  0.50400001928E-02 0. -1.
       -1    1    3    3    0  502 -0.34973574370E+03 -0.14067941392E+04  0.11284911904E+03  0.14540012945E+04  0.50400001928E-02 0.  1.
</event>
<event>
 5   0  0.2226334E-06  0.3099066E+04  0.7818609E-02  0.8215994E-01
       -2   -1    0    0    0  501  0.00000000000E+00  0.00000000000E+00  0.80620068026E+03  0.80620068027E+03  0.25500000920E-02 0. -1.
        2   -1    0    0  501    0  0.00000000000E+00  0.00000000000E+00 -0.29782311050E+04  0.29782311050E+04  0.25500000920E-02 0.  1.
    10030    2    1    2    0    0  0.00000000000E+00  0.00000000000E+00 -0.21720304247E+04  0.37844317852E+04  0.30990656287E+04 0.  0.
        5    1    3    3  502    0  0.99063484672E+02 -0.84979829014E+03 -0.26636474473E+04  0.27976794887E+04  0.46999998093E+01 0.  1.
       -5    1    3    3    0  502 -0.99063484672E+02  0.84979829014E+03  0.49161702257E+03  0.98675229657E+03  0.46999998093E+01 0. -1.
</event>
<event>
 5   0  0.2226334E-06  0.3092082E+04  0.7818609E-02  0.8217914E-01
       -2   -1    0    0    0  501  0.00000000000E+00  0.00000000000E+00  0.18042938378E+04  0.18042938378E+04  0.25500000920E-02 0.  1.
        2   -1    0    0  501    0  0.00000000000E+00  0.00000000000E+00 -0.13247522309E+04  0.13247522309E+04  0.25500000920E-02 0. -1.
    10030    2    1    2    0    0  0.00000000000E+00  0.00000000000E+00  0.47954160691E+03  0.31290460688E+04  0.30920816851E+04 0.  0.
        5    1    3    3  502    0  0.10862630402E+04 -0.91620710811E+03 -0.37645661178E+03  0.14700831705E+04  0.46999998093E+01 0. -1.
       -5    1    3    3    0  502 -0.10862630402E+04  0.91620710811E+03  0.85599821869E+03  0.16589628983E+04  0.46999998093E+01 0.  1.
</event>
<event>
 5   0  0.7413481E-07  0.3118432E+04  0.7818609E-02  0.8210698E-01
        1   -1    0    0  501    0  0.00000000000E+00  0.00000000000E+00  0.15743650455E+04  0.15743650455E+04  0.50400001928E-02 0. -1.
       -1   -1    0    0    0  501  0.00000000000E+00  0.00000000000E+00 -0.15442125797E+04  0.15442125797E+04  0.50400001928E-02 0.  1.
    10030    2    1    2    0    0  0.00000000000E+00  0.00000000000E+00  0.30152465817E+02  0.31185776251E+04  0.31184318548E+04 0.  0.
        5    1    3    3  502    0  0.29957241371E+03  0.48695386406E+03 -0.14355999035E+04  0.15452627187E+04  0.46999998093E+01 0.  1.
       -5    1    3    3    0  502 -0.29957241371E+03 -0.48695386406E+03  0.14657523693E+04  0.15733149065E+04  0.46999998093E+01 0. -1.
</event>
<event>
 5   0  0.7726743E-07  0.3090737E+04  0.7818609E-02  0.8218285E-01
        1   -1    0    0  501    0  0.00000000000E+00  0.00000000000E+00  0.15722211605E+04  0.15722211605E+04  0.50400001928E-02 0. -1.
       -1   -1    0    0    0  501  0.00000000000E+00  0.00000000000E+00 -0.15189745533E+04  0.15189745533E+04  0.50400001928E-02 0.  1.
    10030    2    1    2    0    0  0.00000000000E+00  0.00000000000E+00  0.53246607174E+02  0.30911957138E+04  0.30907370868E+04 0.  0.
        1    1    3    3  502    0  0.80732113172E+03 -0.69501896664E+03  0.11463184186E+04  0.15648848809E+04  0.50400001928E-02 0. -1.
       -1    1    3    3    0  502 -0.80732113172E+03  0.69501896664E+03 -0.10930718114E+04  0.15263108329E+04  0.50400001928E-02 0.  1.
</event>
<event>
 5   0  0.7561815E-07  0.3160859E+04  0.7818609E-02  0.8199231E-01
        1   -1    0    0  501    0  0.00000000000E+00  0.00000000000E+00  0.22727047526E+04  0.22727047526E+04  0.50400001928E-02 0. -1.
       -1   -1    0    0    0  501  0.00000000000E+00  0.00000000000E+00 -0.10990244009E+04  0.10990244009E+04  0.50400001928E-02 0.  1.
    10030    2    1    2    0    0  0.00000000000E+00  0.00000000000E+00  0.11736803516E+04  0.33717291535E+04  0.31608593637E+04 0.  0.
        3    1    3    3  502    0  0.93752635728E+03 -0.85704853989E+03 -0.41625000175E+03  0.13366944095E+04  0.10100000352E+00 0.  1.
       -3    1    3    3    0  502 -0.93752635728E+03  0.85704853989E+03  0.15899303534E+04  0.20350347440E+04  0.10100000352E+00 0. -1.
</event>
<event>
 5   0  0.7561815E-07  0.3105915E+04  0.7818609E-02  0.8214117E-01
        1   -1    0    0  501    0  0.00000000000E+00  0.00000000000E+00  0.16635179467E+04  0.16635179467E+04  0.50400001928E-02 0. -1.
       -1   -1    0    0    0  501  0.00000000000E+00  0.00000000000E+00 -0.14497449716E+04  0.14497449716E+04  0.50400001928E-02 0.  1.
    10030    2    1    2    0    0  0.00000000000E+00  0.00000000000E+00  0.21377297514E+03  0.31132629183E+04  0.31059148594E+04 0.  0.
        3    1    3    3  502    0  0.22215539483E+01  0.68341593598E+03  0.15046799704E+04  0.16526112975E+04  0.10100000352E+00 0. -1.
       -3    1    3    3    0  502 -0.22215539483E+01 -0.68341593598E+03 -0.12909069953E+04  0.14606516209E+04  0.10100000352E+00 0.  1.
</event>
<event>
 5   0  0.2067926E-06  0.3145446E+04  0.7818609E-02  0.8203375E-01
        2   -1    0    0  501    0  0.00000000000E+00  0.00000000000E+00  0.30331265711E+04  0.30331265711E+04  0.25500000920E-02 0.  1.
       -2   -1    0    0    0  501  0.00000000000E+00  0.00000000000E+00 -0.81548113132E+03  0.81548113133E+03  0.25500000920E-02 0. -1.
    10030    2    1    2    0    0  0.00000000000E+00  0.00000000000E+00  0.22176454398E+04  0.38486077024E+04  0.31454459065E+04 0.  0.
        1    1    3    3  502    0 -0.84040053866E+03  0.86566630526E+03  0.23432172394E+04  0.26355868888E+04  0.50400001928E-02 0.  1.
       -1    1    3    3    0  502  0.84040053866E+03 -0.86566630526E+03 -0.12557179960E+03  0.12130208136E+04  0.50400001928E-02 0. -1.
</event>
<event>
 5   0  0.7519202E-07  0.3143311E+04  0.7818609E-02  0.8203951E-01
       -1   -1    0    0    0  501  0.00000000000E+00  0.00000000000E+00  0.23331400202E+04  0.23331400202E+04  0.50400001928E-02 0. -1.
        1   -1    0    0  501    0  0.00000000000E+00  0.00000000000E+00 -0.10587021654E+04  0.10587021654E+04  0.50400001928E-02 0.  1.
    10030    2    1    2    0    0  0.00000000000E+00  0.00000000000E+00  0.12744378548E+04  0.33918421856E+04  0.31433106061E+04 0.  0.
        4    1    3    3  502    0  0.14958565020E+03 -0.44980543154E+02 -0.10503048518E+04  0.10618573400E+04  0.12699999809E+01 0.  1.
       -4    1    3    3    0  502 -0.14958565020E+03  0.44980543154E+02  0.23247427066E+04  0.23299848456E+04  0.12699999809E+01 0. -1.
</event>
<event>
 5   0  0.7726743E-07  0.3115883E+04  0.7818609E-02  0.8211392E-01
        1   -1    0    0  501    0  0.00000000000E+00  0.00000000000E+00  0.15763580765E+04  0.15763580765E+04  0.50400001928E-02 0.  1.
       -1   -1    0    0    0  501  0.00000000000E+00  0.00000000000E+00 -0.15397401397E+04  0.15397401398E+04  0.50400001928E-02 0. -1.
    10030    2    1    2    0    0  0.00000000000E+00  0.00000000000E+00  0.36617936759E+02  0.31160982163E+04  0.31158830562E+04 0.  0.
        1    1    3    3  502    0 -0.24014988603E+03  0.40213153394E+03  0.15042783443E+04  0.15755110522E+04  0.50400001928E-02 0.  1.
       -1    1    3    3    0  502  0.24014988603E+03 -0.40213153394E+03 -0.14676604075E+04  0.15405871641E+04  0.50400001928E-02 0. -1.
</event>
<event>
 5   0  0.2133385E-06  0.3069012E+04  0.7818609E-02  0.8224294E-01
        2   -1    0    0  501    0  0.00000000000E+00  0.00000000000E+00  0.24195539448E+04  0.24195539448E+04  0.25500000920E-02 0. -1.
       -2   -1    0    0    0  501  0.00000000000E+00  0.00000000000E+00 -0.97319950855E+03  0.97319950855E+03  0.25500000920E-02 0.  1.
    10030    2    1    2    0    0  0.00000000000E+00  0.00000000000E+00  0.14463544363E+04  0.33927534534E+04  0.30690120300E+04 0.  0.
        2    1    3    3  502    0 -0.11071169917E+04  0.21269070706E+03 -0.42767865529E+03  0.12057588492E+04  0.25500000920E-02 0.  1.
       -2    1    3    3    0  502  0.11071169917E+04 -0.21269070706E+03  0.18740330916E+04  0.21869946042E+04  0.25500000920E-02 0. -1.
</event>
<event>
 5   0  0.7561815E-07  0.3096973E+04  0.7818609E-02  0.8216569E-01
        1   -1    0    0  501    0  0.00000000000E+00  0.00000000000E+00  0.14407750913E+04  0.14407750914E+04  0.50400001928E-02 0. -1.
       -1   -1    0    0    0  501  0.00000000000E+00  0.00000000000E+00 -0.16642506510E+04  0.16642506510E+04  0.50400001928E-02 0.  1.
    10030    2    1    2    0    0  0.00000000000E+00  0.00000000000E+00 -0.22347555963E+03  0.31050257423E+04  0.30969732861E+04 0.  0.
        3    1    3    3  502    0  0.51951910178E+03 -0.26421283136E+03 -0.15500766951E+04  0.16560332992E+04  0.10100000352E+00 0.  1.
       -3    1    3    3    0  502 -0.51951910178E+03  0.26421283136E+03  0.13266011354E+04  0.14489924431E+04  0.10100000352E+00 0. -1.
</event>
<event>
 5   0  0.2078009E-06  0.3080416E+04  0.7818609E-02  0.8221133E-01
        2   -1    0    0  501    0  0.00000000000E+00  0.00000000000E+00  0.11552826585E+04  0.11552826585E+04  0.25500000920E-02 0.  1.
       -2   -1    0    0    0  501  0.00000000000E+00  0.00000000000E+00 -0.20533857773E+04  0.20533857773E+04  0.25500000920E-02 0. -1.
    10030    2    1    2    0    0  0.00000000000E+00  0.00000000000E+00 -0.89810311877E+03  0.32086684358E+04  0.30804161925E+04 0.  0.
        3    1    3    3  502    0  0.11019317774E+04 -0.10737574868E+04 -0.52294294826E+03  0.16250163445E+04  0.10100000352E+00 0. -1.
       -3    1    3    3    0  502 -0.11019317774E+04  0.10737574868E+04 -0.37516017052E+03  0.15836520913E+04  0.10100000352E+00 0.  1.
</event>
<event>
 5   0  0.7726743E-07  0.3104026E+04  0.7818609E-02  0.8214634E-01
       -1   -1    0    0    0  501  0.00000000000E+00  0.00000000000E+00  0.10821724713E+04  0.10821724713E+04  0.50400001928E-02 0. -1.
        1   -1    0    0  501    0  0.00000000000E+00  0.00000000000E+00 -0.22258415280E+04  0.22258415280E+04  0.50400001928E-02 0.  1.
    10030    2    1    2    0    0  0.00000000000E+00  0.00000000000E+00 -0.11436690567E+04  0.33080139993E+04  0.31040260482E+04 0.  0.
        1    1    3    3  502    0  0.55537528010E+03  0.69606252094E+03  0.78284242457E+03  0.11856588871E+04  0.50400001928E-02 0. -1.
       -1    1    3    3    0  502 -0.55537528010E+03 -0.69606252094E+03 -0.19265114812E+04  0.21223551122E+04  0.50400001928E-02 0.  1.
</event>
<event>
 5   0  0.2133385E-06  0.3108026E+04  0.7818609E-02  0.8213539E-01
        2   -1    0    0  501    0  0.00000000000E+00  0.00000000000E+00  0.16518212201E+04  0.16518212201E+04  0.25500000920E-02 0. -1.
       -2   -1    0    0    0  501  0.00000000000E+00  0.00000000000E+00 -0.14619964088E+04  0.14619964088E+04  0.25500000920E-02 0.  1.
    10030    2    1    2    0    0  0.00000000000E+00  0.00000000000E+00  0.18982481129E+03  0.31138176289E+04  0.31080261851E+04 0.  0.
        2    1    3    3  502    0 -0.13037698781E+04 -0.76842962025E+03  0.44863788497E+03  0.15784726568E+04  0.25500000920E-02 0. -1.
       -2    1    3    3    0  502  0.13037698781E+04  0.76842962025E+03 -0.25881307368E+03  0.15353449721E+04  0.25500000920E-02 0.  1.
</event>
<event>
 5   0  0.7656332E-07  0.3079430E+04  0.7818609E-02  0.8221406E-01
        1   -1    0    0  501    0  0.00000000000E+00  0.00000000000E+00  0.17646884165E+04  0.17646884165E+04  0.50400001928E-02 0.  1.
       -1   -1    0    0    0  501  0.00000000000E+00  0.00000000000E+00 -0.13434228949E+04  0.13434228949E+04  0.50400001928E-02 0. -1.
    10030    2    1    2    0    0  0.00000000000E+00  0.00000000000E+00  0.42126552164E+03  0.31081113114E+04  0.30794303506E+04 0.  0.
        2    1    3    3  502    0 -0.40913595237E+03  0.16539549548E+03 -0.12782246985E+04  0.13522596930E+04  0.25500000920E-02 0. -1.
       -2    1    3    3    0  502  0.40913595237E+03 -0.16539549548E+03  0.16994902201E+04  0.17558516184E+04  0.25500000920E-02 0.  1.
</event>
<event>
 5   0  0.2078009E-06  0.3146828E+04  0.7818609E-02  0.8203003E-01
        2   -1    0    0  501    0  0.00000000000E+00  0.00000000000E+00  0.15388381351E+04  0.15388381351E+04  0.25500000920E-02 0. -1.
       -2   -1    0    0    0  501  0.00000000000E+00  0.00000000000E+00 -0.16087666637E+04  0.16087666637E+04  0.25500000920E-02 0.  1.
    10030    2    1    2    0    0  0.00000000000E+00  0.00000000000E+00 -0.69928528583E+02  0.31476047989E+04  0.31468279220E+04 0.  0.
        3    1    3    3  502    0 -0.12026505223E+04  0.52004426840E+03  0.83635191055E+03  0.15544448683E+04  0.10100000352E+00 0.  1.
       -3    1    3    3    0  502  0.12026505223E+04 -0.52004426840E+03 -0.90628043913E+03  0.15931599306E+04  0.10100000352E+00 0. -1.
</event>
<event>
 5   0  0.2226334E-06  0.3121295E+04  0.7818609E-02  0.8209918E-01
        2   -1    0    0  501    0  0.00000000000E+00  0.00000000000E+00  0.31249604067E+04  0.31249604067E+04  0.25500000920E-02 0.  1.
       -2   -1    0    0    0  501  0.00000000000E+00  0.00000000000E+00 -0.77940859774E+03  0.77940859774E+03  0.25500000920E-02 0. -1.
    10030    2    1    2    0    0  0.00000000000E+00  0.00000000000E+00  0.23455518089E+04  0.39043690044E+04  0.31212952495E+04 0.  0.
        5    1    3    3  502    0 -0.11253722266E+04  0.10512666023E+04  0.14891642498E+04  0.21422549732E+04  0.46999998093E+01 0.  1.
       -5    1    3    3    0  502  0.11253722266E+04 -0.10512666023E+04  0.85638755917E+03  0.17621140312E+04  0.46999998093E+01 0. -1.
</event>
<event>
 5   0  0.7656332E-07  0.2999717E+04  0.7818609E-02  0.8243812E-01
       -1   -1    0    0    0  501  0.00000000000E+00  0.00000000000E+00  0.10830090765E+04  0.10830090765E+04  0.50400001928E-02 0. -1.
        1   -1    0    0  501    0  0.00000000000E+00  0.00000000000E+00 -0.20771526522E+04  0.20771526522E+04  0.50400001928E-02 0.  1.
    10030    2    1    2    0    0  0.00000000000E+00  0.00000000000E+00 -0.99414357575E+03  0.31601617287E+04  0.29997167704E+04 0.  0.
        2    1    3    3  502    0  0.12270229423E+04  0.66894174808E+03 -0.10707209928E+04  0.17605430434E+04  0.25500000920E-02 0. -1.
       -2    1    3    3    0  502 -0.12270229423E+04 -0.66894174808E+03  0.76577417078E+02  0.13996186853E+04  0.25500000920E-02 0.  1.
</event>
<event>
 5   0  0.2078009E-06  0.3324557E+04  0.7818609E-02  0.8156675E-01
        2   -1    0    0  501    0  0.00000000000E+00  0.00000000000E+00  0.16686827281E+04  0.16686827281E+04  0.25500000920E-02 0.  1.
       -2   -1    0    0    0  501  0.00000000000E+00  0.00000000000E+00 -0.16558984581E+04  0.16558984581E+04  0.25500000920E-02 0. -1.
    10030    2    1    2    0    0  0.00000000000E+00  0.00000000000E+00  0.12784270022E+02  0.33245811863E+04  0.33245566060E+04 0.  0.
        3    1    3    3  502    0  0.70101237546E+03  0.23000081027E+03 -0.14831994982E+04  0.16565625508E+04  0.10100000352E+00 0. -1.
       -3    1    3    3    0  502 -0.70101237546E+03 -0.23000081027E+03  0.14959837682E+04  0.16680186354E+04  0.10100000352E+00 0.  1.
</event>
<event>
 5   0  0.2067926E-06  0.3081410E+04  0.7818609E-02  0.8220858E-01
        2   -1    0    0  501    0  0.00000000000E+00  0.00000000000E+00  0.18461288221E+04  0.18461288221E+04  0.25500000920E-02 0.  1.
       -2   -1    0    0    0  501  0.00000000000E+00  0.00000000000E+00 -0.12858108064E+04  0.12858108064E+04  0.25500000920E-02 0. -1.
    10030    2    1    2    0    0  0.00000000000E+00  0.00000000000E+00  0.56031801564E+03  0.31319396285E+04  0.30814103197E+04 0.  0.
        1    1    3    3  502    0  0.58395809053E+03 -0.71137446968E+03  0.15360222997E+04  0.17906493774E+04  0.50400001928E-02 0.  1.
       -1    1    3    3    0  502 -0.58395809053E+03  0.71137446968E+03 -0.97570428411E+03  0.13412902511E+04  0.50400001928E-02 0. -1.
</event>
<event>
 5   0  0.7413481E-07  0.3118396E+04  0.7818609E-02  0.8210707E-01
       -1   -1    0    0    0  501  0.00000000000E+00  0.00000000000E+00  0.20324548779E+04  0.20324548779E+04  0.50400001928E-02 0. -1.
        1   -1    0    0  501    0  0.00000000000E+00  0.00000000000E+00 -0.11961386046E+04  0.11961386046E+04  0.50400001928E-02 0.  1.
    10030    2    1    2    0    0  0.00000000000E+00  0.00000000000E+00  0.83631627331E+03  0.32285934824E+04  0.31183955756E+04 0.  0.
        5    1    3    3  502    0  0.45799154184E+03 -0.50218096831E+03  0.18710047310E+04  0.19906337611E+04  0.46999998093E+01 0. -1.
       -5    1    3    3    0  502 -0.45799154184E+03  0.50218096831E+03 -0.10346884577E+04  0.12379597214E+04  0.46999998093E+01 0.  1.
</event>
<event>
 5   0  0.2078009E-06  0.3147245E+04  0.7818609E-02  0.8202890E-01
       -2   -1    0    0    0  501  0.00000000000E+00  0.00000000000E+00  0.10342573815E+04  0.10342573815E+04  0.25500000920E-02 0.  1.
        2   -1    0    0  501    0  0.00000000000E+00  0.00000000000E+00 -0.23942669344E+04  0.23942669344E+04  0.25500000920E-02 0. -1.
    10030    2    1    2    0    0  0.00000000000E+00  0.00000000000E+00 -0.13600095529E+04  0.34285243159E+04  0.31472453036E+04 0.  0.
        3    1    3    3  502    0  0.81210155485E+03 -0.10547394128E+04  0.23422790174E+03  0.13516089984E+04  0.10100000352E+00 0.  1.
       -3    1    3    3    0  502 -0.81210155485E+03  0.10547394128E+04 -0.15942374547E+04  0.20769153176E+04  0.10100000352E+00 0. -1.
</event>
<event>
 5   0  0.7519202E-07  0.3080866E+04  0.7818609E-02  0.8221009E-01
       -1   -1    0    0    0  501  0.00000000000E+00  0.00000000000E+00  0.19804109055E+04  0.19804109055E+04  0.50400001928E-02 0.  1.
        1   -1    0    0  501    0  0.00000000000E+00  0.00000000000E+00 -0.11982030355E+04  0.11982030355E+04  0.50400001928E-02 0. -1.
    10030    2    1    2    0    0  0.00000000000E+00  0.00000000000E+00  0.78220786995E+03  0.31786139410E+04  0.30808663448E+04 0.  0.
        4    1    3    3  502    0  0.66627253090E+02  0.15079432175E+04  0.70843482352E+03  0.16673972083E+04  0.12699999809E+01 0. -1.
       -4    1    3    3    0  502 -0.66627253090E+02 -0.15079432175E+04  0.73773046437E+02  0.15112167328E+04  0.12699999809E+01 0.  1.
</event>
<event>
 5   0  0.7726743E-07  0.3088463E+04  0.7818609E-02  0.8218911E-01
       -1   -1    0    0    0  501  0.00000000000E+00  0.00000000000E+00  0.19219868821E+04  0.19219868821E+04  0.50400001928E-02 0.  1.
        1   -1    0    0  501    0  0.00000000000E+00  0.00000000000E+00 -0.12407219512E+04  0.12407219512E+04  0.50400001928E-02 0. -1.
    10030    2    1    2    0    0  0.00000000000E+00  0.00000000000E+00  0.68126493085E+03  0.31627088333E+04  0.30884632519E+04 0.  0.
        1    1    3    3  502    0 -0.26617102913E+03 -0.15167605481E+04  0.22279340755E+03  0.15559712335E+04  0.50400001928E-02 0. -1.
       -1    1    3    3    0  502  0.26617102913E+03  0.15167605481E+04  0.45847152330E+03  0.16067375998E+04  0.50400001928E-02 0.  1.
</event>
<event>
 5   0  0.7561815E-07  0.3107765E+04  0.7818609E-02  0.8213610E-01
       -1   -1    0    0    0  501  0.00000000000E+00  0.00000000000E+00  0.13465791099E+04  0.13465791099E+04  0.50400001928E-02 0. -1.
        1   -1    0    0  501    0  0.00000000000E+00  0.00000000000E+00 -0.17931004084E+04  0.17931004084E+04  0.50400001928E-02 0.  1.
    10030    2    1    2    0    0  0.00000000000E+00  0.00000000000E+00 -0.44652129855E+03  0.31396795183E+04  0.31077654686E+04 0.  0.
        3    1    3    3  502    0 -0.33036513666E+03 -0.12188138346E+04 -0.11380442878E+04  0.16999391454E+04  0.10100000352E+00 0.  1.
       -3    1    3    3    0  502  0.33036513666E+03  0.12188138346E+04  0.69152298921E+03  0.14397403730E+04  0.10100000352E+00 0. -1.
</event>
<event>
 5   0  0.2094135E-06  0.3094309E+04  0.7818609E-02  0.8217302E-01
        2   -1    0    0  501    0  0.00000000000E+00  0.00000000000E+00  0.19293102189E+04  0.19293102189E+04  0.25500000920E-02 0. -1.
       -2   -1    0    0    0  501  0.00000000000E+00  0.00000000000E+00 -0.12406954528E+04  0.12406954528E+04  0.25500000920E-02 0.  1.
    10030    2    1    2    0    0  0.00000000000E+00  0.00000000000E+00  0.68861476605E+03  0.31700056717E+04  0.30943085920E+04 0.  0.
        4    1    3    3  502    0  0.11661307088E+04  0.33438442775E+03  0.13280114652E+04  0.17986911464E+04  0.12699999809E+01 0. -1.
       -4    1    3    3    0  502 -0.11661307088E+04 -0.33438442775E+03 -0.63939669916E+03  0.13713145253E+04  0.12699999809E+01 0.  1.
</event>
<event>
 5   0  0.2094135E-06  0.3115036E+04  0.7818609E-02  0.8211624E-01
        2   -1    0    0  501    0  0.00000000000E+00  0.00000000000E+00  0.17609091533E+04  0.17609091533E+04  0.25500000920E-02 0.  1.
       -2   -1    0    0    0  501  0.00000000000E+00  0.00000000000E+00 -0.13776187984E+04  0.13776187985E+04  0.25500000920E-02 0. -1.
    10030    2    1    2    0    0  0.00000000000E+00  0.00000000000E+00  0.38329035484E+03  0.31385279517E+04  0.31150355067E+04 0.  0.
        4    1    3    3  502    0 -0.13674416526E+04  0.68600662894E+03  0.48600975587E+03  0.16052130276E+04  0.12699999809E+01 0. -1.
       -4    1    3    3    0  502  0.13674416526E+04 -0.68600662894E+03 -0.10271940102E+03  0.15333149241E+04  0.12699999809E+01 0.  1.
</event>
<event>
 5   0  0.7656332E-07  0.3057834E+04  0.7818609E-02  0.8227406E-01
       -1   -1    0    0    0  501  0.00000000000E+00  0.00000000000E+00  0.14095899358E+04  0.14095899358E+04  0.50400001928E-02 0. -1.
        1   -1    0    0  501    0  0.00000000000E+00  0.00000000000E+00 -0.16583456603E+04  0.16583456603E+04  0.50400001928E-02 0.  1.
    10030    2    1    2    0    0  0.00000000000E+00  0.00000000000E+00 -0.24875572447E+03  0.30679355961E+04  0.30578341046E+04 0.  0.
        2    1    3    3  502    0 -0.79315003898E+03 -0.11789796311E+04  0.44185110114E+03  0.14880565683E+04  0.25500000920E-02 0. -1.
       -2    1    3    3    0  502  0.79315003898E+03  0.11789796311E+04 -0.69060682561E+03  0.15798790278E+04  0.25500000920E-02 0.  1.
</event>
<event>
 5   0  0.7413481E-07  0.3093176E+04  0.7818609E-02  0.8217613E-01
       -1   -1    0    0    0  501  0.00000000000E+00  0.00000000000E+00  0.85797735455E+03  0.85797735456E+03  0.50400001928E-02 0. -1.
        1   -1    0    0  501    0  0.00000000000E+00  0.00000000000E+00 -0.27878768120E+04  0.27878768120E+04  0.50400001928E-02 0.  1.
    10030    2    1    2    0    0  0.00000000000E+00  0.00000000000E+00 -0.19298994574E+04  0.36458541666E+04  0.30931764722E+04 0.  0.
        5    1    3    3  502    0 -0.67093680913E+03 -0.29905661074E+03  0.63922932039E+03  0.97376961973E+03  0.46999998093E+01 0. -1.
       -5    1    3    3    0  502  0.67093680913E+03  0.29905661074E+03 -0.25691287778E+04  0.26720845468E+04  0.46999998093E+01 0.  1.
</event>
<event>
 5   0  0.7413481E-07  0.3118054E+04  0.7818609E-02  0.8210801E-01
       -1   -1    0    0    0  501  0.00000000000E+00  0.00000000000E+00  0.17530599496E+04  0.17530599496E+04  0.50400001928E-02 0.  1.
        1   -1    0    0  501    0  0.00000000000E+00  0.00000000000E+00 -0.13864699114E+04  0.13864699114E+04  0.50400001928E-02 0. -1.
    10030    2    1    2    0    0  0.00000000000E+00  0.00000000000E+00  0.36659003812E+03  0.31395298610E+04  0.31180537988E+04 0.  0.
        5    1    3    3  502    0 -0.75995748511E+03 -0.12236466884E+04  0.78380553632E+03  0.16398840831E+04  0.46999998093E+01 0.  1.
       -5    1    3    3    0  502  0.75995748511E+03  0.12236466884E+04 -0.41721549819E+03  0.14996457779E+04  0.46999998093E+01 0. -1.
</event>
<event>
 5   0  0.2133385E-06  0.3100805E+04  0.7818609E-02  0.8215517E-01
        2   -1    0    0  501    0  0.00000000000E+00  0.00000000000E+00  0.18088732620E+04  0.18088732620E+04  0.25500000920E-02 0.  1.
       -2   -1    0    0    0  501  0.00000000000E+00  0.00000000000E+00 -0.13288645696E+04  0.13288645696E+04  0.25500000920E-02 0. -1.
    10030    2    1    2    0    0  0.00000000000E+00  0.00000000000E+00  0.48000869245E+03  0.31377378316E+04  0.31008047915E+04 0.  0.
        2    1    3    3  502    0  0.12671414107E+04 -0.45742013731E+03  0.10165211448E+04  0.16876598516E+04  0.25500000920E-02 0.  1.
       -2    1    3    3    0  502 -0.12671414107E+04  0.45742013731E+03 -0.53651245235E+03  0.14500779801E+04  0.25500000920E-02 0. -1.
</event>
<event>
 5   0  0.2078009E-06  0.3088314E+04  0.7818609E-02  0.8218952E-01
       -2   -1    0    0    0  501  0.00000000000E+00  0.00000000000E+00  0.11210182086E+04  0.11210182086E+04  0.25500000920E-02 0. -1.
        2   -1    0    0  501    0  0.00000000000E+00  0.00000000000E+00 -0.21270134834E+04  0.21270134834E+04  0.25500000920E-02 0.  1.
    10030    2    1    2    0    0  0.00000000000E+00  0.00000000000E+00 -0.10059952748E+04  0.32480316920E+04  0.30883140027E+04 0.  0.
        3    1    3    3  502    0 -0.46670136420E+03 -0.12363323881E+04  0.33712127762E+03  0.13638103619E+04  0.10100000352E+00 0. -1.
       -3    1    3    3    0  502  0.46670136420E+03  0.12363323881E+04 -0.13431165524E+04  0.18842213301E+04  0.10100000352E+00 0.  1.
</event>
<event>
 5   0  0.2067926E-06  0.3099917E+04  0.7818609E-02  0.8215761E-01
       -2   -1    0    0    0  501  0.00000000000E+00  0.00000000000E+00  0.13443928845E+04  0.13443928845E+04  0.25500000920E-02 0. -1.
        2   -1    0    0  501    0  0.00000000000E+00  0.00000000000E+00 -0.17869562278E+04  0.17869562278E+04  0.25500000920E-02 0.  1.
    10030    2    1    2    0    0  0.00000000000E+00  0.00000000000E+00 -0.44256334325E+03  0.31313491123E+04  0.30999169264E+04 0.  0.
        1    1    3    3  502    0 -0.16046788555E+03  0.15311842945E+04 -0.40311681645E+02  0.15400975027E+04  0.50400001928E-02 0. -1.
       -1    1    3    3    0  502  0.16046788555E+03 -0.15311842945E+04 -0.40225166160E+03  0.15912516097E+04  0.50400001928E-02 0.  1.
</event>
<event>
 5   0  0.2133385E-06  0.3090444E+04  0.7818609E-02  0.8218365E-01
       -2   -1    0    0    0  501  0.00000000000E+00  0.00000000000E+00  0.10178834115E+04  0.10178834116E+04  0.25500000920E-02 0.  1.
        2   -1    0    0  501    0  0.00000000000E+00  0.00000000000E+00 -0.23457601605E+04  0.23457601605E+04  0.25500000920E-02 0. -1.
    10030    2    1    2    0    0  0.00000000000E+00  0.00000000000E+00 -0.13278767490E+04  0.33636435721E+04  0.30904435635E+04 0.  0.
        2    1    3    3  502    0  0.66509761849E+03  0.10576273595E+04 -0.16535940111E+04  0.20725114299E+04  0.25500000920E-02 0. -1.
       -2    1    3    3    0  502 -0.66509761849E+03 -0.10576273595E+04  0.32571726212E+03  0.12911321421E+04  0.25500000920E-02 0.  1.
</event>
<event>
 5   0  0.2078009E-06  0.3095095E+04  0.7818609E-02  0.8217085E-01
       -2   -1    0    0    0  501  0.00000000000E+00  0.00000000000E+00  0.12068093876E+04  0.12068093876E+04  0.25500000920E-02 0. -1.
        2   -1    0    0  501    0  0.00000000000E+00  0.00000000000E+00 -0.19844922478E+04  0.19844922478E+04  0.25500000920E-02 0.  1.
    10030    2    1    2    0    0  0.00000000000E+00  0.00000000000E+00 -0.77768286024E+03  0.31913016354E+04  0.30950953938E+04 0.  0.
        3    1    3    3  502    0  0.35302945354E+03  0.11594380853E+03 -0.19378126373E+04  0.19731169730E+04  0.10100000352E+00 0.  1.
       -3    1    3    3    0  502 -0.35302945354E+03 -0.11594380853E+03  0.11601297771E+04  0.12181846624E+04  0.10100000352E+00 0. -1.
</event>
<event>
 5   0  0.7561815E-07  0.2957370E+04  0.7818609E-02  0.8256010E-01
        1   -1    0    0  501    0  0.00000000000E+00  0.00000000000E+00  0.18576002771E+04  0.18576002771E+04  0.50400001928E-02 0.  1.
       -1   -1    0    0    0  501  0.00000000000E+00  0.00000000000E+00 -0.11770609743E+04  0.11770609743E+04  0.50400001928E-02 0. -1.
    10030    2    1    2    0    0  0.00000000000E+00  0.00000000000E+00  0.68053930277E+03  0.30346612514E+04  0.29573696367E+04 0.  0.
        3    1    3    3  502    0 -0.60091021064E+03  0.13006130846E+04 -0.35106985993E+02  0.14331503717E+04  0.10100000352E+00 0.  1.
       -3    1    3    3    0  502  0.60091021064E+03 -0.13006130846E+04  0.71564628876E+03  0.16015108798E+04  0.10100000352E+00 0. -1.
</event>
<event>
 5   0  0.2226334E-06  0.3097174E+04  0.7818609E-02  0.8216514E-01
       -2   -1    0    0    0  501  0.00000000000E+00  0.00000000000E+00  0.14605508857E+04  0.14605508857E+04  0.25500000920E-02 0. -1.
        2   -1    0    0  501    0  0.00000000000E+00  0.00000000000E+00 -0.16419293872E+04  0.16419293872E+04  0.25500000920E-02 0.  1.
    10030    2    1    2    0    0  0.00000000000E+00  0.00000000000E+00 -0.18137850145E+03  0.31024802729E+04  0.30971738218E+04 0.  0.
        5    1    3    3  502    0 -0.14552900338E+03 -0.75127797816E+02  0.14518440316E+04  0.14610599095E+04  0.46999998093E+01 0. -1.
       -5    1    3    3    0  502  0.14552900338E+03  0.75127797816E+02 -0.16332225331E+04  0.16414203634E+04  0.46999998093E+01 0.  1.
</event>
<event>
 5   0  0.7413481E-07  0.3108247E+04  0.7818609E-02  0.8213478E-01
        1   -1    0    0  501    0  0.00000000000E+00  0.00000000000E+00  0.23541447849E+04  0.23541447849E+04  0.50400001928E-02 0. -1.
       -1   -1    0    0    0  501  0.00000000000E+00  0.00000000000E+00 -0.10259773363E+04  0.10259773363E+04  0.50400001928E-02 0.  1.
    10030    2    1    2    0    0  0.00000000000E+00  0.00000000000E+00  0.13281674486E+04  0.33801221213E+04  0.31082465769E+04 0.  0.
        5    1    3    3  502    0  0.71303301459E+03  0.13802635293E+04  0.61880508861E+03  0.16722695111E+04  0.46999998093E+01 0. -1.
       -5    1    3    3    0  502 -0.71303301459E+03 -0.13802635293E+04  0.70936235998E+03  0.17078526101E+04  0.46999998093E+01 0.  1.
</event>
<event>
 5   0  0.7561815E-07  0.3122960E+04  0.7818609E-02  0.8209465E-01
        1   -1    0    0  501    0  0.00000000000E+00  0.00000000000E+00  0.15309369682E+04  0.15309369682E+04  0.50400001928E-02 0. -1.
       -1   -1    0    0    0  501  0.00000000000E+00  0.00000000000E+00 -0.15926328409E+04  0.15926328409E+04  0.50400001928E-02 0.  1.
    10030    2    1    2    0    0  0.00000000000E+00  0.00000000000E+00 -0.61695872720E+02  0.31235698091E+04  0.31229604499E+04 0.  0.
        3    1    3    3  502    0 -0.83686536550E+02 -0.12309729927E+04  0.92637722336E+03  0.15428780623E+04  0.10100000352E+00 0. -1.
       -3    1    3    3    0  502  0.83686536550E+02  0.12309729927E+04 -0.98807309608E+03  0.15806917468E+04  0.10100000352E+00 0.  1.
</event>
<event>
 5   0  0.2078009E-06  0.3001730E+04  0.7818609E-02  0.8243237E-01
       -2   -1    0    0    0  501  0.00000000000E+00  0.00000000000E+00  0.20255162850E+04  0.20255162850E+04  0.25500000920E-02 0. -1.
        2   -1    0    0  501    0  0.00000000000E+00  0.00000000000E+00 -0.11121093662E+04  0.11121093662E+04  0.25500000920E-02 0.  1.
    10030    2    1    2    0    0  0.00000000000E+00  0.00000000000E+00  0.91340691885E+03  0.31376256512E+04  0.30017299225E+04 0.  0.
        3    1    3    3  502    0  0.37099342574E+03  0.11143029876E+04  0.14335095211E+04  0.18531747968E+04  0.10100000352E+00 0. -1.
       -3    1    3    3    0  502 -0.37099342574E+03 -0.11143029876E+04 -0.52010260229E+03  0.12844508544E+04  0.10100000352E+00 0.  1.
</event>
<event>
 5   0  0.7726743E-07  0.3011261E+04  0.7818609E-02  0.8240522E-01
       -1   -1    0    0    0  501  0.00000000000E+00  0.00000000000E+00  0.93624522582E+03  0.93624522583E+03  0.50400001928E-02 0.  1.
        1   -1    0    0  501    0  0.00000000000E+00  0.00000000000E+00 -0.24212926422E+04  0.24212926422E+04  0.50400001928E-02 0. -1.
    10030    2    1    2    0    0  0.00000000000E+00  0.00000000000E+00 -0.14850474164E+04  0.33575378681E+04  0.30112613149E+04 0.  0.
        1    1    3    3  502    0 -0.10698960218E+04 -0.94787663817E+03 -0.12699712642E+04  0.19120603104E+04  0.50400001928E-02 0. -1.
       -1    1    3    3    0  502  0.10698960218E+04  0.94787663817E+03 -0.21507615222E+03  0.14454775577E+04  0.50400001928E-02 0.  1.
</event>
<event>
 5   0  0.7561815E-07  0.3072743E+04  0.7818609E-02  0.8223259E-01
        1   -1    0    0  501    0  0.00000000000E+00  0.00000000000E+00  0.17061063530E+04  0.17061063530E+04  0.50400001928E-02 0.  1.
       -1   -1    0    0    0  501  0.00000000000E+00  0.00000000000E+00 -0.13835226065E+04  0.13835226065E+04  0.50400001928E-02 0. -1.
    10030    2    1    2    0    0  0.00000000000E+00  0.00000000000E+00  0.32258374647E+03  0.30896289595E+04  0.30727425590E+04 0.  0.
        3    1    3    3  502    0  0.52560581332E+03 -0.81749660539E+03  0.13577363131E+04  0.16697335347E+04  0.10100000352E+00 0.  1.
       -3    1    3    3    0  502 -0.52560581332E+03  0.81749660539E+03 -0.10351525667E+04  0.14198954248E+04  0.10100000352E+00 0. -1.
</event>
<event>
 5   0  0.7656332E-07  0.3094396E+04  0.7818609E-02  0.8217278E-01
        1   -1    0    0  501    0  0.00000000000E+00  0.00000000000E+00  0.19183757395E+04  0.19183757395E+04  0.50400001928E-02 0.  1.
       -1   -1    0    0    0  501  0.00000000000E+00  0.00000000000E+00 -0.12478375454E+04  0.12478375454E+04  0.50400001928E-02 0. -1.
    10030    2    1    2    0    0  0.00000000000E+00  0.00000000000E+00  0.67053819414E+03  0.31662132849E+04  0.30943957562E+04 0.  0.
        2    1    3    3  502    0  0.80648625757E+03  0.88138017904E+03  0.13412297730E+04  0.17961482143E+04  0.25500000920E-02 0.  1.
       -2    1    3    3    0  502 -0.80648625757E+03 -0.88138017904E+03 -0.67069157890E+03  0.13700650706E+04  0.25500000920E-02 0. -1.
</event>
<event>
 5   0  0.7413481E-07  0.3102692E+04  0.7818609E-02  0.8214999E-01
        1   -1    0    0  501    0  0.00000000000E+00  0.00000000000E+00  0.23607839114E+04  0.23607839114E+04  0.50400001928E-02 0. -1.
       -1   -1    0    0    0  501  0.00000000000E+00  0.00000000000E+00 -0.10194388669E+04  0.10194388669E+04  0.50400001928E-02 0.  1.
    10030    2    1    2    0    0  0.00000000000E+00  0.00000000000E+00  0.13413450445E+04  0.33802227783E+04  0.31026922990E+04 0.  0.
        5    1    3    3  502    0 -0.46196874584E+03 -0.12170257298E+03  0.22786428739E+04  0.23281885824E+04  0.46999998093E+01 0. -1.
       -5    1    3    3    0  502  0.46196874584E+03  0.12170257298E+03 -0.93729782939E+03  0.10520341959E+04  0.46999998093E+01 0.  1.
</event>
<event>
 5   0  0.2094135E-06  0.3055677E+04  0.7818609E-02  0.8228008E-01
       -2   -1    0    0    0  501  0.00000000000E+00  0.00000000000E+00  0.15096358928E+04  0.15096358928E+04  0.25500000920E-02 0.  1.
        2   -1    0    0  501    0  0.00000000000E+00  0.00000000000E+00 -0.15462601749E+04  0.15462601749E+04  0.25500000920E-02 0. -1.
    10030    2    1    2    0    0  0.00000000000E+00  0.00000000000E+00 -0.36624282054E+02  0.30558960677E+04  0.30556765926E+04 0.  0.
        4    1    3    3  502    0 -0.42747623337E+03 -0.12231999753E+04 -0.82789739278E+03  0.15376507456E+04  0.12699999809E+01 0. -1.
       -4    1    3    3    0  502  0.42747623337E+03  0.12231999753E+04  0.79127311072E+03  0.15182453221E+04  0.12699999809E+01 0.  1.
</event>
<event>
 5   0  0.2067926E-06  0.3082715E+04  0.7818609E-02  0.8220498E-01
        2   -1    0    0  501    0  0.00000000000E+00  0.00000000000E+00  0.22590199813E+04  0.22590199813E+04  0.25500000920E-02 0. -1.
       -2   -1    0    0    0  501  0.00000000000E+00  0.00000000000E+00 -0.10516873864E+04  0.10516873864E+04  0.25500000920E-02 0.  1.
    10030    2    1    2    0    0  0.00000000000E+00  0.00000000000E+00  0.12073325949E+04  0.33107073677E+04  0.30827149203E+04 0.  0.
        1    1    3    3  502    0  0.13197195270E+03 -0.15354696084E+04  0.63206645784E+03  0.16657105156E+04  0.50400001928E-02 0. -1.
       -1    1    3    3    0  502 -0.13197195270E+03  0.15354696084E+04  0.57526613711E+03  0.16449968521E+04  0.50400001928E-02 0.  1.
</event>
<event>
 5   0  0.7519202E-07  0.3103875E+04  0.7818609E-02  0.8214675E-01
        1   -1    0    0  501    0  0.00000000000E+00  0.00000000000E+00  0.17877583195E+04  0.17877583195E+04  0.50400001928E-02 0. -1.
       -1   -1    0    0    0  501  0.00000000000E+00  0.00000000000E+00 -0.13472233525E+04  0.13472233525E+04  0.50400001928E-02 0.  1.
    10030    2    1    2    0    0  0.00000000000E+00  0.00000000000E+00  0.44053496706E+03  0.31349816720E+04  0.31038748407E+04 0.  0.
        4    1    3    3  502    0  0.99298569312E+03  0.41177891132E+03  0.13508270826E+04  0.17263597188E+04  0.12699999809E+01 0. -1.
       -4    1    3    3    0  502 -0.99298569312E+03 -0.41177891132E+03 -0.91029211558E+03  0.14086219532E+04  0.12699999809E+01 0.  1.
</event>
<event>
 5   0  0.2133385E-06  0.3104061E+04  0.7818609E-02  0.8214624E-01
       -2   -1    0    0    0  501  0.00000000000E+00  0.00000000000E+00  0.14005586397E+04  0.14005586397E+04  0.25500000920E-02 0. -1.
        2   -1    0    0  501    0  0.00000000000E+00  0.00000000000E+00 -0.17198838674E+04  0.17198838674E+04  0.25500000920E-02 0.  1.
    10030    2    1    2    0    0  0.00000000000E+00  0.00000000000E+00 -0.31932522770E+03  0.31204425071E+04  0.31040607016E+04 0.  0.
        2    1    3    3  502    0  0.13462034049E+04 -0.69574710468E+03 -0.49679884318E+03  0.15947215217E+04  0.25500000920E-02 0. -1.
       -2    1    3    3    0  502 -0.13462034049E+04  0.69574710468E+03  0.17747361548E+03  0.15257209854E+04  0.25500000920E-02 0.  1.
</event>
<event>
 5   0  0.7413481E-07  0.3083351E+04  0.7818609E-02  0.8220322E-01
       -1   -1    0    0    0  501  0.00000000000E+00  0.00000000000E+00  0.13749938567E+04  0.13749938567E+04  0.50400001928E-02 0.  1.
        1   -1    0    0  501    0  0.00000000000E+00  0.00000000000E+00 -0.17285624637E+04  0.17285624637E+04  0.50400001928E-02 0. -1.
    10030    2    1    2    0    0  0.00000000000E+00  0.00000000000E+00 -0.35356860703E+03  0.31035563204E+04  0.30833506245E+04 0.  0.
        5    1    3    3  502    0 -0.44945458652E+02 -0.52428781829E+03 -0.16353638399E+04  0.17179449320E+04  0.46999998093E+01 0. -1.
       -5    1    3    3    0  502  0.44945458652E+02  0.52428781829E+03  0.12817952328E+04  0.13856113884E+04  0.46999998093E+01 0.  1.
</event>
<event>
 5   0  0.2133385E-06  0.3244722E+04  0.7818609E-02  0.8177105E-01
       -2   -1    0    0    0  501  0.00000000000E+00  0.00000000000E+00  0.14674320742E+04  0.14674320742E+04  0.25500000920E-02 0.  1.
        2   -1    0    0  501    0  0.00000000000E+00  0.00000000000E+00 -0.17936467346E+04  0.17936467346E+04  0.25500000920E-02 0. -1.
    10030    2    1    2    0    0  0.00000000000E+00  0.00000000000E+00 -0.32621466045E+03  0.32610788088E+04  0.32447217127E+04 0.  0.
        2    1    3    3  502    0 -0.33117669918E+03 -0.15370785478E+04 -0.56483005598E+03  0.16707248309E+04  0.25500000920E-02 0. -1.
       -2    1    3    3    0  502  0.33117669918E+03  0.15370785478E+04  0.23861539553E+03  0.15903539780E+04  0.25500000920E-02 0.  1.
</event>
<event>
 5   0  0.7519202E-07  0.3098901E+04  0.7818609E-02  0.8216040E-01
        1   -1    0    0  501    0  0.00000000000E+00  0.00000000000E+00  0.20474674260E+04  0.20474674260E+04  0.50400001928E-02 0. -1.
       -1   -1    0    0    0  501  0.00000000000E+00  0.00000000000E+00 -0.11725690890E+04  0.11725690890E+04  0.50400001928E-02 0.  1.
    10030    2    1    2    0    0  0.00000000000E+00  0.00000000000E+00  0.87489833701E+03  0.32200365150E+04  0.30989011049E+04 0.  0.
        4    1    3    3  502    0  0.27322670232E+03  0.15194856630E+04  0.30075497862E+03  0.15728778341E+04  0.12699999809E+01 0. -1.
       -4    1    3    3    0  502 -0.27322670232E+03 -0.15194856630E+04  0.57414335839E+03  0.16471586809E+04  0.12699999809E+01 0.  1.
</event>
<event>
 5   0  0.7519202E-07  0.2943860E+04  0.7818609E-02  0.8259946E-01
       -1   -1    0    0    0  501  0.00000000000E+00  0.00000000000E+00  0.10597758051E+04  0.10597758051E+04  0.50400001928E-02 0. -1.
        1   -1    0    0  501    0  0.00000000000E+00  0.00000000000E+00 -0.20443739469E+04  0.20443739469E+04  0.50400001928E-02 0.  1.
    10030    2    1    2    0    0  0.00000000000E+00  0.00000000000E+00 -0.98459814180E+03  0.31041497521E+04  0.29438600820E+04 0.  0.
        4    1    3    3  502    0  0.51219651306E+03 -0.55815434584E+03 -0.18230347261E+04  0.19741678670E+04  0.12699999809E+01 0.  1.
       -4    1    3    3    0  502 -0.51219651306E+03  0.55815434584E+03  0.83843658429E+03  0.11299818851E+04  0.12699999809E+01 0. -1.
</event>
<event>
 5   0  0.7656332E-07  0.3076991E+04  0.7818609E-02  0.8222081E-01
       -1   -1    0    0    0  501  0.00000000000E+00  0.00000000000E+00  0.12780175824E+04  0.12780175825E+04  0.50400001928E-02 0. -1.
        1   -1    0    0  501    0  0.00000000000E+00  0.00000000000E+00 -0.18520622336E+04  0.18520622336E+04  0.50400001928E-02 0.  1.
    10030    2    1    2    0    0  0.00000000000E+00  0.00000000000E+00 -0.57404465112E+03  0.31300798160E+04  0.30769908016E+04 0.  0.
        2    1    3    3  502    0 -0.38694685810E+03  0.22403310229E+03  0.12104666007E+04  0.12904061738E+04  0.25500000920E-02 0. -1.
       -2    1    3    3    0  502  0.38694685810E+03 -0.22403310229E+03 -0.17845112519E+04  0.18396736422E+04  0.25500000920E-02 0.  1.
</event>
<event>
 5   0  0.2133385E-06  0.3119139E+04  0.7818609E-02  0.8210505E-01
       -2   -1    0    0    0  501  0.00000000000E+00  0.00000000000E+00  0.27310898941E+04  0.27310898941E+04  0.25500000920E-02 0. -1.
        2   -1    0    0  501    0  0.00000000000E+00  0.00000000000E+00 -0.89058133136E+03  0.89058133136E+03  0.25500000920E-02 0.  1.
    10030    2    1    2    0    0  0.00000000000E+00  0.00000000000E+00  0.18405085628E+04  0.36216712255E+04  0.31191394159E+04 0.  0.
        2    1    3    3  502    0 -0.46808734702E+03 -0.91293465130E+03  0.22841052586E+04  0.25039353575E+04  0.25500000920E-02 0. -1.
       -2    1    3    3    0  502  0.46808734702E+03  0.91293465130E+03 -0.44359669587E+03  0.11177358680E+04  0.25500000920E-02 0.  1.
</event>
<event>
 5   0  0.6979625E-07  0.3107486E+04  0.7818609E-02  0.8213687E-01
       -3   -1    0    0    0  501  0.00000000000E+00  0.00000000000E+00  0.20013503217E+04  0.20013503242E+04  0.10100000352E+00 0. -1.
        3   -1    0    0  501    0  0.00000000000E+00  0.00000000000E+00 -0.12062439043E+04  0.12062439085E+04  0.10100000352E+00 0.  1.
    10030    2    1    2    0    0  0.00000000000E+00  0.00000000000E+00  0.79510641745E+03  0.32075942327E+04  0.31074855666E+04 0.  0.
        4    1    3    3  502    0  0.30439444000E+03 -0.95655071806E+03  0.16217056562E+04  0.19072430626E+04  0.12699999809E+01 0. -1.
       -4    1    3    3    0  502 -0.30439444000E+03  0.95655071806E+03 -0.82659923878E+03  0.13003511702E+04  0.12699999809E+01 0.  1.
</event>
<event>
 5   0  0.2226334E-06  0.3107829E+04  0.7818609E-02  0.8213593E-01
       -2   -1    0    0    0  501  0.00000000000E+00  0.00000000000E+00  0.12635202334E+04  0.12635202334E+04  0.25500000920E-02 0. -1.
        2   -1    0    0  501    0  0.00000000000E+00  0.00000000000E+00 -0.19110495505E+04  0.19110495505E+04  0.25500000920E-02 0.  1.
    10030    2    1    2    0    0  0.00000000000E+00  0.00000000000E+00 -0.64752931714E+03  0.31745697839E+04  0.31078286788E+04 0.  0.
        5    1    3    3  502    0 -0.21678984786E+03 -0.61406814908E+02  0.12467377139E+04  0.12669434290E+04  0.46999998093E+01 0. -1.
       -5    1    3    3    0  502  0.21678984786E+03  0.61406814908E+02 -0.18942670310E+04  0.19076263549E+04  0.46999998093E+01 0.  1.
</event>
<event>
 5   0  0.2226334E-06  0.3106940E+04  0.7818609E-02  0.8213836E-01
        2   -1    0    0  501    0  0.00000000000E+00  0.00000000000E+00  0.64447057090E+03  0.64447057091E+03  0.25500000920E-02 0.  1.
       -2   -1    0    0    0  501  0.00000000000E+00  0.00000000000E+00 -0.37445767319E+04  0.37445767319E+04  0.25500000920E-02 0. -1.
    10030    2    1    2    0    0  0.00000000000E+00  0.00000000000E+00 -0.31001061610E+04  0.43890473028E+04  0.31069402982E+04 0.  0.
        5    1    3    3  502    0 -0.90907979602E+03 -0.47628835967E+03  0.97358578306E+02  0.10309109854E+04  0.46999998093E+01 0.  1.
       -5    1    3    3    0  502  0.90907979602E+03  0.47628835967E+03 -0.31974647393E+04  0.33581363174E+04  0.46999998093E+01 0. -1.
</event>
<event>
 5   0  0.2094135E-06  0.3079663E+04  0.7818609E-02  0.8221342E-01
       -2   -1    0    0    0  501  0.00000000000E+00  0.00000000000E+00  0.15669967122E+04  0.15669967122E+04  0.25500000920E-02 0.  1.
        2   -1    0    0  501    0  0.00000000000E+00  0.00000000000E+00 -0.15131368771E+04  0.15131368771E+04  0.25500000920E-02 0. -1.
    10030    2    1    2    0    0  0.00000000000E+00  0.00000000000E+00  0.53859835101E+02  0.30801335893E+04  0.30796626514E+04 0.  0.
        4    1    3    3  502    0  0.70804374634E+03 -0.13586176486E+04 -0.12772566828E+03  0.15373624560E+04  0.12699999809E+01 0. -1.
       -4    1    3    3    0  502 -0.70804374634E+03  0.13586176486E+04  0.18158550338E+03  0.15427711333E+04  0.12699999809E+01 0.  1.
</event>
<event>
 5   0  0.7519202E-07  0.3092539E+04  0.7818609E-02  0.8217788E-01
       -1   -1    0    0    0  501  0.00000000000E+00  0.00000000000E+00  0.11753660311E+04  0.11753660311E+04  0.50400001928E-02 0.  1.
        1   -1    0    0  501    0  0.00000000000E+00  0.00000000000E+00 -0.20342169592E+04  0.20342169592E+04  0.50400001928E-02 0. -1.
    10030    2    1    2    0    0  0.00000000000E+00  0.00000000000E+00 -0.85885092812E+03  0.32095829904E+04  0.30925390952E+04 0.  0.
        4    1    3    3  502    0 -0.13928489750E+03 -0.13618822590E+04  0.31668801638E+03  0.14051393107E+04  0.12699999809E+01 0.  1.
       -4    1    3    3    0  502  0.13928489750E+03  0.13618822590E+04 -0.11755389445E+04  0.18044436796E+04  0.12699999809E+01 0. -1.
</event>
<event>
 5   0  0.7656332E-07  0.3075527E+04  0.7818609E-02  0.8222487E-01
       -1   -1    0    0    0  501  0.00000000000E+00  0.00000000000E+00  0.11107601164E+04  0.11107601164E+04  0.50400001928E-02 0.  1.
        1   -1    0    0  501    0  0.00000000000E+00  0.00000000000E+00 -0.21289172043E+04  0.21289172043E+04  0.50400001928E-02 0. -1.
    10030    2    1    2    0    0  0.00000000000E+00  0.00000000000E+00 -0.10181570880E+04  0.32396773207E+04  0.30755268308E+04 0.  0.
        2    1    3    3  502    0  0.56164892131E+03 -0.11506662102E+04 -0.14061382275E+04  0.19017641686E+04  0.25500000920E-02 0. -1.
       -2    1    3    3    0  502 -0.56164892131E+03  0.11506662102E+04  0.38798113955E+03  0.13379131522E+04  0.25500000920E-02 0.  1.
</event>
<event>
 5   0  0.2133385E-06  0.3056828E+04  0.7818609E-02  0.8227687E-01
       -2   -1    0    0    0  501  0.00000000000E+00  0.00000000000E+00  0.13913994412E+04  0.13913994412E+04  0.25500000920E-02 0.  1.
        2   -1    0    0  501    0  0.00000000000E+00  0.00000000000E+00 -0.16789202712E+04  0.16789202712E+04  0.25500000920E-02 0. -1.
    10030    2    1    2    0    0  0.00000000000E+00  0.00000000000E+00 -0.28752082999E+03  0.30703197123E+04  0.30568275889E+04 0.  0.
        2    1    3    3  502    0 -0.53903368248E+03 -0.33715967186E+03 -0.15397924938E+04  0.16658916169E+04  0.25500000920E-02 0. -1.
       -2    1    3    3    0  502  0.53903368248E+03  0.33715967186E+03  0.12522716638E+04  0.14044280954E+04  0.25500000920E-02 0.  1.
</event>
<event>
 5   0  0.7656332E-07  0.3092953E+04  0.7818609E-02  0.8217675E-01
       -1   -1    0    0    0  501  0.00000000000E+00  0.00000000000E+00  0.20657403157E+04  0.20657403157E+04  0.50400001928E-02 0.  1.
        1   -1    0    0  501    0  0.00000000000E+00  0.00000000000E+00 -0.11577398193E+04  0.11577398193E+04  0.50400001928E-02 0. -1.
    10030    2    1    2    0    0  0.00000000000E+00  0.00000000000E+00  0.90800049640E+03  0.32234801350E+04  0.30929531648E+04 0.  0.
        2    1    3    3  502    0 -0.10208875444E+04 -0.11185452001E+04  0.12734852844E+03  0.15197277357E+04  0.25500000920E-02 0.  1.
       -2    1    3    3    0  502  0.10208875444E+04  0.11185452001E+04  0.78065196796E+03  0.17037523993E+04  0.25500000920E-02 0. -1.
</event>
<event>
 5   0  0.2078009E-06  0.3088919E+04  0.7818609E-02  0.8218786E-01
       -2   -1    0    0    0  501  0.00000000000E+00  0.00000000000E+00  0.99781801538E+03  0.99781801539E+03  0.25500000920E-02 0.  1.
        2   -1    0    0  501    0  0.00000000000E+00  0.00000000000E+00 -0.23905711124E+04  0.23905711124E+04  0.25500000920E-02 0. -1.
    10030    2    1    2    0    0  0.00000000000E+00  0.00000000000E+00 -0.13927530971E+04  0.33883891278E+04  0.30889188549E+04 0.  0.
        3    1    3    3  502    0  0.17008237252E+03  0.14850472207E+04 -0.11227242190E+04  0.18694392056E+04  0.10100000352E+00 0. -1.
       -3    1    3    3    0  502 -0.17008237252E+03 -0.14850472207E+04 -0.27002887808E+03  0.15189499223E+04  0.10100000352E+00 0.  1.
</event>
<event>
 5   0  0.2226334E-06  0.3089980E+04  0.7818609E-02  0.8218493E-01
       -2   -1    0    0    0  501  0.00000000000E+00  0.00000000000E+00  0.13996826111E+04  0.13996826111E+04  0.25500000920E-02 0. -1.
        2   -1    0    0  501    0  0.00000000000E+00  0.00000000000E+00 -0.17053827559E+04  0.17053827559E+04  0.25500000920E-02 0.  1.
    10030    2    1    2    0    0  0.00000000000E+00  0.00000000000E+00 -0.30570014473E+03  0.31050653670E+04  0.30899803163E+04 0.  0.
        5    1    3    3  502    0 -0.82359700954E+03 -0.12180250622E+04  0.32388714991E+03  0.15055969122E+04  0.46999998093E+01 0. -1.
       -5    1    3    3    0  502  0.82359700954E+03  0.12180250622E+04 -0.62958729465E+03  0.15994684548E+04  0.46999998093E+01 0.  1.
</event>
<event>
 5   0  0.7413481E-07  0.3084863E+04  0.7818609E-02  0.8219904E-01
        1   -1    0    0  501    0  0.00000000000E+00  0.00000000000E+00  0.16830550572E+04  0.16830550572E+04  0.50400001928E-02 0. -1.
       -1   -1    0    0    0  501  0.00000000000E+00  0.00000000000E+00 -0.14135575690E+04  0.14135575690E+04  0.50400001928E-02 0.  1.
    10030    2    1    2    0    0  0.00000000000E+00  0.00000000000E+00  0.26949748821E+03  0.30966126262E+04  0.30848631834E+04 0.  0.
        5    1    3    3  502    0 -0.40143523316E+03 -0.82524966249E+02 -0.13578957852E+04  0.14184018013E+04  0.46999998093E+01 0.  1.
       -5    1    3    3    0  502  0.40143523316E+03  0.82524966249E+02  0.16273932734E+04  0.16782108249E+04  0.46999998093E+01 0. -1.
</event>
<event>
 5   0  0.7561815E-07  0.3104718E+04  0.7818609E-02  0.8214444E-01
       -1   -1    0    0    0  501  0.00000000000E+00  0.00000000000E+00  0.23463096363E+04  0.23463096363E+04  0.50400001928E-02 0. -1.
        1   -1    0    0  501    0  0.00000000000E+00  0.00000000000E+00 -0.10270674059E+04  0.10270674059E+04  0.50400001928E-02 0.  1.
    10030    2    1    2    0    0  0.00000000000E+00  0.00000000000E+00  0.13192422304E+04  0.33733770422E+04  0.31047177982E+04 0.  0.
        3    1    3    3  502    0  0.91992916731E+03 -0.94343994427E+03  0.15512861415E+04  0.20353961050E+04  0.10100000352E+00 0. -1.
       -3    1    3    3    0  502 -0.91992916731E+03  0.94343994427E+03 -0.23204391117E+03  0.13379809372E+04  0.10100000352E+00 0.  1.
</event>
<event>
 5   0  0.2078009E-06  0.3107159E+04  0.7818609E-02  0.8213776E-01
       -2   -1    0    0    0  501  0.00000000000E+00  0.00000000000E+00  0.11049792030E+04  0.11049792030E+04  0.25500000920E-02 0. -1.
        2   -1    0    0  501    0  0.00000000000E+00  0.00000000000E+00 -0.21843029223E+04  0.21843029223E+04  0.25500000920E-02 0.  1.
    10030    2    1    2    0    0  0.00000000000E+00  0.00000000000E+00 -0.10793237193E+04  0.32892821252E+04  0.31071590253E+04 0.  0.
        3    1    3    3  502    0  0.57612249517E+03 -0.92200520112E+03 -0.17144842965E+04  0.20301396832E+04  0.10100000352E+00 0.  1.
       -3    1    3    3    0  502 -0.57612249517E+03  0.92200520112E+03  0.63516057717E+03  0.12591424420E+04  0.10100000352E+00 0. -1.
</event>
<event>
 5   0  0.2067926E-06  0.3055347E+04  0.7818609E-02  0.8228100E-01
       -2   -1    0    0    0  501  0.00000000000E+00  0.00000000000E+00  0.11791291648E+04  0.11791291648E+04  0.25500000920E-02 0. -1.
        2   -1    0    0  501    0  0.00000000000E+00  0.00000000000E+00 -0.19792458537E+04  0.19792458537E+04  0.25500000920E-02 0.  1.
    10030    2    1    2    0    0  0.00000000000E+00  0.00000000000E+00 -0.80011668888E+03  0.31583750185E+04  0.30553471229E+04 0.  0.
        1    1    3    3  502    0  0.22499594483E+03 -0.12603343923E+04  0.46154665822E+03  0.13609156011E+04  0.50400001928E-02 0. -1.
       -1    1    3    3    0  502 -0.22499594483E+03  0.12603343923E+04 -0.12616633471E+04  0.17974594174E+04  0.50400001928E-02 0.  1.
</event>
<event>
 5   0  0.2067926E-06  0.3110441E+04  0.7818609E-02  0.8212878E-01
        2   -1    0    0  501    0  0.00000000000E+00  0.00000000000E+00  0.20679387357E+04  0.20679387357E+04  0.25500000920E-02 0.  1.
       -2   -1    0    0    0  501  0.00000000000E+00  0.00000000000E+00 -0.11696241507E+04  0.11696241507E+04  0.25500000920E-02 0. -1.
    10030    2    1    2    0    0  0.00000000000E+00  0.00000000000E+00  0.89831458494E+03  0.32375628864E+04  0.31104411825E+04 0.  0.
        1    1    3    3  502    0 -0.51586337255E+03  0.48808398619E+03 -0.99099748595E+03  0.12191870299E+04  0.50400001928E-02 0. -1.
       -1    1    3    3    0  502  0.51586337255E+03 -0.48808398619E+03  0.18893120709E+04  0.20183758565E+04  0.50400001928E-02 0.  1.
</event>
<event>
 5   0  0.2133385E-06  0.3138736E+04  0.7818609E-02  0.8205187E-01
        2   -1    0    0  501    0  0.00000000000E+00  0.00000000000E+00  0.22314542656E+04  0.22314542656E+04  0.25500000920E-02 0.  1.
       -2   -1    0    0    0  501  0.00000000000E+00  0.00000000000E+00 -0.11037270588E+04  0.11037270588E+04  0.25500000920E-02 0. -1.
    10030    2    1    2    0    0  0.00000000000E+00  0.00000000000E+00  0.11277272067E+04  0.33351813244E+04  0.31387363403E+04 0.  0.
        2    1    3    3  502    0  0.25104460787E+03 -0.10724874693E+04  0.17517124753E+04  0.20692388366E+04  0.25500000920E-02 0.  1.
       -2    1    3    3    0  502 -0.25104460787E+03  0.10724874693E+04 -0.62398526852E+03  0.12659424878E+04  0.25500000920E-02 0. -1.
</event>
<event>
 5   0  0.7726743E-07  0.3093801E+04  0.7818609E-02  0.8217441E-01
       -1   -1    0    0    0  501  0.00000000000E+00  0.00000000000E+00  0.11295581722E+04  0.11295581722E+04  0.50400001928E-02 0. -1.
        1   -1    0    0  501    0  0.00000000000E+00  0.00000000000E+00 -0.21184394891E+04  0.21184394891E+04  0.50400001928E-02 0.  1.
    10030    2    1    2    0    0  0.00000000000E+00  0.00000000000E+00 -0.98888131693E+03  0.32479976612E+04  0.30938006640E+04 0.  0.
        1    1    3    3  502    0 -0.17608829616E+03  0.97737409326E+03 -0.17395682212E+04  0.20030888154E+04  0.50400001928E-02 0.  1.
       -1    1    3    3    0  502  0.17608829616E+03 -0.97737409326E+03  0.75068690425E+03  0.12449088458E+04  0.50400001928E-02 0. -1.
</event>
<event>
 5   0  0.2067926E-06  0.3208089E+04  0.7818609E-02  0.8186684E-01
        2   -1    0    0  501    0  0.00000000000E+00  0.00000000000E+00  0.26158751553E+04  0.26158751553E+04  0.25500000920E-02 0. -1.
       -2   -1    0    0    0  501  0.00000000000E+00  0.00000000000E+00 -0.98359369559E+03  0.98359369560E+03  0.25500000920E-02 0.  1.
    10030    2    1    2    0    0  0.00000000000E+00  0.00000000000E+00  0.16322814597E+04  0.35994688509E+04  0.32080887215E+04 0.  0.
        1    1    3    3  502    0  0.23030976928E+01 -0.11513651477E+04 -0.43694123163E+03  0.12314887931E+04  0.50400001928E-02 0.  1.
       -1    1    3    3    0  502 -0.23030976928E+01  0.11513651477E+04  0.20692226913E+04  0.23679800577E+04  0.50400001928E-02 0. -1.
</event>
<event>
 5   0  0.2094135E-06  0.3090427E+04  0.7818609E-02  0.8218370E-01
        2   -1    0    0  501    0  0.00000000000E+00  0.00000000000E+00  0.18190144376E+04  0.18190144376E+04  0.25500000920E-02 0. -1.
       -2   -1    0    0    0  501  0.00000000000E+00  0.00000000000E+00 -0.13126255185E+04  0.13126255185E+04  0.25500000920E-02 0.  1.
    10030    2    1    2    0    0  0.00000000000E+00  0.00000000000E+00  0.50638891917E+03  0.31316399561E+04  0.30904270056E+04 0.  0.
        4    1    3    3  502    0 -0.11617790538E+04  0.82566527435E+03 -0.35161453344E+03  0.14680218350E+04  0.12699999809E+01 0.  1.
       -4    1    3    3    0  502  0.11617790538E+04 -0.82566527435E+03  0.85800345261E+03  0.16636181211E+04  0.12699999809E+01 0. -1.
</event>
<event>
 5   0  0.2078009E-06  0.3111675E+04  0.7818609E-02  0.8212541E-01
        2   -1    0    0  501    0  0.00000000000E+00  0.00000000000E+00  0.18759398122E+04  0.18759398122E+04  0.25500000920E-02 0. -1.
       -2   -1    0    0    0  501  0.00000000000E+00  0.00000000000E+00 -0.12903563822E+04  0.12903563822E+04  0.25500000920E-02 0.  1.
    10030    2    1    2    0    0  0.00000000000E+00  0.00000000000E+00  0.58558343000E+03  0.31662961945E+04  0.31116753747E+04 0.  0.
        3    1    3    3  502    0 -0.73432498389E+03 -0.94783973300E+03  0.13016576904E+04  0.17697305147E+04  0.10100000352E+00 0. -1.
       -3    1    3    3    0  502  0.73432498389E+03  0.94783973300E+03 -0.71607426039E+03  0.13965656798E+04  0.10100000352E+00 0.  1.
</event>
<event>
 5   0  0.7413481E-07  0.3084546E+04  0.7818609E-02  0.8219992E-01
        1   -1    0    0  501    0  0.00000000000E+00  0.00000000000E+00  0.87849669318E+03  0.87849669319E+03  0.50400001928E-02 0.  1.
       -1   -1    0    0    0  501  0.00000000000E+00  0.00000000000E+00 -0.27075874975E+04  0.27075874975E+04  0.50400001928E-02 0. -1.
    10030    2    1    2    0    0  0.00000000000E+00  0.00000000000E+00 -0.18290908043E+04  0.35860841907E+04  0.30845464257E+04 0.  0.
        5    1    3    3  502    0  0.14590467783E+03 -0.87317167820E+02  0.86755759696E+03  0.88407620534E+03  0.46999998093E+01 0.  1.
       -5    1    3    3    0  502 -0.14590467783E+03  0.87317167820E+02 -0.26966484013E+04  0.27020079854E+04  0.46999998093E+01 0. -1.
</event>
<event>
 5   0  0.7656332E-07  0.3158613E+04  0.7818609E-02  0.8199834E-01
        1   -1    0    0  501    0  0.00000000000E+00  0.00000000000E+00  0.11195532072E+04  0.11195532072E+04  0.50400001928E-02 0.  1.
       -1   -1    0    0    0  501  0.00000000000E+00  0.00000000000E+00 -0.22278614229E+04  0.22278614229E+04  0.50400001928E-02 0. -1.
    10030    2    1    2    0    0  0.00000000000E+00  0.00000000000E+00 -0.11083082157E+04  0.33474146302E+04  0.31586132409E+04 0.  0.
        2    1    3    3  502    0 -0.80106569762E+03  0.67123771166E+03  0.70065669680E+03  0.12582472429E+04  0.25500000920E-02 0.  1.
       -2    1    3    3    0  502  0.80106569762E+03 -0.67123771166E+03 -0.18089649125E+04  0.20891673873E+04  0.25500000920E-02 0. -1.
</event>
<event>
 5   0  0.2067926E-06  0.3101312E+04  0.7818609E-02  0.8215378E-01
        2   -1    0    0  501    0  0.00000000000E+00  0.00000000000E+00  0.14635865833E+04  0.14635865833E+04  0.25500000920E-02 0.  1.
       -2   -1    0    0    0  501  0.00000000000E+00  0.00000000000E+00 -0.16429053236E+04  0.16429053236E+04  0.25500000920E-02 0. -1.
    10030    2    1    2    0    0  0.00000000000E+00  0.00000000000E+00 -0.17931874031E+03  0.31064919070E+04  0.31013121025E+04 0.  0.
        1    1    3    3  502    0  0.40496966874E+03  0.42007759072E+03 -0.15287455863E+04  0.16363155816E+04  0.50400001928E-02 0. -1.
       -1    1    3    3    0  502 -0.40496966874E+03 -0.42007759072E+03  0.13494268460E+04  0.14701763254E+04  0.50400001928E-02 0.  1.
</event>
<event>
 5   0  0.2094135E-06  0.3022590E+04  0.7818609E-02  0.8237309E-01
       -2   -1    0    0    0  501  0.00000000000E+00  0.00000000000E+00  0.10238654047E+04  0.10238654047E+04  0.25500000920E-02 0.  1.
        2   -1    0    0  501    0  0.00000000000E+00  0.00000000000E+00 -0.22307749476E+04  0.22307749476E+04  0.25500000920E-02 0. -1.
    10030    2    1    2    0    0  0.00000000000E+00  0.00000000000E+00 -0.12069095429E+04  0.32546403523E+04  0.30225904747E+04 0.  0.
        4    1    3    3  502    0 -0.31438802290E+03  0.11715527791E+04 -0.15741249959E+04  0.19872712091E+04  0.12699999809E+01 0. -1.
       -4    1    3    3    0  502  0.31438802290E+03 -0.11715527791E+04  0.36721545302E+03  0.12673691431E+04  0.12699999809E+01 0.  1.
</event>
<event>
 5   0  0.2078009E-06  0.3080570E+04  0.7818609E-02  0.8221091E-01
        2   -1    0    0  501    0  0.00000000000E+00  0.00000000000E+00  0.21301308185E+04  0.21301308185E+04  0.25500000920E-02 0.  1.
       -2   -1    0    0    0  501  0.00000000000E+00  0.00000000000E+00 -0.11137709565E+04  0.11137709565E+04  0.25500000920E-02 0. -1.
    10030    2    1    2    0    0  0.00000000000E+00  0.00000000000E+00  0.10163598620E+04  0.32439017750E+04  0.30805699726E+04 0.  0.
        3    1    3    3  502    0 -0.12658963695E+03 -0.11344276054E+04  0.15971914504E+04  0.19631534498E+04  0.10100000352E+00 0.  1.
       -3    1    3    3    0  502  0.12658963695E+03  0.11344276054E+04 -0.58083158833E+03  0.12807483251E+04  0.10100000352E+00 0. -1.
</event>
<event>
 5   0  0.7726743E-07  0.3101700E+04  0.7818609E-02  0.8215271E-01
        1   -1    0    0  501    0  0.00000000000E+00  0.00000000000E+00  0.27350076486E+04  0.27350076486E+04  0.50400001928E-02 0. -1.
       -1   -1    0    0    0  501  0.00000000000E+00  0.00000000000E+00 -0.87938915188E+03  0.87938915190E+03  0.50400001928E-02 0.  1.
    10030    2    1    2    0    0  0.00000000000E+00  0.00000000000E+00  0.18556184967E+04  0.36143968005E+04  0.31017002154E+04 0.  0.
        1    1    3    3  502    0  0.12217520462E+04 -0.30591294892E+03 -0.12668662517E+03  0.12658239592E+04  0.50400001928E-02 0.  1.
       -1    1    3    3    0  502 -0.12217520462E+04  0.30591294892E+03  0.19823051219E+04  0.23485728413E+04  0.50400001928E-02 0. -1.
</event>
<event>
 5   0  0.2133385E-06  0.3105090E+04  0.7818609E-02  0.8214342E-01
        2   -1    0    0  501    0  0.00000000000E+00  0.00000000000E+00  0.17662435632E+04  0.17662435632E+04  0.25500000920E-02 0.  1.
       -2   -1    0    0    0  501  0.00000000000E+00  0.00000000000E+00 -0.13647017150E+04  0.13647017150E+04  0.25500000920E-02 0. -1.
    10030    2    1    2    0    0  0.00000000000E+00  0.00000000000E+00  0.40154184816E+03  0.31309452782E+04  0.31050897699E+04 0.  0.
        2    1    3    3  502    0  0.13671106225E+04  0.10584572455E+03  0.93498300446E+03  0.16596348967E+04  0.25500000920E-02 0.  1.
       -2    1    3    3    0  502 -0.13671106225E+04 -0.10584572455E+03 -0.53344115630E+03  0.14713103815E+04  0.25500000920E-02 0. -1.
</event>
<event>
 5   0  0.7726743E-07  0.3188845E+04  0.7818609E-02  0.8191769E-01
        1   -1    0    0  501    0  0.00000000000E+00  0.00000000000E+00  0.21150275513E+04  0.21150275513E+04  0.50400001928E-02 0.  1.
       -1   -1    0    0    0  501  0.00000000000E+00  0.00000000000E+00 -0.12019620416E+04  0.12019620416E+04  0.50400001928E-02 0. -1.
    10030    2    1    2    0    0  0.00000000000E+00  0.00000000000E+00  0.91306550968E+03  0.33169895929E+04  0.31888448275E+04 0.  0.
        1    1    3    3  502    0 -0.14381780895E+04 -0.55268893173E+03  0.88334040436E+03  0.17759818530E+04  0.50400001928E-02 0.  1.
       -1    1    3    3    0  502  0.14381780895E+04  0.55268893173E+03  0.29725105325E+02  0.15410077398E+04  0.50400001928E-02 0. -1.
</event>
<event>
 5   0  0.7656332E-07  0.3079359E+04  0.7818609E-02  0.8221426E-01
        1   -1    0    0  501    0  0.00000000000E+00  0.00000000000E+00  0.18012374399E+04  0.18012374399E+04  0.50400001928E-02 0. -1.
       -1   -1    0    0    0  501  0.00000000000E+00  0.00000000000E+00 -0.13161023025E+04  0.13161023025E+04  0.50400001928E-02 0.  1.
    10030    2    1    2    0    0  0.00000000000E+00  0.00000000000E+00  0.48513513738E+03  0.31173397424E+04  0.30793588566E+04 0.  0.
        2    1    3    3  502    0 -0.17003890004E+03  0.71574896649E+03 -0.11266690924E+04  0.13455827936E+04  0.25500000920E-02 0.  1.
       -2    1    3    3    0  502  0.17003890004E+03 -0.71574896649E+03  0.16118042298E+04  0.17717569488E+04  0.25500000920E-02 0. -1.
</event>
<event>
 5   0  0.2226334E-06  0.2944072E+04  0.7818609E-02  0.8259884E-01
       -2   -1    0    0    0  501  0.00000000000E+00  0.00000000000E+00  0.13339635647E+04  0.13339635647E+04  0.25500000920E-02 0.  1.
        2   -1    0    0  501    0  0.00000000000E+00  0.00000000000E+00 -0.16243996657E+04  0.16243996658E+04  0.25500000920E-02 0. -1.
    10030    2    1    2    0    0  0.00000000000E+00  0.00000000000E+00 -0.29043610104E+03  0.29583632305E+04  0.29440719887E+04 0.  0.
        5    1    3    3  502    0 -0.71065904037E+03 -0.12028275584E+03 -0.14349451115E+04  0.16058000423E+04  0.46999998093E+01 0. -1.
       -5    1    3    3    0  502  0.71065904037E+03  0.12028275584E+03  0.11445090104E+04  0.13525631881E+04  0.46999998093E+01 0.  1.
</event>
<event>
 5   0  0.7726743E-07  0.3088216E+04  0.7818609E-02  0.8218979E-01
       -1   -1    0    0    0  501  0.00000000000E+00  0.00000000000E+00  0.11121610729E+04  0.11121610729E+04  0.50400001928E-02 0. -1.
        1   -1    0    0  501    0  0.00000000000E+00  0.00000000000E+00 -0.21438168141E+04  0.21438168141E+04  0.50400001928E-02 0.  1.
    10030    2    1    2    0    0  0.00000000000E+00  0.00000000000E+00 -0.10316557412E+04  0.32559778870E+04  0.30882160599E+04 0.  0.
        1    1    3    3  502    0 -0.73581747179E+03 -0.12366090700E+04  0.74631032124E+02  0.14409021947E+04  0.50400001928E-02 0. -1.
       -1    1    3    3    0  502  0.73581747179E+03  0.12366090700E+04 -0.11062867734E+04  0.18150756923E+04  0.50400001928E-02 0.  1.
</event>
<event>
 5   0  0.2094135E-06  0.3089759E+04  0.7818609E-02  0.8218554E-01
       -2   -1    0    0    0  501  0.00000000000E+00  0.00000000000E+00  0.15222354531E+04  0.15222354531E+04  0.25500000920E-02 0. -1.
        2   -1    0    0  501    0  0.00000000000E+00  0.00000000000E+00 -0.15678601565E+04  0.15678601565E+04  0.25500000920E-02 0.  1.
    10030    2    1    2    0    0  0.00000000000E+00  0.00000000000E+00 -0.45624703304E+02  0.30900956096E+04  0.30897587710E+04 0.  0.
        4    1    3    3  502    0 -0.56453235881E+02  0.14847207477E+04 -0.44602279782E+03  0.15512964306E+04  0.12699999809E+01 0.  1.
       -4    1    3    3    0  502  0.56453235881E+02 -0.14847207477E+04  0.40039809452E+03  0.15387991790E+04  0.12699999809E+01 0. -1.
</event>
<event>
 5   0  0.6979625E-07  0.3041816E+04  0.7818609E-02  0.8231890E-01
       -3   -1    0    0    0  501  0.00000000000E+00  0.00000000000E+00  0.27494828159E+04  0.27494828177E+04  0.10100000352E+00 0. -1.
        3   -1    0    0  501    0  0.00000000000E+00  0.00000000000E+00 -0.84130778267E+03  0.84130778873E+03  0.10100000352E+00 0.  1.
    10030    2    1    2    0    0  0.00000000000E+00  0.00000000000E+00  0.19081750332E+04  0.35907906065E+04  0.30418161059E+04 0.  0.
        4    1    3    3  502    0 -0.55487641709E+03 -0.56420614310E+03  0.24873177200E+04  0.26101661754E+04  0.12699999809E+01 0. -1.
       -4    1    3    3    0  502  0.55487641709E+03  0.56420614310E+03 -0.57914268681E+03  0.98062443103E+03  0.12699999809E+01 0.  1.
</event>
<event>
 5   0  0.2078009E-06  0.3028151E+04  0.7818609E-02  0.8235738E-01
       -2   -1    0    0    0  501  0.00000000000E+00  0.00000000000E+00  0.10020281918E+04  0.10020281919E+04  0.25500000920E-02 0.  1.
        2   -1    0    0  501    0  0.00000000000E+00  0.00000000000E+00 -0.22877847693E+04  0.22877847693E+04  0.25500000920E-02 0. -1.
    10030    2    1    2    0    0  0.00000000000E+00  0.00000000000E+00 -0.12857565775E+04  0.32898129612E+04  0.30281511427E+04 0.  0.
        3    1    3    3  502    0 -0.57663821514E+03  0.33189213609E+03  0.83470321345E+03  0.10674237612E+04  0.10100000352E+00 0.  1.
       -3    1    3    3    0  502  0.57663821514E+03 -0.33189213609E+03 -0.21204597909E+04  0.22223892000E+04  0.10100000352E+00 0. -1.
</event>
<event>
 5   0  0.2078009E-06  0.3110479E+04  0.7818609E-02  0.8212868E-01
        2   -1    0    0  501    0  0.00000000000E+00  0.00000000000E+00  0.17343245553E+04  0.17343245553E+04  0.25500000920E-02 0. -1.
       -2   -1    0    0    0  501  0.00000000000E+00  0.00000000000E+00 -0.13946464792E+04  0.13946464792E+04  0.25500000920E-02 0.  1.
    10030    2    1    2    0    0  0.00000000000E+00  0.00000000000E+00  0.33967807618E+03  0.31289710345E+04  0.31104788280E+04 0.  0.
        3    1    3    3  502    0  0.10429265778E+04  0.60636094751E+02  0.13288157673E+04  0.16903029126E+04  0.10100000352E+00 0. -1.
       -3    1    3    3    0  502 -0.10429265778E+04 -0.60636094751E+02 -0.98913769113E+03  0.14386681219E+04  0.10100000352E+00 0.  1.
</event>
<event>
 5   0  0.7561815E-07  0.3102789E+04  0.7818609E-02  0.8214973E-01
        1   -1    0    0  501    0  0.00000000000E+00  0.00000000000E+00  0.23739469608E+04  0.23739469608E+04  0.50400001928E-02 0. -1.
       -1   -1    0    0    0  501  0.00000000000E+00  0.00000000000E+00 -0.10138492708E+04  0.10138492709E+04  0.50400001928E-02 0.  1.
    10030    2    1    2    0    0  0.00000000000E+00  0.00000000000E+00  0.13600976899E+04  0.33877962316E+04  0.31027886781E+04 0.  0.
        3    1    3    3  502    0 -0.13778045642E+04 -0.66001900792E+02 -0.95185877931E+02  0.13826648291E+04  0.10100000352E+00 0.  1.
       -3    1    3    3    0  502  0.13778045642E+04  0.66001900792E+02  0.14552835679E+04  0.20051314025E+04  0.10100000352E+00 0. -1.
</event>
<event>
 5   0  0.2133385E-06  0.3094483E+04  0.7818609E-02  0.8217254E-01
       -2   -1    0    0    0  501  0.00000000000E+00  0.00000000000E+00  0.10946304132E+04  0.10946304132E+04  0.25500000920E-02 0.  1.
        2   -1    0    0  501    0  0.00000000000E+00  0.00000000000E+00 -0.21869999817E+04  0.21869999817E+04  0.25500000920E-02 0. -1.
    10030    2    1    2    0    0  0.00000000000E+00  0.00000000000E+00 -0.10923695684E+04  0.32816303949E+04  0.30944832807E+04 0.  0.
        2    1    3    3  502    0  0.19859105809E+03  0.57323106227E+03 -0.20556153710E+04  0.21432654555E+04  0.25500000920E-02 0. -1.
       -2    1    3    3    0  502 -0.19859105809E+03 -0.57323106227E+03  0.96324580257E+03  0.11383649394E+04  0.25500000920E-02 0.  1.
</event>
<event>
 5   0  0.2094135E-06  0.3116441E+04  0.7818609E-02  0.8211240E-01
       -2   -1    0    0    0  501  0.00000000000E+00  0.00000000000E+00  0.99149896624E+03  0.99149896624E+03  0.25500000920E-02 0.  1.
        2   -1    0    0  501    0  0.00000000000E+00  0.00000000000E+00 -0.24488684024E+04  0.24488684024E+04  0.25500000920E-02 0. -1.
    10030    2    1    2    0    0  0.00000000000E+00  0.00000000000E+00 -0.14573694362E+04  0.34403673687E+04  0.31164405911E+04 0.  0.
        4    1    3    3  502    0  0.81778480470E+01  0.22985043740E+03  0.97265703201E+03  0.99948057289E+03  0.12699999809E+01 0.  1.
       -4    1    3    3    0  502 -0.81778480470E+01 -0.22985043740E+03 -0.24300264682E+04  0.24408867958E+04  0.12699999809E+01 0. -1.
</event>
<event>
 5   0  0.2094135E-06  0.3036611E+04  0.7818609E-02  0.8233353E-01
       -2   -1    0    0    0  501  0.00000000000E+00  0.00000000000E+00  0.16430592541E+04  0.16430592541E+04  0.25500000920E-02 0. -1.
        2   -1    0    0  501    0  0.00000000000E+00  0.00000000000E+00 -0.14030239382E+04  0.14030239382E+04  0.25500000920E-02 0.  1.
    10030    2    1    2    0    0  0.00000000000E+00  0.00000000000E+00  0.24003531592E+03  0.30460831923E+04  0.30366109171E+04 0.  0.
        4    1    3    3  502    0 -0.42588543737E+03  0.14295640041E+04 -0.16409401732E+03  0.15006532268E+04  0.12699999809E+01 0.  1.
       -4    1    3    3    0  502  0.42588543737E+03 -0.14295640041E+04  0.40412933324E+03  0.15454299656E+04  0.12699999809E+01 0. -1.
</event>
<event>
 5   0  0.7519202E-07  0.3125612E+04  0.7818609E-02  0.8208744E-01
        1   -1    0    0  501    0  0.00000000000E+00  0.00000000000E+00  0.18916047391E+04  0.18916047391E+04  0.50400001928E-02 0.  1.
       -1   -1    0    0    0  501  0.00000000000E+00  0.00000000000E+00 -0.12911590654E+04  0.12911590654E+04  0.50400001928E-02 0. -1.
    10030    2    1    2    0    0  0.00000000000E+00  0.00000000000E+00  0.60044567368E+03  0.31827638045E+04  0.31256120086E+04 0.  0.
        4    1    3    3  502    0 -0.14568529086E+04  0.55202148051E+03  0.17462704391E+03  0.15676875739E+04  0.12699999809E+01 0.  1.
       -4    1    3    3    0  502  0.14568529086E+04 -0.55202148051E+03  0.42581862977E+03  0.16150762305E+04  0.12699999809E+01 0. -1.
</event>
<event>
 5   0  0.7561815E-07  0.3263365E+04  0.7818609E-02  0.8172280E-01
        1   -1    0    0  501    0  0.00000000000E+00  0.00000000000E+00  0.16582263921E+04  0.16582263922E+04  0.50400001928E-02 0. -1.
       -1   -1    0    0    0  501  0.00000000000E+00  0.00000000000E+00 -0.16055630351E+04  0.16055630351E+04  0.50400001928E-02 0.  1.
    10030    2    1    2    0    0  0.00000000000E+00  0.00000000000E+00  0.52663357064E+02  0.32637894272E+04  0.32633645209E+04 0.  0.
        3    1    3    3  502    0  0.31869282050E+03  0.12318109517E+04  0.10479653704E+04  0.16483794352E+04  0.10100000352E+00 0. -1.
       -3    1    3    3    0  502 -0.31869282050E+03 -0.12318109517E+04 -0.99530201337E+03  0.16154099921E+04  0.10100000352E+00 0.  1.
</event>
<event>
 5   0  0.7726743E-07  0.3095609E+04  0.7818609E-02  0.8216944E-01
        1   -1    0    0  501    0  0.00000000000E+00  0.00000000000E+00  0.19544934903E+04  0.19544934903E+04  0.50400001928E-02 0. -1.
       -1   -1    0    0    0  501  0.00000000000E+00  0.00000000000E+00 -0.12257390858E+04  0.12257390858E+04  0.50400001928E-02 0.  1.
    10030    2    1    2    0    0  0.00000000000E+00  0.00000000000E+00  0.72875440455E+03  0.31802325761E+04  0.30956091898E+04 0.  0.
        1    1    3    3  502    0 -0.10635694029E+04 -0.23456347880E+03  0.14942135463E+04  0.18490197463E+04  0.50400001928E-02 0. -1.
       -1    1    3    3    0  502  0.10635694029E+04  0.23456347880E+03 -0.76545914179E+03  0.13312128297E+04  0.50400001928E-02 0.  1.
</event>
<event>
 5   0  0.7519202E-07  0.3039221E+04  0.7818609E-02  0.8232619E-01
        1   -1    0    0  501    0  0.00000000000E+00  0.00000000000E+00  0.21677850904E+04  0.21677850904E+04  0.50400001928E-02 0. -1.
       -1   -1    0    0    0  501  0.00000000000E+00  0.00000000000E+00 -0.10652421851E+04  0.10652421851E+04  0.50400001928E-02 0.  1.
    10030    2    1    2    0    0  0.00000000000E+00  0.00000000000E+00  0.11025429053E+04  0.32330272755E+04  0.30392210360E+04 0.  0.
        4    1    3    3  502    0 -0.13478733661E+04  0.58878051442E+03  0.14509937112E+03  0.14779988314E+04  0.12699999809E+01 0. -1.
       -4    1    3    3    0  502  0.13478733661E+04 -0.58878051442E+03  0.95744353422E+03  0.17550284440E+04  0.12699999809E+01 0.  1.
</event>
<event>
 5   0  0.7726743E-07  0.3087057E+04  0.7818609E-02  0.8219299E-01
       -1   -1    0    0    0  501  0.00000000000E+00  0.00000000000E+00  0.27878145004E+04  0.27878145004E+04  0.50400001928E-02 0. -1.
        1   -1    0    0  501    0  0.00000000000E+00  0.00000000000E+00 -0.85460524718E+03  0.85460524719E+03  0.50400001928E-02 0.  1.
    10030    2    1    2    0    0  0.00000000000E+00  0.00000000000E+00  0.19332092532E+04  0.36424197476E+04  0.30870574340E+04 0.  0.
        1    1    3    3  502    0 -0.31240610980E+03 -0.10748556312E+04  0.22206163778E+04  0.24867748797E+04  0.50400001928E-02 0. -1.
       -1    1    3    3    0  502  0.31240610980E+03  0.10748556312E+04 -0.28740712457E+03  0.11556448678E+04  0.50400001928E-02 0.  1.
</event>
<event>
 5   0  0.2133385E-06  0.3113222E+04  0.7818609E-02  0.8212119E-01
        2   -1    0    0  501    0  0.00000000000E+00  0.00000000000E+00  0.16786983322E+04  0.16786983322E+04  0.25500000920E-02 0. -1.
       -2   -1    0    0    0  501  0.00000000000E+00  0.00000000000E+00 -0.14434023391E+04  0.14434023391E+04  0.25500000920E-02 0.  1.
    10030    2    1    2    0    0  0.00000000000E+00  0.00000000000E+00  0.23529599308E+03  0.31221006713E+04  0.31132215465E+04 0.  0.
        2    1    3    3  502    0  0.20296144686E+03  0.20853451418E+03  0.16511780558E+04  0.16766242765E+04  0.25500000920E-02 0. -1.
       -2    1    3    3    0  502 -0.20296144686E+03 -0.20853451418E+03 -0.14158820627E+04  0.14454763948E+04  0.25500000920E-02 0.  1.
</event>
<event>
 5   0  0.7519202E-07  0.3092709E+04  0.7818609E-02  0.8217742E-01
       -1   -1    0    0    0  501  0.00000000000E+00  0.00000000000E+00  0.16509231363E+04  0.16509231363E+04  0.50400001928E-02 0.  1.
        1   -1    0    0  501    0  0.00000000000E+00  0.00000000000E+00 -0.14484090323E+04  0.14484090323E+04  0.50400001928E-02 0. -1.
    10030    2    1    2    0    0  0.00000000000E+00  0.00000000000E+00  0.20251410407E+03  0.30993321686E+04  0.30927088335E+04 0.  0.
        4    1    3    3  502    0 -0.14029121785E+04  0.41607305105E+03  0.60225870272E+03  0.15824021368E+04  0.12699999809E+01 0.  1.
       -4    1    3    3    0  502  0.14029121785E+04 -0.41607305105E+03 -0.39974459864E+03  0.15169300319E+04  0.12699999809E+01 0. -1.
</event>
<event>
 5   0  0.2133385E-06  0.3096607E+04  0.7818609E-02  0.8216670E-01
       -2   -1    0    0    0  501  0.00000000000E+00  0.00000000000E+00  0.22539947925E+04  0.22539947925E+04  0.25500000920E-02 0.  1.
        2   -1    0    0  501    0  0.00000000000E+00  0.00000000000E+00 -0.10635530764E+04  0.10635530764E+04  0.25500000920E-02 0. -1.
    10030    2    1    2    0    0  0.00000000000E+00  0.00000000000E+00  0.11904417161E+04  0.33175478689E+04  0.30966065916E+04 0.  0.
        2    1    3    3  502    0 -0.12407617192E+04  0.13346103938E+03  0.15770947458E+04  0.20111015216E+04  0.25500000920E-02 0.  1.
       -2    1    3    3    0  502  0.12407617192E+04 -0.13346103938E+03 -0.38665302971E+03  0.13064463473E+04  0.25500000920E-02 0. -1.
</event>
<event>
 5   0  0.7726743E-07  0.3100223E+04  0.7818609E-02  0.8215677E-01
       -1   -1    0    0    0  501  0.00000000000E+00  0.00000000000E+00  0.15536532402E+04  0.15536532402E+04  0.50400001928E-02 0.  1.
        1   -1    0    0  501    0  0.00000000000E+00  0.00000000000E+00 -0.15465775116E+04  0.15465775116E+04  0.50400001928E-02 0. -1.
    10030    2    1    2    0    0  0.00000000000E+00  0.00000000000E+00  0.70757285614E+01  0.31002307518E+04  0.31002226772E+04 0.  0.
        1    1    3    3  502    0  0.81817082181E+03 -0.91671748901E+03  0.94856451248E+03  0.15522722321E+04  0.50400001928E-02 0.  1.
       -1    1    3    3    0  502 -0.81817082181E+03  0.91671748901E+03 -0.94148878391E+03  0.15479585197E+04  0.50400001928E-02 0. -1.
</event>
<event>
 5   0  0.7561815E-07  0.3103612E+04  0.7818609E-02  0.8214747E-01
        1   -1    0    0  501    0  0.00000000000E+00  0.00000000000E+00  0.26278817279E+04  0.26278817279E+04  0.50400001928E-02 0.  1.
       -1   -1    0    0    0  501  0.00000000000E+00  0.00000000000E+00 -0.91636593865E+03  0.91636593866E+03  0.50400001928E-02 0. -1.
    10030    2    1    2    0    0  0.00000000000E+00  0.00000000000E+00  0.17115157893E+04  0.35442476666E+04  0.31036116421E+04 0.  0.
        3    1    3    3  502    0 -0.69141004338E+03  0.46899428597E+03  0.23491270085E+04  0.24932711847E+04  0.10100000352E+00 0.  1.
       -3    1    3    3    0  502  0.69141004338E+03 -0.46899428597E+03 -0.63761121922E+03  0.10509764819E+04  0.10100000352E+00 0. -1.
</event>
<event>
 5   0  0.2133385E-06  0.3088771E+04  0.7818609E-02  0.8218826E-01
       -2   -1    0    0    0  501  0.00000000000E+00  0.00000000000E+00  0.16199972843E+04  0.16199972843E+04  0.25500000920E-02 0.  1.
        2   -1    0    0  501    0  0.00000000000E+00  0.00000000000E+00 -0.14723026622E+04  0.14723026622E+04  0.25500000920E-02 0. -1.
    10030    2    1    2    0    0  0.00000000000E+00  0.00000000000E+00  0.14769462211E+03  0.30922999464E+04  0.30887708328E+04 0.  0.
        2    1    3    3  502    0 -0.89976873290E+03  0.52328725356E+03 -0.10683826430E+04  0.14915947152E+04  0.25500000920E-02 0. -1.
       -2    1    3    3    0  502  0.89976873290E+03 -0.52328725356E+03  0.12160772652E+04  0.16007052312E+04  0.25500000920E-02 0.  1.
</event>
<event>
 5   0  0.2067926E-06  0.3089987E+04  0.7818609E-02  0.8218491E-01
        2   -1    0    0  501    0  0.00000000000E+00  0.00000000000E+00  0.19590758771E+04  0.19590758771E+04  0.25500000920E-02 0. -1.
       -2   -1    0    0    0  501  0.00000000000E+00  0.00000000000E+00 -0.12184341177E+04  0.12184341178E+04  0.25500000920E-02 0.  1.
    10030    2    1    2    0    0  0.00000000000E+00  0.00000000000E+00  0.74064175931E+03  0.31775099948E+04  0.30899869824E+04 0.  0.
        1    1    3    3  502    0 -0.13568350534E+04 -0.72359082194E+03  0.52429460223E+03  0.16246445364E+04  0.50400001928E-02 0. -1.
       -1    1    3    3    0  502  0.13568350534E+04  0.72359082194E+03  0.21634715708E+03  0.15528654584E+04  0.50400001928E-02 0.  1.
</event>
<event>
 5   0  0.2226334E-06  0.3078329E+04  0.7818609E-02  0.8221711E-01
        2   -1    0    0  501    0  0.00000000000E+00  0.00000000000E+00  0.17484556420E+04  0.17484556420E+04  0.25500000920E-02 0.  1.
       -2   -1    0    0    0  501  0.00000000000E+00  0.00000000000E+00 -0.13549256185E+04  0.13549256185E+04  0.25500000920E-02 0. -1.
    10030    2    1    2    0    0  0.00000000000E+00  0.00000000000E+00  0.39353002358E+03  0.31033812605E+04  0.30783289897E+04 0.  0.
        5    1    3    3  502    0 -0.12217661790E+04  0.11626157314E+03 -0.73965158943E+03  0.14329465842E+04  0.46999998093E+01 0. -1.
       -5    1    3    3    0  502  0.12217661790E+04 -0.11626157314E+03  0.11331816130E+04  0.16704346763E+04  0.46999998093E+01 0.  1.
</event>
<event>
 5   0  0.7519202E-07  0.3101061E+04  0.7818609E-02  0.8215447E-01
       -1   -1    0    0    0  501  0.00000000000E+00  0.00000000000E+00  0.12250746709E+04  0.12250746710E+04  0.50400001928E-02 0. -1.
        1   -1    0    0  501    0  0.00000000000E+00  0.00000000000E+00 -0.19624482175E+04  0.19624482175E+04  0.50400001928E-02 0.  1.
    10030    2    1    2    0    0  0.00000000000E+00  0.00000000000E+00 -0.73737354655E+03  0.31875228885E+04  0.31010614985E+04 0.  0.
        4    1    3    3  502    0 -0.67795356138E+02  0.15482153230E+04 -0.31650628741E+03  0.15816904690E+04  0.12699999809E+01 0.  1.
       -4    1    3    3    0  502  0.67795356138E+02 -0.15482153230E+04 -0.42086725914E+03  0.16058324195E+04  0.12699999809E+01 0. -1.
</event>
<event>
 5   0  0.7726743E-07  0.3015994E+04  0.7818609E-02  0.8239179E-01
        1   -1    0    0  501    0  0.00000000000E+00  0.00000000000E+00  0.28790466982E+04  0.28790466982E+04  0.50400001928E-02 0.  1.
       -1   -1    0    0    0  501  0.00000000000E+00  0.00000000000E+00 -0.78986360668E+03  0.78986360669E+03  0.50400001928E-02 0. -1.
    10030    2    1    2    0    0  0.00000000000E+00  0.00000000000E+00  0.20891830915E+04  0.36689103049E+04  0.30159935072E+04 0.  0.
        1    1    3    3  502    0 -0.46917609512E+02 -0.18652713992E+03  0.28640643314E+04  0.28705153075E+04  0.50400001928E-02 0.  1.
       -1    1    3    3    0  502  0.46917609512E+02  0.18652713992E+03 -0.77488123987E+03  0.79839499744E+03  0.50400001928E-02 0. -1.
</event>
<event>
 5   0  0.7561815E-07  0.3120020E+04  0.7818609E-02  0.8210265E-01
        1   -1    0    0  501    0  0.00000000000E+00  0.00000000000E+00  0.16073822124E+04  0.16073822124E+04  0.50400001928E-02 0.  1.
       -1   -1    0    0    0  501  0.00000000000E+00  0.00000000000E+00 -0.15140340882E+04  0.15140340882E+04  0.50400001928E-02 0. -1.
    10030    2    1    2    0    0  0.00000000000E+00  0.00000000000E+00  0.93348124268E+02  0.31214163006E+04  0.31200201681E+04 0.  0.
        3    1    3    3  502    0 -0.48202998094E+03  0.53877708579E+03  0.14296810879E+04  0.16020679368E+04  0.10100000352E+00 0.  1.
       -3    1    3    3    0  502  0.48202998094E+03 -0.53877708579E+03 -0.13363329637E+04  0.15193483638E+04  0.10100000352E+00 0. -1.
</event>
<event>
 5   0  0.2078009E-06  0.3062934E+04  0.7818609E-02  0.8225984E-01
        2   -1    0    0  501    0  0.00000000000E+00  0.00000000000E+00  0.22327758271E+04  0.22327758271E+04  0.25500000920E-02 0.  1.
       -2   -1    0    0    0  501  0.00000000000E+00  0.00000000000E+00 -0.10504376656E+04  0.10504376656E+04  0.25500000920E-02 0. -1.
    10030    2    1    2    0    0  0.00000000000E+00  0.00000000000E+00  0.11823381615E+04  0.32832134928E+04  0.30629344281E+04 0.  0.
        3    1    3    3  502    0  0.40309509299E+03  0.14774657336E+04  0.59232827604E+03  0.16420241913E+04  0.10100000352E+00 0.  1.
       -3    1    3    3    0  502 -0.40309509299E+03 -0.14774657336E+04  0.59000988545E+03  0.16411893015E+04  0.10100000352E+00 0. -1.
</event>
<event>
 5   0  0.2133385E-06  0.3091853E+04  0.7818609E-02  0.8217977E-01
       -2   -1    0    0    0  501  0.00000000000E+00  0.00000000000E+00  0.85915352053E+03  0.85915352054E+03  0.25500000920E-02 0. -1.
        2   -1    0    0  501    0  0.00000000000E+00  0.00000000000E+00 -0.27816790041E+04  0.27816790041E+04  0.25500000920E-02 0.  1.
    10030    2    1    2    0    0  0.00000000000E+00  0.00000000000E+00 -0.19225254836E+04  0.36408325247E+04  0.30918533661E+04 0.  0.
        2    1    3    3  502    0  0.12133021925E+04 -0.53084051824E+03 -0.19003562002E+04  0.23163004023E+04  0.25500000920E-02 0.  1.
       -2    1    3    3    0  502 -0.12133021925E+04  0.53084051824E+03 -0.22169283367E+02  0.13245321224E+04  0.25500000920E-02 0. -1.
</event>
<event>
 5   0  0.7656332E-07  0.3114354E+04  0.7818609E-02  0.8211810E-01
       -1   -1    0    0    0  501  0.00000000000E+00  0.00000000000E+00  0.10829109841E+04  0.10829109841E+04  0.50400001928E-02 0. -1.
        1   -1    0    0  501    0  0.00000000000E+00  0.00000000000E+00 -0.22391500657E+04  0.22391500657E+04  0.50400001928E-02 0.  1.
    10030    2    1    2    0    0  0.00000000000E+00  0.00000000000E+00 -0.11562390816E+04  0.33220610498E+04  0.31143539948E+04 0.  0.
        2    1    3    3  502    0 -0.80314109885E+03 -0.10844340140E+04  0.25072766997E+03  0.13725513178E+04  0.25500000920E-02 0. -1.
       -2    1    3    3    0  502  0.80314109885E+03  0.10844340140E+04 -0.14069667515E+04  0.19495097320E+04  0.25500000920E-02 0.  1.
</event>
<event>
 5   0  0.7656332E-07  0.3073144E+04  0.7818609E-02  0.8223147E-01
        1   -1    0    0  501    0  0.00000000000E+00  0.00000000000E+00  0.23755845876E+04  0.23755845876E+04  0.50400001928E-02 0. -1.
       -1   -1    0    0    0  501  0.00000000000E+00  0.00000000000E+00 -0.99388327485E+03  0.99388327486E+03  0.50400001928E-02 0.  1.
    10030    2    1    2    0    0  0.00000000000E+00  0.00000000000E+00  0.13817013128E+04  0.33694678625E+04  0.30731441812E+04 0.  0.
        2    1    3    3  502    0 -0.99339822457E+03  0.10060575301E+04  0.31115151442E+02  0.14141993987E+04  0.25500000920E-02 0. -1.
       -2    1    3    3    0  502  0.99339822457E+03 -0.10060575301E+04  0.13505861613E+04  0.19552684638E+04  0.25500000920E-02 0.  1.
</event>
<event>
 5   0  0.2094135E-06  0.3107270E+04  0.7818609E-02  0.8213746E-01
        2   -1    0    0  501    0  0.00000000000E+00  0.00000000000E+00  0.19029936888E+04  0.19029936888E+04  0.25500000920E-02 0.  1.
       -2   -1    0    0    0  501  0.00000000000E+00  0.00000000000E+00 -0.12684128945E+04  0.12684128945E+04  0.25500000920E-02 0. -1.
    10030    2    1    2    0    0  0.00000000000E+00  0.00000000000E+00  0.63458079432E+03  0.31714065833E+04  0.31072700128E+04 0.  0.
        4    1    3    3  502    0 -0.10604081627E+04  0.92546996762E+02  0.14723517720E+04  0.18168246397E+04  0.12699999809E+01 0.  1.
       -4    1    3    3    0  502  0.10604081627E+04 -0.92546996762E+02 -0.83777097764E+03  0.13545819436E+04  0.12699999809E+01 0. -1.
</event>
<event>
 5   0  0.7561815E-07  0.3104775E+04  0.7818609E-02  0.8214429E-01
        1   -1    0    0  501    0  0.00000000000E+00  0.00000000000E+00  0.31836214897E+04  0.31836214898E+04  0.50400001928E-02 0. -1.
       -1   -1    0    0    0  501  0.00000000000E+00  0.00000000000E+00 -0.75697052280E+03  0.75697052282E+03  0.50400001928E-02 0.  1.
    10030    2    1    2    0    0  0.00000000000E+00  0.00000000000E+00  0.24266509669E+04  0.39405920126E+04  0.31047754338E+04 0.  0.
        3    1    3    3  502    0 -0.68921986344E+03 -0.69700889344E+03 -0.31450366872E+03  0.10294454748E+04  0.10100000352E+00 0.  1.
       -3    1    3    3    0  502  0.68921986344E+03  0.69700889344E+03  0.27411546357E+04  0.29111465378E+04  0.10100000352E+00 0. -1.
</event>
<event>
 5   0  0.2067926E-06  0.2958141E+04  0.7818609E-02  0.8255786E-01
        2   -1    0    0  501    0  0.00000000000E+00  0.00000000000E+00  0.20024500491E+04  0.20024500491E+04  0.25500000920E-02 0. -1.
       -2   -1    0    0    0  501  0.00000000000E+00  0.00000000000E+00 -0.10924867497E+04  0.10924867497E+04  0.25500000920E-02 0.  1.
    10030    2    1    2    0    0  0.00000000000E+00  0.00000000000E+00  0.90996329942E+03  0.30949367988E+04  0.29581414067E+04 0.  0.
        1    1    3    3  502    0  0.14375737526E+03 -0.75633224962E+03 -0.86633155987E+03  0.11589801665E+04  0.50400001928E-02 0.  1.
       -1    1    3    3    0  502 -0.14375737526E+03  0.75633224962E+03  0.17762948593E+04  0.19359566322E+04  0.50400001928E-02 0. -1.
</event>
<event>
 5   0  0.7656332E-07  0.2714739E+04  0.7818609E-02  0.8330239E-01
        1   -1    0    0  501    0  0.00000000000E+00  0.00000000000E+00  0.11413634776E+04  0.11413634776E+04  0.50400001928E-02 0.  1.
       -1   -1    0    0    0  501  0.00000000000E+00  0.00000000000E+00 -0.16142547676E+04  0.16142547676E+04  0.50400001928E-02 0. -1.
    10030    2    1    2    0    0  0.00000000000E+00  0.00000000000E+00 -0.47289129004E+03  0.27556182452E+04  0.27147386138E+04 0.  0.
        2    1    3    3  502    0 -0.10224777568E+04  0.84973726674E+03  0.41423232123E+02  0.13301240806E+04  0.25500000920E-02 0.  1.
       -2    1    3    3    0  502  0.10224777568E+04 -0.84973726674E+03 -0.51431452216E+03  0.14254941646E+04  0.25500000920E-02 0. -1.
</event>
<event>
 5   0  0.7519202E-07  0.3081080E+04  0.7818609E-02  0.8220950E-01
        1   -1    0    0  501    0  0.00000000000E+00  0.00000000000E+00  0.10645867140E+04  0.10645867140E+04  0.50400001928E-02 0.  1.
       -1   -1    0    0    0  501  0.00000000000E+00  0.00000000000E+00 -0.22292810669E+04  0.22292810670E+04  0.50400001928E-02 0. -1.
    10030    2    1    2    0    0  0.00000000000E+00  0.00000000000E+00 -0.11646943530E+04  0.32938677809E+04  0.30810796845E+04 0.  0.
        4    1    3    3  502    0  0.16917800283E+03 -0.15078137680E+04 -0.29721018699E+03  0.15461109481E+04  0.12699999809E+01 0.  1.
       -4    1    3    3    0  502 -0.16917800283E+03  0.15078137680E+04 -0.86748416598E+03  0.17477568329E+04  0.12699999809E+01 0. -1.
</event>
<event>
 5   0  0.2094135E-06  0.3124255E+04  0.7818609E-02  0.8209113E-01
       -2   -1    0    0    0  501  0.00000000000E+00  0.00000000000E+00  0.15349320086E+04  0.15349320086E+04  0.25500000920E-02 0.  1.
        2   -1    0    0  501    0  0.00000000000E+00  0.00000000000E+00 -0.15898049792E+04  0.15898049792E+04  0.25500000920E-02 0. -1.
    10030    2    1    2    0    0  0.00000000000E+00  0.00000000000E+00 -0.54872970621E+02  0.31247369878E+04  0.31242551433E+04 0.  0.
        4    1    3    3  502    0  0.13189372633E+04  0.81319819572E+03 -0.22584582745E+03  0.15658527264E+04  0.12699999809E+01 0. -1.
       -4    1    3    3    0  502 -0.13189372633E+04 -0.81319819572E+03  0.17097285683E+03  0.15588842615E+04  0.12699999809E+01 0.  1.
</event>
<event>
 5   0  0.2133385E-06  0.2901801E+04  0.7818609E-02  0.8272342E-01
       -2   -1    0    0    0  501  0.00000000000E+00  0.00000000000E+00  0.22322827245E+04  0.22322827245E+04  0.25500000920E-02 0.  1.
        2   -1    0    0  501    0  0.00000000000E+00  0.00000000000E+00 -0.94303088683E+03  0.94303088684E+03  0.25500000920E-02 0. -1.
    10030    2    1    2    0    0  0.00000000000E+00  0.00000000000E+00  0.12892518377E+04  0.31753136114E+04  0.29018005151E+04 0.  0.
        2    1    3    3  502    0 -0.48818939551E+03 -0.39253981706E+03 -0.78742713333E+03  0.10062096621E+04  0.25500000920E-02 0. -1.
       -2    1    3    3    0  502  0.48818939551E+03  0.39253981706E+03  0.20766789710E+04  0.21691039492E+04  0.25500000920E-02 0.  1.
</event>
<event>
 5   0  0.7413481E-07  0.3098271E+04  0.7818609E-02  0.8216212E-01
        1   -1    0    0  501    0  0.00000000000E+00  0.00000000000E+00  0.21814315886E+04  0.21814315886E+04  0.50400001928E-02 0.  1.
       -1   -1    0    0    0  501  0.00000000000E+00  0.00000000000E+00 -0.11001131256E+04  0.11001131256E+04  0.50400001928E-02 0. -1.
    10030    2    1    2    0    0  0.00000000000E+00  0.00000000000E+00  0.10813184630E+04  0.32815447143E+04  0.30982714686E+04 0.  0.
        5    1    3    3  502    0 -0.90046655067E+03  0.19788626714E+03  0.18592096773E+04  0.20752546103E+04  0.46999998093E+01 0.  1.
       -5    1    3    3    0  502  0.90046655067E+03 -0.19788626714E+03 -0.77789121429E+03  0.12062901039E+04  0.46999998093E+01 0. -1.
</event>
<event>
 5   0  0.2226334E-06  0.3107716E+04  0.7818609E-02  0.8213624E-01
        2   -1    0    0  501    0  0.00000000000E+00  0.00000000000E+00  0.24398876701E+04  0.24398876701E+04  0.25500000920E-02 0. -1.
       -2   -1    0    0    0  501  0.00000000000E+00  0.00000000000E+00 -0.98958409530E+03  0.98958409530E+03  0.25500000920E-02 0.  1.
    10030    2    1    2    0    0  0.00000000000E+00  0.00000000000E+00  0.14503035748E+04  0.34294717654E+04  0.31077155807E+04 0.  0.
        5    1    3    3  502    0 -0.69321607316E+03  0.13379993483E+04  0.11434207651E+04  0.18916193899E+04  0.46999998093E+01 0. -1.
       -5    1    3    3    0  502  0.69321607316E+03 -0.13379993483E+04  0.30688280974E+03  0.15378523756E+04  0.46999998093E+01 0.  1.
</event>
<event>
 5   0  0.2133385E-06  0.3106486E+04  0.7818609E-02  0.8213960E-01
        2   -1    0    0  501    0  0.00000000000E+00  0.00000000000E+00  0.20518749899E+04  0.20518749899E+04  0.25500000920E-02 0. -1.
       -2   -1    0    0    0  501  0.00000000000E+00  0.00000000000E+00 -0.11757847703E+04  0.11757847703E+04  0.25500000920E-02 0.  1.
    10030    2    1    2    0    0  0.00000000000E+00  0.00000000000E+00  0.87609021959E+03  0.32276597601E+04  0.31064857081E+04 0.  0.
        2    1    3    3  502    0 -0.97178309603E+03 -0.61088373118E+03 -0.64920589861E+03  0.13187151389E+04  0.25500000920E-02 0.  1.
       -2    1    3    3    0  502  0.97178309603E+03  0.61088373118E+03  0.15252961182E+04  0.19089446212E+04  0.25500000920E-02 0. -1.
</event>
<event>
 5   0  0.2226334E-06  0.3094278E+04  0.7818609E-02  0.8217310E-01
       -2   -1    0    0    0  501  0.00000000000E+00  0.00000000000E+00  0.13521525869E+04  0.13521525869E+04  0.25500000920E-02 0.  1.
        2   -1    0    0  501    0  0.00000000000E+00  0.00000000000E+00 -0.17702431016E+04  0.17702431016E+04  0.25500000920E-02 0. -1.
    10030    2    1    2    0    0  0.00000000000E+00  0.00000000000E+00 -0.41809051467E+03  0.31223956886E+04  0.30942778087E+04 0.  0.
        5    1    3    3  502    0 -0.12550411623E+04 -0.22437882237E+03 -0.10934468990E+04  0.16796197147E+04  0.46999998093E+01 0. -1.
       -5    1    3    3    0  502  0.12550411623E+04  0.22437882237E+03  0.67535638430E+03  0.14427759739E+04  0.46999998093E+01 0.  1.
</event>
<event>
 5   0  0.7561815E-07  0.3082406E+04  0.7818609E-02  0.8220583E-01
       -1   -1    0    0    0  501  0.00000000000E+00  0.00000000000E+00  0.10132911237E+04  0.10132911237E+04  0.50400001928E-02 0.  1.
        1   -1    0    0  501    0  0.00000000000E+00  0.00000000000E+00 -0.23441510521E+04  0.23441510521E+04  0.50400001928E-02 0. -1.
    10030    2    1    2    0    0  0.00000000000E+00  0.00000000000E+00 -0.13308599285E+04  0.33574421758E+04  0.30824064973E+04 0.  0.
        3    1    3    3  502    0 -0.14940600984E+04 -0.30671733148E+03 -0.42427895168E+03  0.15831309921E+04  0.10100000352E+00 0.  1.
       -3    1    3    3    0  502  0.14940600984E+04  0.30671733148E+03 -0.90658097678E+03  0.17743111837E+04  0.10100000352E+00 0. -1.
</event>
<event>
 5   0  0.2067926E-06  0.3099363E+04  0.7818609E-02  0.8215913E-01
       -2   -1    0    0    0  501  0.00000000000E+00  0.00000000000E+00  0.96968226346E+03  0.96968226347E+03  0.25500000920E-02 0.  1.
        2   -1    0    0  501    0  0.00000000000E+00  0.00000000000E+00 -0.24765983796E+04  0.24765983796E+04  0.25500000920E-02 0. -1.
    10030    2    1    2    0    0  0.00000000000E+00  0.00000000000E+00 -0.15069161162E+04  0.34462806431E+04  0.30993634975E+04 0.  0.
        1    1    3    3  502    0  0.13259544415E+04 -0.70008224419E+03 -0.31817804798E+03  0.15328103600E+04  0.50400001928E-02 0.  1.
       -1    1    3    3    0  502 -0.13259544415E+04  0.70008224419E+03 -0.11887380682E+04  0.19134702831E+04  0.50400001928E-02 0. -1.
</event>
<event>
 5   0  0.7561815E-07  0.3099008E+04  0.7818609E-02  0.8216010E-01
       -1   -1    0    0    0  501  0.00000000000E+00  0.00000000000E+00  0.12053884912E+04  0.12053884912E+04  0.50400001928E-02 0. -1.
        1   -1    0    0  501    0  0.00000000000E+00  0.00000000000E+00 -0.19918577063E+04  0.19918577063E+04  0.50400001928E-02 0.  1.
    10030    2    1    2    0    0  0.00000000000E+00  0.00000000000E+00 -0.78646921504E+03  0.31972461975E+04  0.30990078124E+04 0.  0.
        3    1    3    3  502    0 -0.85066568295E+03  0.10685918816E+04 -0.11481694610E+04  0.17843244758E+04  0.10100000352E+00 0.  1.
       -3    1    3    3    0  502  0.85066568295E+03 -0.10685918816E+04  0.36170024599E+03  0.14129217217E+04  0.10100000352E+00 0. -1.
</event>
<event>
 5   0  0.2133385E-06  0.3008086E+04  0.7818609E-02  0.8241426E-01
       -2   -1    0    0    0  501  0.00000000000E+00  0.00000000000E+00  0.32351291017E+04  0.32351291017E+04  0.25500000920E-02 0.  1.
        2   -1    0    0  501    0  0.00000000000E+00  0.00000000000E+00 -0.69924411719E+03  0.69924411719E+03  0.25500000920E-02 0. -1.
    10030    2    1    2    0    0  0.00000000000E+00  0.00000000000E+00  0.25358849845E+04  0.39343732189E+04  0.30080857652E+04 0.  0.
        2    1    3    3  502    0 -0.13228031579E+04  0.60085050848E+02  0.22008263051E+04  0.25684732495E+04  0.25500000920E-02 0. -1.
       -2    1    3    3    0  502  0.13228031579E+04 -0.60085050848E+02  0.33505867933E+03  0.13658999694E+04  0.25500000920E-02 0.  1.
</event>
<event>
 5   0  0.2078009E-06  0.3101846E+04  0.7818609E-02  0.8215232E-01
        2   -1    0    0  501    0  0.00000000000E+00  0.00000000000E+00  0.22805348651E+04  0.22805348651E+04  0.25500000920E-02 0.  1.
       -2   -1    0    0    0  501  0.00000000000E+00  0.00000000000E+00 -0.10547356371E+04  0.10547356371E+04  0.25500000920E-02 0. -1.
    10030    2    1    2    0    0  0.00000000000E+00  0.00000000000E+00  0.12257992281E+04  0.33352705022E+04  0.31018455112E+04 0.  0.
        3    1    3    3  502    0 -0.84493939748E+03 -0.97242836910E+03  0.15414991331E+04  0.20089198854E+04  0.10100000352E+00 0.  1.
       -3    1    3    3    0  502  0.84493939748E+03  0.97242836910E+03 -0.31569990506E+03  0.13263506168E+04  0.10100000352E+00 0. -1.
</event>
<event>
 5   0  0.2067926E-06  0.3146314E+04  0.7818609E-02  0.8203141E-01
        2   -1    0    0  501    0  0.00000000000E+00  0.00000000000E+00  0.19480746515E+04  0.19480746515E+04  0.25500000920E-02 0. -1.
       -2   -1    0    0    0  501  0.00000000000E+00  0.00000000000E+00 -0.12703945697E+04  0.12703945697E+04  0.25500000920E-02 0.  1.
    10030    2    1    2    0    0  0.00000000000E+00  0.00000000000E+00  0.67768008177E+03  0.32184692212E+04  0.31463143254E+04 0.  0.
        1    1    3    3  502    0 -0.12166703663E+04  0.62091533420E+03 -0.45944169573E+03  0.14411486059E+04  0.50400001928E-02 0.  1.
       -1    1    3    3    0  502  0.12166703663E+04 -0.62091533420E+03  0.11371217775E+04  0.17773206153E+04  0.50400001928E-02 0. -1.
</event>
<event>
 5   0  0.2226334E-06  0.3073940E+04  0.7818609E-02  0.8222927E-01
        2   -1    0    0  501    0  0.00000000000E+00  0.00000000000E+00  0.14430697939E+04  0.14430697939E+04  0.25500000920E-02 0. -1.
       -2   -1    0    0    0  501  0.00000000000E+00  0.00000000000E+00 -0.16369799496E+04  0.16369799496E+04  0.25500000920E-02 0.  1.
    10030    2    1    2    0    0  0.00000000000E+00  0.00000000000E+00 -0.19391015566E+03  0.30800497435E+04  0.30739396991E+04 0.  0.
        5    1    3    3  502    0 -0.13638007868E+04 -0.70869582846E+03 -0.89739015726E+02  0.15395705714E+04  0.46999998093E+01 0. -1.
       -5    1    3    3    0  502  0.13638007868E+04  0.70869582846E+03 -0.10417113993E+03  0.15404791721E+04  0.46999998093E+01 0.  1.
</event>
<event>
 5   0  0.7519202E-07  0.3005084E+04  0.7818609E-02  0.8242281E-01
       -1   -1    0    0    0  501  0.00000000000E+00  0.00000000000E+00  0.28793625836E+04  0.28793625836E+04  0.50400001928E-02 0. -1.
        1   -1    0    0  501    0  0.00000000000E+00  0.00000000000E+00 -0.78407368839E+03  0.78407368841E+03  0.50400001928E-02 0.  1.
    10030    2    1    2    0    0  0.00000000000E+00  0.00000000000E+00  0.20952888952E+04  0.36634362720E+04  0.30050839863E+04 0.  0.
        4    1    3    3  502    0  0.56331908033E+03  0.11078402608E+04  0.20770214865E+04  0.24204665455E+04  0.12699999809E+01 0. -1.
       -4    1    3    3    0  502 -0.56331908033E+03 -0.11078402608E+04  0.18267408660E+02  0.12429697264E+04  0.12699999809E+01 0.  1.
</event>
<event>
 5   0  0.7413481E-07  0.2963579E+04  0.7818609E-02  0.8254208E-01
       -1   -1    0    0    0  501  0.00000000000E+00  0.00000000000E+00  0.32928728020E+04  0.32928728020E+04  0.50400001928E-02 0.  1.
        1   -1    0    0  501    0  0.00000000000E+00  0.00000000000E+00 -0.66680360961E+03  0.66680360963E+03  0.50400001928E-02 0. -1.
    10030    2    1    2    0    0  0.00000000000E+00  0.00000000000E+00  0.26260691924E+04  0.39596764116E+04  0.29635785600E+04 0.  0.
        5    1    3    3  502    0 -0.82397396041E+02 -0.10816409330E+02  0.32897466957E+04  0.32907995590E+04  0.46999998093E+01 0.  1.
       -5    1    3    3    0  502  0.82397396041E+02  0.10816409330E+02 -0.66367750332E+03  0.66887685263E+03  0.46999998093E+01 0. -1.
</event>
<event>
 5   0  0.2094135E-06  0.3114240E+04  0.7818609E-02  0.8211841E-01
        2   -1    0    0  501    0  0.00000000000E+00  0.00000000000E+00  0.24638698051E+04  0.24638698051E+04  0.25500000920E-02 0.  1.
       -2   -1    0    0    0  501  0.00000000000E+00  0.00000000000E+00 -0.98407091350E+03  0.98407091351E+03  0.25500000920E-02 0. -1.
    10030    2    1    2    0    0  0.00000000000E+00  0.00000000000E+00  0.14797988916E+04  0.34479407186E+04  0.31142399457E+04 0.  0.
        4    1    3    3  502    0  0.32190890097E+03 -0.15209102769E+04  0.83785332656E+03  0.17660105381E+04  0.12699999809E+01 0. -1.
       -4    1    3    3    0  502 -0.32190890097E+03  0.15209102769E+04  0.64194556505E+03  0.16819301806E+04  0.12699999809E+01 0.  1.
</event>
<event>
 5   0  0.7519202E-07  0.3124558E+04  0.7818609E-02  0.8209030E-01
       -1   -1    0    0    0  501  0.00000000000E+00  0.00000000000E+00  0.25468863337E+04  0.25468863337E+04  0.50400001928E-02 0.  1.
        1   -1    0    0  501    0  0.00000000000E+00  0.00000000000E+00 -0.95831360556E+03  0.95831360557E+03  0.50400001928E-02 0. -1.
    10030    2    1    2    0    0  0.00000000000E+00  0.00000000000E+00  0.15885727281E+04  0.35051999393E+04  0.31245580970E+04 0.  0.
        4    1    3    3  502    0  0.22225033363E+02 -0.13066310618E+04  0.17546972600E+04  0.21878626033E+04  0.12699999809E+01 0.  1.
       -4    1    3    3    0  502 -0.22225033363E+02  0.13066310618E+04 -0.16612453187E+03  0.13173373360E+04  0.12699999809E+01 0. -1.
</event>
<event>
 5   0  0.7726743E-07  0.3098714E+04  0.7818609E-02  0.8216091E-01
        1   -1    0    0  501    0  0.00000000000E+00  0.00000000000E+00  0.10090113263E+04  0.10090113263E+04  0.50400001928E-02 0. -1.
       -1   -1    0    0    0  501  0.00000000000E+00  0.00000000000E+00 -0.23790687074E+04  0.23790687074E+04  0.50400001928E-02 0.  1.
    10030    2    1    2    0    0  0.00000000000E+00  0.00000000000E+00 -0.13700573810E+04  0.33880800337E+04  0.30987141023E+04 0.  0.
        1    1    3    3  502    0 -0.92684828524E+03 -0.91151479000E+03 -0.16067186366E+04  0.20667490736E+04  0.50400001928E-02 0.  1.
       -1    1    3    3    0  502  0.92684828524E+03  0.91151479000E+03  0.23666125552E+03  0.13213309601E+04  0.50400001928E-02 0. -1.
</event>
<event>
 5   0  0.2067926E-06  0.3052987E+04  0.7818609E-02  0.8228760E-01
       -2   -1    0    0    0  501  0.00000000000E+00  0.00000000000E+00  0.87582198138E+03  0.87582198138E+03  0.25500000920E-02 0.  1.
        2   -1    0    0  501    0  0.00000000000E+00  0.00000000000E+00 -0.26605655817E+04  0.26605655817E+04  0.25500000920E-02 0. -1.
    10030    2    1    2    0    0  0.00000000000E+00  0.00000000000E+00 -0.17847436003E+04  0.35363875631E+04  0.30529866160E+04 0.  0.
        1    1    3    3  502    0  0.11666913883E+04  0.86889151567E+03 -0.35647274525E+03  0.14977363185E+04  0.50400001928E-02 0.  1.
       -1    1    3    3    0  502 -0.11666913883E+04 -0.86889151567E+03 -0.14282708551E+04  0.20386512446E+04  0.50400001928E-02 0. -1.
</event>
<event>
 5   0  0.7413481E-07  0.3145419E+04  0.7818609E-02  0.8203383E-01
        1   -1    0    0  501    0  0.00000000000E+00  0.00000000000E+00  0.15470791502E+04  0.15470791503E+04  0.50400001928E-02 0.  1.
       -1   -1    0    0    0  501  0.00000000000E+00  0.00000000000E+00 -0.15987640900E+04  0.15987640901E+04  0.50400001928E-02 0. -1.
    10030    2    1    2    0    0  0.00000000000E+00  0.00000000000E+00 -0.51684939801E+02  0.31458432403E+04  0.31454186303E+04 0.  0.
        5    1    3    3  502    0 -0.48604802678E+03  0.10470474369E+04 -0.10940884682E+04  0.15904724725E+04  0.46999998093E+01 0. -1.
       -5    1    3    3    0  502  0.48604802678E+03 -0.10470474369E+04  0.10424035284E+04  0.15553707678E+04  0.46999998093E+01 0.  1.
</event>
<event>
 5   0  0.2094135E-06  0.3095450E+04  0.7818609E-02  0.8216988E-01
       -2   -1    0    0    0  501  0.00000000000E+00  0.00000000000E+00  0.12186307938E+04  0.12186307938E+04  0.25500000920E-02 0.  1.
        2   -1    0    0  501    0  0.00000000000E+00  0.00000000000E+00 -0.19656924527E+04  0.19656924527E+04  0.25500000920E-02 0. -1.
    10030    2    1    2    0    0  0.00000000000E+00  0.00000000000E+00 -0.74706165882E+03  0.31843232465E+04  0.30954504383E+04 0.  0.
        4    1    3    3  502    0  0.11885837734E+04 -0.95403619165E+03 -0.96474549914E+02  0.15271625300E+04  0.12699999809E+01 0.  1.
       -4    1    3    3    0  502 -0.11885837734E+04  0.95403619165E+03 -0.65058710891E+03  0.16571607165E+04  0.12699999809E+01 0. -1.
</event>
<event>
 5   0  0.2067926E-06  0.3097009E+04  0.7818609E-02  0.8216559E-01
        2   -1    0    0  501    0  0.00000000000E+00  0.00000000000E+00  0.23722634157E+04  0.23722634157E+04  0.25500000920E-02 0.  1.
       -2   -1    0    0    0  501  0.00000000000E+00  0.00000000000E+00 -0.10107928502E+04  0.10107928502E+04  0.25500000920E-02 0. -1.
    10030    2    1    2    0    0  0.00000000000E+00  0.00000000000E+00  0.13614705655E+04  0.33830562659E+04  0.30970094604E+04 0.  0.
        1    1    3    3  502    0  0.77176598183E+03  0.62620173293E+02 -0.78413957177E+03  0.11020067535E+04  0.50400001928E-02 0. -1.
       -1    1    3    3    0  502 -0.77176598183E+03 -0.62620173293E+02  0.21456101373E+04  0.22810495124E+04  0.50400001928E-02 0.  1.
</event>
<event>
 5   0  0.2078009E-06  0.3105083E+04  0.7818609E-02  0.8214344E-01
       -2   -1    0    0    0  501  0.00000000000E+00  0.00000000000E+00  0.15760230921E+04  0.15760230921E+04  0.25500000920E-02 0. -1.
        2   -1    0    0  501    0  0.00000000000E+00  0.00000000000E+00 -0.15294093011E+04  0.15294093011E+04  0.25500000920E-02 0.  1.
    10030    2    1    2    0    0  0.00000000000E+00  0.00000000000E+00  0.46613790953E+02  0.31054323932E+04  0.31050825276E+04 0.  0.
        3    1    3    3  502    0 -0.13928107290E+03 -0.14998626097E+04 -0.35276379752E+03  0.15470712240E+04  0.10100000352E+00 0. -1.
       -3    1    3    3    0  502  0.13928107290E+03  0.14998626097E+04  0.39937758847E+03  0.15583611692E+04  0.10100000352E+00 0.  1.
</event>
<event>
 5   0  0.2133385E-06  0.3091945E+04  0.7818609E-02  0.8217952E-01
        2   -1    0    0  501    0  0.00000000000E+00  0.00000000000E+00  0.18069477862E+04  0.18069477862E+04  0.25500000920E-02 0. -1.
       -2   -1    0    0    0  501  0.00000000000E+00  0.00000000000E+00 -0.13226897504E+04  0.13226897504E+04  0.25500000920E-02 0.  1.
    10030    2    1    2    0    0  0.00000000000E+00  0.00000000000E+00  0.48425803582E+03  0.31296375366E+04  0.30919452235E+04 0.  0.
        2    1    3    3  502    0  0.47296347696E+03  0.46084987135E+03  0.16570084957E+04  0.17837472381E+04  0.25500000920E-02 0. -1.
       -2    1    3    3    0  502 -0.47296347696E+03 -0.46084987135E+03 -0.11727504599E+04  0.13458902985E+04  0.25500000920E-02 0.  1.
</event>
<event>
 5   0  0.2067926E-06  0.2937079E+04  0.7818609E-02  0.8261930E-01
       -2   -1    0    0    0  501  0.00000000000E+00  0.00000000000E+00  0.12126850611E+04  0.12126850611E+04  0.25500000920E-02 0.  1.
        2   -1    0    0  501    0  0.00000000000E+00  0.00000000000E+00 -0.17783748342E+04  0.17783748342E+04  0.25500000920E-02 0. -1.
    10030    2    1    2    0    0  0.00000000000E+00  0.00000000000E+00 -0.56568977311E+03  0.29910598953E+04  0.29370792257E+04 0.  0.
        1    1    3    3  502    0 -0.62060643994E+03  0.12995260539E+04 -0.57568557433E+03  0.15509139881E+04  0.50400001928E-02 0. -1.
       -1    1    3    3    0  502  0.62060643994E+03 -0.12995260539E+04  0.99958012161E+01  0.14401459072E+04  0.50400001928E-02 0.  1.
</event>
<event>
 5   0  0.2078009E-06  0.3111175E+04  0.7818609E-02  0.8212678E-01
        2   -1    0    0  501    0  0.00000000000E+00  0.00000000000E+00  0.14039087715E+04  0.14039087715E+04  0.25500000920E-02 0. -1.
       -2   -1    0    0    0  501  0.00000000000E+00  0.00000000000E+00 -0.17236539598E+04  0.17236539598E+04  0.25500000920E-02 0.  1.
    10030    2    1    2    0    0  0.00000000000E+00  0.00000000000E+00 -0.31974518836E+03  0.31275627313E+04  0.31111752848E+04 0.  0.
        3    1    3    3  502    0  0.97691760371E+03 -0.27169925716E+03 -0.13457746174E+04  0.16850216087E+04  0.10100000352E+00 0.  1.
       -3    1    3    3    0  502 -0.97691760371E+03  0.27169925716E+03  0.10260294291E+04  0.14425411226E+04  0.10100000352E+00 0. -1.
</event>
<event>
 5   0  0.2133385E-06  0.3085468E+04  0.7818609E-02  0.8219737E-01
        2   -1    0    0  501    0  0.00000000000E+00  0.00000000000E+00  0.29049466397E+04  0.29049466397E+04  0.25500000920E-02 0.  1.
       -2   -1    0    0    0  501  0.00000000000E+00  0.00000000000E+00 -0.81930206535E+03  0.81930206535E+03  0.25500000920E-02 0. -1.
    10030    2    1    2    0    0  0.00000000000E+00  0.00000000000E+00  0.20856445743E+04  0.37242487050E+04  0.30854683804E+04 0.  0.
        2    1    3    3  502    0  0.42121870247E+03 -0.84643357630E+03 -0.42864106968E+03  0.10380790726E+04  0.25500000920E-02 0. -1.
       -2    1    3    3    0  502 -0.42121870247E+03  0.84643357630E+03  0.25142856440E+04  0.26861696324E+04  0.25500000920E-02 0.  1.
</event>
<event>
 5   0  0.7561815E-07  0.3025648E+04  0.7818609E-02  0.8236445E-01
        1   -1    0    0  501    0  0.00000000000E+00  0.00000000000E+00  0.97961328215E+03  0.97961328217E+03  0.50400001928E-02 0. -1.
       -1   -1    0    0    0  501  0.00000000000E+00  0.00000000000E+00 -0.23362654163E+04  0.23362654163E+04  0.50400001928E-02 0.  1.
    10030    2    1    2    0    0  0.00000000000E+00  0.00000000000E+00 -0.13566521341E+04  0.33158786985E+04  0.30256481173E+04 0.  0.
        3    1    3    3  502    0  0.10827549574E+04 -0.47296496259E+03  0.35706495022E+03  0.12343214907E+04  0.10100000352E+00 0. -1.
       -3    1    3    3    0  502 -0.10827549574E+04  0.47296496259E+03 -0.17137170844E+04  0.20815572077E+04  0.10100000352E+00 0.  1.
</event>
<event>
 5   0  0.7726743E-07  0.3052888E+04  0.7818609E-02  0.8228788E-01
       -1   -1    0    0    0  501  0.00000000000E+00  0.00000000000E+00  0.12430225408E+04  0.12430225408E+04  0.50400001928E-02 0. -1.
        1   -1    0    0  501    0  0.00000000000E+00  0.00000000000E+00 -0.18744881749E+04  0.18744881749E+04  0.50400001928E-02 0.  1.
    10030    2    1    2    0    0  0.00000000000E+00  0.00000000000E+00 -0.63146563408E+03  0.31175107157E+04  0.30528878485E+04 0.  0.
        1    1    3    3  502    0  0.33264080427E+03 -0.57064936093E+03 -0.17209949163E+04  0.18433974340E+04  0.50400001928E-02 0.  1.
       -1    1    3    3    0  502 -0.33264080427E+03  0.57064936093E+03  0.10895292822E+04  0.12741132817E+04  0.50400001928E-02 0. -1.
</event>
<event>
 5   0  0.2133385E-06  0.3142508E+04  0.7818609E-02  0.8204168E-01
        2   -1    0    0  501    0  0.00000000000E+00  0.00000000000E+00  0.21740322684E+04  0.21740322684E+04  0.25500000920E-02 0.  1.
       -2   -1    0    0    0  501  0.00000000000E+00  0.00000000000E+00 -0.11356034177E+04  0.11356034177E+04  0.25500000920E-02 0. -1.
    10030    2    1    2    0    0  0.00000000000E+00  0.00000000000E+00  0.10384288507E+04  0.33096356861E+04  0.31425075811E+04 0.  0.
        2    1    3    3  502    0  0.13364812592E+04  0.63296001852E+03  0.10785110768E+04  0.18303023477E+04  0.25500000920E-02 0.  1.
       -2    1    3    3    0  502 -0.13364812592E+04 -0.63296001852E+03 -0.40082226152E+02  0.14793333384E+04  0.25500000920E-02 0. -1.
</event>
<event>
 5   0  0.2226334E-06  0.3086328E+04  0.7818609E-02  0.8219500E-01
       -2   -1    0    0    0  501  0.00000000000E+00  0.00000000000E+00  0.13525552355E+04  0.13525552355E+04  0.25500000920E-02 0. -1.
        2   -1    0    0  501    0  0.00000000000E+00  0.00000000000E+00 -0.17606339768E+04  0.17606339768E+04  0.25500000920E-02 0.  1.
    10030    2    1    2    0    0  0.00000000000E+00  0.00000000000E+00 -0.40807874127E+03  0.31131892124E+04  0.30863277229E+04 0.  0.
        5    1    3    3  502    0  0.51912496711E+03  0.36205087996E+03 -0.16236835947E+04  0.17426824372E+04  0.46999998093E+01 0.  1.
       -5    1    3    3    0  502 -0.51912496711E+03 -0.36205087996E+03  0.12156048534E+04  0.13705067752E+04  0.46999998093E+01 0. -1.
</event>
<event>
 5   0  0.2226334E-06  0.3091423E+04  0.7818609E-02  0.8218096E-01
       -2   -1    0    0    0  501  0.00000000000E+00  0.00000000000E+00  0.14661746653E+04  0.14661746653E+04  0.25500000920E-02 0. -1.
        2   -1    0    0  501    0  0.00000000000E+00  0.00000000000E+00 -0.16295626478E+04  0.16295626478E+04  0.25500000920E-02 0.  1.
    10030    2    1    2    0    0  0.00000000000E+00  0.00000000000E+00 -0.16338798246E+03  0.30957373131E+04  0.30914226303E+04 0.  0.
        5    1    3    3  502    0  0.42323605321E+03  0.42352759434E+03  0.13453201722E+04  0.14725531690E+04  0.46999998093E+01 0. -1.
       -5    1    3    3    0  502 -0.42323605321E+03 -0.42352759434E+03 -0.15087081546E+04  0.16231841441E+04  0.46999998093E+01 0.  1.
</event>
<event>
 5   0  0.7519202E-07  0.3101704E+04  0.7818609E-02  0.8215270E-01
       -1   -1    0    0    0  501  0.00000000000E+00  0.00000000000E+00  0.14252690782E+04  0.14252690782E+04  0.50400001928E-02 0.  1.
        1   -1    0    0  501    0  0.00000000000E+00  0.00000000000E+00 -0.16875004072E+04  0.16875004072E+04  0.50400001928E-02 0. -1.
    10030    2    1    2    0    0  0.00000000000E+00  0.00000000000E+00 -0.26223132900E+03  0.31127694854E+04  0.31017041444E+04 0.  0.
        4    1    3    3  502    0  0.15061175166E+04 -0.18805907758E+03  0.18842934775E+03  0.15294650772E+04  0.12699999809E+01 0.  1.
       -4    1    3    3    0  502 -0.15061175166E+04  0.18805907758E+03 -0.45066067675E+03  0.15833044082E+04  0.12699999809E+01 0. -1.
</event>
<event>
 5   0  0.7413481E-07  0.3127472E+04  0.7818609E-02  0.8208239E-01
       -1   -1    0    0    0  501  0.00000000000E+00  0.00000000000E+00  0.13584380780E+04  0.13584380780E+04  0.50400001928E-02 0. -1.
        1   -1    0    0  501    0  0.00000000000E+00  0.00000000000E+00 -0.18000599034E+04  0.18000599034E+04  0.50400001928E-02 0.  1.
    10030    2    1    2    0    0  0.00000000000E+00  0.00000000000E+00 -0.44162182542E+03  0.31584979815E+04  0.31274717684E+04 0.  0.
        5    1    3    3  502    0  0.31373192816E+03  0.12064260373E+04  0.73267192328E+03  0.14459328281E+04  0.46999998093E+01 0. -1.
       -5    1    3    3    0  502 -0.31373192816E+03 -0.12064260373E+04 -0.11742937487E+04  0.17125651534E+04  0.46999998093E+01 0.  1.
</event>
<event>
 5   0  0.2067926E-06  0.3100953E+04  0.7818609E-02  0.8215476E-01
       -2   -1    0    0    0  501  0.00000000000E+00  0.00000000000E+00  0.14636037545E+04  0.14636037545E+04  0.25500000920E-02 0. -1.
        2   -1    0    0  501    0  0.00000000000E+00  0.00000000000E+00 -0.16425054956E+04  0.16425054956E+04  0.25500000920E-02 0.  1.
    10030    2    1    2    0    0  0.00000000000E+00  0.00000000000E+00 -0.17890174106E+03  0.31061092502E+04  0.31009528924E+04 0.  0.
        1    1    3    3  502    0  0.87903875618E+03  0.11712236578E+04  0.42081078382E+03  0.15236652215E+04  0.50400001928E-02 0. -1.
       -1    1    3    3    0  502 -0.87903875618E+03 -0.11712236578E+04 -0.59971252487E+03  0.15824440287E+04  0.50400001928E-02 0.  1.
</event>
<event>
 5   0  0.2094135E-06  0.3092932E+04  0.7818609E-02  0.8217680E-01
        2   -1    0    0  501    0  0.00000000000E+00  0.00000000000E+00  0.22720353000E+04  0.22720353000E+04  0.25500000920E-02 0.  1.
       -2   -1    0    0    0  501  0.00000000000E+00  0.00000000000E+00 -0.10526053226E+04  0.10526053226E+04  0.25500000920E-02 0. -1.
    10030    2    1    2    0    0  0.00000000000E+00  0.00000000000E+00  0.12194299774E+04  0.33246406226E+04  0.30929315866E+04 0.  0.
        4    1    3    3  502    0  0.27687631802E+03 -0.60671363073E+03 -0.89008819578E+03  0.11122142484E+04  0.12699999809E+01 0. -1.
       -4    1    3    3    0  502 -0.27687631802E+03  0.60671363073E+03  0.21095181732E+04  0.22124263742E+04  0.12699999809E+01 0.  1.
</event>
<event>
 5   0  0.2133385E-06  0.2947221E+04  0.7818609E-02  0.8258965E-01
       -2   -1    0    0    0  501  0.00000000000E+00  0.00000000000E+00  0.22435178551E+04  0.22435178551E+04  0.25500000920E-02 0. -1.
        2   -1    0    0  501    0  0.00000000000E+00  0.00000000000E+00 -0.96791184258E+03  0.96791184258E+03  0.25500000920E-02 0.  1.
    10030    2    1    2    0    0  0.00000000000E+00  0.00000000000E+00  0.12756060126E+04  0.32114296977E+04  0.29472207254E+04 0.  0.
        2    1    3    3  502    0  0.58564716213E+03 -0.12512714425E+04  0.11964685341E+04  0.18276213433E+04  0.25500000920E-02 0. -1.
       -2    1    3    3    0  502 -0.58564716213E+03  0.12512714425E+04  0.79137478486E+02  0.13838083545E+04  0.25500000920E-02 0.  1.
</event>
<event>
 5   0  0.2133385E-06  0.3074920E+04  0.7818609E-02  0.8222655E-01
        2   -1    0    0  501    0  0.00000000000E+00  0.00000000000E+00  0.29859864300E+04  0.29859864300E+04  0.25500000920E-02 0. -1.
       -2   -1    0    0    0  501  0.00000000000E+00  0.00000000000E+00 -0.79162575149E+03  0.79162575149E+03  0.25500000920E-02 0.  1.
    10030    2    1    2    0    0  0.00000000000E+00  0.00000000000E+00  0.21943606785E+04  0.37776121815E+04  0.30749203252E+04 0.  0.
        2    1    3    3  502    0  0.72843946466E+03  0.19726257431E+03 -0.54842102424E+03  0.93289988569E+03  0.25500000920E-02 0.  1.
       -2    1    3    3    0  502 -0.72843946466E+03 -0.19726257431E+03  0.27427817028E+04  0.28447122958E+04  0.25500000920E-02 0. -1.
</event>
<event>
 5   0  0.7656332E-07  0.3097221E+04  0.7818609E-02  0.8216501E-01
        1   -1    0    0  501    0  0.00000000000E+00  0.00000000000E+00  0.11122677750E+04  0.11122677750E+04  0.50400001928E-02 0.  1.
       -1   -1    0    0    0  501  0.00000000000E+00  0.00000000000E+00 -0.21561307810E+04  0.21561307810E+04  0.50400001928E-02 0. -1.
    10030    2    1    2    0    0  0.00000000000E+00  0.00000000000E+00 -0.10438630060E+04  0.32683985560E+04  0.30972211974E+04 0.  0.
        2    1    3    3  502    0 -0.86725631956E+03 -0.46333745916E+03 -0.17844571468E+04  0.20374254425E+04  0.25500000920E-02 0. -1.
       -2    1    3    3    0  502  0.86725631956E+03  0.46333745916E+03  0.74059414076E+03  0.12309731135E+04  0.25500000920E-02 0.  1.
</event>
<event>
 5   0  0.7561815E-07  0.3085871E+04  0.7818609E-02  0.8219626E-01
       -1   -1    0    0    0  501  0.00000000000E+00  0.00000000000E+00  0.12589930537E+04  0.12589930538E+04  0.50400001928E-02 0. -1.
        1   -1    0    0  501    0  0.00000000000E+00  0.00000000000E+00 -0.18909162143E+04  0.18909162143E+04  0.50400001928E-02 0.  1.
    10030    2    1    2    0    0  0.00000000000E+00  0.00000000000E+00 -0.63192316059E+03  0.31499092681E+04  0.30858712735E+04 0.  0.
        3    1    3    3  502    0  0.26638951225E+03 -0.10012079345E+04  0.85112434347E+03  0.13408181676E+04  0.10100000352E+00 0. -1.
       -3    1    3    3    0  502 -0.26638951225E+03  0.10012079345E+04 -0.14830475041E+04  0.18090911005E+04  0.10100000352E+00 0.  1.
</event>
<event>
 5   0  0.2226334E-06  0.2965133E+04  0.7818609E-02  0.8253758E-01
        2   -1    0    0  501    0  0.00000000000E+00  0.00000000000E+00  0.11718766242E+04  0.11718766242E+04  0.25500000920E-02 0.  1.
       -2   -1    0    0    0  501  0.00000000000E+00  0.00000000000E+00 -0.18756272774E+04  0.18756272774E+04  0.25500000920E-02 0. -1.
    10030    2    1    2    0    0  0.00000000000E+00  0.00000000000E+00 -0.70375065323E+03  0.30475039016E+04  0.29651332260E+04 0.  0.
        5    1    3    3  502    0  0.13848300711E+04  0.37159324194E+03 -0.73937120559E+03  0.16132351760E+04  0.46999998093E+01 0. -1.
       -5    1    3    3    0  502 -0.13848300711E+04 -0.37159324194E+03  0.35620552358E+02  0.14342687256E+04  0.46999998093E+01 0.  1.
</event>
<event>
 5   0  0.2067926E-06  0.3099143E+04  0.7818609E-02  0.8215973E-01
        2   -1    0    0  501    0  0.00000000000E+00  0.00000000000E+00  0.23505617125E+04  0.23505617125E+04  0.25500000920E-02 0. -1.
       -2   -1    0    0    0  501  0.00000000000E+00  0.00000000000E+00 -0.10215312445E+04  0.10215312445E+04  0.25500000920E-02 0.  1.
    10030    2    1    2    0    0  0.00000000000E+00  0.00000000000E+00  0.13290304680E+04  0.33720929570E+04  0.30991432568E+04 0.  0.
        1    1    3    3  502    0  0.17398481902E+03  0.44812258588E+03 -0.93834821385E+03  0.10543158633E+04  0.50400001928E-02 0.  1.
       -1    1    3    3    0  502 -0.17398481902E+03 -0.44812258588E+03  0.22673786818E+04  0.23177770937E+04  0.50400001928E-02 0. -1.
</event>
<event>
 5   0  0.7519202E-07  0.3122245E+04  0.7818609E-02  0.8209659E-01
       -1   -1    0    0    0  501  0.00000000000E+00  0.00000000000E+00  0.13188320981E+04  0.13188320981E+04  0.50400001928E-02 0.  1.
        1   -1    0    0  501    0  0.00000000000E+00  0.00000000000E+00 -0.18479259465E+04  0.18479259465E+04  0.50400001928E-02 0. -1.
    10030    2    1    2    0    0  0.00000000000E+00  0.00000000000E+00 -0.52909384838E+03  0.31667580446E+04  0.31222453800E+04 0.  0.
        4    1    3    3  502    0  0.12846893304E+04  0.19299269437E+03 -0.11425848345E+04  0.17300793544E+04  0.12699999809E+01 0. -1.
       -4    1    3    3    0  502 -0.12846893304E+04 -0.19299269437E+03  0.61349098609E+03  0.14366786902E+04  0.12699999809E+01 0.  1.
</event>
<event>
 5   0  0.7561815E-07  0.3072269E+04  0.7818609E-02  0.8223390E-01
        1   -1    0    0  501    0  0.00000000000E+00  0.00000000000E+00  0.12336660136E+04  0.12336660136E+04  0.50400001928E-02 0.  1.
       -1   -1    0    0    0  501  0.00000000000E+00  0.00000000000E+00 -0.19127621569E+04  0.19127621569E+04  0.50400001928E-02 0. -1.
    10030    2    1    2    0    0  0.00000000000E+00  0.00000000000E+00 -0.67909614333E+03  0.31464281705E+04  0.30722693014E+04 0.  0.
        3    1    3    3  502    0 -0.42182213293E+03 -0.30854548855E+03  0.11398177622E+04  0.12539213578E+04  0.10100000352E+00 0.  1.
       -3    1    3    3    0  502  0.42182213293E+03  0.30854548855E+03 -0.18189139055E+04  0.18925068127E+04  0.10100000352E+00 0. -1.
</event>
<event>
 5   0  0.2226334E-06  0.3112872E+04  0.7818609E-02  0.8212214E-01
       -2   -1    0    0    0  501  0.00000000000E+00  0.00000000000E+00  0.15062838122E+04  0.15062838122E+04  0.25500000920E-02 0.  1.
        2   -1    0    0  501    0  0.00000000000E+00  0.00000000000E+00 -0.16082578113E+04  0.16082578113E+04  0.25500000920E-02 0. -1.
    10030    2    1    2    0    0  0.00000000000E+00  0.00000000000E+00 -0.10197399915E+03  0.31145416235E+04  0.31128717975E+04 0.  0.
        5    1    3    3  502    0  0.83896772234E+03  0.66472888539E+03 -0.11815220087E+04  0.15942859459E+04  0.46999998093E+01 0. -1.
       -5    1    3    3    0  502 -0.83896772234E+03 -0.66472888539E+03  0.10795480096E+04  0.15202556776E+04  0.46999998093E+01 0.  1.
</event>
<event>
 5   0  0.2226334E-06  0.3103427E+04  0.7818609E-02  0.8214798E-01
        2   -1    0    0  501    0  0.00000000000E+00  0.00000000000E+00  0.27764231302E+04  0.27764231302E+04  0.25500000920E-02 0.  1.
       -2   -1    0    0    0  501  0.00000000000E+00  0.00000000000E+00 -0.86723621937E+03  0.86723621938E+03  0.25500000920E-02 0. -1.
    10030    2    1    2    0    0  0.00000000000E+00  0.00000000000E+00  0.19091869109E+04  0.36436593496E+04  0.31034269438E+04 0.  0.
        5    1    3    3  502    0 -0.37987016939E+03 -0.63557238698E+03 -0.64643439695E+03  0.98293088477E+03  0.46999998093E+01 0. -1.
       -5    1    3    3    0  502  0.37987016939E+03  0.63557238698E+03  0.25556213078E+04  0.26607284648E+04  0.46999998093E+01 0.  1.
</event>
<event>
 5   0  0.2133385E-06  0.3090649E+04  0.7818609E-02  0.8218309E-01
        2   -1    0    0  501    0  0.00000000000E+00  0.00000000000E+00  0.19025966236E+04  0.19025966236E+04  0.25500000920E-02 0.  1.
       -2   -1    0    0    0  501  0.00000000000E+00  0.00000000000E+00 -0.12551413113E+04  0.12551413113E+04  0.25500000920E-02 0. -1.
    10030    2    1    2    0    0  0.00000000000E+00  0.00000000000E+00  0.64745531234E+03  0.31577379349E+04  0.30906488776E+04 0.  0.
        2    1    3    3  502    0  0.58728429759E+03 -0.14140608290E+04  0.53696051666E+03  0.16225897420E+04  0.25500000920E-02 0.  1.
       -2    1    3    3    0  502 -0.58728429759E+03  0.14140608290E+04  0.11049479568E+03  0.15351481929E+04  0.25500000920E-02 0. -1.
</event>
<event>
 5   0  0.2094135E-06  0.3102233E+04  0.7818609E-02  0.8215125E-01
       -2   -1    0    0    0  501  0.00000000000E+00  0.00000000000E+00  0.10388616948E+04  0.10388616948E+04  0.25500000920E-02 0. -1.
        2   -1    0    0  501    0  0.00000000000E+00  0.00000000000E+00 -0.23159602908E+04  0.23159602909E+04  0.25500000920E-02 0.  1.
    10030    2    1    2    0    0  0.00000000000E+00  0.00000000000E+00 -0.12770985961E+04  0.33548219856E+04  0.31022330234E+04 0.  0.
        4    1    3    3  502    0 -0.88923193741E+03  0.22038259696E+03  0.71502558788E+03  0.11621381724E+04  0.12699999809E+01 0. -1.
       -4    1    3    3    0  502  0.88923193741E+03 -0.22038259696E+03 -0.19921241840E+04  0.21926838132E+04  0.12699999809E+01 0.  1.
</event>
<event>
 5   0  0.7726743E-07  0.2999710E+04  0.7818609E-02  0.8243814E-01
        1   -1    0    0  501    0  0.00000000000E+00  0.00000000000E+00  0.18062012331E+04  0.18062012331E+04  0.50400001928E-02 0.  1.
       -1   -1    0    0    0  501  0.00000000000E+00  0.00000000000E+00 -0.12454672397E+04  0.12454672397E+04  0.50400001928E-02 0. -1.
    10030    2    1    2    0    0  0.00000000000E+00  0.00000000000E+00  0.56073399348E+03  0.30516684728E+04  0.29997096287E+04 0.  0.
        1    1    3    3  502    0 -0.10180959945E+04  0.87448659548E+03  0.96153042240E+03  0.16509957640E+04  0.50400001928E-02 0.  1.
       -1    1    3    3    0  502  0.10180959945E+04 -0.87448659548E+03 -0.40079642892E+03  0.14006727088E+04  0.50400001928E-02 0. -1.
</event>
<event>
 5   0  0.7726743E-07  0.3106859E+04  0.7818609E-02  0.8213858E-01
        1   -1    0    0  501    0  0.00000000000E+00  0.00000000000E+00  0.20168173623E+04  0.20168173623E+04  0.50400001928E-02 0.  1.
       -1   -1    0    0    0  501  0.00000000000E+00  0.00000000000E+00 -0.11965109019E+04  0.11965109019E+04  0.50400001928E-02 0. -1.
    10030    2    1    2    0    0  0.00000000000E+00  0.00000000000E+00  0.82030646047E+03  0.32133282642E+04  0.31068594826E+04 0.  0.
        1    1    3    3  502    0 -0.13248055024E+04  0.22998359182E+03  0.12147199996E+04  0.18120559454E+04  0.50400001928E-02 0.  1.
       -1    1    3    3    0  502  0.13248055024E+04 -0.22998359182E+03 -0.39441353918E+03  0.14012723188E+04  0.50400001928E-02 0. -1.
</event>
<event>
 5   0  0.7413481E-07  0.3170201E+04  0.7818609E-02  0.8196732E-01
       -1   -1    0    0    0  501  0.00000000000E+00  0.00000000000E+00  0.18582053819E+04  0.18582053819E+04  0.50400001928E-02 0. -1.
        1   -1    0    0  501    0  0.00000000000E+00  0.00000000000E+00 -0.13521345874E+04  0.13521345874E+04  0.50400001928E-02 0.  1.
    10030    2    1    2    0    0  0.00000000000E+00  0.00000000000E+00  0.50607079451E+03  0.32103399692E+04  0.31702011086E+04 0.  0.
        5    1    3    3  502    0  0.35806506605E+02  0.61194340394E+03 -0.12272401905E+04  0.13718226600E+04  0.46999998093E+01 0.  1.
       -5    1    3    3    0  502 -0.35806506605E+02 -0.61194340394E+03  0.17333109850E+04  0.18385173092E+04  0.46999998093E+01 0. -1.
</event>
<event>
 5   0  0.2067926E-06  0.3124214E+04  0.7818609E-02  0.8209124E-01
        2   -1    0    0  501    0  0.00000000000E+00  0.00000000000E+00  0.13434231955E+04  0.13434231955E+04  0.25500000920E-02 0.  1.
       -2   -1    0    0    0  501  0.00000000000E+00  0.00000000000E+00 -0.18163882762E+04  0.18163882762E+04  0.25500000920E-02 0. -1.
    10030    2    1    2    0    0  0.00000000000E+00  0.00000000000E+00 -0.47296508077E+03  0.31598114717E+04  0.31242139122E+04 0.  0.
        1    1    3    3  502    0 -0.73678371033E+03  0.13519067629E+04  0.30487205587E+02  0.15399453241E+04  0.50400001928E-02 0. -1.
       -1    1    3    3    0  502  0.73678371033E+03 -0.13519067629E+04 -0.50345228635E+03  0.16198661476E+04  0.50400001928E-02 0.  1.
</event>
<event>
 5   0  0.2094135E-06  0.3078138E+04  0.7818609E-02  0.8221763E-01
       -2   -1    0    0    0  501  0.00000000000E+00  0.00000000000E+00  0.12034943915E+04  0.12034943915E+04  0.25500000920E-02 0.  1.
        2   -1    0    0  501    0  0.00000000000E+00  0.00000000000E+00 -0.19682133989E+04  0.19682133989E+04  0.25500000920E-02 0. -1.
    10030    2    1    2    0    0  0.00000000000E+00  0.00000000000E+00 -0.76471900743E+03  0.31717077904E+04  0.30781382600E+04 0.  0.
        4    1    3    3  502    0 -0.40100188654E+03  0.14677571453E+04 -0.14376365909E+03  0.15283269131E+04  0.12699999809E+01 0. -1.
       -4    1    3    3    0  502  0.40100188654E+03 -0.14677571453E+04 -0.62095534834E+03  0.16433808774E+04  0.12699999809E+01 0.  1.
</event>
<event>
 5   0  0.7519202E-07  0.3105260E+04  0.7818609E-02  0.8214296E-01
        1   -1    0    0  501    0  0.00000000000E+00  0.00000000000E+00  0.15494075460E+04  0.15494075460E+04  0.50400001928E-02 0. -1.
       -1   -1    0    0    0  501  0.00000000000E+00  0.00000000000E+00 -0.15558589973E+04  0.15558589973E+04  0.50400001928E-02 0.  1.
    10030    2    1    2    0    0  0.00000000000E+00  0.00000000000E+00 -0.64514513385E+01  0.31052665433E+04  0.31052598415E+04 0.  0.
        4    1    3    3  502    0  0.11552842023E+04 -0.94967283754E+03  0.41402566491E+03  0.15517663969E+04  0.12699999809E+01 0. -1.
       -4    1    3    3    0  502 -0.11552842023E+04  0.94967283754E+03 -0.42047711624E+03  0.15535001463E+04  0.12699999809E+01 0.  1.
</event>
<event>
 5   0  0.7413481E-07  0.3057724E+04  0.7818609E-02  0.8227437E-01
        1   -1    0    0  501    0  0.00000000000E+00  0.00000000000E+00  0.16711875728E+04  0.16711875728E+04  0.50400001928E-02 0.  1.
       -1   -1    0    0    0  501  0.00000000000E+00  0.00000000000E+00 -0.13986571533E+04  0.13986571533E+04  0.50400001928E-02 0. -1.
    10030    2    1    2    0    0  0.00000000000E+00  0.00000000000E+00  0.27253041951E+03  0.30698447261E+04  0.30577236325E+04 0.  0.
        5    1    3    3  502    0 -0.49684897146E+02 -0.13985171111E+04  0.75439870465E+03  0.15897981616E+04  0.46999998093E+01 0. -1.
       -5    1    3    3    0  502  0.49684897146E+02  0.13985171111E+04 -0.48186828514E+03  0.14800465645E+04  0.46999998093E+01 0.  1.
</event>
<event>
 5   0  0.2067926E-06  0.3107544E+04  0.7818609E-02  0.8213670E-01
        2   -1    0    0  501    0  0.00000000000E+00  0.00000000000E+00  0.21135160773E+04  0.21135160773E+04  0.25500000920E-02 0.  1.
       -2   -1    0    0    0  501  0.00000000000E+00  0.00000000000E+00 -0.11422709528E+04  0.11422709528E+04  0.25500000920E-02 0. -1.
    10030    2    1    2    0    0  0.00000000000E+00  0.00000000000E+00  0.97124512452E+03  0.32557870300E+04  0.31075443831E+04 0.  0.
        1    1    3    3  502    0  0.18783982405E+03 -0.13692401924E+04 -0.25825142987E+03  0.14059858836E+04  0.50400001928E-02 0. -1.
       -1    1    3    3    0  502 -0.18783982405E+03  0.13692401924E+04  0.12294965544E+04  0.18498011464E+04  0.50400001928E-02 0.  1.
</event>
<event>
 5   0  0.7561815E-07  0.3072419E+04  0.7818609E-02  0.8223348E-01
       -1   -1    0    0    0  501  0.00000000000E+00  0.00000000000E+00  0.89547548373E+03  0.89547548374E+03  0.50400001928E-02 0. -1.
        1   -1    0    0  501    0  0.00000000000E+00  0.00000000000E+00 -0.26354032158E+04  0.26354032158E+04  0.50400001928E-02 0.  1.
    10030    2    1    2    0    0  0.00000000000E+00  0.00000000000E+00 -0.17399277321E+04  0.35308786996E+04  0.30724185715E+04 0.  0.
        3    1    3    3  502    0  0.13378920614E+03  0.10159089115E+04 -0.21852881590E+04  0.24135978986E+04  0.10100000352E+00 0.  1.
       -3    1    3    3    0  502 -0.13378920614E+03 -0.10159089115E+04  0.44536042690E+03  0.11172808010E+04  0.10100000352E+00 0. -1.
</event>
<event>
 5   0  0.2133385E-06  0.3067773E+04  0.7818609E-02  0.8224638E-01
       -2   -1    0    0    0  501  0.00000000000E+00  0.00000000000E+00  0.16128756679E+04  0.16128756679E+04  0.25500000920E-02 0.  1.
        2   -1    0    0  501    0  0.00000000000E+00  0.00000000000E+00 -0.14587654097E+04  0.14587654097E+04  0.25500000920E-02 0. -1.
    10030    2    1    2    0    0  0.00000000000E+00  0.00000000000E+00  0.15411025817E+03  0.30716410776E+04  0.30677726347E+04 0.  0.
        2    1    3    3  502    0  0.12706086301E+04  0.46304103993E+03 -0.64770426387E+03  0.14994579384E+04  0.25500000920E-02 0. -1.
       -2    1    3    3    0  502 -0.12706086301E+04 -0.46304103993E+03  0.80181452204E+03  0.15721831392E+04  0.25500000920E-02 0.  1.
</event>
<event>
 5   0  0.2133385E-06  0.3093918E+04  0.7818609E-02  0.8217409E-01
       -2   -1    0    0    0  501  0.00000000000E+00  0.00000000000E+00  0.12191179176E+04  0.12191179176E+04  0.25500000920E-02 0. -1.
        2   -1    0    0  501    0  0.00000000000E+00  0.00000000000E+00 -0.19629621239E+04  0.19629621239E+04  0.25500000920E-02 0.  1.
    10030    2    1    2    0    0  0.00000000000E+00  0.00000000000E+00 -0.74384420627E+03  0.31820800415E+04  0.30939180964E+04 0.  0.
        2    1    3    3  502    0  0.17569543330E+03  0.37326362632E+03  0.11614976239E+04  0.12325872588E+04  0.25500000920E-02 0. -1.
       -2    1    3    3    0  502 -0.17569543330E+03 -0.37326362632E+03 -0.19053418302E+04  0.19494927828E+04  0.25500000920E-02 0.  1.
</event>
<event>
 5   0  0.2094135E-06  0.3105393E+04  0.7818609E-02  0.8214259E-01
        2   -1    0    0  501    0  0.00000000000E+00  0.00000000000E+00  0.17536864541E+04  0.17536864541E+04  0.25500000920E-02 0.  1.
       -2   -1    0    0    0  501  0.00000000000E+00  0.00000000000E+00 -0.13747420790E+04  0.13747420790E+04  0.25500000920E-02 0. -1.
    10030    2    1    2    0    0  0.00000000000E+00  0.00000000000E+00  0.37894437510E+03  0.31284285332E+04  0.31053930907E+04 0.  0.
        4    1    3    3  502    0 -0.42562020998E+03  0.14684605592E+04  0.46228714812E+03  0.15972601533E+04  0.12699999809E+01 0.  1.
       -4    1    3    3    0  502  0.42562020998E+03 -0.14684605592E+04 -0.83342773021E+02  0.15311683799E+04  0.12699999809E+01 0. -1.
</event>
<event>
 5   0  0.2078009E-06  0.3106564E+04  0.7818609E-02  0.8213939E-01
       -2   -1    0    0    0  501  0.00000000000E+00  0.00000000000E+00  0.20681267290E+04  0.20681267290E+04  0.25500000920E-02 0. -1.
        2   -1    0    0  501    0  0.00000000000E+00  0.00000000000E+00 -0.11666041167E+04  0.11666041167E+04  0.25500000920E-02 0.  1.
    10030    2    1    2    0    0  0.00000000000E+00  0.00000000000E+00  0.90152261229E+03  0.32347308457E+04  0.31065641187E+04 0.  0.
        3    1    3    3  502    0  0.11707001719E+04 -0.26901448240E+03 -0.57464001193E+03  0.13315850847E+04  0.10100000352E+00 0.  1.
       -3    1    3    3    0  502 -0.11707001719E+04  0.26901448240E+03  0.14761626242E+04  0.19031457610E+04  0.10100000352E+00 0. -1.
</event>
<event>
 5   0  0.2067926E-06  0.3098485E+04  0.7818609E-02  0.8216154E-01
        2   -1    0    0  501    0  0.00000000000E+00  0.00000000000E+00  0.20525832787E+04  0.20525832787E+04  0.25500000920E-02 0.  1.
       -2   -1    0    0    0  501  0.00000000000E+00  0.00000000000E+00 -0.11693325715E+04  0.11693325715E+04  0.25500000920E-02 0. -1.
    10030    2    1    2    0    0  0.00000000000E+00  0.00000000000E+00  0.88325070720E+03  0.32219158502E+04  0.30984851031E+04 0.  0.
        1    1    3    3  502    0  0.84002895506E+03 -0.12449781066E+04  0.83694538274E+03  0.17193303071E+04  0.50400001928E-02 0.  1.
       -1    1    3    3    0  502 -0.84002895506E+03  0.12449781066E+04  0.46305324462E+02  0.15025855431E+04  0.50400001928E-02 0. -1.
</event>
<event>
 5   0  0.2226334E-06  0.3086375E+04  0.7818609E-02  0.8219487E-01
        2   -1    0    0  501    0  0.00000000000E+00  0.00000000000E+00  0.16985552414E+04  0.16985552414E+04  0.25500000920E-02 0.  1.
       -2   -1    0    0    0  501  0.00000000000E+00  0.00000000000E+00 -0.14020311190E+04  0.14020311190E+04  0.25500000920E-02 0. -1.
    10030    2    1    2    0    0  0.00000000000E+00  0.00000000000E+00  0.29652412239E+03  0.31005863605E+04  0.30863747704E+04 0.  0.
        5    1    3    3  502    0  0.71871475637E+03  0.13470815895E+04  0.37340448238E+03  0.15718246427E+04  0.46999998093E+01 0.  1.
       -5    1    3    3    0  502 -0.71871475637E+03 -0.13470815895E+04 -0.76880359991E+02  0.15287617178E+04  0.46999998093E+01 0. -1.
</event>
<event>
 5   0  0.7519202E-07  0.3096763E+04  0.7818609E-02  0.8216627E-01
       -1   -1    0    0    0  501  0.00000000000E+00  0.00000000000E+00  0.12197404845E+04  0.12197404845E+04  0.50400001928E-02 0. -1.
        1   -1    0    0  501    0  0.00000000000E+00  0.00000000000E+00 -0.19655703718E+04  0.19655703718E+04  0.50400001928E-02 0.  1.
    10030    2    1    2    0    0  0.00000000000E+00  0.00000000000E+00 -0.74582988728E+03  0.31853108563E+04  0.30967633152E+04 0.  0.
        4    1    3    3  502    0 -0.12576785106E+04  0.42601469061E+03 -0.11920787525E+04  0.17844598952E+04  0.12699999809E+01 0.  1.
       -4    1    3    3    0  502  0.12576785106E+04 -0.42601469061E+03  0.44624886519E+03  0.14008509611E+04  0.12699999809E+01 0. -1.
</event>
<event>
 5   0  0.7413481E-07  0.3092877E+04  0.7818609E-02  0.8217695E-01
       -1   -1    0    0    0  501  0.00000000000E+00  0.00000000000E+00  0.12708404073E+04  0.12708404074E+04  0.50400001928E-02 0.  1.
        1   -1    0    0  501    0  0.00000000000E+00  0.00000000000E+00 -0.18818041065E+04  0.18818041065E+04  0.50400001928E-02 0. -1.
    10030    2    1    2    0    0  0.00000000000E+00  0.00000000000E+00 -0.61096369916E+03  0.31526445139E+04  0.30928774287E+04 0.  0.
        5    1    3    3  502    0  0.55090562640E+03 -0.12609027809E+04  0.41390231854E+03  0.14369098968E+04  0.46999998093E+01 0.  1.
       -5    1    3    3    0  502 -0.55090562640E+03  0.12609027809E+04 -0.10248660177E+04  0.17157346171E+04  0.46999998093E+01 0. -1.
</event>
<event>
 5   0  0.2094135E-06  0.2964746E+04  0.7818609E-02  0.8253870E-01
        2   -1    0    0  501    0  0.00000000000E+00  0.00000000000E+00  0.15812766791E+04  0.15812766791E+04  0.25500000920E-02 0. -1.
       -2   -1    0    0    0  501  0.00000000000E+00  0.00000000000E+00 -0.13896554532E+04  0.13896554532E+04  0.25500000920E-02 0.  1.
    10030    2    1    2    0    0  0.00000000000E+00  0.00000000000E+00  0.19162122585E+03  0.29709321323E+04  0.29647460330E+04 0.  0.
        4    1    3    3  502    0 -0.74286454133E+03 -0.12762060166E+04 -0.34378224901E+02  0.14770690568E+04  0.12699999809E+01 0. -1.
       -4    1    3    3    0  502  0.74286454133E+03  0.12762060166E+04  0.22599945075E+03  0.14938630754E+04  0.12699999809E+01 0.  1.
</event>
<event>
 5   0  0.2133385E-06  0.3108697E+04  0.7818609E-02  0.8213355E-01
       -2   -1    0    0    0  501  0.00000000000E+00  0.00000000000E+00  0.17448227671E+04  0.17448227671E+04  0.25500000920E-02 0.  1.
        2   -1    0    0  501    0  0.00000000000E+00  0.00000000000E+00 -0.13846675993E+04  0.13846675993E+04  0.25500000920E-02 0. -1.
    10030    2    1    2    0    0  0.00000000000E+00  0.00000000000E+00  0.36015516782E+03  0.31294903664E+04  0.31086971883E+04 0.  0.
        2    1    3    3  502    0 -0.10076298817E+04  0.99152359498E+03  0.83059055540E+03  0.16396090048E+04  0.25500000920E-02 0.  1.
       -2    1    3    3    0  502  0.10076298817E+04 -0.99152359498E+03 -0.47043538758E+03  0.14898813616E+04  0.25500000920E-02 0. -1.
</event>
<event>
 5   0  0.7413481E-07  0.3097288E+04  0.7818609E-02  0.8216483E-01
        1   -1    0    0  501    0  0.00000000000E+00  0.00000000000E+00  0.23463081657E+04  0.23463081658E+04  0.50400001928E-02 0.  1.
       -1   -1    0    0    0  501  0.00000000000E+00  0.00000000000E+00 -0.10221581512E+04  0.10221581512E+04  0.50400001928E-02 0. -1.
    10030    2    1    2    0    0  0.00000000000E+00  0.00000000000E+00  0.13241500146E+04  0.33684663170E+04  0.30972878567E+04 0.  0.
        5    1    3    3  502    0  0.67726853985E+03  0.12171974836E+04  0.13980953138E+04  0.19735640313E+04  0.46999998093E+01 0.  1.
       -5    1    3    3    0  502 -0.67726853985E+03 -0.12171974836E+04 -0.73945299245E+02  0.13949022856E+04  0.46999998093E+01 0. -1.
</event>
<event>
 5   0  0.7656332E-07  0.3091706E+04  0.7818609E-02  0.8218018E-01
       -1   -1    0    0    0  501  0.00000000000E+00  0.00000000000E+00  0.13374950512E+04  0.13374950512E+04  0.50400001928E-02 0.  1.
        1   -1    0    0  501    0  0.00000000000E+00  0.00000000000E+00 -0.17866692342E+04  0.17866692342E+04  0.50400001928E-02 0. -1.
    10030    2    1    2    0    0  0.00000000000E+00  0.00000000000E+00 -0.44917418305E+03  0.31241642854E+04  0.30917058456E+04 0.  0.
        2    1    3    3  502    0 -0.65986965447E+03  0.74462201433E+03  0.97095328234E+03  0.13901942964E+04  0.25500000920E-02 0.  1.
       -2    1    3    3    0  502  0.65986965447E+03 -0.74462201433E+03 -0.14201274654E+04  0.17339699891E+04  0.25500000920E-02 0. -1.
</event>
<event>
 5   0  0.2226334E-06  0.3271167E+04  0.7818609E-02  0.8170271E-01
        2   -1    0    0  501    0  0.00000000000E+00  0.00000000000E+00  0.17045516913E+04  0.17045516913E+04  0.25500000920E-02 0. -1.
       -2   -1    0    0    0  501  0.00000000000E+00  0.00000000000E+00 -0.15694059272E+04  0.15694059272E+04  0.25500000920E-02 0.  1.
    10030    2    1    2    0    0  0.00000000000E+00  0.00000000000E+00  0.13514576415E+03  0.32739576185E+04  0.32711670868E+04 0.  0.
        5    1    3    3  502    0 -0.23923388418E+03  0.54104293455E+03  0.15937183045E+04  0.16999765977E+04  0.46999998093E+01 0. -1.
       -5    1    3    3    0  502  0.23923388418E+03 -0.54104293455E+03 -0.14585725404E+04  0.15739810208E+04  0.46999998093E+01 0.  1.
</event>
<event>
 5   0  0.7656332E-07  0.3126931E+04  0.7818609E-02  0.8208385E-01
       -1   -1    0    0    0  501  0.00000000000E+00  0.00000000000E+00  0.15774845048E+04  0.15774845048E+04  0.50400001928E-02 0.  1.
        1   -1    0    0  501    0  0.00000000000E+00  0.00000000000E+00 -0.15495714425E+04  0.15495714425E+04  0.50400001928E-02 0. -1.
    10030    2    1    2    0    0  0.00000000000E+00  0.00000000000E+00  0.27913062332E+02  0.31270559473E+04  0.31269313646E+04 0.  0.
        2    1    3    3  502    0 -0.16276451983E+03  0.12276844797E+04  0.96831287983E+03  0.15720468517E+04  0.25500000920E-02 0.  1.
       -2    1    3    3    0  502  0.16276451983E+03 -0.12276844797E+04 -0.94039981750E+03  0.15550090956E+04  0.25500000920E-02 0. -1.
</event>
<event>
 5   0  0.7561815E-07  0.3107954E+04  0.7818609E-02  0.8213558E-01
        1   -1    0    0  501    0  0.00000000000E+00  0.00000000000E+00  0.18101842824E+04  0.18101842824E+04  0.50400001928E-02 0.  1.
       -1   -1    0    0    0  501  0.00000000000E+00  0.00000000000E+00 -0.13340321453E+04  0.13340321453E+04  0.50400001928E-02 0. -1.
    10030    2    1    2    0    0  0.00000000000E+00  0.00000000000E+00  0.47615213708E+03  0.31442164277E+04  0.31079536815E+04 0.  0.
        3    1    3    3  502    0 -0.11306576449E+04  0.10472957588E+04  0.43946883893E+03  0.16026066227E+04  0.10100000352E+00 0. -1.
       -3    1    3    3    0  502  0.11306576449E+04 -0.10472957588E+04  0.36683298146E+02  0.15416098050E+04  0.10100000352E+00 0.  1.
</event>
<event>
 5   0  0.7726743E-07  0.3111539E+04  0.7818609E-02  0.8212578E-01
        1   -1    0    0  501    0  0.00000000000E+00  0.00000000000E+00  0.15244913437E+04  0.15244913437E+04  0.50400001928E-02 0.  1.
       -1   -1    0    0    0  501  0.00000000000E+00  0.00000000000E+00 -0.15876896272E+04  0.15876896272E+04  0.50400001928E-02 0. -1.
    10030    2    1    2    0    0  0.00000000000E+00  0.00000000000E+00 -0.63198283498E+02  0.31121809709E+04  0.31115392288E+04 0.  0.
        1    1    3    3  502    0 -0.54434696815E+03  0.14431306359E+04 -0.23530616396E+03  0.15602271132E+04  0.50400001928E-02 0. -1.
       -1    1    3    3    0  502  0.54434696815E+03 -0.14431306359E+04  0.17210788046E+03  0.15519538577E+04  0.50400001928E-02 0.  1.
</event>
<event>
 5   0  0.2067926E-06  0.3094544E+04  0.7818609E-02  0.8217237E-01
       -2   -1    0    0    0  501  0.00000000000E+00  0.00000000000E+00  0.10895758725E+04  0.10895758725E+04  0.25500000920E-02 0. -1.
        2   -1    0    0  501    0  0.00000000000E+00  0.00000000000E+00 -0.21972322548E+04  0.21972322548E+04  0.25500000920E-02 0.  1.
    10030    2    1    2    0    0  0.00000000000E+00  0.00000000000E+00 -0.11076563823E+04  0.32868081274E+04  0.30945443938E+04 0.  0.
        1    1    3    3  502    0 -0.90543512528E+03  0.32695346170E+03  0.73277019161E+03  0.12098196088E+04  0.50400001928E-02 0. -1.
       -1    1    3    3    0  502  0.90543512528E+03 -0.32695346170E+03 -0.18404265739E+04  0.20769885185E+04  0.50400001928E-02 0.  1.
</event>
<event>
 5   0  0.2078009E-06  0.2796257E+04  0.7818609E-02  0.8304431E-01
        2   -1    0    0  501    0  0.00000000000E+00  0.00000000000E+00  0.14596293288E+04  0.14596293288E+04  0.25500000920E-02 0. -1.
       -2   -1    0    0    0  501  0.00000000000E+00  0.00000000000E+00 -0.13392190949E+04  0.13392190949E+04  0.25500000920E-02 0.  1.
    10030    2    1    2    0    0  0.00000000000E+00  0.00000000000E+00  0.12041023392E+03  0.27988484237E+04  0.27962571188E+04 0.  0.
        3    1    3    3  502    0 -0.11545026260E+04 -0.51075973368E+03  0.66160436202E+03  0.14252972185E+04  0.10100000352E+00 0. -1.
       -3    1    3    3    0  502  0.11545026260E+04  0.51075973368E+03 -0.54119412810E+03  0.13735512052E+04  0.10100000352E+00 0.  1.
</event>
<event>
 5   0  0.2226334E-06  0.3100492E+04  0.7818609E-02  0.8215603E-01
        2   -1    0    0  501    0  0.00000000000E+00  0.00000000000E+00  0.17976864732E+04  0.17976864732E+04  0.25500000920E-02 0. -1.
       -2   -1    0    0    0  501  0.00000000000E+00  0.00000000000E+00 -0.13368643926E+04  0.13368643926E+04  0.25500000920E-02 0.  1.
    10030    2    1    2    0    0  0.00000000000E+00  0.00000000000E+00  0.46082208065E+03  0.31345508658E+04  0.31004922416E+04 0.  0.
        5    1    3    3  502    0 -0.80709379465E+03 -0.69309335142E+03  0.13703888359E+04  0.17348678448E+04  0.46999998093E+01 0. -1.
       -5    1    3    3    0  502  0.80709379465E+03  0.69309335142E+03 -0.90956675529E+03  0.13996830211E+04  0.46999998093E+01 0.  1.
</event>
<event>
 5   0  0.2094135E-06  0.3117209E+04  0.7818609E-02  0.8211031E-01
       -2   -1    0    0    0  501  0.00000000000E+00  0.00000000000E+00  0.30696789434E+04  0.30696789434E+04  0.25500000920E-02 0. -1.
        2   -1    0    0  501    0  0.00000000000E+00  0.00000000000E+00 -0.79136876285E+03  0.79136876285E+03  0.25500000920E-02 0.  1.
    10030    2    1    2    0    0  0.00000000000E+00  0.00000000000E+00  0.22783101805E+04  0.38610477062E+04  0.31172090259E+04 0.  0.
        4    1    3    3  502    0 -0.10138796507E+04 -0.11701397541E+04  0.13609600657E+04  0.20614055650E+04  0.12699999809E+01 0. -1.
       -4    1    3    3    0  502  0.10138796507E+04  0.11701397541E+04  0.91735011484E+03  0.17996421412E+04  0.12699999809E+01 0.  1.
</event>
<event>
 5   0  0.2067926E-06  0.3078097E+04  0.7818609E-02  0.8221775E-01
       -2   -1    0    0    0  501  0.00000000000E+00  0.00000000000E+00  0.14054051372E+04  0.14054051372E+04  0.25500000920E-02 0.  1.
        2   -1    0    0  501    0  0.00000000000E+00  0.00000000000E+00 -0.16854003693E+04  0.16854003693E+04  0.25500000920E-02 0. -1.
    10030    2    1    2    0    0  0.00000000000E+00  0.00000000000E+00 -0.27999523202E+03  0.30908055065E+04  0.30780970337E+04 0.  0.
        1    1    3    3  502    0 -0.10211730149E+04 -0.89446145902E+02 -0.12927248300E+04  0.16498279987E+04  0.50400001928E-02 0. -1.
       -1    1    3    3    0  502  0.10211730149E+04  0.89446145902E+02  0.10127295980E+04  0.14409775078E+04  0.50400001928E-02 0.  1.
</event>
<event>
 5   0  0.7656332E-07  0.3101142E+04  0.7818609E-02  0.8215425E-01
        1   -1    0    0  501    0  0.00000000000E+00  0.00000000000E+00  0.27066394723E+04  0.27066394723E+04  0.50400001928E-02 0.  1.
       -1   -1    0    0    0  501  0.00000000000E+00  0.00000000000E+00 -0.88828604177E+03  0.88828604178E+03  0.50400001928E-02 0. -1.
    10030    2    1    2    0    0  0.00000000000E+00  0.00000000000E+00  0.18183534306E+04  0.35949255141E+04  0.31011417661E+04 0.  0.
        2    1    3    3  502    0  0.29986088202E+03  0.53675957748E+03  0.25592909271E+04  0.26321089343E+04  0.25500000920E-02 0.  1.
       -2    1    3    3    0  502 -0.29986088202E+03 -0.53675957748E+03 -0.74093749653E+03  0.96281657981E+03  0.25500000920E-02 0. -1.
</event>
<event>
 5   0  0.7561815E-07  0.3104589E+04  0.7818609E-02  0.8214480E-01
       -1   -1    0    0    0  501  0.00000000000E+00  0.00000000000E+00  0.15124492478E+04  0.15124492479E+04  0.50400001928E-02 0.  1.
        1   -1    0    0  501    0  0.00000000000E+00  0.00000000000E+00 -0.15931889748E+04  0.15931889748E+04  0.50400001928E-02 0. -1.
    10030    2    1    2    0    0  0.00000000000E+00  0.00000000000E+00 -0.80739726917E+02  0.31056382226E+04  0.31045885180E+04 0.  0.
        3    1    3    3  502    0 -0.56163579379E+03  0.10789087810E+04 -0.10051328528E+04  0.15779008158E+04  0.10100000352E+00 0. -1.
       -3    1    3    3    0  502  0.56163579379E+03 -0.10789087810E+04  0.92439312589E+03  0.15277374068E+04  0.10100000352E+00 0.  1.
</event>
<event>
 5   0  0.2078009E-06  0.2964330E+04  0.7818609E-02  0.8253991E-01
        2   -1    0    0  501    0  0.00000000000E+00  0.00000000000E+00  0.16938778434E+04  0.16938778434E+04  0.25500000920E-02 0. -1.
       -2   -1    0    0    0  501  0.00000000000E+00  0.00000000000E+00 -0.12969138205E+04  0.12969138205E+04  0.25500000920E-02 0.  1.
    10030    2    1    2    0    0  0.00000000000E+00  0.00000000000E+00  0.39696402294E+03  0.29907916639E+04  0.29643303361E+04 0.  0.
        3    1    3    3  502    0 -0.24956951746E+03 -0.48095967144E+02 -0.12747634158E+04  0.12998538159E+04  0.10100000352E+00 0.  1.
       -3    1    3    3    0  502  0.24956951746E+03  0.48095967144E+02  0.16717274388E+04  0.16909378480E+04  0.10100000352E+00 0. -1.
</event>
<event>
 5   0  0.2078009E-06  0.3101787E+04  0.7818609E-02  0.8215248E-01
       -2   -1    0    0    0  501  0.00000000000E+00  0.00000000000E+00  0.10848967820E+04  0.10848967820E+04  0.25500000920E-02 0. -1.
        2   -1    0    0  501    0  0.00000000000E+00  0.00000000000E+00 -0.22170507109E+04  0.22170507109E+04  0.25500000920E-02 0.  1.
    10030    2    1    2    0    0  0.00000000000E+00  0.00000000000E+00 -0.11321539289E+04  0.33019474929E+04  0.31017873440E+04 0.  0.
        3    1    3    3  502    0 -0.19852902632E+02 -0.61350202162E+03  0.95008230478E+03  0.11311212421E+04  0.10100000352E+00 0. -1.
       -3    1    3    3    0  502  0.19852902632E+02  0.61350202162E+03 -0.20822362337E+04  0.21708262508E+04  0.10100000352E+00 0.  1.
</event>
<event>
 5   0  0.7656332E-07  0.3067098E+04  0.7818609E-02  0.8224826E-01
       -1   -1    0    0    0  501  0.00000000000E+00  0.00000000000E+00  0.21209499829E+04  0.21209499829E+04  0.50400001928E-02 0. -1.
        1   -1    0    0  501    0  0.00000000000E+00  0.00000000000E+00 -0.11088301127E+04  0.11088301127E+04  0.50400001928E-02 0.  1.
    10030    2    1    2    0    0  0.00000000000E+00  0.00000000000E+00  0.10121198702E+04  0.32297800956E+04  0.30670984389E+04 0.  0.
        2    1    3    3  502    0 -0.11092155179E+04 -0.44613888273E+03  0.15174037475E+04  0.19318160111E+04  0.25500000920E-02 0.  1.
       -2    1    3    3    0  502  0.11092155179E+04  0.44613888273E+03 -0.50528387732E+03  0.12979640844E+04  0.25500000920E-02 0. -1.
</event>
<event>
 5   0  0.7726743E-07  0.3006149E+04  0.7818609E-02  0.8241977E-01
        1   -1    0    0  501    0  0.00000000000E+00  0.00000000000E+00  0.23535267722E+04  0.23535267722E+04  0.50400001928E-02 0.  1.
       -1   -1    0    0    0  501  0.00000000000E+00  0.00000000000E+00 -0.95993518098E+03  0.95993518100E+03  0.50400001928E-02 0. -1.
    10030    2    1    2    0    0  0.00000000000E+00  0.00000000000E+00  0.13935915912E+04  0.33134619532E+04  0.30061491300E+04 0.  0.
        1    1    3    3  502    0  0.45969970570E+03 -0.12464225192E+04  0.14717650008E+04  0.19826712116E+04  0.50400001928E-02 0.  1.
       -1    1    3    3    0  502 -0.45969970570E+03  0.12464225192E+04 -0.78173409617E+02  0.13307907415E+04  0.50400001928E-02 0. -1.
</event>
<event>
 5   0  0.2226334E-06  0.2824897E+04  0.7818609E-02  0.8295580E-01
        2   -1    0    0  501    0  0.00000000000E+00  0.00000000000E+00  0.87412255648E+03  0.87412255649E+03  0.25500000920E-02 0. -1.
       -2   -1    0    0    0  501  0.00000000000E+00  0.00000000000E+00 -0.22823012801E+04  0.22823012801E+04  0.25500000920E-02 0.  1.
    10030    2    1    2    0    0  0.00000000000E+00  0.00000000000E+00 -0.14081787236E+04  0.31564238366E+04  0.28248971872E+04 0.  0.
        5    1    3    3  502    0 -0.52452919892E+03 -0.25772547008E+03  0.73267754304E+03  0.93722557078E+03  0.46999998093E+01 0. -1.
       -5    1    3    3    0  502  0.52452919892E+03  0.25772547008E+03 -0.21408562667E+04  0.22191982658E+04  0.46999998093E+01 0.  1.
</event>
<event>
 5   0  0.7519202E-07  0.3065571E+04  0.7818609E-02  0.8225251E-01
        1   -1    0    0  501    0  0.00000000000E+00  0.00000000000E+00  0.18489785309E+04  0.18489785309E+04  0.50400001928E-02 0. -1.
       -1   -1    0    0    0  501  0.00000000000E+00  0.00000000000E+00 -0.12706641709E+04  0.12706641709E+04  0.50400001928E-02 0.  1.
    10030    2    1    2    0    0  0.00000000000E+00  0.00000000000E+00  0.57831436003E+03  0.31196427018E+04  0.30655705974E+04 0.  0.
        4    1    3    3  502    0 -0.36763877136E+03  0.33745641635E+03 -0.11856794824E+04  0.12864184961E+04  0.12699999809E+01 0.  1.
       -4    1    3    3    0  502  0.36763877136E+03 -0.33745641635E+03  0.17639938425E+04  0.18332242057E+04  0.12699999809E+01 0. -1.
</event>
<event>
 5   0  0.7726743E-07  0.3061282E+04  0.7818609E-02  0.8226445E-01
        1   -1    0    0  501    0  0.00000000000E+00  0.00000000000E+00  0.12918405536E+04  0.12918405536E+04  0.50400001928E-02 0.  1.
       -1   -1    0    0    0  501  0.00000000000E+00  0.00000000000E+00 -0.18135847168E+04  0.18135847168E+04  0.50400001928E-02 0. -1.
    10030    2    1    2    0    0  0.00000000000E+00  0.00000000000E+00 -0.52174416321E+03  0.31054252704E+04  0.30612822703E+04 0.  0.
        1    1    3    3  502    0 -0.49744213632E+03  0.93173700431E+03  0.86292912117E+03  0.13639021931E+04  0.50400001928E-02 0.  1.
       -1    1    3    3    0  502  0.49744213632E+03 -0.93173700431E+03 -0.13846732844E+04  0.17415230773E+04  0.50400001928E-02 0. -1.
</event>
<event>
 5   0  0.2094135E-06  0.3178947E+04  0.7818609E-02  0.8194400E-01
        2   -1    0    0  501    0  0.00000000000E+00  0.00000000000E+00  0.18154662407E+04  0.18154662407E+04  0.25500000920E-02 0. -1.
       -2   -1    0    0    0  501  0.00000000000E+00  0.00000000000E+00 -0.13916124398E+04  0.13916124398E+04  0.25500000920E-02 0.  1.
    10030    2    1    2    0    0  0.00000000000E+00  0.00000000000E+00  0.42385380088E+03  0.32070786805E+04  0.31789466209E+04 0.  0.
        4    1    3    3  502    0 -0.89706858587E+03  0.12808655457E+04  0.49918374630E+03  0.16415037677E+04  0.12699999809E+01 0.  1.
       -4    1    3    3    0  502  0.89706858587E+03 -0.12808655457E+04 -0.75329945416E+02  0.15655749128E+04  0.12699999809E+01 0. -1.
</event>
<event>
 5   0  0.7561815E-07  0.3073248E+04  0.7818609E-02  0.8223118E-01
       -1   -1    0    0    0  501  0.00000000000E+00  0.00000000000E+00  0.12944049873E+04  0.12944049873E+04  0.50400001928E-02 0.  1.
        1   -1    0    0  501    0  0.00000000000E+00  0.00000000000E+00 -0.18241691107E+04  0.18241691107E+04  0.50400001928E-02 0. -1.
    10030    2    1    2    0    0  0.00000000000E+00  0.00000000000E+00 -0.52976412336E+03  0.31185740980E+04  0.30732481804E+04 0.  0.
        3    1    3    3  502    0  0.14149844426E+04 -0.47771395058E+03 -0.63190973844E+03  0.16216354458E+04  0.10100000352E+00 0. -1.
       -3    1    3    3    0  502 -0.14149844426E+04  0.47771395058E+03  0.10214561508E+03  0.14969386522E+04  0.10100000352E+00 0.  1.
</event>
<event>
 5   0  0.7726743E-07  0.2901138E+04  0.7818609E-02  0.8272539E-01
        1   -1    0    0  501    0  0.00000000000E+00  0.00000000000E+00  0.14969386481E+04  0.14969386481E+04  0.50400001928E-02 0. -1.
       -1   -1    0    0    0  501  0.00000000000E+00  0.00000000000E+00 -0.14056354038E+04  0.14056354038E+04  0.50400001928E-02 0.  1.
    10030    2    1    2    0    0  0.00000000000E+00  0.00000000000E+00  0.91303244250E+02  0.29025740519E+04  0.29011376811E+04 0.  0.
        1    1    3    3  502    0  0.57066689758E+03  0.10159306204E+04 -0.81870564161E+03  0.14240978411E+04  0.50400001928E-02 0.  1.
       -1    1    3    3    0  502 -0.57066689758E+03 -0.10159306204E+04  0.91000888586E+03  0.14784762108E+04  0.50400001928E-02 0. -1.
</event>
<event>
 5   0  0.7726743E-07  0.3113214E+04  0.7818609E-02  0.8212121E-01
        1   -1    0    0  501    0  0.00000000000E+00  0.00000000000E+00  0.10197067882E+04  0.10197067882E+04  0.50400001928E-02 0.  1.
       -1   -1    0    0    0  501  0.00000000000E+00  0.00000000000E+00 -0.23761975495E+04  0.23761975496E+04  0.50400001928E-02 0. -1.
    10030    2    1    2    0    0  0.00000000000E+00  0.00000000000E+00 -0.13564907613E+04  0.33959043378E+04  0.31132136268E+04 0.  0.
        1    1    3    3  502    0  0.98894263918E+03  0.85902337357E+03  0.23900043070E+03  0.13315592010E+04  0.50400001928E-02 0.  1.
       -1    1    3    3    0  502 -0.98894263918E+03 -0.85902337357E+03 -0.15954911920E+04  0.20643451368E+04  0.50400001928E-02 0. -1.
</event>
<event>
 5   0  0.7413481E-07  0.3051964E+04  0.7818609E-02  0.8229046E-01
       -1   -1    0    0    0  501  0.00000000000E+00  0.00000000000E+00  0.10225223659E+04  0.10225223659E+04  0.50400001928E-02 0. -1.
        1   -1    0    0  501    0  0.00000000000E+00  0.00000000000E+00 -0.22773307783E+04  0.22773307783E+04  0.50400001928E-02 0.  1.
    10030    2    1    2    0    0  0.00000000000E+00  0.00000000000E+00 -0.12548084125E+04  0.32998531442E+04  0.30519643873E+04 0.  0.
        5    1    3    3  502    0 -0.46429024323E+03 -0.83837086331E+02  0.94167511619E+03  0.10532654943E+04  0.46999998093E+01 0. -1.
       -5    1    3    3    0  502  0.46429024323E+03  0.83837086331E+02 -0.21964835287E+04  0.22465876499E+04  0.46999998093E+01 0.  1.
</event>
<event>
 5   0  0.7413481E-07  0.2767319E+04  0.7818609E-02  0.8313487E-01
       -1   -1    0    0    0  501  0.00000000000E+00  0.00000000000E+00  0.16098091239E+04  0.16098091240E+04  0.50400001928E-02 0.  1.
        1   -1    0    0  501    0  0.00000000000E+00  0.00000000000E+00 -0.11892801469E+04  0.11892801469E+04  0.50400001928E-02 0. -1.
    10030    2    1    2    0    0  0.00000000000E+00  0.00000000000E+00  0.42052897705E+03  0.27990892709E+04  0.27673193032E+04 0.  0.
        5    1    3    3  502    0 -0.12568399212E+04 -0.37809640066E+02  0.79431519757E+03  0.14872911213E+04  0.46999998093E+01 0. -1.
       -5    1    3    3    0  502  0.12568399212E+04  0.37809640066E+02 -0.37378622052E+03  0.13117981495E+04  0.46999998093E+01 0.  1.
</event>
<event>
 5   0  0.7656332E-07  0.3106578E+04  0.7818609E-02  0.8213935E-01
        1   -1    0    0  501    0  0.00000000000E+00  0.00000000000E+00  0.11571874782E+04  0.11571874782E+04  0.50400001928E-02 0. -1.
       -1   -1    0    0    0  501  0.00000000000E+00  0.00000000000E+00 -0.20849743274E+04  0.20849743274E+04  0.50400001928E-02 0.  1.
    10030    2    1    2    0    0  0.00000000000E+00  0.00000000000E+00 -0.92778684919E+03  0.32421618056E+04  0.31065776565E+04 0.  0.
        2    1    3    3  502    0  0.72714254274E+03  0.19950870406E+03  0.95337626098E+03  0.12155107138E+04  0.25500000920E-02 0. -1.
       -2    1    3    3    0  502 -0.72714254274E+03 -0.19950870406E+03 -0.18811631102E+04  0.20266510917E+04  0.25500000920E-02 0.  1.
</event>
<event>
 5   0  0.7656332E-07  0.3095566E+04  0.7818609E-02  0.8216956E-01
        1   -1    0    0  501    0  0.00000000000E+00  0.00000000000E+00  0.16344603895E+04  0.16344603895E+04  0.50400001928E-02 0.  1.
       -1   -1    0    0    0  501  0.00000000000E+00  0.00000000000E+00 -0.14657020680E+04  0.14657020680E+04  0.50400001928E-02 0. -1.
    10030    2    1    2    0    0  0.00000000000E+00  0.00000000000E+00  0.16875832156E+03  0.31001624575E+04  0.30955658435E+04 0.  0.
        2    1    3    3  502    0 -0.11804416685E+04 -0.90965949593E+03  0.50298193036E+03  0.15728680026E+04  0.25500000920E-02 0. -1.
       -2    1    3    3    0  502  0.11804416685E+04  0.90965949593E+03 -0.33422360880E+03  0.15272944549E+04  0.25500000920E-02 0.  1.
</event>
<event>
 5   0  0.7656332E-07  0.3092776E+04  0.7818609E-02  0.8217723E-01
       -1   -1    0    0    0  501  0.00000000000E+00  0.00000000000E+00  0.17026742008E+04  0.17026742008E+04  0.50400001928E-02 0.  1.
        1   -1    0    0  501    0  0.00000000000E+00  0.00000000000E+00 -0.14044471732E+04  0.14044471732E+04  0.50400001928E-02 0. -1.
    10030    2    1    2    0    0  0.00000000000E+00  0.00000000000E+00  0.29822702761E+03  0.31071213740E+04  0.30927760786E+04 0.  0.
        2    1    3    3  502    0  0.10779878413E+04 -0.58040680008E+03  0.10981570734E+04  0.16446515733E+04  0.25500000920E-02 0.  1.
       -2    1    3    3    0  502 -0.10779878413E+04  0.58040680008E+03 -0.79993004581E+03  0.14624698007E+04  0.25500000920E-02 0. -1.
</event>
<event>
 5   0  0.2078009E-06  0.3073257E+04  0.7818609E-02  0.8223116E-01
        2   -1    0    0  501    0  0.00000000000E+00  0.00000000000E+00  0.25084171497E+04  0.25084171497E+04  0.25500000920E-02 0.  1.
       -2   -1    0    0    0  501  0.00000000000E+00  0.00000000000E+00 -0.94132146312E+03  0.94132146313E+03  0.25500000920E-02 0. -1.
    10030    2    1    2    0    0  0.00000000000E+00  0.00000000000E+00  0.15670956866E+04  0.34497386128E+04  0.30732568402E+04 0.  0.
        3    1    3    3  502    0 -0.28848303172E+03 -0.77037932845E+03  0.22404333886E+04  0.23866814928E+04  0.10100000352E+00 0.  1.
       -3    1    3    3    0  502  0.28848303172E+03  0.77037932845E+03 -0.67333770199E+03  0.10630571200E+04  0.10100000352E+00 0. -1.
</event>
<event>
 5   0  0.7726743E-07  0.3090384E+04  0.7818609E-02  0.8218382E-01
        1   -1    0    0  501    0  0.00000000000E+00  0.00000000000E+00  0.73919009765E+03  0.73919009767E+03  0.50400001928E-02 0.  1.
       -1   -1    0    0    0  501  0.00000000000E+00  0.00000000000E+00 -0.32300473309E+04  0.32300473309E+04  0.50400001928E-02 0. -1.
    10030    2    1    2    0    0  0.00000000000E+00  0.00000000000E+00 -0.24908572333E+04  0.39692374286E+04  0.30903844434E+04 0.  0.
        1    1    3    3  502    0 -0.10602443858E+04  0.99229274925E+03 -0.19236703704E+04  0.24102428824E+04  0.50400001928E-02 0.  1.
       -1    1    3    3    0  502  0.10602443858E+04 -0.99229274925E+03 -0.56718686282E+03  0.15589945462E+04  0.50400001928E-02 0. -1.
</event>
<event>
 5   0  0.6979625E-07  0.3058270E+04  0.7818609E-02  0.8227285E-01
       -3   -1    0    0    0  501  0.00000000000E+00  0.00000000000E+00  0.16640971068E+04  0.16640971098E+04  0.10100000352E+00 0.  1.
        3   -1    0    0  501    0  0.00000000000E+00  0.00000000000E+00 -0.14051182466E+04  0.14051182502E+04  0.10100000352E+00 0. -1.
    10030    2    1    2    0    0  0.00000000000E+00  0.00000000000E+00  0.25897886019E+03  0.30692153600E+04  0.30582695885E+04 0.  0.
        3    1    3    3  502    0 -0.35087752283E+03 -0.94282221264E+03  0.12852293430E+04  0.16321284370E+04  0.10100000352E+00 0.  1.
       -3    1    3    3    0  502  0.35087752283E+03  0.94282221264E+03 -0.10262504828E+04  0.14370869230E+04  0.10100000352E+00 0. -1.
</event>
<event>
 5   0  0.2078009E-06  0.3084692E+04  0.7818609E-02  0.8219952E-01
        2   -1    0    0  501    0  0.00000000000E+00  0.00000000000E+00  0.23697903449E+04  0.23697903449E+04  0.25500000920E-02 0. -1.
       -2   -1    0    0    0  501  0.00000000000E+00  0.00000000000E+00 -0.10038148597E+04  0.10038148597E+04  0.25500000920E-02 0.  1.
    10030    2    1    2    0    0  0.00000000000E+00  0.00000000000E+00  0.13659754852E+04  0.33736052046E+04  0.30846917270E+04 0.  0.
        3    1    3    3  502    0 -0.12496613822E+04  0.18205850917E+03  0.16513756348E+04  0.20789036457E+04  0.10100000352E+00 0. -1.
       -3    1    3    3    0  502  0.12496613822E+04 -0.18205850917E+03 -0.28540014959E+03  0.12947015589E+04  0.10100000352E+00 0.  1.
</event>
<event>
 5   0  0.7519202E-07  0.3072153E+04  0.7818609E-02  0.8223422E-01
       -1   -1    0    0    0  501  0.00000000000E+00  0.00000000000E+00  0.22048319329E+04  0.22048319329E+04  0.50400001928E-02 0. -1.
        1   -1    0    0  501    0  0.00000000000E+00  0.00000000000E+00 -0.10701639905E+04  0.10701639905E+04  0.50400001928E-02 0.  1.
    10030    2    1    2    0    0  0.00000000000E+00  0.00000000000E+00  0.11346679423E+04  0.32749959234E+04  0.30721534726E+04 0.  0.
        4    1    3    3  502    0 -0.30436464755E+03  0.15026392660E+04  0.66828346436E+03  0.16724733194E+04  0.12699999809E+01 0.  1.
       -4    1    3    3    0  502  0.30436464755E+03 -0.15026392660E+04  0.46638447798E+03  0.16025226041E+04  0.12699999809E+01 0. -1.
</event>
<event>
 5   0  0.2094135E-06  0.3116136E+04  0.7818609E-02  0.8211323E-01
        2   -1    0    0  501    0  0.00000000000E+00  0.00000000000E+00  0.16691076389E+04  0.16691076389E+04  0.25500000920E-02 0.  1.
       -2   -1    0    0    0  501  0.00000000000E+00  0.00000000000E+00 -0.14544153781E+04  0.14544153781E+04  0.25500000920E-02 0. -1.
    10030    2    1    2    0    0  0.00000000000E+00  0.00000000000E+00  0.21469226076E+03  0.31235230170E+04  0.31161359519E+04 0.  0.
        4    1    3    3  502    0  0.24794118202E+03  0.60338176435E+03 -0.13109391145E+04  0.14642770770E+04  0.12699999809E+01 0. -1.
       -4    1    3    3    0  502 -0.24794118202E+03 -0.60338176435E+03  0.15256313753E+04  0.16592459400E+04  0.12699999809E+01 0.  1.
</event>
<event>
 5   0  0.2067926E-06  0.3111152E+04  0.7818609E-02  0.8212684E-01
        2   -1    0    0  501    0  0.00000000000E+00  0.00000000000E+00  0.17420240130E+04  0.17420240130E+04  0.25500000920E-02 0.  1.
       -2   -1    0    0    0  501  0.00000000000E+00  0.00000000000E+00 -0.13890830549E+04  0.13890830549E+04  0.25500000920E-02 0. -1.
    10030    2    1    2    0    0  0.00000000000E+00  0.00000000000E+00  0.35294095807E+03  0.31311070679E+04  0.31111515796E+04 0.  0.
        1    1    3    3  502    0 -0.12076362052E+04  0.48348621681E+02  0.11620851593E+04  0.16766528295E+04  0.50400001928E-02 0.  1.
       -1    1    3    3    0  502  0.12076362052E+04 -0.48348621681E+02 -0.80914420120E+03  0.14544542384E+04  0.50400001928E-02 0. -1.
</event>
<event>
 5   0  0.7561815E-07  0.3098656E+04  0.7818609E-02  0.8216107E-01
        1   -1    0    0  501    0  0.00000000000E+00  0.00000000000E+00  0.20132938560E+04  0.20132938560E+04  0.50400001928E-02 0.  1.
       -1   -1    0    0    0  501  0.00000000000E+00  0.00000000000E+00 -0.11922834468E+04  0.11922834469E+04  0.50400001928E-02 0. -1.
    10030    2    1    2    0    0  0.00000000000E+00  0.00000000000E+00  0.82101040920E+03  0.32055773029E+04  0.30986557977E+04 0.  0.
        3    1    3    3  502    0 -0.43718711319E+03 -0.18098714356E+03  0.19367178504E+04  0.19936812584E+04  0.10100000352E+00 0.  1.
       -3    1    3    3    0  502  0.43718711319E+03  0.18098714356E+03 -0.11157074412E+04  0.12118960445E+04  0.10100000352E+00 0. -1.
</event>
<event>
 5   0  0.2078009E-06  0.3077328E+04  0.7818609E-02  0.8221988E-01
       -2   -1    0    0    0  501  0.00000000000E+00  0.00000000000E+00  0.11281266649E+04  0.11281266649E+04  0.25500000920E-02 0.  1.
        2   -1    0    0  501    0  0.00000000000E+00  0.00000000000E+00 -0.20985998913E+04  0.20985998913E+04  0.25500000920E-02 0. -1.
    10030    2    1    2    0    0  0.00000000000E+00  0.00000000000E+00 -0.97047322638E+03  0.32267265563E+04  0.30773277345E+04 0.  0.
        3    1    3    3  502    0  0.89093345291E+03 -0.58645475471E+03 -0.16480358937E+04  0.19630878519E+04  0.10100000352E+00 0. -1.
       -3    1    3    3    0  502 -0.89093345291E+03  0.58645475471E+03  0.67756266736E+03  0.12636387044E+04  0.10100000352E+00 0.  1.
</event>
<event>
 5   0  0.7519202E-07  0.3105501E+04  0.7818609E-02  0.8214230E-01
       -1   -1    0    0    0  501  0.00000000000E+00  0.00000000000E+00  0.14667636175E+04  0.14667636175E+04  0.50400001928E-02 0.  1.
        1   -1    0    0  501    0  0.00000000000E+00  0.00000000000E+00 -0.16437777429E+04  0.16437777429E+04  0.50400001928E-02 0. -1.
    10030    2    1    2    0    0  0.00000000000E+00  0.00000000000E+00 -0.17701412536E+03  0.31105413604E+04  0.31055005320E+04 0.  0.
        4    1    3    3  502    0 -0.18477924505E+03  0.14746013624E+04  0.36215573569E+03  0.15296244431E+04  0.12699999809E+01 0.  1.
       -4    1    3    3    0  502  0.18477924505E+03 -0.14746013624E+04 -0.53916986104E+03  0.15809169172E+04  0.12699999809E+01 0. -1.
</event>
<event>
 5   0  0.2133385E-06  0.2963560E+04  0.7818609E-02  0.8254214E-01
       -2   -1    0    0    0  501  0.00000000000E+00  0.00000000000E+00  0.87134160219E+03  0.87134160219E+03  0.25500000920E-02 0.  1.
        2   -1    0    0  501    0  0.00000000000E+00  0.00000000000E+00 -0.25198745297E+04  0.25198745297E+04  0.25500000920E-02 0. -1.
    10030    2    1    2    0    0  0.00000000000E+00  0.00000000000E+00 -0.16485329275E+04  0.33912161318E+04  0.29635596906E+04 0.  0.
        2    1    3    3  502    0  0.62319333711E+03  0.43270251718E+03  0.63222751873E+03  0.98757938376E+03  0.25500000920E-02 0.  1.
       -2    1    3    3    0  502 -0.62319333711E+03 -0.43270251718E+03 -0.22807604462E+04  0.24036367481E+04  0.25500000920E-02 0. -1.
</event>
<event>
 5   0  0.7519202E-07  0.3115912E+04  0.7818609E-02  0.8211385E-01
        1   -1    0    0  501    0  0.00000000000E+00  0.00000000000E+00  0.11904057133E+04  0.11904057133E+04  0.50400001928E-02 0. -1.
       -1   -1    0    0    0  501  0.00000000000E+00  0.00000000000E+00 -0.20389907740E+04  0.20389907740E+04  0.50400001928E-02 0.  1.
    10030    2    1    2    0    0  0.00000000000E+00  0.00000000000E+00 -0.84858506071E+03  0.32293964873E+04  0.31159115949E+04 0.  0.
        4    1    3    3  502    0 -0.28006864371E+03  0.99914082192E+03  0.78014464249E+03  0.12982095760E+04  0.12699999809E+01 0. -1.
       -4    1    3    3    0  502  0.28006864371E+03 -0.99914082192E+03 -0.16287297032E+04  0.19311869113E+04  0.12699999809E+01 0.  1.
</event>
<event>
 5   0  0.7519202E-07  0.3000334E+04  0.7818609E-02  0.8243636E-01
        1   -1    0    0  501    0  0.00000000000E+00  0.00000000000E+00  0.22683767310E+04  0.22683767311E+04  0.50400001928E-02 0. -1.
       -1   -1    0    0    0  501  0.00000000000E+00  0.00000000000E+00 -0.99211933348E+03  0.99211933349E+03  0.50400001928E-02 0.  1.
    10030    2    1    2    0    0  0.00000000000E+00  0.00000000000E+00  0.12762573976E+04  0.32604960645E+04  0.30003335885E+04 0.  0.
        4    1    3    3  502    0  0.76611699608E+03  0.97548417043E+03 -0.27883545407E+03  0.12713203537E+04  0.12699999809E+01 0.  1.
       -4    1    3    3    0  502 -0.76611699608E+03 -0.97548417043E+03  0.15550928516E+04  0.19891757108E+04  0.12699999809E+01 0. -1.
</event>
<event>
 5   0  0.7656332E-07  0.3099271E+04  0.7818609E-02  0.8215938E-01
       -1   -1    0    0    0  501  0.00000000000E+00  0.00000000000E+00  0.22247572040E+04  0.22247572040E+04  0.50400001928E-02 0.  1.
        1   -1    0    0  501    0  0.00000000000E+00  0.00000000000E+00 -0.10793850926E+04  0.10793850926E+04  0.50400001928E-02 0. -1.
    10030    2    1    2    0    0  0.00000000000E+00  0.00000000000E+00  0.11453721115E+04  0.33041422966E+04  0.30992707275E+04 0.  0.
        2    1    3    3  502    0 -0.59310988245E+03  0.54152488694E+03  0.19855608444E+04  0.21418404241E+04  0.25500000920E-02 0.  1.
       -2    1    3    3    0  502  0.59310988245E+03 -0.54152488694E+03 -0.84018873291E+03  0.11623018725E+04  0.25500000920E-02 0. -1.
</event>
<event>
 5   0  0.2133385E-06  0.3098164E+04  0.7818609E-02  0.8216242E-01
       -2   -1    0    0    0  501  0.00000000000E+00  0.00000000000E+00  0.10522080303E+04  0.10522080303E+04  0.25500000920E-02 0. -1.
        2   -1    0    0  501    0  0.00000000000E+00  0.00000000000E+00 -0.22805896448E+04  0.22805896448E+04  0.25500000920E-02 0.  1.
    10030    2    1    2    0    0  0.00000000000E+00  0.00000000000E+00 -0.12283816145E+04  0.33327976751E+04  0.30981638034E+04 0.  0.
        2    1    3    3  502    0  0.15184033436E+04  0.17675300814E+03 -0.88390695960E+03  0.17658091213E+04  0.25500000920E-02 0.  1.
       -2    1    3    3    0  502 -0.15184033436E+04 -0.17675300814E+03 -0.34447465491E+03  0.15669885538E+04  0.25500000920E-02 0. -1.
</event>
<event>
 5   0  0.2067926E-06  0.3058995E+04  0.7818609E-02  0.8227082E-01
        2   -1    0    0  501    0  0.00000000000E+00  0.00000000000E+00  0.30939742797E+04  0.30939742797E+04  0.25500000920E-02 0. -1.
       -2   -1    0    0    0  501  0.00000000000E+00  0.00000000000E+00 -0.75610282159E+03  0.75610282159E+03  0.25500000920E-02 0.  1.
    10030    2    1    2    0    0  0.00000000000E+00  0.00000000000E+00  0.23378714581E+04  0.38500771012E+04  0.30589950525E+04 0.  0.
        1    1    3    3  502    0 -0.45954124518E+03  0.14277713449E+04  0.79208070518E+03  0.16962019375E+04  0.50400001928E-02 0.  1.
       -1    1    3    3    0  502  0.45954124518E+03 -0.14277713449E+04  0.15457907529E+04  0.21538751637E+04  0.50400001928E-02 0. -1.
</event>
<event>
 5   0  0.2226334E-06  0.3108883E+04  0.7818609E-02  0.8213304E-01
        2   -1    0    0  501    0  0.00000000000E+00  0.00000000000E+00  0.13112898603E+04  0.13112898603E+04  0.25500000920E-02 0. -1.
       -2   -1    0    0    0  501  0.00000000000E+00  0.00000000000E+00 -0.18426805654E+04  0.18426805654E+04  0.25500000920E-02 0.  1.
    10030    2    1    2    0    0  0.00000000000E+00  0.00000000000E+00 -0.53139070514E+03  0.31539704257E+04  0.31088829770E+04 0.  0.
        5    1    3    3  502    0 -0.86447723332E+03  0.93236359903E+03 -0.11728920134E+04  0.17298325158E+04  0.46999998093E+01 0.  1.
       -5    1    3    3    0  502  0.86447723332E+03 -0.93236359903E+03  0.64150130829E+03  0.14241379098E+04  0.46999998093E+01 0. -1.
</event>
<event>
 5   0  0.2067926E-06  0.2876371E+04  0.7818609E-02  0.8279943E-01
        2   -1    0    0  501    0  0.00000000000E+00  0.00000000000E+00  0.11281586326E+04  0.11281586326E+04  0.25500000920E-02 0. -1.
       -2   -1    0    0    0  501  0.00000000000E+00  0.00000000000E+00 -0.18334102168E+04  0.18334102168E+04  0.25500000920E-02 0.  1.
    10030    2    1    2    0    0  0.00000000000E+00  0.00000000000E+00 -0.70525158423E+03  0.29615688494E+04  0.28763710214E+04 0.  0.
        1    1    3    3  502    0 -0.18759340996E+03 -0.14207751505E+04 -0.47696810493E+03  0.15103946136E+04  0.50400001928E-02 0.  1.
       -1    1    3    3    0  502  0.18759340996E+03  0.14207751505E+04 -0.22828347930E+03  0.14511742358E+04  0.50400001928E-02 0. -1.
</event>
<event>
 5   0  0.7726743E-07  0.3118428E+04  0.7818609E-02  0.8210699E-01
        1   -1    0    0  501    0  0.00000000000E+00  0.00000000000E+00  0.10646664624E+04  0.10646664624E+04  0.50400001928E-02 0.  1.
       -1   -1    0    0    0  501  0.00000000000E+00  0.00000000000E+00 -0.22834838925E+04  0.22834838925E+04  0.50400001928E-02 0. -1.
    10030    2    1    2    0    0  0.00000000000E+00  0.00000000000E+00 -0.12188174301E+04  0.33481503549E+04  0.31184282694E+04 0.  0.
        1    1    3    3  502    0  0.28308912695E+03 -0.35447663988E+03 -0.22110634458E+04  0.22571208881E+04  0.50400001928E-02 0. -1.
       -1    1    3    3    0  502 -0.28308912695E+03  0.35447663988E+03  0.99224601565E+03  0.10910294669E+04  0.50400001928E-02 0.  1.
</event>
<event>
 5   0  0.2226334E-06  0.3082920E+04  0.7818609E-02  0.8220441E-01
       -2   -1    0    0    0  501  0.00000000000E+00  0.00000000000E+00  0.12730680936E+04  0.12730680936E+04  0.25500000920E-02 0. -1.
        2   -1    0    0  501    0  0.00000000000E+00  0.00000000000E+00 -0.18664352781E+04  0.18664352781E+04  0.25500000920E-02 0.  1.
    10030    2    1    2    0    0  0.00000000000E+00  0.00000000000E+00 -0.59336718448E+03  0.31395033716E+04  0.30829201749E+04 0.  0.
        5    1    3    3  502    0 -0.13624121286E+04  0.36256430855E+03 -0.93138635328E+03  0.16897107194E+04  0.46999998093E+01 0.  1.
       -5    1    3    3    0  502  0.13624121286E+04 -0.36256430855E+03  0.33801916880E+03  0.14497926523E+04  0.46999998093E+01 0. -1.
</event>
<event>
 5   0  0.2094135E-06  0.2996182E+04  0.7818609E-02  0.8244822E-01
        2   -1    0    0  501    0  0.00000000000E+00  0.00000000000E+00  0.12771096791E+04  0.12771096791E+04  0.25500000920E-02 0. -1.
       -2   -1    0    0    0  501  0.00000000000E+00  0.00000000000E+00 -0.17573097850E+04  0.17573097850E+04  0.25500000920E-02 0.  1.
    10030    2    1    2    0    0  0.00000000000E+00  0.00000000000E+00 -0.48020010584E+03  0.30344194641E+04  0.29961824614E+04 0.  0.
        4    1    3    3  502    0  0.37707677415E+03 -0.14686038335E+03  0.12207088093E+04  0.12860351767E+04  0.12699999809E+01 0. -1.
       -4    1    3    3    0  502 -0.37707677415E+03  0.14686038335E+03 -0.17009089151E+04  0.17483842874E+04  0.12699999809E+01 0.  1.
</event>
<event>
 5   0  0.2094135E-06  0.3064540E+04  0.7818609E-02  0.8225537E-01
        2   -1    0    0  501    0  0.00000000000E+00  0.00000000000E+00  0.12904760892E+04  0.12904760892E+04  0.25500000920E-02 0. -1.
       -2   -1    0    0    0  501  0.00000000000E+00  0.00000000000E+00 -0.18193687226E+04  0.18193687226E+04  0.25500000920E-02 0.  1.
    10030    2    1    2    0    0  0.00000000000E+00  0.00000000000E+00 -0.52889263344E+03  0.31098448118E+04  0.30645403139E+04 0.  0.
        4    1    3    3  502    0  0.14740810507E+04  0.15395018948E+03 -0.65908439046E+03  0.16220386714E+04  0.12699999809E+01 0.  1.
       -4    1    3    3    0  502 -0.14740810507E+04 -0.15395018948E+03  0.13019175702E+03  0.14878061404E+04  0.12699999809E+01 0. -1.
</event>
<event>
 5   0  0.7656332E-07  0.3107308E+04  0.7818609E-02  0.8213735E-01
       -1   -1    0    0    0  501  0.00000000000E+00  0.00000000000E+00  0.10448757706E+04  0.10448757707E+04  0.50400001928E-02 0. -1.
        1   -1    0    0  501    0  0.00000000000E+00  0.00000000000E+00 -0.23101704252E+04  0.23101704252E+04  0.50400001928E-02 0.  1.
    10030    2    1    2    0    0  0.00000000000E+00  0.00000000000E+00 -0.12652946546E+04  0.33550461959E+04  0.31073082263E+04 0.  0.
        2    1    3    3  502    0 -0.10307546408E+04  0.78282049692E+03 -0.15605712384E+04  0.20274727249E+04  0.25500000920E-02 0.  1.
       -2    1    3    3    0  502  0.10307546408E+04 -0.78282049692E+03  0.29527658388E+03  0.13275734710E+04  0.25500000920E-02 0. -1.
</event>
<event>
 5   0  0.7561815E-07  0.3004142E+04  0.7818609E-02  0.8242549E-01
        1   -1    0    0  501    0  0.00000000000E+00  0.00000000000E+00  0.11886853613E+04  0.11886853613E+04  0.50400001928E-02 0. -1.
       -1   -1    0    0    0  501  0.00000000000E+00  0.00000000000E+00 -0.18980773032E+04  0.18980773032E+04  0.50400001928E-02 0.  1.
    10030    2    1    2    0    0  0.00000000000E+00  0.00000000000E+00 -0.70939194193E+03  0.30867626645E+04  0.30041416111E+04 0.  0.
        3    1    3    3  502    0  0.50072866612E+03 -0.13889022802E+04 -0.70618126247E+02  0.14780952848E+04  0.10100000352E+00 0.  1.
       -3    1    3    3    0  502 -0.50072866612E+03  0.13889022802E+04 -0.63877381568E+03  0.16086673798E+04  0.10100000352E+00 0. -1.
</event>
<event>
 5   0  0.7413481E-07  0.3104640E+04  0.7818609E-02  0.8214466E-01
        1   -1    0    0  501    0  0.00000000000E+00  0.00000000000E+00  0.14104582096E+04  0.14104582097E+04  0.50400001928E-02 0.  1.
       -1   -1    0    0    0  501  0.00000000000E+00  0.00000000000E+00 -0.17084500533E+04  0.17084500533E+04  0.50400001928E-02 0. -1.
    10030    2    1    2    0    0  0.00000000000E+00  0.00000000000E+00 -0.29799184369E+03  0.31189082630E+04  0.31046400136E+04 0.  0.
        5    1    3    3  502    0 -0.11019493738E+04 -0.10918403884E+04 -0.20642030206E+03  0.15649406657E+04  0.46999998093E+01 0. -1.
       -5    1    3    3    0  502  0.11019493738E+04  0.10918403884E+04 -0.91571541626E+02  0.15539675973E+04  0.46999998093E+01 0.  1.
</event>
<event>
 5   0  0.2094135E-06  0.3143161E+04  0.7818609E-02  0.8203992E-01
       -2   -1    0    0    0  501  0.00000000000E+00  0.00000000000E+00  0.15230461445E+04  0.15230461445E+04  0.25500000920E-02 0.  1.
        2   -1    0    0  501    0  0.00000000000E+00  0.00000000000E+00 -0.16216611994E+04  0.16216611994E+04  0.25500000920E-02 0. -1.
    10030    2    1    2    0    0  0.00000000000E+00  0.00000000000E+00 -0.98615054922E+02  0.31447073438E+04  0.31431607260E+04 0.  0.
        4    1    3    3  502    0 -0.70360973151E+03 -0.25008383561E+03 -0.14328309242E+04  0.16157396601E+04  0.12699999809E+01 0. -1.
       -4    1    3    3    0  502  0.70360973151E+03  0.25008383561E+03  0.13342158693E+04  0.15289676837E+04  0.12699999809E+01 0.  1.
</event>
<event>
 5   0  0.2226334E-06  0.3085328E+04  0.7818609E-02  0.8219776E-01
       -2   -1    0    0    0  501  0.00000000000E+00  0.00000000000E+00  0.15351572132E+04  0.15351572132E+04  0.25500000920E-02 0.  1.
        2   -1    0    0  501    0  0.00000000000E+00  0.00000000000E+00 -0.15502076517E+04  0.15502076517E+04  0.25500000920E-02 0. -1.
    10030    2    1    2    0    0  0.00000000000E+00  0.00000000000E+00 -0.15050438507E+02  0.30853648650E+04  0.30853281566E+04 0.  0.
        5    1    3    3  502    0 -0.45690456824E+03  0.14413941716E+04  0.29811124603E+03  0.15411915350E+04  0.46999998093E+01 0.  1.
       -5    1    3    3    0  502  0.45690456824E+03 -0.14413941716E+04 -0.31316168453E+03  0.15441733300E+04  0.46999998093E+01 0. -1.
</event>
<event>
 5   0  0.2067926E-06  0.3085846E+04  0.7818609E-02  0.8219633E-01
       -2   -1    0    0    0  501  0.00000000000E+00  0.00000000000E+00  0.20572558207E+04  0.20572558207E+04  0.25500000920E-02 0. -1.
        2   -1    0    0  501    0  0.00000000000E+00  0.00000000000E+00 -0.11571777437E+04  0.11571777437E+04  0.25500000920E-02 0.  1.
    10030    2    1    2    0    0  0.00000000000E+00  0.00000000000E+00  0.90007807705E+03  0.32144335644E+04  0.30858455235E+04 0.  0.
        1    1    3    3  502    0 -0.15422398197E+04  0.20927630820E+02  0.49259508125E+03  0.16191329597E+04  0.50400001928E-02 0. -1.
       -1    1    3    3    0  502  0.15422398197E+04 -0.20927630820E+02  0.40748299580E+03  0.15953006046E+04  0.50400001928E-02 0.  1.
</event>
<event>
 5   0  0.2067926E-06  0.3153069E+04  0.7818609E-02  0.8201323E-01
       -2   -1    0    0    0  501  0.00000000000E+00  0.00000000000E+00  0.11997438522E+04  0.11997438522E+04  0.25500000920E-02 0.  1.
        2   -1    0    0  501    0  0.00000000000E+00  0.00000000000E+00 -0.20716602199E+04  0.20716602199E+04  0.25500000920E-02 0. -1.
    10030    2    1    2    0    0  0.00000000000E+00  0.00000000000E+00 -0.87191636762E+03  0.32714040721E+04  0.31530693698E+04 0.  0.
        1    1    3    3  502    0 -0.10747422155E+04 -0.10666414018E+04 -0.89136992424E+03  0.17570814015E+04  0.50400001928E-02 0. -1.
       -1    1    3    3    0  502  0.10747422155E+04  0.10666414018E+04  0.19453556622E+02  0.15143226706E+04  0.50400001928E-02 0.  1.
</event>
<event>
 5   0  0.6979625E-07  0.3102161E+04  0.7818609E-02  0.8215145E-01
        3   -1    0    0  501    0  0.00000000000E+00  0.00000000000E+00  0.93285908133E+03  0.93285908680E+03  0.10100000352E+00 0. -1.
       -3   -1    0    0    0  501  0.00000000000E+00  0.00000000000E+00 -0.25790075090E+04  0.25790075110E+04  0.10100000352E+00 0.  1.
    10030    2    1    2    0    0  0.00000000000E+00  0.00000000000E+00 -0.16461484277E+04  0.35118665978E+04  0.31021609169E+04 0.  0.
        2    1    3    3  502    0 -0.13538057583E+04  0.54520299030E+03 -0.14176155352E+04  0.20346179340E+04  0.25500000920E-02 0. -1.
       -2    1    3    3    0  502  0.13538057583E+04 -0.54520299030E+03 -0.22853289251E+03  0.14772486638E+04  0.25500000920E-02 0.  1.
</event>
<event>
 5   0  0.6979625E-07  0.3104776E+04  0.7818609E-02  0.8214428E-01
        3   -1    0    0  501    0  0.00000000000E+00  0.00000000000E+00  0.82045149002E+03  0.82045149623E+03  0.10100000352E+00 0. -1.
       -3   -1    0    0    0  501  0.00000000000E+00  0.00000000000E+00 -0.29372958318E+04  0.29372958335E+04  0.10100000352E+00 0.  1.
    10030    2    1    2    0    0  0.00000000000E+00  0.00000000000E+00 -0.21168443418E+04  0.37577473298E+04  0.31047761638E+04 0.  0.
        2    1    3    3  502    0  0.10411006498E+04 -0.24310836075E+03 -0.24207175349E+04  0.26462928073E+04  0.25500000920E-02 0.  1.
       -2    1    3    3    0  502 -0.10411006498E+04  0.24310836075E+03  0.30387319312E+03  0.11114545225E+04  0.25500000920E-02 0. -1.
</event>
<event>
 5   0  0.2094135E-06  0.3144918E+04  0.7818609E-02  0.8203518E-01
       -2   -1    0    0    0  501  0.00000000000E+00  0.00000000000E+00  0.15627358954E+04  0.15627358954E+04  0.25500000920E-02 0. -1.
        2   -1    0    0  501    0  0.00000000000E+00  0.00000000000E+00 -0.15822425222E+04  0.15822425222E+04  0.25500000920E-02 0.  1.
    10030    2    1    2    0    0  0.00000000000E+00  0.00000000000E+00 -0.19506626877E+02  0.31449784176E+04  0.31449179224E+04 0.  0.
        4    1    3    3  502    0  0.77746544284E+03  0.38901878463E+03  0.13005533272E+04  0.15643620743E+04  0.12699999809E+01 0. -1.
       -4    1    3    3    0  502 -0.77746544284E+03 -0.38901878463E+03 -0.13200599541E+04  0.15806163433E+04  0.12699999809E+01 0.  1.
</event>
<event>
 5   0  0.7519202E-07  0.3095580E+04  0.7818609E-02  0.8216952E-01
        1   -1    0    0  501    0  0.00000000000E+00  0.00000000000E+00  0.13152239987E+04  0.13152239987E+04  0.50400001928E-02 0. -1.
       -1   -1    0    0    0  501  0.00000000000E+00  0.00000000000E+00 -0.18214799618E+04  0.18214799619E+04  0.50400001928E-02 0.  1.
    10030    2    1    2    0    0  0.00000000000E+00  0.00000000000E+00 -0.50625596317E+03  0.31367039605E+04  0.30955801776E+04 0.  0.
        4    1    3    3  502    0  0.57730143299E+03  0.10112939860E+02 -0.17082673412E+04  0.18032077356E+04  0.12699999809E+01 0.  1.
       -4    1    3    3    0  502 -0.57730143299E+03 -0.10112939860E+02  0.12020113780E+04  0.13334962249E+04  0.12699999809E+01 0. -1.
</event>
<event>
 5   0  0.2094135E-06  0.3108511E+04  0.7818609E-02  0.8213406E-01
       -2   -1    0    0    0  501  0.00000000000E+00  0.00000000000E+00  0.11518229004E+04  0.11518229004E+04  0.25500000920E-02 0. -1.
        2   -1    0    0  501    0  0.00000000000E+00  0.00000000000E+00 -0.20972927754E+04  0.20972927754E+04  0.25500000920E-02 0.  1.
    10030    2    1    2    0    0  0.00000000000E+00  0.00000000000E+00 -0.94546987499E+03  0.32491156758E+04  0.31085107995E+04 0.  0.
        4    1    3    3  502    0 -0.15198395703E+04 -0.31311470858E+03 -0.38068863597E+03  0.15977730097E+04  0.12699999809E+01 0.  1.
       -4    1    3    3    0  502  0.15198395703E+04  0.31311470858E+03 -0.56478123902E+03  0.16513426661E+04  0.12699999809E+01 0. -1.
</event>
<event>
 5   0  0.7561815E-07  0.3096704E+04  0.7818609E-02  0.8216643E-01
        1   -1    0    0  501    0  0.00000000000E+00  0.00000000000E+00  0.20854854730E+04  0.20854854730E+04  0.50400001928E-02 0.  1.
       -1   -1    0    0    0  501  0.00000000000E+00  0.00000000000E+00 -0.11495612823E+04  0.11495612823E+04  0.50400001928E-02 0. -1.
    10030    2    1    2    0    0  0.00000000000E+00  0.00000000000E+00  0.93592419067E+03  0.32350467554E+04  0.30967036375E+04 0.  0.
        3    1    3    3  502    0 -0.99085134459E+03  0.97638316597E+03 -0.24232646196E+03  0.14120313730E+04  0.10100000352E+00 0. -1.
       -3    1    3    3    0  502  0.99085134459E+03 -0.97638316597E+03  0.11782506526E+04  0.18230153824E+04  0.10100000352E+00 0.  1.
</event>
<event>
 5   0  0.7519202E-07  0.3082247E+04  0.7818609E-02  0.8220627E-01
        1   -1    0    0  501    0  0.00000000000E+00  0.00000000000E+00  0.20089812256E+04  0.20089812256E+04  0.50400001928E-02 0. -1.
       -1   -1    0    0    0  501  0.00000000000E+00  0.00000000000E+00 -0.11822221670E+04  0.11822221670E+04  0.50400001928E-02 0.  1.
    10030    2    1    2    0    0  0.00000000000E+00  0.00000000000E+00  0.82675905862E+03  0.31912033926E+04  0.30822473217E+04 0.  0.
        4    1    3    3  502    0  0.10029336716E+03 -0.26470186670E+03 -0.11550758435E+04  0.11892550841E+04  0.12699999809E+01 0.  1.
       -4    1    3    3    0  502 -0.10029336716E+03  0.26470186670E+03  0.19818349022E+04  0.20019483085E+04  0.12699999809E+01 0. -1.
</event>
<event>
 5   0  0.7656332E-07  0.3096987E+04  0.7818609E-02  0.8216565E-01
        1   -1    0    0  501    0  0.00000000000E+00  0.00000000000E+00  0.14035464702E+04  0.14035464702E+04  0.50400001928E-02 0. -1.
       -1   -1    0    0    0  501  0.00000000000E+00  0.00000000000E+00 -0.17084094478E+04  0.17084094478E+04  0.50400001928E-02 0.  1.
    10030    2    1    2    0    0  0.00000000000E+00  0.00000000000E+00 -0.30486297762E+03  0.31119559181E+04  0.30969869552E+04 0.  0.
        2    1    3    3  502    0  0.72029801071E+03 -0.31970671842E+03 -0.14918372566E+04  0.16871929381E+04  0.25500000920E-02 0.  1.
       -2    1    3    3    0  502 -0.72029801071E+03  0.31970671842E+03  0.11869742790E+04  0.14247629800E+04  0.25500000920E-02 0. -1.
</event>
<event>
 5   0  0.2067926E-06  0.3100981E+04  0.7818609E-02  0.8215469E-01
        2   -1    0    0  501    0  0.00000000000E+00  0.00000000000E+00  0.18811464666E+04  0.18811464666E+04  0.25500000920E-02 0. -1.
       -2   -1    0    0    0  501  0.00000000000E+00  0.00000000000E+00 -0.12779555465E+04  0.12779555465E+04  0.25500000920E-02 0.  1.
    10030    2    1    2    0    0  0.00000000000E+00  0.00000000000E+00  0.60319092012E+03  0.31591020131E+04  0.31009814967E+04 0.  0.
        1    1    3    3  502    0  0.11245780917E+04  0.30104185719E+03 -0.74166834992E+03  0.13803528626E+04  0.50400001928E-02 0.  1.
       -1    1    3    3    0  502 -0.11245780917E+04 -0.30104185719E+03  0.13448592700E+04  0.17787491505E+04  0.50400001928E-02 0. -1.
</event>
<event>
 5   0  0.7726743E-07  0.3113417E+04  0.7818609E-02  0.8212065E-01
       -1   -1    0    0    0  501  0.00000000000E+00  0.00000000000E+00  0.23048794219E+04  0.23048794219E+04  0.50400001928E-02 0. -1.
        1   -1    0    0  501    0  0.00000000000E+00  0.00000000000E+00 -0.10513961143E+04  0.10513961143E+04  0.50400001928E-02 0.  1.
    10030    2    1    2    0    0  0.00000000000E+00  0.00000000000E+00  0.12534833077E+04  0.33562755362E+04  0.31134169448E+04 0.  0.
        1    1    3    3  502    0 -0.66156432333E+03 -0.15893489275E+03  0.21361063147E+04  0.22418469711E+04  0.50400001928E-02 0. -1.
       -1    1    3    3    0  502  0.66156432333E+03  0.15893489275E+03 -0.88262300707E+03  0.11144285651E+04  0.50400001928E-02 0.  1.
</event>
<event>
 5   0  0.2067926E-06  0.3100631E+04  0.7818609E-02  0.8215565E-01
       -2   -1    0    0    0  501  0.00000000000E+00  0.00000000000E+00  0.13783600525E+04  0.13783600525E+04  0.25500000920E-02 0. -1.
        2   -1    0    0  501    0  0.00000000000E+00  0.00000000000E+00 -0.17437230519E+04  0.17437230519E+04  0.25500000920E-02 0.  1.
    10030    2    1    2    0    0  0.00000000000E+00  0.00000000000E+00 -0.36536299941E+03  0.31220831045E+04  0.31006310309E+04 0.  0.
        1    1    3    3  502    0 -0.16092269477E+03 -0.12841842218E+03  0.13645336662E+04  0.13799780908E+04  0.50400001928E-02 0. -1.
       -1    1    3    3    0  502  0.16092269477E+03  0.12841842218E+03 -0.17298966656E+04  0.17421050137E+04  0.50400001928E-02 0.  1.
</event>
<event>
 5   0  0.2133385E-06  0.3110651E+04  0.7818609E-02  0.8212821E-01
       -2   -1    0    0    0  501  0.00000000000E+00  0.00000000000E+00  0.16871167734E+04  0.16871167734E+04  0.25500000920E-02 0. -1.
        2   -1    0    0  501    0  0.00000000000E+00  0.00000000000E+00 -0.14338292754E+04  0.14338292754E+04  0.25500000920E-02 0.  1.
    10030    2    1    2    0    0  0.00000000000E+00  0.00000000000E+00  0.25328749794E+03  0.31209460488E+04  0.31106510063E+04 0.  0.
        2    1    3    3  502    0  0.61820617985E+03 -0.11350797756E+04 -0.74135095890E+03  0.14900289333E+04  0.25500000920E-02 0.  1.
       -2    1    3    3    0  502 -0.61820617985E+03  0.11350797756E+04  0.99463845683E+03  0.16309171155E+04  0.25500000920E-02 0. -1.
</event>
<event>
 5   0  0.2094135E-06  0.3108155E+04  0.7818609E-02  0.8213503E-01
       -2   -1    0    0    0  501  0.00000000000E+00  0.00000000000E+00  0.14567728159E+04  0.14567728159E+04  0.25500000920E-02 0.  1.
        2   -1    0    0  501    0  0.00000000000E+00  0.00000000000E+00 -0.16578815590E+04  0.16578815590E+04  0.25500000920E-02 0. -1.
    10030    2    1    2    0    0  0.00000000000E+00  0.00000000000E+00 -0.20110874316E+03  0.31146543749E+04  0.31081549428E+04 0.  0.
        4    1    3    3  502    0 -0.12791841239E+04  0.48714318307E+03  0.63687483466E+03  0.15097124466E+04  0.12699999809E+01 0.  1.
       -4    1    3    3    0  502  0.12791841239E+04 -0.48714318307E+03 -0.83798357781E+03  0.16049419283E+04  0.12699999809E+01 0. -1.
</event>
<event>
 5   0  0.7519202E-07  0.3098510E+04  0.7818609E-02  0.8216147E-01
        1   -1    0    0  501    0  0.00000000000E+00  0.00000000000E+00  0.22110577385E+04  0.22110577385E+04  0.50400001928E-02 0. -1.
       -1   -1    0    0    0  501  0.00000000000E+00  0.00000000000E+00 -0.10855395930E+04  0.10855395930E+04  0.50400001928E-02 0.  1.
    10030    2    1    2    0    0  0.00000000000E+00  0.00000000000E+00  0.11255181455E+04  0.32965973315E+04  0.30985097821E+04 0.  0.
        4    1    3    3  502    0  0.70103490365E+03  0.12938636359E+04  0.47377462153E+02  0.14723380323E+04  0.12699999809E+01 0.  1.
       -4    1    3    3    0  502 -0.70103490365E+03 -0.12938636359E+04  0.10781406834E+04  0.18242592992E+04  0.12699999809E+01 0. -1.
</event>
<event>
 5   0  0.7726743E-07  0.3076505E+04  0.7818609E-02  0.8222216E-01
       -1   -1    0    0    0  501  0.00000000000E+00  0.00000000000E+00  0.15061507619E+04  0.15061507619E+04  0.50400001928E-02 0. -1.
        1   -1    0    0  501    0  0.00000000000E+00  0.00000000000E+00 -0.15710386190E+04  0.15710386190E+04  0.50400001928E-02 0.  1.
    10030    2    1    2    0    0  0.00000000000E+00  0.00000000000E+00 -0.64887857113E+02  0.30771893809E+04  0.30765051686E+04 0.  0.
        1    1    3    3  502    0 -0.48644355008E+03 -0.15093532298E+03 -0.14842529466E+04  0.15692085931E+04  0.50400001928E-02 0.  1.
       -1    1    3    3    0  502  0.48644355008E+03  0.15093532298E+03  0.14193650895E+04  0.15079807878E+04  0.50400001928E-02 0. -1.
</event>
<event>
 5   0  0.2094135E-06  0.3138464E+04  0.7818609E-02  0.8205260E-01
        2   -1    0    0  501    0  0.00000000000E+00  0.00000000000E+00  0.16226816659E+04  0.16226816659E+04  0.25500000920E-02 0.  1.
       -2   -1    0    0    0  501  0.00000000000E+00  0.00000000000E+00 -0.15175426432E+04  0.15175426433E+04  0.25500000920E-02 0. -1.
    10030    2    1    2    0    0  0.00000000000E+00  0.00000000000E+00  0.10513902261E+03  0.31402243091E+04  0.31384637161E+04 0.  0.
        4    1    3    3  502    0 -0.12054961842E+04  0.34445339508E+03 -0.89168539345E+03  0.15384972035E+04  0.12699999809E+01 0. -1.
       -4    1    3    3    0  502  0.12054961842E+04 -0.34445339508E+03  0.99682441606E+03  0.16017271056E+04  0.12699999809E+01 0.  1.
</event>
<event>
 5   0  0.2078009E-06  0.3073257E+04  0.7818609E-02  0.8223116E-01
        2   -1    0    0  501    0  0.00000000000E+00  0.00000000000E+00  0.11713325121E+04  0.11713325121E+04  0.25500000920E-02 0.  1.
       -2   -1    0    0    0  501  0.00000000000E+00  0.00000000000E+00 -0.20158465668E+04  0.20158465668E+04  0.25500000920E-02 0. -1.
    10030    2    1    2    0    0  0.00000000000E+00  0.00000000000E+00 -0.84451405470E+03  0.31871790790E+04  0.30732566591E+04 0.  0.
        3    1    3    3  502    0  0.67330093441E+03  0.13447826857E+04 -0.95206856645E+02  0.15069303155E+04  0.10100000352E+00 0.  1.
       -3    1    3    3    0  502 -0.67330093441E+03 -0.13447826857E+04 -0.74930719805E+03  0.16802487635E+04  0.10100000352E+00 0. -1.
</event>
<event>
 5   0  0.7656332E-07  0.3114155E+04  0.7818609E-02  0.8211864E-01
       -1   -1    0    0    0  501  0.00000000000E+00  0.00000000000E+00  0.15720107334E+04  0.15720107334E+04  0.50400001928E-02 0. -1.
        1   -1    0    0  501    0  0.00000000000E+00  0.00000000000E+00 -0.15422860986E+04  0.15422860986E+04  0.50400001928E-02 0.  1.
    10030    2    1    2    0    0  0.00000000000E+00  0.00000000000E+00  0.29724634772E+02  0.31142968321E+04  0.31141549744E+04 0.  0.
        2    1    3    3  502    0 -0.14454378950E+04 -0.55759197019E+03  0.17072443773E+03  0.15586360535E+04  0.25500000920E-02 0. -1.
       -2    1    3    3    0  502  0.14454378950E+04  0.55759197019E+03 -0.14099980296E+03  0.15556607786E+04  0.25500000920E-02 0.  1.
</event>
<event>
 5   0  0.7561815E-07  0.3082630E+04  0.7818609E-02  0.8220521E-01
       -1   -1    0    0    0  501  0.00000000000E+00  0.00000000000E+00  0.89868395973E+03  0.89868395974E+03  0.50400001928E-02 0. -1.
        1   -1    0    0  501    0  0.00000000000E+00  0.00000000000E+00 -0.26434780355E+04  0.26434780355E+04  0.50400001928E-02 0.  1.
    10030    2    1    2    0    0  0.00000000000E+00  0.00000000000E+00 -0.17447940758E+04  0.35421619953E+04  0.30826295972E+04 0.  0.
        3    1    3    3  502    0  0.51957614304E+03  0.55913689404E+03 -0.24110625786E+04  0.25289950975E+04  0.10100000352E+00 0.  1.
       -3    1    3    3    0  502 -0.51957614304E+03 -0.55913689404E+03  0.66626850285E+03  0.10131668978E+04  0.10100000352E+00 0. -1.
</event>
<event>
 5   0  0.2133385E-06  0.3087740E+04  0.7818609E-02  0.8219111E-01
        2   -1    0    0  501    0  0.00000000000E+00  0.00000000000E+00  0.15009155034E+04  0.15009155034E+04  0.25500000920E-02 0. -1.
       -2   -1    0    0    0  501  0.00000000000E+00  0.00000000000E+00 -0.15880541480E+04  0.15880541480E+04  0.25500000920E-02 0.  1.
    10030    2    1    2    0    0  0.00000000000E+00  0.00000000000E+00 -0.87138644551E+02  0.30889696514E+04  0.30877403330E+04 0.  0.
        2    1    3    3  502    0  0.98720022716E+02  0.13353334403E+04  0.72528988042E+03  0.15227956036E+04  0.25500000920E-02 0.  1.
       -2    1    3    3    0  502 -0.98720022716E+02 -0.13353334403E+04 -0.81242852498E+03  0.15661740478E+04  0.25500000920E-02 0. -1.
</event>
<event>
 5   0  0.2094135E-06  0.3101841E+04  0.7818609E-02  0.8215233E-01
        2   -1    0    0  501    0  0.00000000000E+00  0.00000000000E+00  0.20978488041E+04  0.20978488041E+04  0.25500000920E-02 0. -1.
       -2   -1    0    0    0  501  0.00000000000E+00  0.00000000000E+00 -0.11465816895E+04  0.11465816895E+04  0.25500000920E-02 0.  1.
    10030    2    1    2    0    0  0.00000000000E+00  0.00000000000E+00  0.95126711462E+03  0.32444304936E+04  0.31018414054E+04 0.  0.
        4    1    3    3  502    0  0.14313221528E+04  0.51999029905E+03  0.16839554076E+03  0.15321330514E+04  0.12699999809E+01 0.  1.
       -4    1    3    3    0  502 -0.14313221528E+04 -0.51999029905E+03  0.78287157386E+03  0.17122974421E+04  0.12699999809E+01 0. -1.
</event>
<event>
 5   0  0.7726743E-07  0.3106470E+04  0.7818609E-02  0.8213964E-01
       -1   -1    0    0    0  501  0.00000000000E+00  0.00000000000E+00  0.11644704105E+04  0.11644704105E+04  0.50400001928E-02 0.  1.
        1   -1    0    0  501    0  0.00000000000E+00  0.00000000000E+00 -0.20717913554E+04  0.20717913554E+04  0.50400001928E-02 0. -1.
    10030    2    1    2    0    0  0.00000000000E+00  0.00000000000E+00 -0.90732094491E+03  0.32362617659E+04  0.31064704924E+04 0.  0.
        1    1    3    3  502    0 -0.96687266125E+03 -0.68509354428E+03 -0.14997786069E+04  0.19114214023E+04  0.50400001928E-02 0. -1.
       -1    1    3    3    0  502  0.96687266125E+03  0.68509354428E+03  0.59245766203E+03  0.13248403635E+04  0.50400001928E-02 0.  1.
</event>
<event>
 5   0  0.7726743E-07  0.3086513E+04  0.7818609E-02  0.8219449E-01
        1   -1    0    0  501    0  0.00000000000E+00  0.00000000000E+00  0.22310208189E+04  0.22310208189E+04  0.50400001928E-02 0.  1.
       -1   -1    0    0    0  501  0.00000000000E+00  0.00000000000E+00 -0.10675115112E+04  0.10675115112E+04  0.50400001928E-02 0. -1.
    10030    2    1    2    0    0  0.00000000000E+00  0.00000000000E+00  0.11635093078E+04  0.32985323301E+04  0.30865128582E+04 0.  0.
        1    1    3    3  502    0  0.88926884171E+02  0.95546905222E+03  0.18734191288E+04  0.21048820235E+04  0.50400001928E-02 0.  1.
       -1    1    3    3    0  502 -0.88926884171E+02 -0.95546905222E+03 -0.70990982106E+03  0.11936503066E+04  0.50400001928E-02 0. -1.
</event>
<event>
 5   0  0.2078009E-06  0.3080570E+04  0.7818609E-02  0.8221090E-01
        2   -1    0    0  501    0  0.00000000000E+00  0.00000000000E+00  0.28506908230E+04  0.28506908230E+04  0.25500000920E-02 0.  1.
       -2   -1    0    0    0  501  0.00000000000E+00  0.00000000000E+00 -0.83224685281E+03  0.83224685282E+03  0.25500000920E-02 0. -1.
    10030    2    1    2    0    0  0.00000000000E+00  0.00000000000E+00  0.20184439702E+04  0.36829376759E+04  0.30805703795E+04 0.  0.
        3    1    3    3  502    0  0.12549793403E+04 -0.19160392831E+03  0.20520112665E+04  0.24129723285E+04  0.10100000352E+00 0.  1.
       -3    1    3    3    0  502 -0.12549793403E+04  0.19160392831E+03 -0.33567296265E+02  0.12699653474E+04  0.10100000352E+00 0. -1.
</event>
<event>
 5   0  0.7519202E-07  0.3087197E+04  0.7818609E-02  0.8219260E-01
        1   -1    0    0  501    0  0.00000000000E+00  0.00000000000E+00  0.15179765379E+04  0.15179765380E+04  0.50400001928E-02 0.  1.
       -1   -1    0    0    0  501  0.00000000000E+00  0.00000000000E+00 -0.15696526871E+04  0.15696526871E+04  0.50400001928E-02 0. -1.
    10030    2    1    2    0    0  0.00000000000E+00  0.00000000000E+00 -0.51676149114E+02  0.30876292250E+04  0.30871967554E+04 0.  0.
        4    1    3    3  502    0 -0.11901759509E+04 -0.30404821832E+02 -0.10084476331E+04  0.15602600709E+04  0.12699999809E+01 0. -1.
       -4    1    3    3    0  502  0.11901759509E+04  0.30404821832E+02  0.95677148402E+03  0.15273691541E+04  0.12699999809E+01 0.  1.
</event>
<event>
 5   0  0.7726743E-07  0.3099412E+04  0.7818609E-02  0.8215899E-01
        1   -1    0    0  501    0  0.00000000000E+00  0.00000000000E+00  0.20149081787E+04  0.20149081787E+04  0.50400001928E-02 0.  1.
       -1   -1    0    0    0  501  0.00000000000E+00  0.00000000000E+00 -0.11919095458E+04  0.11919095458E+04  0.50400001928E-02 0. -1.
    10030    2    1    2    0    0  0.00000000000E+00  0.00000000000E+00  0.82299863291E+03  0.32068177245E+04  0.30994117455E+04 0.  0.
        1    1    3    3  502    0 -0.88888884801E+03  0.41763288266E+03  0.16518103019E+04  0.19217226341E+04  0.50400001928E-02 0.  1.
       -1    1    3    3    0  502  0.88888884801E+03 -0.41763288266E+03 -0.82881166898E+03  0.12850950904E+04  0.50400001928E-02 0. -1.
</event>
<event>
 5   0  0.7726743E-07  0.2981376E+04  0.7818609E-02  0.8249069E-01
        1   -1    0    0  501    0  0.00000000000E+00  0.00000000000E+00  0.25062856351E+04  0.25062856351E+04  0.50400001928E-02 0. -1.
       -1   -1    0    0    0  501  0.00000000000E+00  0.00000000000E+00 -0.88663128955E+03  0.88663128956E+03  0.50400001928E-02 0.  1.
    10030    2    1    2    0    0  0.00000000000E+00  0.00000000000E+00  0.16196543455E+04  0.33929169246E+04  0.29813763698E+04 0.  0.
        1    1    3    3  502    0 -0.41561728402E+03  0.31999903128E+03  0.23977923552E+04  0.24544949146E+04  0.50400001928E-02 0. -1.
       -1    1    3    3    0  502  0.41561728402E+03 -0.31999903128E+03 -0.77813800971E+03  0.93842201007E+03  0.50400001928E-02 0.  1.
</event>
<event>
 5   0  0.7561815E-07  0.3099363E+04  0.7818609E-02  0.8215913E-01
        1   -1    0    0  501    0  0.00000000000E+00  0.00000000000E+00  0.24138108318E+04  0.24138108318E+04  0.50400001928E-02 0.  1.
       -1   -1    0    0    0  501  0.00000000000E+00  0.00000000000E+00 -0.99490540120E+03  0.99490540121E+03  0.50400001928E-02 0. -1.
    10030    2    1    2    0    0  0.00000000000E+00  0.00000000000E+00  0.14189054306E+04  0.34087162330E+04  0.30993634405E+04 0.  0.
        3    1    3    3  502    0 -0.13811329170E+03 -0.90216289508E+03  0.20868720574E+04  0.22777199487E+04  0.10100000352E+00 0.  1.
       -3    1    3    3    0  502  0.13811329170E+03  0.90216289508E+03 -0.66796662674E+03  0.11309962844E+04  0.10100000352E+00 0. -1.
</event>
<event>
 5   0  0.2226334E-06  0.3123797E+04  0.7818609E-02  0.8209237E-01
        2   -1    0    0  501    0  0.00000000000E+00  0.00000000000E+00  0.18930251758E+04  0.18930251758E+04  0.25500000920E-02 0.  1.
       -2   -1    0    0    0  501  0.00000000000E+00  0.00000000000E+00 -0.12886921595E+04  0.12886921595E+04  0.25500000920E-02 0. -1.
    10030    2    1    2    0    0  0.00000000000E+00  0.00000000000E+00  0.60433301631E+03  0.31817173353E+04  0.31237968575E+04 0.  0.
        5    1    3    3  502    0 -0.29738697088E+03 -0.55028616138E+02 -0.12585762211E+04  0.12944123584E+04  0.46999998093E+01 0. -1.
       -5    1    3    3    0  502  0.29738697088E+03  0.55028616138E+02  0.18629092375E+04  0.18873049770E+04  0.46999998093E+01 0.  1.
</event>
<event>
 5   0  0.7519202E-07  0.3152290E+04  0.7818609E-02  0.8201532E-01
        1   -1    0    0  501    0  0.00000000000E+00  0.00000000000E+00  0.16037122310E+04  0.16037122310E+04  0.50400001928E-02 0.  1.
       -1   -1    0    0    0  501  0.00000000000E+00  0.00000000000E+00 -0.15490520652E+04  0.15490520653E+04  0.50400001928E-02 0. -1.
    10030    2    1    2    0    0  0.00000000000E+00  0.00000000000E+00  0.54660165791E+02  0.31527642963E+04  0.31522904330E+04 0.  0.
        4    1    3    3  502    0 -0.12074754745E+04 -0.69407027159E+03 -0.71068433582E+03  0.15635870304E+04  0.12699999809E+01 0.  1.
       -4    1    3    3    0  502  0.12074754745E+04  0.69407027159E+03  0.76534450161E+03  0.15891772659E+04  0.12699999809E+01 0. -1.
</event>
<event>
 5   0  0.7726743E-07  0.3080964E+04  0.7818609E-02  0.8220982E-01
       -1   -1    0    0    0  501  0.00000000000E+00  0.00000000000E+00  0.13704574100E+04  0.13704574100E+04  0.50400001928E-02 0.  1.
        1   -1    0    0  501    0  0.00000000000E+00  0.00000000000E+00 -0.17316001059E+04  0.17316001059E+04  0.50400001928E-02 0. -1.
    10030    2    1    2    0    0  0.00000000000E+00  0.00000000000E+00 -0.36114269592E+03  0.31020575159E+04  0.30809636131E+04 0.  0.
        1    1    3    3  502    0 -0.61258146259E+03  0.77910443950E+03  0.10068351751E+04  0.14127904465E+04  0.50400001928E-02 0.  1.
       -1    1    3    3    0  502  0.61258146259E+03 -0.77910443950E+03 -0.13679778710E+04  0.16892670694E+04  0.50400001928E-02 0. -1.
</event>
<event>
 5   0  0.7726743E-07  0.3101647E+04  0.7818609E-02  0.8215286E-01
       -1   -1    0    0    0  501  0.00000000000E+00  0.00000000000E+00  0.89703688017E+03  0.89703688019E+03  0.50400001928E-02 0.  1.
        1   -1    0    0  501    0  0.00000000000E+00  0.00000000000E+00 -0.26811085325E+04  0.26811085325E+04  0.50400001928E-02 0. -1.
    10030    2    1    2    0    0  0.00000000000E+00  0.00000000000E+00 -0.17840716523E+04  0.35781454127E+04  0.31016468100E+04 0.  0.
        1    1    3    3  502    0  0.42235534820E+03  0.14893534850E+04 -0.99836619086E+03  0.18420892743E+04  0.50400001928E-02 0. -1.
       -1    1    3    3    0  502 -0.42235534820E+03 -0.14893534850E+04 -0.78570546146E+03  0.17360561384E+04  0.50400001928E-02 0.  1.
</event>
<event>
 5   0  0.2226334E-06  0.3104949E+04  0.7818609E-02  0.8214381E-01
       -2   -1    0    0    0  501  0.00000000000E+00  0.00000000000E+00  0.98727180069E+03  0.98727180069E+03  0.25500000920E-02 0. -1.
        2   -1    0    0  501    0  0.00000000000E+00  0.00000000000E+00 -0.24412503851E+04  0.24412503851E+04  0.25500000920E-02 0.  1.
    10030    2    1    2    0    0  0.00000000000E+00  0.00000000000E+00 -0.14539785844E+04  0.34285221857E+04  0.31049493803E+04 0.  0.
        5    1    3    3  502    0 -0.13059608312E+04  0.59088400245E+03 -0.68636336646E+02  0.14350646792E+04  0.46999998093E+01 0. -1.
       -5    1    3    3    0  502  0.13059608312E+04 -0.59088400245E+03 -0.13853422477E+04  0.19934575065E+04  0.46999998093E+01 0.  1.
</event>
<event>
 5   0  0.2094135E-06  0.3101790E+04  0.7818609E-02  0.8215247E-01
        2   -1    0    0  501    0  0.00000000000E+00  0.00000000000E+00  0.21986251821E+04  0.21986251821E+04  0.25500000920E-02 0. -1.
       -2   -1    0    0    0  501  0.00000000000E+00  0.00000000000E+00 -0.10939903690E+04  0.10939903690E+04  0.25500000920E-02 0.  1.
    10030    2    1    2    0    0  0.00000000000E+00  0.00000000000E+00  0.11046348131E+04  0.32926155511E+04  0.31017896603E+04 0.  0.
        4    1    3    3  502    0  0.94353088126E+03 -0.88019501024E+03 -0.36101003759E+03  0.13398968767E+04  0.12699999809E+01 0.  1.
       -4    1    3    3    0  502 -0.94353088126E+03  0.88019501024E+03  0.14656448507E+04  0.19527186744E+04  0.12699999809E+01 0. -1.
</event>
<event>
 5   0  0.7413481E-07  0.3095006E+04  0.7818609E-02  0.8217110E-01
        1   -1    0    0  501    0  0.00000000000E+00  0.00000000000E+00  0.10635705853E+04  0.10635705853E+04  0.50400001928E-02 0. -1.
       -1   -1    0    0    0  501  0.00000000000E+00  0.00000000000E+00 -0.22516285564E+04  0.22516285564E+04  0.50400001928E-02 0.  1.
    10030    2    1    2    0    0  0.00000000000E+00  0.00000000000E+00 -0.11880579711E+04  0.33151991417E+04  0.30950062369E+04 0.  0.
        5    1    3    3  502    0  0.28707619289E+01  0.26935921858E+03 -0.22263145635E+04  0.22425568567E+04  0.46999998093E+01 0.  1.
       -5    1    3    3    0  502 -0.28707619289E+01 -0.26935921858E+03  0.10382565924E+04  0.10726422850E+04  0.46999998093E+01 0. -1.
</event>
<event>
 5   0  0.2094135E-06  0.3126286E+04  0.7818609E-02  0.8208561E-01
        2   -1    0    0  501    0  0.00000000000E+00  0.00000000000E+00  0.11802278645E+04  0.11802278645E+04  0.25500000920E-02 0.  1.
       -2   -1    0    0    0  501  0.00000000000E+00  0.00000000000E+00 -0.20702914626E+04  0.20702914626E+04  0.25500000920E-02 0. -1.
    10030    2    1    2    0    0  0.00000000000E+00  0.00000000000E+00 -0.89006359807E+03  0.32505193271E+04  0.31262857655E+04 0.  0.
        4    1    3    3  502    0 -0.65840089419E+03 -0.88291389868E+03  0.70827448531E+03  0.13094590675E+04  0.12699999809E+01 0.  1.
       -4    1    3    3    0  502  0.65840089419E+03  0.88291389868E+03 -0.15983380834E+04  0.19410602597E+04  0.12699999809E+01 0. -1.
</event>
<event>
 5   0  0.7561815E-07  0.3091172E+04  0.7818609E-02  0.8218165E-01
       -1   -1    0    0    0  501  0.00000000000E+00  0.00000000000E+00  0.95643991473E+03  0.95643991475E+03  0.50400001928E-02 0. -1.
        1   -1    0    0  501    0  0.00000000000E+00  0.00000000000E+00 -0.24976338403E+04  0.24976338403E+04  0.50400001928E-02 0.  1.
    10030    2    1    2    0    0  0.00000000000E+00  0.00000000000E+00 -0.15411939256E+04  0.34540737550E+04  0.30911723972E+04 0.  0.
        3    1    3    3  502    0 -0.45972807005E+03 -0.14444473615E+04 -0.43341146717E+03  0.15765860550E+04  0.10100000352E+00 0. -1.
       -3    1    3    3    0  502  0.45972807005E+03  0.14444473615E+04 -0.11077824584E+04  0.18774877001E+04  0.10100000352E+00 0.  1.
</event>
<event>
 5   0  0.2133385E-06  0.3002694E+04  0.7818609E-02  0.8242962E-01
        2   -1    0    0  501    0  0.00000000000E+00  0.00000000000E+00  0.24461412254E+04  0.24461412254E+04  0.25500000920E-02 0.  1.
       -2   -1    0    0    0  501  0.00000000000E+00  0.00000000000E+00 -0.92146907807E+03  0.92146907807E+03  0.25500000920E-02 0. -1.
    10030    2    1    2    0    0  0.00000000000E+00  0.00000000000E+00  0.15246721474E+04  0.33676103035E+04  0.30026944565E+04 0.  0.
        2    1    3    3  502    0 -0.72783343630E+03  0.10902834622E+04 -0.58439585889E+02  0.13122022421E+04  0.25500000920E-02 0. -1.
       -2    1    3    3    0  502  0.72783343630E+03 -0.10902834622E+04  0.15831117332E+04  0.20554080614E+04  0.25500000920E-02 0.  1.
</event>
<event>
 5   0  0.2067926E-06  0.3026725E+04  0.7818609E-02  0.8236140E-01
       -2   -1    0    0    0  501  0.00000000000E+00  0.00000000000E+00  0.82179621386E+03  0.82179621387E+03  0.25500000920E-02 0.  1.
        2   -1    0    0  501    0  0.00000000000E+00  0.00000000000E+00 -0.27869026330E+04  0.27869026330E+04  0.25500000920E-02 0. -1.
    10030    2    1    2    0    0  0.00000000000E+00  0.00000000000E+00 -0.19651064192E+04  0.36086988469E+04  0.30267249840E+04 0.  0.
        1    1    3    3  502    0  0.34186182226E+03 -0.10003764217E+04 -0.22736556059E+04  0.25074154631E+04  0.50400001928E-02 0. -1.
       -1    1    3    3    0  502 -0.34186182226E+03  0.10003764217E+04  0.30854918669E+03  0.11012833838E+04  0.50400001928E-02 0.  1.
</event>
<event>
 5   0  0.7519202E-07  0.3092385E+04  0.7818609E-02  0.8217831E-01
       -1   -1    0    0    0  501  0.00000000000E+00  0.00000000000E+00  0.12596526360E+04  0.12596526360E+04  0.50400001928E-02 0. -1.
        1   -1    0    0  501    0  0.00000000000E+00  0.00000000000E+00 -0.18979127024E+04  0.18979127024E+04  0.50400001928E-02 0.  1.
    10030    2    1    2    0    0  0.00000000000E+00  0.00000000000E+00 -0.63826006636E+03  0.31575653384E+04  0.30923846711E+04 0.  0.
        4    1    3    3  502    0  0.11166396596E+04  0.10503133923E+04 -0.52504062906E+03  0.16204047725E+04  0.12699999809E+01 0.  1.
       -4    1    3    3    0  502 -0.11166396596E+04 -0.10503133923E+04 -0.11321943729E+03  0.15371605659E+04  0.12699999809E+01 0. -1.
</event>
<event>
 5   0  0.2067926E-06  0.3101836E+04  0.7818609E-02  0.8215234E-01
        2   -1    0    0  501    0  0.00000000000E+00  0.00000000000E+00  0.32438535469E+04  0.32438535469E+04  0.25500000920E-02 0. -1.
       -2   -1    0    0    0  501  0.00000000000E+00  0.00000000000E+00 -0.74150918432E+03  0.74150918432E+03  0.25500000920E-02 0.  1.
    10030    2    1    2    0    0  0.00000000000E+00  0.00000000000E+00  0.25023443626E+04  0.39853627312E+04  0.31018363578E+04 0.  0.
        1    1    3    3  502    0 -0.67269397583E+03  0.12470065037E+04  0.20615433443E+04  0.25015002231E+04  0.50400001928E-02 0. -1.
       -1    1    3    3    0  502  0.67269397583E+03 -0.12470065037E+04  0.44080101828E+03  0.14838625082E+04  0.50400001928E-02 0.  1.
</event>
<event>
 5   0  0.7656332E-07  0.3119532E+04  0.7818609E-02  0.8210398E-01
        1   -1    0    0  501    0  0.00000000000E+00  0.00000000000E+00  0.17387193333E+04  0.17387193333E+04  0.50400001928E-02 0.  1.
       -1   -1    0    0    0  501  0.00000000000E+00  0.00000000000E+00 -0.13992312207E+04  0.13992312207E+04  0.50400001928E-02 0. -1.
    10030    2    1    2    0    0  0.00000000000E+00  0.00000000000E+00  0.33948811258E+03  0.31379505540E+04  0.31195322567E+04 0.  0.
        2    1    3    3  502    0  0.14078604441E+04 -0.61453002524E+03 -0.10231944987E+03  0.15395413122E+04  0.25500000920E-02 0. -1.
       -2    1    3    3    0  502 -0.14078604441E+04  0.61453002524E+03  0.44180756246E+03  0.15984092418E+04  0.25500000920E-02 0.  1.
</event>
<event>
 5   0  0.2094135E-06  0.3106815E+04  0.7818609E-02  0.8213870E-01
        2   -1    0    0  501    0  0.00000000000E+00  0.00000000000E+00  0.17366595371E+04  0.17366595371E+04  0.25500000920E-02 0.  1.
       -2   -1    0    0    0  501  0.00000000000E+00  0.00000000000E+00 -0.13894920737E+04  0.13894920737E+04  0.25500000920E-02 0. -1.
    10030    2    1    2    0    0  0.00000000000E+00  0.00000000000E+00  0.34716746341E+03  0.31261516107E+04  0.31068148715E+04 0.  0.
        4    1    3    3  502    0  0.44004749314E+03 -0.33336142348E+03 -0.12874525844E+04  0.14008238307E+04  0.12699999809E+01 0. -1.
       -4    1    3    3    0  502 -0.44004749314E+03  0.33336142348E+03  0.16346200478E+04  0.17253277800E+04  0.12699999809E+01 0.  1.
</event>
<event>
 5   0  0.2078009E-06  0.2945474E+04  0.7818609E-02  0.8259475E-01
        2   -1    0    0  501    0  0.00000000000E+00  0.00000000000E+00  0.12853438702E+04  0.12853438702E+04  0.25500000920E-02 0. -1.
       -2   -1    0    0    0  501  0.00000000000E+00  0.00000000000E+00 -0.16874501970E+04  0.16874501970E+04  0.25500000920E-02 0.  1.
    10030    2    1    2    0    0  0.00000000000E+00  0.00000000000E+00 -0.40210632674E+03  0.29727940672E+04  0.29454736577E+04 0.  0.
        3    1    3    3  502    0 -0.56948079830E+03 -0.13418339839E+04 -0.41306571492E+03  0.15150742936E+04  0.10100000352E+00 0.  1.
       -3    1    3    3    0  502  0.56948079830E+03  0.13418339839E+04  0.10959388178E+02  0.14577197736E+04  0.10100000352E+00 0. -1.
</event>
<event>
 5   0  0.7656332E-07  0.3086195E+04  0.7818609E-02  0.8219537E-01
       -1   -1    0    0    0  501  0.00000000000E+00  0.00000000000E+00  0.17648065117E+04  0.17648065117E+04  0.50400001928E-02 0. -1.
        1   -1    0    0  501    0  0.00000000000E+00  0.00000000000E+00 -0.13492416002E+04  0.13492416002E+04  0.50400001928E-02 0.  1.
    10030    2    1    2    0    0  0.00000000000E+00  0.00000000000E+00  0.41556491151E+03  0.31140481119E+04  0.30861953029E+04 0.  0.
        2    1    3    3  502    0  0.41032948383E+03 -0.92909252129E+03 -0.96441065226E+03  0.14005966959E+04  0.25500000920E-02 0.  1.
       -2    1    3    3    0  502 -0.41032948383E+03  0.92909252129E+03  0.13799755638E+04  0.17134514160E+04  0.25500000920E-02 0. -1.
</event>
<event>
 5   0  0.7519202E-07  0.3092213E+04  0.7818609E-02  0.8217878E-01
       -1   -1    0    0    0  501  0.00000000000E+00  0.00000000000E+00  0.11876924064E+04  0.11876924064E+04  0.50400001928E-02 0.  1.
        1   -1    0    0  501    0  0.00000000000E+00  0.00000000000E+00 -0.20126801288E+04  0.20126801288E+04  0.50400001928E-02 0. -1.
    10030    2    1    2    0    0  0.00000000000E+00  0.00000000000E+00 -0.82498772234E+03  0.32003725352E+04  0.30922127388E+04 0.  0.
        4    1    3    3  502    0  0.52618173833E+03 -0.41511577652E+03  0.10295300418E+04  0.12284632878E+04  0.12699999809E+01 0.  1.
       -4    1    3    3    0  502 -0.52618173833E+03  0.41511577652E+03 -0.18545177641E+04  0.19719092474E+04  0.12699999809E+01 0. -1.
</event>
<event>
 5   0  0.7561815E-07  0.3095660E+04  0.7818609E-02  0.8216930E-01
        1   -1    0    0  501    0  0.00000000000E+00  0.00000000000E+00  0.13987667250E+04  0.13987667251E+04  0.50400001928E-02 0.  1.
       -1   -1    0    0    0  501  0.00000000000E+00  0.00000000000E+00 -0.17127781560E+04  0.17127781560E+04  0.50400001928E-02 0. -1.
    10030    2    1    2    0    0  0.00000000000E+00  0.00000000000E+00 -0.31401143095E+03  0.31115448811E+04  0.30956596015E+04 0.  0.
        3    1    3    3  502    0  0.62127873924E+02  0.17392172378E+02 -0.17114260860E+04  0.17126417076E+04  0.10100000352E+00 0. -1.
       -3    1    3    3    0  502 -0.62127873924E+02 -0.17392172378E+02  0.13974146551E+04  0.13989031735E+04  0.10100000352E+00 0.  1.
</event>
<event>
 5   0  0.7561815E-07  0.2743700E+04  0.7818609E-02  0.8320964E-01
        1   -1    0    0  501    0  0.00000000000E+00  0.00000000000E+00  0.13021605814E+04  0.13021605815E+04  0.50400001928E-02 0. -1.
       -1   -1    0    0    0  501  0.00000000000E+00  0.00000000000E+00 -0.14452687654E+04  0.14452687654E+04  0.50400001928E-02 0.  1.
    10030    2    1    2    0    0  0.00000000000E+00  0.00000000000E+00 -0.14310818396E+03  0.27474293469E+04  0.27436997036E+04 0.  0.
        3    1    3    3  502    0  0.32395461027E+03  0.32841421000E+03 -0.13652737573E+04  0.14411019830E+04  0.10100000352E+00 0.  1.
       -3    1    3    3    0  502 -0.32395461027E+03 -0.32841421000E+03  0.12221655733E+04  0.13063273639E+04  0.10100000352E+00 0. -1.
</event>
<event>
 5   0  0.2067926E-06  0.3111974E+04  0.7818609E-02  0.8212459E-01
       -2   -1    0    0    0  501  0.00000000000E+00  0.00000000000E+00  0.90586401213E+03  0.90586401213E+03  0.25500000920E-02 0. -1.
        2   -1    0    0  501    0  0.00000000000E+00  0.00000000000E+00 -0.26726921695E+04  0.26726921695E+04  0.25500000920E-02 0.  1.
    10030    2    1    2    0    0  0.00000000000E+00  0.00000000000E+00 -0.17668281574E+04  0.35785561817E+04  0.31119740692E+04 0.  0.
        1    1    3    3  502    0  0.29375473845E+03  0.11781564269E+04  0.23548215353E+03  0.12368493268E+04  0.50400001928E-02 0. -1.
       -1    1    3    3    0  502 -0.29375473845E+03 -0.11781564269E+04 -0.20023103109E+04  0.23417068548E+04  0.50400001928E-02 0.  1.
</event>
<event>
 5   0  0.2078009E-06  0.3100131E+04  0.7818609E-02  0.8215702E-01
        2   -1    0    0  501    0  0.00000000000E+00  0.00000000000E+00  0.10988756372E+04  0.10988756372E+04  0.25500000920E-02 0.  1.
       -2   -1    0    0    0  501  0.00000000000E+00  0.00000000000E+00 -0.21865101701E+04  0.21865101701E+04  0.25500000920E-02 0. -1.
    10030    2    1    2    0    0  0.00000000000E+00  0.00000000000E+00 -0.10876345330E+04  0.32853858073E+04  0.31001308078E+04 0.  0.
        3    1    3    3  502    0  0.38511564812E+03 -0.76148127762E+03  0.82754901038E+03  0.11886989414E+04  0.10100000352E+00 0.  1.
       -3    1    3    3    0  502 -0.38511564812E+03  0.76148127762E+03 -0.19151835434E+04  0.20966868659E+04  0.10100000352E+00 0. -1.
</event>
<event>
 5   0  0.2133385E-06  0.3107020E+04  0.7818609E-02  0.8213814E-01
       -2   -1    0    0    0  501  0.00000000000E+00  0.00000000000E+00  0.13576236730E+04  0.13576236730E+04  0.25500000920E-02 0. -1.
        2   -1    0    0  501    0  0.00000000000E+00  0.00000000000E+00 -0.17776596689E+04  0.17776596690E+04  0.25500000920E-02 0.  1.
    10030    2    1    2    0    0  0.00000000000E+00  0.00000000000E+00 -0.42003599595E+03  0.31352833420E+04  0.31070196968E+04 0.  0.
        2    1    3    3  502    0 -0.70959404784E+02  0.14643198279E+04  0.30858806238E+03  0.14981636719E+04  0.25500000920E-02 0. -1.
       -2    1    3    3    0  502  0.70959404784E+02 -0.14643198279E+04 -0.72862405833E+03  0.16371196700E+04  0.25500000920E-02 0.  1.
</event>
<event>
 5   0  0.7726743E-07  0.3100972E+04  0.7818609E-02  0.8215471E-01
        1   -1    0    0  501    0  0.00000000000E+00  0.00000000000E+00  0.24718785232E+04  0.24718785232E+04  0.50400001928E-02 0. -1.
       -1   -1    0    0    0  501  0.00000000000E+00  0.00000000000E+00 -0.97254276002E+03  0.97254276003E+03  0.50400001928E-02 0.  1.
    10030    2    1    2    0    0  0.00000000000E+00  0.00000000000E+00  0.14993357632E+04  0.34444212833E+04  0.31009724678E+04 0.  0.
        1    1    3    3  502    0  0.74419843033E+03  0.10628286287E+04 -0.19321318159E+03  0.13117802145E+04  0.50400001928E-02 0.  1.
       -1    1    3    3    0  502 -0.74419843033E+03 -0.10628286287E+04  0.16925489448E+04  0.21326410688E+04  0.50400001928E-02 0. -1.
</event>
<event>
 5   0  0.2133385E-06  0.3104194E+04  0.7818609E-02  0.8214588E-01
        2   -1    0    0  501    0  0.00000000000E+00  0.00000000000E+00  0.19325743256E+04  0.19325743256E+04  0.25500000920E-02 0. -1.
       -2   -1    0    0    0  501  0.00000000000E+00  0.00000000000E+00 -0.12465261869E+04  0.12465261869E+04  0.25500000920E-02 0.  1.
    10030    2    1    2    0    0  0.00000000000E+00  0.00000000000E+00  0.68604813871E+03  0.31791005124E+04  0.31041936183E+04 0.  0.
        2    1    3    3  502    0 -0.95054927906E+03 -0.34131050847E+03 -0.86395998357E+03  0.13290837627E+04  0.25500000920E-02 0.  1.
       -2    1    3    3    0  502  0.95054927906E+03  0.34131050847E+03  0.15500081223E+04  0.18500167497E+04  0.25500000920E-02 0. -1.
</event>
<event>
 5   0  0.7726743E-07  0.3058282E+04  0.7818609E-02  0.8227281E-01
        1   -1    0    0  501    0  0.00000000000E+00  0.00000000000E+00  0.15014766499E+04  0.15014766499E+04  0.50400001928E-02 0. -1.
       -1   -1    0    0    0  501  0.00000000000E+00  0.00000000000E+00 -0.15573150763E+04  0.15573150763E+04  0.50400001928E-02 0.  1.
    10030    2    1    2    0    0  0.00000000000E+00  0.00000000000E+00 -0.55838426371E+02  0.30587917263E+04  0.30582820169E+04 0.  0.
        1    1    3    3  502    0 -0.12964164504E+04 -0.26325774319E+03  0.73919751634E+03  0.15153921012E+04  0.50400001928E-02 0. -1.
       -1    1    3    3    0  502  0.12964164504E+04  0.26325774319E+03 -0.79503594271E+03  0.15433996250E+04  0.50400001928E-02 0.  1.
</event>
<event>
 5   0  0.7413481E-07  0.3106599E+04  0.7818609E-02  0.8213929E-01
       -1   -1    0    0    0  501  0.00000000000E+00  0.00000000000E+00  0.11972748906E+04  0.11972748906E+04  0.50400001928E-02 0.  1.
        1   -1    0    0  501    0  0.00000000000E+00  0.00000000000E+00 -0.20151925395E+04  0.20151925396E+04  0.50400001928E-02 0. -1.
    10030    2    1    2    0    0  0.00000000000E+00  0.00000000000E+00 -0.81791764896E+03  0.32124674301E+04  0.31065990583E+04 0.  0.
        5    1    3    3  502    0  0.70267091762E+03 -0.94120186667E+03  0.64209946626E+03  0.13386266047E+04  0.46999998093E+01 0.  1.
       -5    1    3    3    0  502 -0.70267091762E+03  0.94120186667E+03 -0.14600171152E+04  0.18738408254E+04  0.46999998093E+01 0. -1.
</event>
<event>
 5   0  0.2094135E-06  0.3097479E+04  0.7818609E-02  0.8216430E-01
       -2   -1    0    0    0  501  0.00000000000E+00  0.00000000000E+00  0.94214074217E+03  0.94214074217E+03  0.25500000920E-02 0. -1.
        2   -1    0    0  501    0  0.00000000000E+00  0.00000000000E+00 -0.25458977119E+04  0.25458977119E+04  0.25500000920E-02 0.  1.
    10030    2    1    2    0    0  0.00000000000E+00  0.00000000000E+00 -0.16037569698E+04  0.34880384541E+04  0.30974789490E+04 0.  0.
        4    1    3    3  502    0 -0.15175598120E+04 -0.25116950439E+03 -0.59881222133E+03  0.16506518689E+04  0.12699999809E+01 0.  1.
       -4    1    3    3    0  502  0.15175598120E+04  0.25116950439E+03 -0.10049447485E+04  0.18373865852E+04  0.12699999809E+01 0. -1.
</event>
<event>
 5   0  0.7561815E-07  0.3091598E+04  0.7818609E-02  0.8218048E-01
       -1   -1    0    0    0  501  0.00000000000E+00  0.00000000000E+00  0.18365716591E+04  0.18365716591E+04  0.50400001928E-02 0. -1.
        1   -1    0    0  501    0  0.00000000000E+00  0.00000000000E+00 -0.13010623216E+04  0.13010623216E+04  0.50400001928E-02 0.  1.
    10030    2    1    2    0    0  0.00000000000E+00  0.00000000000E+00  0.53550933746E+03  0.31376339807E+04  0.30915977659E+04 0.  0.
        3    1    3    3  502    0  0.63084392856E+02 -0.15022655090E+04  0.63186272839E+03  0.16309603974E+04  0.10100000352E+00 0. -1.
       -3    1    3    3    0  502 -0.63084392856E+02  0.15022655090E+04 -0.96353390935E+02  0.15066735832E+04  0.10100000352E+00 0.  1.
</event>
<event>
 5   0  0.6979625E-07  0.2994244E+04  0.7818609E-02  0.8245376E-01
       -3   -1    0    0    0  501  0.00000000000E+00  0.00000000000E+00  0.13306876651E+04  0.13306876689E+04  0.10100000352E+00 0. -1.
        3   -1    0    0  501    0  0.00000000000E+00  0.00000000000E+00 -0.16843730599E+04  0.16843730629E+04  0.10100000352E+00 0.  1.
    10030    2    1    2    0    0  0.00000000000E+00  0.00000000000E+00 -0.35368539479E+03  0.30150607318E+04  0.29942441213E+04 0.  0.
        3    1    3    3  502    0 -0.58714114293E+03 -0.11715657357E+04  0.55211939077E+03  0.14220185747E+04  0.10100000352E+00 0. -1.
       -3    1    3    3    0  502  0.58714114293E+03  0.11715657357E+04 -0.90580478555E+03  0.15930421572E+04  0.10100000352E+00 0.  1.
</event>
<event>
 5   0  0.7726743E-07  0.3109638E+04  0.7818609E-02  0.8213098E-01
       -1   -1    0    0    0  501  0.00000000000E+00  0.00000000000E+00  0.18905722171E+04  0.18905722171E+04  0.50400001928E-02 0.  1.
        1   -1    0    0  501    0  0.00000000000E+00  0.00000000000E+00 -0.12786931421E+04  0.12786931421E+04  0.50400001928E-02 0. -1.
    10030    2    1    2    0    0  0.00000000000E+00  0.00000000000E+00  0.61187907501E+03  0.31692653593E+04  0.31096377466E+04 0.  0.
        1    1    3    3  502    0 -0.69824577644E+03  0.10562213365E+04  0.12256348419E+04  0.17621950634E+04  0.50400001928E-02 0.  1.
       -1    1    3    3    0  502  0.69824577644E+03 -0.10562213365E+04 -0.61375576685E+03  0.14070702958E+04  0.50400001928E-02 0. -1.
</event>
<event>
 5   0  0.7656332E-07  0.3075984E+04  0.7818609E-02  0.8222360E-01
        1   -1    0    0  501    0  0.00000000000E+00  0.00000000000E+00  0.16149661144E+04  0.16149661145E+04  0.50400001928E-02 0. -1.
       -1   -1    0    0    0  501  0.00000000000E+00  0.00000000000E+00 -0.14646868911E+04  0.14646868911E+04  0.50400001928E-02 0.  1.
    10030    2    1    2    0    0  0.00000000000E+00  0.00000000000E+00  0.15027922335E+03  0.30796530056E+04  0.30759841985E+04 0.  0.
        2    1    3    3  502    0  0.46507188943E+03 -0.28063917270E+03  0.15157336569E+04  0.16101238232E+04  0.25500000920E-02 0. -1.
       -2    1    3    3    0  502 -0.46507188943E+03  0.28063917270E+03 -0.13654544335E+04  0.14695291823E+04  0.25500000920E-02 0.  1.
</event>
<event>
 5   0  0.7519202E-07  0.3124537E+04  0.7818609E-02  0.8209036E-01
       -1   -1    0    0    0  501  0.00000000000E+00  0.00000000000E+00  0.11582245479E+04  0.11582245479E+04  0.50400001928E-02 0.  1.
        1   -1    0    0  501    0  0.00000000000E+00  0.00000000000E+00 -0.21072628706E+04  0.21072628706E+04  0.50400001928E-02 0. -1.
    10030    2    1    2    0    0  0.00000000000E+00  0.00000000000E+00 -0.94903832273E+03  0.32654874185E+04  0.31245374605E+04 0.  0.
        4    1    3    3  502    0  0.95567054786E+02 -0.14259238772E+04  0.18505249436E+03  0.14410544765E+04  0.12699999809E+01 0.  1.
       -4    1    3    3    0  502 -0.95567054786E+02  0.14259238772E+04 -0.11340908171E+04  0.18244329420E+04  0.12699999809E+01 0. -1.
</event>
<event>
 5   0  0.7413481E-07  0.3121548E+04  0.7818609E-02  0.8209849E-01
       -1   -1    0    0    0  501  0.00000000000E+00  0.00000000000E+00  0.11399880130E+04  0.11399880130E+04  0.50400001928E-02 0. -1.
        1   -1    0    0  501    0  0.00000000000E+00  0.00000000000E+00 -0.21368785692E+04  0.21368785692E+04  0.50400001928E-02 0.  1.
    10030    2    1    2    0    0  0.00000000000E+00  0.00000000000E+00 -0.99689055619E+03  0.32768665823E+04  0.31215483044E+04 0.  0.
        5    1    3    3  502    0  0.13933841539E+04 -0.29725507341E+03  0.17053392819E+03  0.14349159869E+04  0.46999998093E+01 0. -1.
       -5    1    3    3    0  502 -0.13933841539E+04  0.29725507341E+03 -0.11674244844E+04  0.18419505953E+04  0.46999998093E+01 0.  1.
</event>
<event>
 5   0  0.2067926E-06  0.3087291E+04  0.7818609E-02  0.8219234E-01
       -2   -1    0    0    0  501  0.00000000000E+00  0.00000000000E+00  0.11456844926E+04  0.11456844926E+04  0.25500000920E-02 0.  1.
        2   -1    0    0  501    0  0.00000000000E+00  0.00000000000E+00 -0.20798412172E+04  0.20798412172E+04  0.25500000920E-02 0. -1.
    10030    2    1    2    0    0  0.00000000000E+00  0.00000000000E+00 -0.93415672452E+03  0.32255257098E+04  0.30872912591E+04 0.  0.
        1    1    3    3  502    0 -0.83982827745E+02 -0.99489710648E+03  0.76290596755E+03  0.12565424319E+04  0.50400001928E-02 0.  1.
       -1    1    3    3    0  502  0.83982827745E+02  0.99489710648E+03 -0.16970626921E+04  0.19689832779E+04  0.50400001928E-02 0. -1.
</event>
<event>
 5   0  0.7656332E-07  0.3058557E+04  0.7818609E-02  0.8227205E-01
        1   -1    0    0  501    0  0.00000000000E+00  0.00000000000E+00  0.18285177890E+04  0.18285177890E+04  0.50400001928E-02 0. -1.
       -1   -1    0    0    0  501  0.00000000000E+00  0.00000000000E+00 -0.12790098037E+04  0.12790098037E+04  0.50400001928E-02 0.  1.
    10030    2    1    2    0    0  0.00000000000E+00  0.00000000000E+00  0.54950798533E+03  0.31075275928E+04  0.30585566390E+04 0.  0.
        2    1    3    3  502    0  0.23052896328E+03  0.11167777274E+04 -0.76055889947E+03  0.13706881246E+04  0.25500000920E-02 0.  1.
       -2    1    3    3    0  502 -0.23052896328E+03 -0.11167777274E+04  0.13100668848E+04  0.17368394681E+04  0.25500000920E-02 0. -1.
</event>
<event>
 5   0  0.2078009E-06  0.3073805E+04  0.7818609E-02  0.8222964E-01
       -2   -1    0    0    0  501  0.00000000000E+00  0.00000000000E+00  0.94498098277E+03  0.94498098277E+03  0.25500000920E-02 0.  1.
        2   -1    0    0  501    0  0.00000000000E+00  0.00000000000E+00 -0.24995948081E+04  0.24995948081E+04  0.25500000920E-02 0. -1.
    10030    2    1    2    0    0  0.00000000000E+00  0.00000000000E+00 -0.15546138254E+04  0.34445757909E+04  0.30738051717E+04 0.  0.
        3    1    3    3  502    0  0.53808715342E+03  0.29953632175E+03  0.80066740832E+03  0.10101129153E+04  0.10100000352E+00 0.  1.
       -3    1    3    3    0  502 -0.53808715342E+03 -0.29953632175E+03 -0.23552812337E+04  0.24344628756E+04  0.10100000352E+00 0. -1.
</event>
<event>
 5   0  0.7519202E-07  0.3089948E+04  0.7818609E-02  0.8218502E-01
       -1   -1    0    0    0  501  0.00000000000E+00  0.00000000000E+00  0.13731977108E+04  0.13731977108E+04  0.50400001928E-02 0. -1.
        1   -1    0    0  501    0  0.00000000000E+00  0.00000000000E+00 -0.17382384852E+04  0.17382384852E+04  0.50400001928E-02 0.  1.
    10030    2    1    2    0    0  0.00000000000E+00  0.00000000000E+00 -0.36504077433E+03  0.31114361960E+04  0.30899482900E+04 0.  0.
        4    1    3    3  502    0 -0.59773213678E+03 -0.85318449467E+03 -0.13313910694E+04  0.16905062206E+04  0.12699999809E+01 0.  1.
       -4    1    3    3    0  502  0.59773213678E+03  0.85318449467E+03  0.96635029507E+03  0.14209299754E+04  0.12699999809E+01 0. -1.
</event>
<event>
 5   0  0.2067926E-06  0.3101475E+04  0.7818609E-02  0.8215333E-01
       -2   -1    0    0    0  501  0.00000000000E+00  0.00000000000E+00  0.16839781830E+04  0.16839781830E+04  0.25500000920E-02 0. -1.
        2   -1    0    0  501    0  0.00000000000E+00  0.00000000000E+00 -0.14280390658E+04  0.14280390658E+04  0.25500000920E-02 0.  1.
    10030    2    1    2    0    0  0.00000000000E+00  0.00000000000E+00  0.25593911712E+03  0.31120172488E+04  0.31014748951E+04 0.  0.
        1    1    3    3  502    0  0.57276991765E+02 -0.12300126322E+04 -0.81787712752E+03  0.14782201205E+04  0.50400001928E-02 0.  1.
       -1    1    3    3    0  502 -0.57276991765E+02  0.12300126322E+04  0.10738162446E+04  0.16337971283E+04  0.50400001928E-02 0. -1.
</event>
<event>
 5   0  0.7561815E-07  0.3101233E+04  0.7818609E-02  0.8215400E-01
        1   -1    0    0  501    0  0.00000000000E+00  0.00000000000E+00  0.96617554670E+03  0.96617554672E+03  0.50400001928E-02 0. -1.
       -1   -1    0    0    0  501  0.00000000000E+00  0.00000000000E+00 -0.24885862476E+04  0.24885862476E+04  0.50400001928E-02 0.  1.
    10030    2    1    2    0    0  0.00000000000E+00  0.00000000000E+00 -0.15224107009E+04  0.34547617943E+04  0.31012327732E+04 0.  0.
        3    1    3    3  502    0  0.80677397735E+02  0.11498125539E+04 -0.19166689226E+04  0.22365593041E+04  0.10100000352E+00 0.  1.
       -3    1    3    3    0  502 -0.80677397735E+02 -0.11498125539E+04  0.39425822167E+03  0.12182024903E+04  0.10100000352E+00 0. -1.
</event>
<event>
 5   0  0.2094135E-06  0.3115662E+04  0.7818609E-02  0.8211453E-01
       -2   -1    0    0    0  501  0.00000000000E+00  0.00000000000E+00  0.14398553674E+04  0.14398553674E+04  0.25500000920E-02 0. -1.
        2   -1    0    0  501    0  0.00000000000E+00  0.00000000000E+00 -0.16854732390E+04  0.16854732390E+04  0.25500000920E-02 0.  1.
    10030    2    1    2    0    0  0.00000000000E+00  0.00000000000E+00 -0.24561787161E+03  0.31253286064E+04  0.31156621702E+04 0.  0.
        4    1    3    3  502    0  0.92456723289E+03 -0.24735141267E+02  0.11346350739E+04  0.14638424639E+04  0.12699999809E+01 0. -1.
       -4    1    3    3    0  502 -0.92456723289E+03  0.24735141267E+02 -0.13802529455E+04  0.16614861425E+04  0.12699999809E+01 0.  1.
</event>
<event>
 5   0  0.2094135E-06  0.3090818E+04  0.7818609E-02  0.8218262E-01
        2   -1    0    0  501    0  0.00000000000E+00  0.00000000000E+00  0.25628827987E+04  0.25628827987E+04  0.25500000920E-02 0.  1.
       -2   -1    0    0    0  501  0.00000000000E+00  0.00000000000E+00 -0.93187611015E+03  0.93187611015E+03  0.25500000920E-02 0. -1.
    10030    2    1    2    0    0  0.00000000000E+00  0.00000000000E+00  0.16310066886E+04  0.34947589089E+04  0.30908181786E+04 0.  0.
        4    1    3    3  502    0 -0.11105135820E+03  0.11409100768E+04  0.19874352915E+04  0.22943210016E+04  0.12699999809E+01 0.  1.
       -4    1    3    3    0  502  0.11105135820E+03 -0.11409100768E+04 -0.35642860291E+03  0.12004379073E+04  0.12699999809E+01 0. -1.
</event>
<event>
 5   0  0.2226334E-06  0.3086522E+04  0.7818609E-02  0.8219447E-01
        2   -1    0    0  501    0  0.00000000000E+00  0.00000000000E+00  0.25039810529E+04  0.25039810529E+04  0.25500000920E-02 0. -1.
       -2   -1    0    0    0  501  0.00000000000E+00  0.00000000000E+00 -0.95114697444E+03  0.95114697444E+03  0.25500000920E-02 0.  1.
    10030    2    1    2    0    0  0.00000000000E+00  0.00000000000E+00  0.15528340785E+04  0.34551280273E+04  0.30865216685E+04 0.  0.
        5    1    3    3  502    0  0.99852259587E+03 -0.11301729030E+04  0.40974143083E+03  0.15627694313E+04  0.46999998093E+01 0. -1.
       -5    1    3    3    0  502 -0.99852259587E+03  0.11301729030E+04  0.11430926476E+04  0.18923585961E+04  0.46999998093E+01 0.  1.
</event>
<event>
 5   0  0.2133385E-06  0.3094999E+04  0.7818609E-02  0.8217112E-01
        2   -1    0    0  501    0  0.00000000000E+00  0.00000000000E+00  0.18575547841E+04  0.18575547841E+04  0.25500000920E-02 0. -1.
       -2   -1    0    0    0  501  0.00000000000E+00  0.00000000000E+00 -0.12891975817E+04  0.12891975817E+04  0.25500000920E-02 0.  1.
    10030    2    1    2    0    0  0.00000000000E+00  0.00000000000E+00  0.56835720240E+03  0.31467523658E+04  0.30949992798E+04 0.  0.
        2    1    3    3  502    0  0.67523025015E+03  0.10091458062E+04  0.12596189081E+04  0.17495573562E+04  0.25500000920E-02 0. -1.
       -2    1    3    3    0  502 -0.67523025015E+03 -0.10091458062E+04 -0.69126170574E+03  0.13971950096E+04  0.25500000920E-02 0.  1.
</event>
<event>
 5   0  0.2078009E-06  0.3129926E+04  0.7818609E-02  0.8207573E-01
       -2   -1    0    0    0  501  0.00000000000E+00  0.00000000000E+00  0.15406107248E+04  0.15406107248E+04  0.25500000920E-02 0.  1.
        2   -1    0    0  501    0  0.00000000000E+00  0.00000000000E+00 -0.15897001514E+04  0.15897001514E+04  0.25500000920E-02 0. -1.
    10030    2    1    2    0    0  0.00000000000E+00  0.00000000000E+00 -0.49089426648E+02  0.31303108762E+04  0.31299259431E+04 0.  0.
        3    1    3    3  502    0 -0.73877721026E+03  0.49499571709E+03  0.12633623024E+04  0.15449585249E+04  0.10100000352E+00 0.  1.
       -3    1    3    3    0  502  0.73877721026E+03 -0.49499571709E+03 -0.13124517290E+04  0.15853523513E+04  0.10100000352E+00 0. -1.
</event>
<event>
 5   0  0.2078009E-06  0.3157051E+04  0.7818609E-02  0.8200253E-01
        2   -1    0    0  501    0  0.00000000000E+00  0.00000000000E+00  0.20858536625E+04  0.20858536625E+04  0.25500000920E-02 0. -1.
       -2   -1    0    0    0  501  0.00000000000E+00  0.00000000000E+00 -0.11945914436E+04  0.11945914436E+04  0.25500000920E-02 0.  1.
    10030    2    1    2    0    0  0.00000000000E+00  0.00000000000E+00  0.89126221889E+03  0.32804451060E+04  0.31570511163E+04 0.  0.
        3    1    3    3  502    0  0.15627552263E+03  0.29782906486E+03  0.20481884540E+04  0.20756204239E+04  0.10100000352E+00 0. -1.
       -3    1    3    3    0  502 -0.15627552263E+03 -0.29782906486E+03 -0.11569262351E+04  0.12048246821E+04  0.10100000352E+00 0.  1.
</event>
<event>
 5   0  0.2133385E-06  0.3094859E+04  0.7818609E-02  0.8217150E-01
        2   -1    0    0  501    0  0.00000000000E+00  0.00000000000E+00  0.29388655602E+04  0.29388655602E+04  0.25500000920E-02 0. -1.
       -2   -1    0    0    0  501  0.00000000000E+00  0.00000000000E+00 -0.81478301562E+03  0.81478301563E+03  0.25500000920E-02 0.  1.
    10030    2    1    2    0    0  0.00000000000E+00  0.00000000000E+00  0.21240825446E+04  0.37536485758E+04  0.30948587972E+04 0.  0.
        2    1    3    3  502    0 -0.32605482920E+03  0.30907740584E+03  0.28580237595E+04  0.28931194936E+04  0.25500000920E-02 0. -1.
       -2    1    3    3    0  502  0.32605482920E+03 -0.30907740584E+03 -0.73394121490E+03  0.86052908224E+03  0.25500000920E-02 0.  1.
</event>
<event>
 5   0  0.2226334E-06  0.3104837E+04  0.7818609E-02  0.8214412E-01
       -2   -1    0    0    0  501  0.00000000000E+00  0.00000000000E+00  0.10715182195E+04  0.10715182196E+04  0.25500000920E-02 0.  1.
        2   -1    0    0  501    0  0.00000000000E+00  0.00000000000E+00 -0.22491481034E+04  0.22491481034E+04  0.25500000920E-02 0. -1.
    10030    2    1    2    0    0  0.00000000000E+00  0.00000000000E+00 -0.11776298839E+04  0.33206663230E+04  0.31048369821E+04 0.  0.
        5    1    3    3  502    0 -0.54204884074E+03 -0.65026481831E+03 -0.19805479529E+04  0.21538926537E+04  0.46999998093E+01 0. -1.
       -5    1    3    3    0  502  0.54204884074E+03  0.65026481831E+03  0.80291806908E+03  0.11667736693E+04  0.46999998093E+01 0.  1.
</event>
<event>
 5   0  0.2078009E-06  0.3112154E+04  0.7818609E-02  0.8212410E-01
       -2   -1    0    0    0  501  0.00000000000E+00  0.00000000000E+00  0.19715376641E+04  0.19715376641E+04  0.25500000920E-02 0. -1.
        2   -1    0    0  501    0  0.00000000000E+00  0.00000000000E+00 -0.12281660563E+04  0.12281660563E+04  0.25500000920E-02 0.  1.
    10030    2    1    2    0    0  0.00000000000E+00  0.00000000000E+00  0.74337160778E+03  0.31997037203E+04  0.31121540050E+04 0.  0.
        3    1    3    3  502    0 -0.28356288349E+03 -0.77038354017E+03  0.17307951862E+04  0.19156071347E+04  0.10100000352E+00 0. -1.
       -3    1    3    3    0  502  0.28356288349E+03  0.77038354017E+03 -0.98742357839E+03  0.12840965856E+04  0.10100000352E+00 0.  1.
</event>
<event>
 5   0  0.7519202E-07  0.3080068E+04  0.7818609E-02  0.8221229E-01
        1   -1    0    0  501    0  0.00000000000E+00  0.00000000000E+00  0.21501158931E+04  0.21501158931E+04  0.50400001928E-02 0.  1.
       -1   -1    0    0    0  501  0.00000000000E+00  0.00000000000E+00 -0.11030589295E+04  0.11030589295E+04  0.50400001928E-02 0. -1.
    10030    2    1    2    0    0  0.00000000000E+00  0.00000000000E+00  0.10470569636E+04  0.32531748226E+04  0.30800678793E+04 0.  0.
        4    1    3    3  502    0  0.15050071595E+04 -0.32650568550E+03  0.53102748173E+03  0.16290010166E+04  0.12699999809E+01 0.  1.
       -4    1    3    3    0  502 -0.15050071595E+04  0.32650568550E+03  0.51602948189E+03  0.16241738060E+04  0.12699999809E+01 0. -1.
</event>
<event>
 5   0  0.2067926E-06  0.3093910E+04  0.7818609E-02  0.8217411E-01
       -2   -1    0    0    0  501  0.00000000000E+00  0.00000000000E+00  0.11043488057E+04  0.11043488057E+04  0.25500000920E-02 0.  1.
        2   -1    0    0  501    0  0.00000000000E+00  0.00000000000E+00 -0.21669509305E+04  0.21669509305E+04  0.25500000920E-02 0. -1.
    10030    2    1    2    0    0  0.00000000000E+00  0.00000000000E+00 -0.10626021248E+04  0.32712997362E+04  0.30939099354E+04 0.  0.
        1    1    3    3  502    0  0.11001632291E+04 -0.29120880087E+03 -0.16391885091E+04  0.19955201490E+04  0.50400001928E-02 0. -1.
       -1    1    3    3    0  502 -0.11001632291E+04  0.29120880087E+03  0.57658638434E+03  0.12757795872E+04  0.50400001928E-02 0.  1.
</event>
<event>
 5   0  0.2133385E-06  0.3100437E+04  0.7818609E-02  0.8215618E-01
       -2   -1    0    0    0  501  0.00000000000E+00  0.00000000000E+00  0.21376126069E+04  0.21376126069E+04  0.25500000920E-02 0.  1.
        2   -1    0    0  501    0  0.00000000000E+00  0.00000000000E+00 -0.11242345023E+04  0.11242345023E+04  0.25500000920E-02 0. -1.
    10030    2    1    2    0    0  0.00000000000E+00  0.00000000000E+00  0.10133781046E+04  0.32618471092E+04  0.31004372886E+04 0.  0.
        2    1    3    3  502    0 -0.59786106736E+02  0.16106630044E+03 -0.11141877501E+04  0.11273557886E+04  0.25500000920E-02 0. -1.
       -2    1    3    3    0  502  0.59786106736E+02 -0.16106630044E+03  0.21275658547E+04  0.21344913206E+04  0.25500000920E-02 0.  1.
</event>
<event>
 5   0  0.7656332E-07  0.3050856E+04  0.7818609E-02  0.8229356E-01
        1   -1    0    0  501    0  0.00000000000E+00  0.00000000000E+00  0.20426244655E+04  0.20426244656E+04  0.50400001928E-02 0.  1.
       -1   -1    0    0    0  501  0.00000000000E+00  0.00000000000E+00 -0.11391867612E+04  0.11391867612E+04  0.50400001928E-02 0. -1.
    10030    2    1    2    0    0  0.00000000000E+00  0.00000000000E+00  0.90343770439E+03  0.31818112267E+04  0.30508561088E+04 0.  0.
        2    1    3    3  502    0 -0.80995699064E+03 -0.59806498112E+03  0.16468655455E+04  0.19302533961E+04  0.25500000920E-02 0.  1.
       -2    1    3    3    0  502  0.80995699064E+03  0.59806498112E+03 -0.74342784111E+03  0.12515578306E+04  0.25500000920E-02 0. -1.
</event>
<event>
 5   0  0.2226334E-06  0.3062946E+04  0.7818609E-02  0.8225981E-01
        2   -1    0    0  501    0  0.00000000000E+00  0.00000000000E+00  0.17296389442E+04  0.17296389442E+04  0.25500000920E-02 0. -1.
       -2   -1    0    0    0  501  0.00000000000E+00  0.00000000000E+00 -0.13560111403E+04  0.13560111403E+04  0.25500000920E-02 0.  1.
    10030    2    1    2    0    0  0.00000000000E+00  0.00000000000E+00  0.37362780387E+03  0.30856500845E+04  0.30629460831E+04 0.  0.
        5    1    3    3  502    0  0.13963795722E+04 -0.61198544870E+03  0.40876416141E+02  0.15251541137E+04  0.46999998093E+01 0. -1.
       -5    1    3    3    0  502 -0.13963795722E+04  0.61198544870E+03  0.33275138773E+03  0.15604959709E+04  0.46999998093E+01 0.  1.
</event>
<event>
 5   0  0.7561815E-07  0.3129683E+04  0.7818609E-02  0.8207639E-01
        1   -1    0    0  501    0  0.00000000000E+00  0.00000000000E+00  0.21019208776E+04  0.21019208776E+04  0.50400001928E-02 0.  1.
       -1   -1    0    0    0  501  0.00000000000E+00  0.00000000000E+00 -0.11649959190E+04  0.11649959190E+04  0.50400001928E-02 0. -1.
    10030    2    1    2    0    0  0.00000000000E+00  0.00000000000E+00  0.93692495857E+03  0.32669167966E+04  0.31296832073E+04 0.  0.
        3    1    3    3  502    0 -0.13351343555E+03 -0.58363241412E+03 -0.10407124214E+04  0.12006394074E+04  0.10100000352E+00 0. -1.
       -3    1    3    3    0  502  0.13351343555E+03  0.58363241412E+03  0.19776373800E+04  0.20662773892E+04  0.10100000352E+00 0.  1.
</event>
<event>
 5   0  0.7561815E-07  0.3075369E+04  0.7818609E-02  0.8222530E-01
        1   -1    0    0  501    0  0.00000000000E+00  0.00000000000E+00  0.21467969670E+04  0.21467969670E+04  0.50400001928E-02 0. -1.
       -1   -1    0    0    0  501  0.00000000000E+00  0.00000000000E+00 -0.11013962038E+04  0.11013962038E+04  0.50400001928E-02 0.  1.
    10030    2    1    2    0    0  0.00000000000E+00  0.00000000000E+00  0.10454007632E+04  0.32481931708E+04  0.30753692655E+04 0.  0.
        3    1    3    3  502    0  0.55674220586E+03  0.72332453120E+03  0.18297036433E+04  0.20447434298E+04  0.10100000352E+00 0. -1.
       -3    1    3    3    0  502 -0.55674220586E+03 -0.72332453120E+03 -0.78430288009E+03  0.12034497410E+04  0.10100000352E+00 0.  1.
</event>
<event>
 5   0  0.7519202E-07  0.3090404E+04  0.7818609E-02  0.8218376E-01
       -1   -1    0    0    0  501  0.00000000000E+00  0.00000000000E+00  0.94400266746E+03  0.94400266747E+03  0.50400001928E-02 0.  1.
        1   -1    0    0  501    0  0.00000000000E+00  0.00000000000E+00 -0.25292828990E+04  0.25292828990E+04  0.50400001928E-02 0. -1.
    10030    2    1    2    0    0  0.00000000000E+00  0.00000000000E+00 -0.15852802315E+04  0.34732855664E+04  0.30904043770E+04 0.  0.
        4    1    3    3  502    0  0.30777265126E+03 -0.15046503750E+04 -0.60140826578E+03  0.16493605642E+04  0.12699999809E+01 0. -1.
       -4    1    3    3    0  502 -0.30777265126E+03  0.15046503750E+04 -0.98387196571E+03  0.18239250022E+04  0.12699999809E+01 0.  1.
</event>
<event>
 5   0  0.2094135E-06  0.3106870E+04  0.7818609E-02  0.8213855E-01
       -2   -1    0    0    0  501  0.00000000000E+00  0.00000000000E+00  0.15598267482E+04  0.15598267482E+04  0.25500000920E-02 0. -1.
        2   -1    0    0  501    0  0.00000000000E+00  0.00000000000E+00 -0.15470694901E+04  0.15470694901E+04  0.25500000920E-02 0.  1.
    10030    2    1    2    0    0  0.00000000000E+00  0.00000000000E+00  0.12757258041E+02  0.31068962383E+04  0.31068700468E+04 0.  0.
        4    1    3    3  502    0  0.32978889620E+03 -0.15068930470E+04  0.18987782680E+03  0.15542015870E+04  0.12699999809E+01 0. -1.
       -4    1    3    3    0  502 -0.32978889620E+03  0.15068930470E+04 -0.17712056876E+03  0.15526946512E+04  0.12699999809E+01 0.  1.
</event>
<event>
 5   0  0.2133385E-06  0.3127657E+04  0.7818609E-02  0.8208188E-01
       -2   -1    0    0    0  501  0.00000000000E+00  0.00000000000E+00  0.10852815297E+04  0.10852815297E+04  0.25500000920E-02 0.  1.
        2   -1    0    0  501    0  0.00000000000E+00  0.00000000000E+00 -0.22533878617E+04  0.22533878617E+04  0.25500000920E-02 0. -1.
    10030    2    1    2    0    0  0.00000000000E+00  0.00000000000E+00 -0.11681063320E+04  0.33386693913E+04  0.31276574144E+04 0.  0.
        2    1    3    3  502    0 -0.75634948879E+03 -0.13208503513E+04 -0.20087875940E+03  0.15352727691E+04  0.25500000920E-02 0.  1.
       -2    1    3    3    0  502  0.75634948879E+03  0.13208503513E+04 -0.96722757260E+03  0.18033966222E+04  0.25500000920E-02 0. -1.
</event>
<event>
 5   0  0.2094135E-06  0.3129924E+04  0.7818609E-02  0.8207573E-01
        2   -1    0    0  501    0  0.00000000000E+00  0.00000000000E+00  0.16494960620E+04  0.16494960620E+04  0.25500000920E-02 0.  1.
       -2   -1    0    0    0  501  0.00000000000E+00  0.00000000000E+00 -0.14847600499E+04  0.14847600499E+04  0.25500000920E-02 0. -1.
    10030    2    1    2    0    0  0.00000000000E+00  0.00000000000E+00  0.16473601213E+03  0.31342561119E+04  0.31299238683E+04 0.  0.
        4    1    3    3  502    0  0.11212330029E+04 -0.79248277312E+03 -0.66961204216E+03  0.15276041020E+04  0.12699999809E+01 0. -1.
       -4    1    3    3    0  502 -0.11212330029E+04  0.79248277312E+03  0.83434805429E+03  0.16066520099E+04  0.12699999809E+01 0.  1.
</event>
<event>
 5   0  0.2067926E-06  0.3082405E+04  0.7818609E-02  0.8220583E-01
       -2   -1    0    0    0  501  0.00000000000E+00  0.00000000000E+00  0.10250235897E+04  0.10250235897E+04  0.25500000920E-02 0. -1.
        2   -1    0    0  501    0  0.00000000000E+00  0.00000000000E+00 -0.23173182424E+04  0.23173182425E+04  0.25500000920E-02 0.  1.
    10030    2    1    2    0    0  0.00000000000E+00  0.00000000000E+00 -0.12922946527E+04  0.33423418322E+04  0.30824054655E+04 0.  0.
        1    1    3    3  502    0  0.43617221505E+03  0.45973184017E+03  0.87721202142E+03  0.10821739678E+04  0.50400001928E-02 0. -1.
       -1    1    3    3    0  502 -0.43617221505E+03 -0.45973184017E+03 -0.21695066741E+04  0.22601678644E+04  0.50400001928E-02 0.  1.
</event>
<event>
 5   0  0.2078009E-06  0.3093508E+04  0.7818609E-02  0.8217522E-01
        2   -1    0    0  501    0  0.00000000000E+00  0.00000000000E+00  0.14860963406E+04  0.14860963406E+04  0.25500000920E-02 0.  1.
       -2   -1    0    0    0  501  0.00000000000E+00  0.00000000000E+00 -0.16098871034E+04  0.16098871034E+04  0.25500000920E-02 0. -1.
    10030    2    1    2    0    0  0.00000000000E+00  0.00000000000E+00 -0.12379076279E+03  0.30959834440E+04  0.30935076099E+04 0.  0.
        3    1    3    3  502    0  0.42329985449E+03 -0.42757748287E+03 -0.14879716099E+04  0.16050123965E+04  0.10100000352E+00 0. -1.
       -3    1    3    3    0  502 -0.42329985449E+03  0.42757748287E+03  0.13641808471E+04  0.14909710475E+04  0.10100000352E+00 0.  1.
</event>
<event>
 5   0  0.7726743E-07  0.3106136E+04  0.7818609E-02  0.8214056E-01
       -1   -1    0    0    0  501  0.00000000000E+00  0.00000000000E+00  0.17959989271E+04  0.17959989271E+04  0.50400001928E-02 0. -1.
        1   -1    0    0  501    0  0.00000000000E+00  0.00000000000E+00 -0.13429968185E+04  0.13429968185E+04  0.50400001928E-02 0.  1.
    10030    2    1    2    0    0  0.00000000000E+00  0.00000000000E+00  0.45300210859E+03  0.31389957457E+04  0.31061364073E+04 0.  0.
        1    1    3    3  502    0 -0.45720706635E+02 -0.15443062849E+04  0.66559397476E+02  0.15464159977E+04  0.50400001928E-02 0.  1.
       -1    1    3    3    0  502  0.45720706635E+02  0.15443062849E+04  0.38644271112E+03  0.15925797480E+04  0.50400001928E-02 0. -1.
</event>
<event>
 5   0  0.2133385E-06  0.3134173E+04  0.7818609E-02  0.8206421E-01
       -2   -1    0    0    0  501  0.00000000000E+00  0.00000000000E+00  0.20778207786E+04  0.20778207786E+04  0.25500000920E-02 0.  1.
        2   -1    0    0  501    0  0.00000000000E+00  0.00000000000E+00 -0.11818925132E+04  0.11818925132E+04  0.25500000920E-02 0. -1.
    10030    2    1    2    0    0  0.00000000000E+00  0.00000000000E+00  0.89592826544E+03  0.32597132918E+04  0.31341734617E+04 0.  0.
        2    1    3    3  502    0 -0.71674395809E+03 -0.13557704643E+04  0.78325147749E+03  0.17220099681E+04  0.25500000920E-02 0. -1.
       -2    1    3    3    0  502  0.71674395809E+03  0.13557704643E+04  0.11267678795E+03  0.15377033237E+04  0.25500000920E-02 0.  1.
</event>
<event>
 5   0  0.7656332E-07  0.3065553E+04  0.7818609E-02  0.8225256E-01
       -1   -1    0    0    0  501  0.00000000000E+00  0.00000000000E+00  0.21571541758E+04  0.21571541759E+04  0.50400001928E-02 0. -1.
        1   -1    0    0  501    0  0.00000000000E+00  0.00000000000E+00 -0.10891218829E+04  0.10891218829E+04  0.50400001928E-02 0.  1.
    10030    2    1    2    0    0  0.00000000000E+00  0.00000000000E+00  0.10680322929E+04  0.32462760588E+04  0.30655530123E+04 0.  0.
        2    1    3    3  502    0  0.61763372964E+03  0.92697445304E+03  0.16490139121E+04  0.19899748599E+04  0.25500000920E-02 0. -1.
       -2    1    3    3    0  502 -0.61763372964E+03 -0.92697445304E+03 -0.58098161919E+03  0.12563011989E+04  0.25500000920E-02 0.  1.
</event>
<event>
 5   0  0.2133385E-06  0.3161718E+04  0.7818609E-02  0.8199001E-01
        2   -1    0    0  501    0  0.00000000000E+00  0.00000000000E+00  0.18211779602E+04  0.18211779602E+04  0.25500000920E-02 0. -1.
       -2   -1    0    0    0  501  0.00000000000E+00  0.00000000000E+00 -0.13722516782E+04  0.13722516782E+04  0.25500000920E-02 0.  1.
    10030    2    1    2    0    0  0.00000000000E+00  0.00000000000E+00  0.44892628200E+03  0.31934296384E+04  0.31617175789E+04 0.  0.
        2    1    3    3  502    0  0.63466263687E+03  0.13226101512E+04 -0.37052961621E+03  0.15130718659E+04  0.25500000920E-02 0. -1.
       -2    1    3    3    0  502 -0.63466263687E+03 -0.13226101512E+04  0.81945589821E+03  0.16803577726E+04  0.25500000920E-02 0.  1.
</event>
<event>
 5   0  0.2094135E-06  0.3095746E+04  0.7818609E-02  0.8216906E-01
        2   -1    0    0  501    0  0.00000000000E+00  0.00000000000E+00  0.24143236425E+04  0.24143236425E+04  0.25500000920E-02 0. -1.
       -2   -1    0    0    0  501  0.00000000000E+00  0.00000000000E+00 -0.99237344419E+03  0.99237344419E+03  0.25500000920E-02 0.  1.
    10030    2    1    2    0    0  0.00000000000E+00  0.00000000000E+00  0.14219501983E+04  0.34066970867E+04  0.30957458995E+04 0.  0.
        4    1    3    3  502    0 -0.14377164605E+04  0.39763406212E+03  0.25622695607E+03  0.15135373580E+04  0.12699999809E+01 0.  1.
       -4    1    3    3    0  502  0.14377164605E+04 -0.39763406212E+03  0.11657232423E+04  0.18931597288E+04  0.12699999809E+01 0. -1.
</event>
<event>
 5   0  0.7726743E-07  0.3091593E+04  0.7818609E-02  0.8218049E-01
        1   -1    0    0  501    0  0.00000000000E+00  0.00000000000E+00  0.16382447988E+04  0.16382447988E+04  0.50400001928E-02 0.  1.
       -1   -1    0    0    0  501  0.00000000000E+00  0.00000000000E+00 -0.14585651533E+04  0.14585651534E+04  0.50400001928E-02 0. -1.
    10030    2    1    2    0    0  0.00000000000E+00  0.00000000000E+00  0.17967964548E+03  0.30968099522E+04  0.30915929721E+04 0.  0.
        1    1    3    3  502    0 -0.74946633431E+03  0.29580680472E+03  0.14112646785E+04  0.16250752120E+04  0.50400001928E-02 0.  1.
       -1    1    3    3    0  502  0.74946633431E+03 -0.29580680472E+03 -0.12315850330E+04  0.14717347402E+04  0.50400001928E-02 0. -1.
</event>
<event>
 5   0  0.7561815E-07  0.3104814E+04  0.7818609E-02  0.8214418E-01
       -1   -1    0    0    0  501  0.00000000000E+00  0.00000000000E+00  0.81653863758E+03  0.81653863760E+03  0.50400001928E-02 0.  1.
        1   -1    0    0  501    0  0.00000000000E+00  0.00000000000E+00 -0.29514427437E+04  0.29514427437E+04  0.50400001928E-02 0. -1.
    10030    2    1    2    0    0  0.00000000000E+00  0.00000000000E+00 -0.21349041061E+04  0.37679813813E+04  0.31048137057E+04 0.  0.
        3    1    3    3  502    0  0.10032073994E+03 -0.84622773471E+03 -0.26422274968E+04  0.27762441868E+04  0.10100000352E+00 0. -1.
       -3    1    3    3    0  502 -0.10032073994E+03  0.84622773471E+03  0.50732339072E+03  0.99173719444E+03  0.10100000352E+00 0.  1.
</event>
<event>
 5   0  0.2078009E-06  0.3108659E+04  0.7818609E-02  0.8213365E-01
        2   -1    0    0  501    0  0.00000000000E+00  0.00000000000E+00  0.74234432078E+03  0.74234432078E+03  0.25500000920E-02 0.  1.
       -2   -1    0    0    0  501  0.00000000000E+00  0.00000000000E+00 -0.32544745428E+04  0.32544745428E+04  0.25500000920E-02 0. -1.
    10030    2    1    2    0    0  0.00000000000E+00  0.00000000000E+00 -0.25121302220E+04  0.39968188635E+04  0.31086593213E+04 0.  0.
        3    1    3    3  502    0 -0.16825129147E+03  0.98600129999E+03 -0.27856940455E+04  0.29598308036E+04  0.10100000352E+00 0. -1.
       -3    1    3    3    0  502  0.16825129147E+03 -0.98600129999E+03  0.27356382353E+03  0.10369880599E+04  0.10100000352E+00 0.  1.
</event>
<event>
 5   0  0.7413481E-07  0.3103690E+04  0.7818609E-02  0.8214726E-01
       -1   -1    0    0    0  501  0.00000000000E+00  0.00000000000E+00  0.13596673411E+04  0.13596673411E+04  0.50400001928E-02 0.  1.
        1   -1    0    0  501    0  0.00000000000E+00  0.00000000000E+00 -0.17711858078E+04  0.17711858079E+04  0.50400001928E-02 0. -1.
    10030    2    1    2    0    0  0.00000000000E+00  0.00000000000E+00 -0.41151846679E+03  0.31308531489E+04  0.31036903827E+04 0.  0.
        5    1    3    3  502    0  0.11981212842E+04  0.83927774777E+03  0.31676995296E+03  0.14967454836E+04  0.46999998093E+01 0.  1.
       -5    1    3    3    0  502 -0.11981212842E+04 -0.83927774777E+03 -0.72828841976E+03  0.16341076653E+04  0.46999998093E+01 0. -1.
</event>
<event>
 5   0  0.7519202E-07  0.3124385E+04  0.7818609E-02  0.8209077E-01
       -1   -1    0    0    0  501  0.00000000000E+00  0.00000000000E+00  0.86739316596E+03  0.86739316598E+03  0.50400001928E-02 0.  1.
        1   -1    0    0  501    0  0.00000000000E+00  0.00000000000E+00 -0.28135393759E+04  0.28135393759E+04  0.50400001928E-02 0. -1.
    10030    2    1    2    0    0  0.00000000000E+00  0.00000000000E+00 -0.19461462100E+04  0.36809325419E+04  0.31243846286E+04 0.  0.
        4    1    3    3  502    0  0.13002208899E+04 -0.22880202708E+03 -0.19570190184E+04  0.23606884126E+04  0.12699999809E+01 0. -1.
       -4    1    3    3    0  502 -0.13002208899E+04  0.22880202708E+03  0.10872808493E+02  0.13202441293E+04  0.12699999809E+01 0.  1.
</event>
<event>
 5   0  0.2094135E-06  0.3088284E+04  0.7818609E-02  0.8218961E-01
        2   -1    0    0  501    0  0.00000000000E+00  0.00000000000E+00  0.24813656692E+04  0.24813656692E+04  0.25500000920E-02 0. -1.
       -2   -1    0    0    0  501  0.00000000000E+00  0.00000000000E+00 -0.96091235381E+03  0.96091235381E+03  0.25500000920E-02 0.  1.
    10030    2    1    2    0    0  0.00000000000E+00  0.00000000000E+00  0.15204533154E+04  0.34422780230E+04  0.30882842653E+04 0.  0.
        4    1    3    3  502    0 -0.10528130640E+04  0.84426730786E+03 -0.76240112775E+02  0.13516718546E+04  0.12699999809E+01 0.  1.
       -4    1    3    3    0  502  0.10528130640E+04 -0.84426730786E+03  0.15966934282E+04  0.20906061684E+04  0.12699999809E+01 0. -1.
</event>
<event>
 5   0  0.2067926E-06  0.3132789E+04  0.7818609E-02  0.8206797E-01
       -2   -1    0    0    0  501  0.00000000000E+00  0.00000000000E+00  0.15256276335E+04  0.15256276335E+04  0.25500000920E-02 0.  1.
        2   -1    0    0  501    0  0.00000000000E+00  0.00000000000E+00 -0.16082504760E+04  0.16082504760E+04  0.25500000920E-02 0. -1.
    10030    2    1    2    0    0  0.00000000000E+00  0.00000000000E+00 -0.82622842569E+02  0.31338781095E+04  0.31327887690E+04 0.  0.
        1    1    3    3  502    0 -0.11117967702E+04  0.10303061617E+04  0.35375440755E+03  0.15565233779E+04  0.50400001928E-02 0.  1.
       -1    1    3    3    0  502  0.11117967702E+04 -0.10303061617E+04 -0.43637725012E+03  0.15773547316E+04  0.50400001928E-02 0. -1.
</event>
<event>
 5   0  0.7656332E-07  0.3100260E+04  0.7818609E-02  0.8215666E-01
        1   -1    0    0  501    0  0.00000000000E+00  0.00000000000E+00  0.18847797206E+04  0.18847797206E+04  0.50400001928E-02 0. -1.
       -1   -1    0    0    0  501  0.00000000000E+00  0.00000000000E+00 -0.12748989006E+04  0.12748989006E+04  0.50400001928E-02 0.  1.
    10030    2    1    2    0    0  0.00000000000E+00  0.00000000000E+00  0.60988081996E+03  0.31596786212E+04  0.31002603720E+04 0.  0.
        2    1    3    3  502    0  0.81070062058E+02 -0.75006046159E+02 -0.12708837970E+04  0.12756738954E+04  0.25500000920E-02 0.  1.
       -2    1    3    3    0  502 -0.81070062058E+02  0.75006046159E+02  0.18807646170E+04  0.18840047257E+04  0.25500000920E-02 0. -1.
</event>
<event>
 5   0  0.2133385E-06  0.3160895E+04  0.7818609E-02  0.8199222E-01
        2   -1    0    0  501    0  0.00000000000E+00  0.00000000000E+00  0.31343256764E+04  0.31343256764E+04  0.25500000920E-02 0. -1.
       -2   -1    0    0    0  501  0.00000000000E+00  0.00000000000E+00 -0.79692250114E+03  0.79692250115E+03  0.25500000920E-02 0.  1.
    10030    2    1    2    0    0  0.00000000000E+00  0.00000000000E+00  0.23374031753E+04  0.39312481775E+04  0.31608952260E+04 0.  0.
        2    1    3    3  502    0 -0.71571628568E+03  0.41101131056E+03 -0.50760768264E+03  0.96894048243E+03  0.25500000920E-02 0.  1.
       -2    1    3    3    0  502  0.71571628568E+03 -0.41101131056E+03  0.28450108579E+04  0.29623076951E+04  0.25500000920E-02 0. -1.
</event>
<event>
 5   0  0.2067926E-06  0.3079508E+04  0.7818609E-02  0.8221384E-01
        2   -1    0    0  501    0  0.00000000000E+00  0.00000000000E+00  0.15580297224E+04  0.15580297224E+04  0.25500000920E-02 0. -1.
       -2   -1    0    0    0  501  0.00000000000E+00  0.00000000000E+00 -0.15216924390E+04  0.15216924390E+04  0.25500000920E-02 0.  1.
    10030    2    1    2    0    0  0.00000000000E+00  0.00000000000E+00  0.36337283361E+02  0.30797221614E+04  0.30795077843E+04 0.  0.
        1    1    3    3  502    0 -0.13703522720E+04  0.47115400494E+03 -0.50243517449E+03  0.15337185369E+04  0.50400001928E-02 0.  1.
       -1    1    3    3    0  502  0.13703522720E+04 -0.47115400494E+03  0.53877245785E+03  0.15460036245E+04  0.50400001928E-02 0. -1.
</event>
<event>
 5   0  0.2078009E-06  0.3099106E+04  0.7818609E-02  0.8215983E-01
       -2   -1    0    0    0  501  0.00000000000E+00  0.00000000000E+00  0.12077613968E+04  0.12077613968E+04  0.25500000920E-02 0.  1.
        2   -1    0    0  501    0  0.00000000000E+00  0.00000000000E+00 -0.19880706655E+04  0.19880706655E+04  0.25500000920E-02 0. -1.
    10030    2    1    2    0    0  0.00000000000E+00  0.00000000000E+00 -0.78030926877E+03  0.31958320623E+04  0.30991063253E+04 0.  0.
        3    1    3    3  502    0  0.12358474879E+04 -0.25587682829E+03  0.53697390303E+03  0.13715440013E+04  0.10100000352E+00 0.  1.
       -3    1    3    3    0  502 -0.12358474879E+04  0.25587682829E+03 -0.13172831718E+04  0.18242880610E+04  0.10100000352E+00 0. -1.
</event>
<event>
 5   0  0.2133385E-06  0.3116671E+04  0.7818609E-02  0.8211177E-01
       -2   -1    0    0    0  501  0.00000000000E+00  0.00000000000E+00  0.12671310487E+04  0.12671310487E+04  0.25500000920E-02 0. -1.
        2   -1    0    0  501    0  0.00000000000E+00  0.00000000000E+00 -0.19164630541E+04  0.19164630541E+04  0.25500000920E-02 0.  1.
    10030    2    1    2    0    0  0.00000000000E+00  0.00000000000E+00 -0.64933200537E+03  0.31835941028E+04  0.31166711983E+04 0.  0.
        2    1    3    3  502    0  0.61529438376E+03  0.14100989954E+04 -0.71465466606E+02  0.15401537808E+04  0.25500000920E-02 0. -1.
       -2    1    3    3    0  502 -0.61529438376E+03 -0.14100989954E+04 -0.57786653876E+03  0.16434403220E+04  0.25500000920E-02 0.  1.
</event>
<event>
 5   0  0.7413481E-07  0.3120071E+04  0.7818609E-02  0.8210251E-01
        1   -1    0    0  501    0  0.00000000000E+00  0.00000000000E+00  0.16224796028E+04  0.16224796028E+04  0.50400001928E-02 0. -1.
       -1   -1    0    0    0  501  0.00000000000E+00  0.00000000000E+00 -0.14999948389E+04  0.14999948389E+04  0.50400001928E-02 0.  1.
    10030    2    1    2    0    0  0.00000000000E+00  0.00000000000E+00  0.12248476383E+03  0.31224744417E+04  0.31200711726E+04 0.  0.
        5    1    3    3  502    0  0.13861549043E+04 -0.68610905852E+03  0.26515870181E+03  0.15692362110E+04  0.46999998093E+01 0.  1.
       -5    1    3    3    0  502 -0.13861549043E+04  0.68610905852E+03 -0.14267393797E+03  0.15532382307E+04  0.46999998093E+01 0. -1.
</event>
<event>
 5   0  0.2094135E-06  0.3098521E+04  0.7818609E-02  0.8216144E-01
       -2   -1    0    0    0  501  0.00000000000E+00  0.00000000000E+00  0.11528655920E+04  0.11528655920E+04  0.25500000920E-02 0. -1.
        2   -1    0    0  501    0  0.00000000000E+00  0.00000000000E+00 -0.20819498974E+04  0.20819498974E+04  0.25500000920E-02 0.  1.
    10030    2    1    2    0    0  0.00000000000E+00  0.00000000000E+00 -0.92908430543E+03  0.32348154894E+04  0.30985211963E+04 0.  0.
        4    1    3    3  502    0  0.32696169800E+03 -0.13187527867E+04  0.31264555406E+03  0.13941885524E+04  0.12699999809E+01 0.  1.
       -4    1    3    3    0  502 -0.32696169800E+03  0.13187527867E+04 -0.12417298595E+04  0.18406269370E+04  0.12699999809E+01 0. -1.
</event>
<event>
 5   0  0.7561815E-07  0.3082968E+04  0.7818609E-02  0.8220428E-01
        1   -1    0    0  501    0  0.00000000000E+00  0.00000000000E+00  0.94882319906E+03  0.94882319907E+03  0.50400001928E-02 0.  1.
       -1   -1    0    0    0  501  0.00000000000E+00  0.00000000000E+00 -0.25043372054E+04  0.25043372054E+04  0.50400001928E-02 0. -1.
    10030    2    1    2    0    0  0.00000000000E+00  0.00000000000E+00 -0.15555140064E+04  0.34531604045E+04  0.30829682054E+04 0.  0.
        3    1    3    3  502    0 -0.10466219272E+04  0.11311194610E+04 -0.73699275450E+03  0.17082174990E+04  0.10100000352E+00 0. -1.
       -3    1    3    3    0  502  0.10466219272E+04 -0.11311194610E+04 -0.81852125189E+03  0.17449429055E+04  0.10100000352E+00 0.  1.
</event>
<event>
 5   0  0.7561815E-07  0.3107064E+04  0.7818609E-02  0.8213802E-01
       -1   -1    0    0    0  501  0.00000000000E+00  0.00000000000E+00  0.24757433438E+04  0.24757433438E+04  0.50400001928E-02 0. -1.
        1   -1    0    0  501    0  0.00000000000E+00  0.00000000000E+00 -0.97484355408E+03  0.97484355409E+03  0.50400001928E-02 0.  1.
    10030    2    1    2    0    0  0.00000000000E+00  0.00000000000E+00  0.15008997897E+04  0.34505868979E+04  0.31070644926E+04 0.  0.
        3    1    3    3  502    0 -0.51911973046E+03  0.91576024806E+03  0.20192929349E+04  0.22772013731E+04  0.10100000352E+00 0. -1.
       -3    1    3    3    0  502  0.51911973046E+03 -0.91576024806E+03 -0.51839314523E+03  0.11733855248E+04  0.10100000352E+00 0.  1.
</event>
<event>
 5   0  0.2078009E-06  0.3095114E+04  0.7818609E-02  0.8217080E-01
        2   -1    0    0  501    0  0.00000000000E+00  0.00000000000E+00  0.19247907974E+04  0.19247907974E+04  0.25500000920E-02 0.  1.
       -2   -1    0    0    0  501  0.00000000000E+00  0.00000000000E+00 -0.12442563513E+04  0.12442563513E+04  0.25500000920E-02 0. -1.
    10030    2    1    2    0    0  0.00000000000E+00  0.00000000000E+00  0.68053444612E+03  0.31690471487E+04  0.30951143272E+04 0.  0.
        3    1    3    3  502    0 -0.59619965516E+03 -0.16450931240E+03  0.17927495826E+04  0.18964357144E+04  0.10100000352E+00 0.  1.
       -3    1    3    3    0  502  0.59619965516E+03  0.16450931240E+03 -0.11122151365E+04  0.12726114343E+04  0.10100000352E+00 0. -1.
</event>
<event>
 5   0  0.6979625E-07  0.3091777E+04  0.7818609E-02  0.8217998E-01
       -3   -1    0    0    0  501  0.00000000000E+00  0.00000000000E+00  0.15794681415E+04  0.15794681448E+04  0.10100000352E+00 0. -1.
        3   -1    0    0  501    0  0.00000000000E+00  0.00000000000E+00 -0.15130226800E+04  0.15130226834E+04  0.10100000352E+00 0.  1.
    10030    2    1    2    0    0  0.00000000000E+00  0.00000000000E+00  0.66445461543E+02  0.30924908282E+04  0.30917769200E+04 0.  0.
        3    1    3    3  502    0 -0.14179575372E+03 -0.79523538285E+02  0.15708939031E+04  0.15792839181E+04  0.10100000352E+00 0. -1.
       -3    1    3    3    0  502  0.14179575372E+03  0.79523538285E+02 -0.15044484416E+04  0.15132069100E+04  0.10100000352E+00 0.  1.
</event>
<event>
 5   0  0.7561815E-07  0.3141944E+04  0.7818609E-02  0.8204320E-01
        1   -1    0    0  501    0  0.00000000000E+00  0.00000000000E+00  0.12080372560E+04  0.12080372560E+04  0.50400001928E-02 0. -1.
       -1   -1    0    0    0  501  0.00000000000E+00  0.00000000000E+00 -0.20429441969E+04  0.20429441969E+04  0.50400001928E-02 0.  1.
    10030    2    1    2    0    0  0.00000000000E+00  0.00000000000E+00 -0.83490694091E+03  0.32509814530E+04  0.31419437945E+04 0.  0.
        3    1    3    3  502    0 -0.55766130386E+03 -0.12446273104E+04  0.38926356504E+03  0.14183121676E+04  0.10100000352E+00 0. -1.
       -3    1    3    3    0  502  0.55766130386E+03  0.12446273104E+04 -0.12241705060E+04  0.18326692853E+04  0.10100000352E+00 0.  1.
</event>
<event>
 5   0  0.7519202E-07  0.3108070E+04  0.7818609E-02  0.8213527E-01
        1   -1    0    0  501    0  0.00000000000E+00  0.00000000000E+00  0.19362198045E+04  0.19362198045E+04  0.50400001928E-02 0.  1.
       -1   -1    0    0    0  501  0.00000000000E+00  0.00000000000E+00 -0.12472886989E+04  0.12472886989E+04  0.50400001928E-02 0. -1.
    10030    2    1    2    0    0  0.00000000000E+00  0.00000000000E+00  0.68893110556E+03  0.31835085034E+04  0.31080701927E+04 0.  0.
        4    1    3    3  502    0  0.40970400136E+03  0.14037666977E+04  0.88316351495E+03  0.17083318522E+04  0.12699999809E+01 0.  1.
       -4    1    3    3    0  502 -0.40970400136E+03 -0.14037666977E+04 -0.19423240939E+03  0.14751766512E+04  0.12699999809E+01 0. -1.
</event>
<event>
 5   0  0.7413481E-07  0.3088695E+04  0.7818609E-02  0.8218847E-01
       -1   -1    0    0    0  501  0.00000000000E+00  0.00000000000E+00  0.12840135089E+04  0.12840135089E+04  0.50400001928E-02 0. -1.
        1   -1    0    0  501    0  0.00000000000E+00  0.00000000000E+00 -0.18574642103E+04  0.18574642104E+04  0.50400001928E-02 0.  1.
    10030    2    1    2    0    0  0.00000000000E+00  0.00000000000E+00 -0.57345070148E+03  0.31414777192E+04  0.30886949596E+04 0.  0.
        5    1    3    3  502    0  0.11669373111E+04  0.97764595223E+03 -0.55088033064E+03  0.16189581602E+04  0.46999998093E+01 0.  1.
       -5    1    3    3    0  502 -0.11669373111E+04 -0.97764595223E+03 -0.22570370836E+02  0.15225195590E+04  0.46999998093E+01 0. -1.
</event>
<event>
 5   0  0.7519202E-07  0.3102914E+04  0.7818609E-02  0.8214939E-01
       -1   -1    0    0    0  501  0.00000000000E+00  0.00000000000E+00  0.19787183378E+04  0.19787183378E+04  0.50400001928E-02 0. -1.
        1   -1    0    0  501    0  0.00000000000E+00  0.00000000000E+00 -0.12164535500E+04  0.12164535500E+04  0.50400001928E-02 0.  1.
    10030    2    1    2    0    0  0.00000000000E+00  0.00000000000E+00  0.76226478780E+03  0.31951718879E+04  0.31029140797E+04 0.  0.
        4    1    3    3  502    0 -0.41588733307E+02 -0.13535652005E+04  0.11607079809E+04  0.17835674937E+04  0.12699999809E+01 0. -1.
       -4    1    3    3    0  502  0.41588733307E+02  0.13535652005E+04 -0.39844319309E+03  0.14116043942E+04  0.12699999809E+01 0.  1.
</event>
<event>
 5   0  0.2067926E-06  0.3203089E+04  0.7818609E-02  0.8188002E-01
        2   -1    0    0  501    0  0.00000000000E+00  0.00000000000E+00  0.23064355679E+04  0.23064355679E+04  0.25500000920E-02 0. -1.
       -2   -1    0    0    0  501  0.00000000000E+00  0.00000000000E+00 -0.11120818333E+04  0.11120818333E+04  0.25500000920E-02 0.  1.
    10030    2    1    2    0    0  0.00000000000E+00  0.00000000000E+00  0.11943537346E+04  0.34185174011E+04  0.32030891930E+04 0.  0.
        1    1    3    3  502    0  0.11999843593E+04  0.45304090940E+03  0.16207066620E+04  0.20668571824E+04  0.50400001928E-02 0. -1.
       -1    1    3    3    0  502 -0.11999843593E+04 -0.45304090940E+03 -0.42635292743E+03  0.13516602187E+04  0.50400001928E-02 0.  1.
</event>
<event>
 5   0  0.7726743E-07  0.3122650E+04  0.7818609E-02  0.8209549E-01
        1   -1    0    0  501    0  0.00000000000E+00  0.00000000000E+00  0.23457019678E+04  0.23457019678E+04  0.50400001928E-02 0.  1.
       -1   -1    0    0    0  501  0.00000000000E+00  0.00000000000E+00 -0.10392350097E+04  0.10392350097E+04  0.50400001928E-02 0. -1.
    10030    2    1    2    0    0  0.00000000000E+00  0.00000000000E+00  0.13064669581E+04  0.33849369775E+04  0.31226499049E+04 0.  0.
        1    1    3    3  502    0  0.89983687003E+03  0.45107202912E+03 -0.64056953219E+03  0.11931059021E+04  0.50400001928E-02 0. -1.
       -1    1    3    3    0  502 -0.89983687003E+03 -0.45107202912E+03  0.19470364903E+04  0.21918310753E+04  0.50400001928E-02 0.  1.
</event>
<event>
 5   0  0.2078009E-06  0.3107156E+04  0.7818609E-02  0.8213777E-01
        2   -1    0    0  501    0  0.00000000000E+00  0.00000000000E+00  0.21549551653E+04  0.21549551653E+04  0.25500000920E-02 0.  1.
       -2   -1    0    0    0  501  0.00000000000E+00  0.00000000000E+00 -0.11200254352E+04  0.11200254352E+04  0.25500000920E-02 0. -1.
    10030    2    1    2    0    0  0.00000000000E+00  0.00000000000E+00  0.10349297301E+04  0.32749806006E+04  0.31071559967E+04 0.  0.
        3    1    3    3  502    0  0.37507461407E+03 -0.24466927740E+03 -0.10505216513E+04  0.11419893920E+04  0.10100000352E+00 0. -1.
       -3    1    3    3    0  502 -0.37507461407E+03  0.24466927740E+03  0.20854513814E+04  0.21329912085E+04  0.10100000352E+00 0.  1.
</event>
<event>
 5   0  0.2094135E-06  0.3114257E+04  0.7818609E-02  0.8211836E-01
       -2   -1    0    0    0  501  0.00000000000E+00  0.00000000000E+00  0.14651007786E+04  0.14651007786E+04  0.25500000920E-02 0. -1.
        2   -1    0    0  501    0  0.00000000000E+00  0.00000000000E+00 -0.16549372895E+04  0.16549372895E+04  0.25500000920E-02 0.  1.
    10030    2    1    2    0    0  0.00000000000E+00  0.00000000000E+00 -0.18983651087E+03  0.31200380681E+04  0.31142574790E+04 0.  0.
        4    1    3    3  502    0  0.90278410528E+03  0.44128774449E+03 -0.12866194453E+04  0.16325272506E+04  0.12699999809E+01 0.  1.
       -4    1    3    3    0  502 -0.90278410528E+03 -0.44128774449E+03  0.10967829344E+04  0.14875108175E+04  0.12699999809E+01 0. -1.
</event>
<event>
 5   0  0.7519202E-07  0.3095307E+04  0.7818609E-02  0.8217027E-01
       -1   -1    0    0    0  501  0.00000000000E+00  0.00000000000E+00  0.14081992499E+04  0.14081992499E+04  0.50400001928E-02 0.  1.
        1   -1    0    0  501    0  0.00000000000E+00  0.00000000000E+00 -0.17009177839E+04  0.17009177839E+04  0.50400001928E-02 0. -1.
    10030    2    1    2    0    0  0.00000000000E+00  0.00000000000E+00 -0.29271853401E+03  0.31091170338E+04  0.30953068652E+04 0.  0.
        4    1    3    3  502    0  0.14999341349E+03  0.37301682729E+03  0.13548287300E+04  0.14132240013E+04  0.12699999809E+01 0.  1.
       -4    1    3    3    0  502 -0.14999341349E+03 -0.37301682729E+03 -0.16475472640E+04  0.16958930324E+04  0.12699999809E+01 0. -1.
</event>
<event>
 5   0  0.7726743E-07  0.3098434E+04  0.7818609E-02  0.8216168E-01
       -1   -1    0    0    0  501  0.00000000000E+00  0.00000000000E+00  0.13517653300E+04  0.13517653300E+04  0.50400001928E-02 0. -1.
        1   -1    0    0  501    0  0.00000000000E+00  0.00000000000E+00 -0.17755108534E+04  0.17755108534E+04  0.50400001928E-02 0.  1.
    10030    2    1    2    0    0  0.00000000000E+00  0.00000000000E+00 -0.42374552341E+03  0.31272761834E+04  0.30984344529E+04 0.  0.
        1    1    3    3  502    0  0.81261309631E+02  0.90317931088E+03  0.10558997536E+04  0.13918550778E+04  0.50400001928E-02 0. -1.
       -1    1    3    3    0  502 -0.81261309631E+02 -0.90317931088E+03 -0.14796452770E+04  0.17354211056E+04  0.50400001928E-02 0.  1.
</event>
<event>
 5   0  0.2133385E-06  0.3075113E+04  0.7818609E-02  0.8222601E-01
       -2   -1    0    0    0  501  0.00000000000E+00  0.00000000000E+00  0.16626696625E+04  0.16626696625E+04  0.25500000920E-02 0. -1.
        2   -1    0    0  501    0  0.00000000000E+00  0.00000000000E+00 -0.14218581003E+04  0.14218581003E+04  0.25500000920E-02 0.  1.
    10030    2    1    2    0    0  0.00000000000E+00  0.00000000000E+00  0.24081156218E+03  0.30845277629E+04  0.30751132193E+04 0.  0.
        2    1    3    3  502    0 -0.10390741372E+04 -0.10909322574E+04  0.42838336429E+03  0.15663079389E+04  0.25500000920E-02 0. -1.
       -2    1    3    3    0  502  0.10390741372E+04  0.10909322574E+04 -0.18757180212E+03  0.15182198239E+04  0.25500000920E-02 0.  1.
</event>
<event>
 5   0  0.2078009E-06  0.3102537E+04  0.7818609E-02  0.8215042E-01
        2   -1    0    0  501    0  0.00000000000E+00  0.00000000000E+00  0.15484509720E+04  0.15484509720E+04  0.25500000920E-02 0.  1.
       -2   -1    0    0    0  501  0.00000000000E+00  0.00000000000E+00 -0.15540909942E+04  0.15540909942E+04  0.25500000920E-02 0. -1.
    10030    2    1    2    0    0  0.00000000000E+00  0.00000000000E+00 -0.56400221708E+01  0.31025419662E+04  0.31025368398E+04 0.  0.
        3    1    3    3  502    0 -0.15048928078E+04  0.35866398108E+03 -0.11723823259E+03  0.15514789807E+04  0.10100000352E+00 0.  1.
       -3    1    3    3    0  502  0.15048928078E+04 -0.35866398108E+03  0.11159821042E+03  0.15510629855E+04  0.10100000352E+00 0. -1.
</event>
<event>
 5   0  0.7519202E-07  0.3074498E+04  0.7818609E-02  0.8222772E-01
       -1   -1    0    0    0  501  0.00000000000E+00  0.00000000000E+00  0.12634832630E+04  0.12634832630E+04  0.50400001928E-02 0.  1.
        1   -1    0    0  501    0  0.00000000000E+00  0.00000000000E+00 -0.18703335583E+04  0.18703335583E+04  0.50400001928E-02 0. -1.
    10030    2    1    2    0    0  0.00000000000E+00  0.00000000000E+00 -0.60685029530E+03  0.31338168213E+04  0.30744984288E+04 0.  0.
        4    1    3    3  502    0 -0.14183124868E+04  0.37781569143E+01 -0.90774592381E+03  0.16839325580E+04  0.12699999809E+01 0.  1.
       -4    1    3    3    0  502  0.14183124868E+04 -0.37781569143E+01  0.30089562851E+03  0.14498842633E+04  0.12699999809E+01 0. -1.
</event>
<event>
 5   0  0.7656332E-07  0.3131567E+04  0.7818609E-02  0.8207128E-01
       -1   -1    0    0    0  501  0.00000000000E+00  0.00000000000E+00  0.16163192462E+04  0.16163192462E+04  0.50400001928E-02 0.  1.
        1   -1    0    0  501    0  0.00000000000E+00  0.00000000000E+00 -0.15168278073E+04  0.15168278073E+04  0.50400001928E-02 0. -1.
    10030    2    1    2    0    0  0.00000000000E+00  0.00000000000E+00  0.99491438919E+02  0.31331470535E+04  0.31315670059E+04 0.  0.
        2    1    3    3  502    0  0.89841699547E+02  0.15585075595E+04 -0.71396478132E+02  0.15627267199E+04  0.25500000920E-02 0. -1.
       -2    1    3    3    0  502 -0.89841699547E+02 -0.15585075595E+04  0.17088791705E+03  0.15704203336E+04  0.25500000920E-02 0.  1.
</event>
<event>
 5   0  0.7726743E-07  0.3109992E+04  0.7818609E-02  0.8213001E-01
       -1   -1    0    0    0  501  0.00000000000E+00  0.00000000000E+00  0.13624073392E+04  0.13624073392E+04  0.50400001928E-02 0.  1.
        1   -1    0    0  501    0  0.00000000000E+00  0.00000000000E+00 -0.17748084833E+04  0.17748084833E+04  0.50400001928E-02 0. -1.
    10030    2    1    2    0    0  0.00000000000E+00  0.00000000000E+00 -0.41240114410E+03  0.31372158226E+04  0.31099917064E+04 0.  0.
        1    1    3    3  502    0 -0.15092206123E+03 -0.45482128450E+02  0.13543274762E+04  0.13634694736E+04  0.50400001928E-02 0.  1.
       -1    1    3    3    0  502  0.15092206123E+03  0.45482128450E+02 -0.17667286203E+04  0.17737463490E+04  0.50400001928E-02 0. -1.
</event>
<event>
 5   0  0.2133385E-06  0.3086690E+04  0.7818609E-02  0.8219400E-01
        2   -1    0    0  501    0  0.00000000000E+00  0.00000000000E+00  0.10683503486E+04  0.10683503486E+04  0.25500000920E-02 0.  1.
       -2   -1    0    0    0  501  0.00000000000E+00  0.00000000000E+00 -0.22295256680E+04  0.22295256680E+04  0.25500000920E-02 0. -1.
    10030    2    1    2    0    0  0.00000000000E+00  0.00000000000E+00 -0.11611753194E+04  0.32978760166E+04  0.30866904766E+04 0.  0.
        2    1    3    3  502    0  0.97194837559E+03  0.11521189156E+04 -0.22647049837E+03  0.15242540888E+04  0.25500000920E-02 0.  1.
       -2    1    3    3    0  502 -0.97194837559E+03 -0.11521189156E+04 -0.93470482104E+03  0.17736219278E+04  0.25500000920E-02 0. -1.
</event>
<event>
 5   0  0.7413481E-07  0.3099425E+04  0.7818609E-02  0.8215896E-01
        1   -1    0    0  501    0  0.00000000000E+00  0.00000000000E+00  0.18659857126E+04  0.18659857127E+04  0.50400001928E-02 0.  1.
       -1   -1    0    0    0  501  0.00000000000E+00  0.00000000000E+00 -0.12870459208E+04  0.12870459208E+04  0.50400001928E-02 0. -1.
    10030    2    1    2    0    0  0.00000000000E+00  0.00000000000E+00  0.57893979189E+03  0.31530316334E+04  0.30994253014E+04 0.  0.
        5    1    3    3  502    0 -0.70384918605E+03  0.10084017071E+04 -0.66987247697E+03  0.14003674179E+04  0.46999998093E+01 0. -1.
       -5    1    3    3    0  502  0.70384918605E+03 -0.10084017071E+04  0.12488122689E+04  0.17526642156E+04  0.46999998093E+01 0.  1.
</event>
<event>
 5   0  0.7561815E-07  0.3110262E+04  0.7818609E-02  0.8212927E-01
        1   -1    0    0  501    0  0.00000000000E+00  0.00000000000E+00  0.18144540721E+04  0.18144540721E+04  0.50400001928E-02 0.  1.
       -1   -1    0    0    0  501  0.00000000000E+00  0.00000000000E+00 -0.13328702051E+04  0.13328702051E+04  0.50400001928E-02 0. -1.
    10030    2    1    2    0    0  0.00000000000E+00  0.00000000000E+00  0.48158386707E+03  0.31473242772E+04  0.31102615782E+04 0.  0.
        3    1    3    3  502    0  0.12144078855E+04  0.32661902002E+03  0.11665516809E+04  0.17153161024E+04  0.10100000352E+00 0.  1.
       -3    1    3    3    0  502 -0.12144078855E+04 -0.32661902002E+03 -0.68496781386E+03  0.14320081748E+04  0.10100000352E+00 0. -1.
</event>
<event>
 5   0  0.2078009E-06  0.3042503E+04  0.7818609E-02  0.8231697E-01
       -2   -1    0    0    0  501  0.00000000000E+00  0.00000000000E+00  0.11737089599E+04  0.11737089599E+04  0.25500000920E-02 0. -1.
        2   -1    0    0  501    0  0.00000000000E+00  0.00000000000E+00 -0.19717038467E+04  0.19717038467E+04  0.25500000920E-02 0.  1.
    10030    2    1    2    0    0  0.00000000000E+00  0.00000000000E+00 -0.79799488682E+03  0.31454128065E+04  0.30425032267E+04 0.  0.
        3    1    3    3  502    0 -0.75575361836E+03  0.69787897831E+03 -0.15576221413E+04  0.18666508365E+04  0.10100000352E+00 0.  1.
       -3    1    3    3    0  502  0.75575361836E+03 -0.69787897831E+03  0.75962725452E+03  0.12787619700E+04  0.10100000352E+00 0. -1.
</event>
<event>
 5   0  0.2078009E-06  0.3092182E+04  0.7818609E-02  0.8217887E-01
       -2   -1    0    0    0  501  0.00000000000E+00  0.00000000000E+00  0.14377092349E+04  0.14377092349E+04  0.25500000920E-02 0.  1.
        2   -1    0    0  501    0  0.00000000000E+00  0.00000000000E+00 -0.16626426840E+04  0.16626426840E+04  0.25500000920E-02 0. -1.
    10030    2    1    2    0    0  0.00000000000E+00  0.00000000000E+00 -0.22493344909E+03  0.31003519188E+04  0.30921815865E+04 0.  0.
        3    1    3    3  502    0 -0.12786720370E+04 -0.31138632132E+03 -0.92604966731E+03  0.16092021675E+04  0.10100000352E+00 0.  1.
       -3    1    3    3    0  502  0.12786720370E+04  0.31138632132E+03  0.70111621821E+03  0.14911497513E+04  0.10100000352E+00 0. -1.
</event>
<event>
 5   0  0.7726743E-07  0.3108667E+04  0.7818609E-02  0.8213363E-01
        1   -1    0    0  501    0  0.00000000000E+00  0.00000000000E+00  0.21712825630E+04  0.21712825630E+04  0.50400001928E-02 0. -1.
       -1   -1    0    0    0  501  0.00000000000E+00  0.00000000000E+00 -0.11126848129E+04  0.11126848129E+04  0.50400001928E-02 0.  1.
    10030    2    1    2    0    0  0.00000000000E+00  0.00000000000E+00  0.10585977502E+04  0.32839673759E+04  0.31086673237E+04 0.  0.
        1    1    3    3  502    0  0.66310033573E+03  0.41364434018E+03 -0.89002388124E+03  0.11844603010E+04  0.50400001928E-02 0.  1.
       -1    1    3    3    0  502 -0.66310033573E+03 -0.41364434018E+03  0.19486216314E+04  0.20995070749E+04  0.50400001928E-02 0. -1.
</event>
<event>
 5   0  0.2067926E-06  0.3106158E+04  0.7818609E-02  0.8214050E-01
        2   -1    0    0  501    0  0.00000000000E+00  0.00000000000E+00  0.16219527305E+04  0.16219527305E+04  0.25500000920E-02 0. -1.
       -2   -1    0    0    0  501  0.00000000000E+00  0.00000000000E+00 -0.14871301487E+04  0.14871301487E+04  0.25500000920E-02 0.  1.
    10030    2    1    2    0    0  0.00000000000E+00  0.00000000000E+00  0.13482258186E+03  0.31090828792E+04  0.31061582737E+04 0.  0.
        1    1    3    3  502    0  0.44831984464E+03  0.77821181175E+02  0.15537363544E+04  0.16189945887E+04  0.50400001928E-02 0. -1.
       -1    1    3    3    0  502 -0.44831984464E+03 -0.77821181175E+02 -0.14189137726E+04  0.14900882904E+04  0.50400001928E-02 0.  1.
</event>
<event>
 5   0  0.7656332E-07  0.3103519E+04  0.7818609E-02  0.8214773E-01
       -1   -1    0    0    0  501  0.00000000000E+00  0.00000000000E+00  0.98691772729E+03  0.98691772730E+03  0.50400001928E-02 0. -1.
        1   -1    0    0  501    0  0.00000000000E+00  0.00000000000E+00 -0.24398770885E+04  0.24398770885E+04  0.50400001928E-02 0.  1.
    10030    2    1    2    0    0  0.00000000000E+00  0.00000000000E+00 -0.14529593612E+04  0.34267948158E+04  0.31035192611E+04 0.  0.
        2    1    3    3  502    0  0.11332924368E+04  0.72791937753E+03  0.12432850177E+03  0.13526551459E+04  0.25500000920E-02 0.  1.
       -2    1    3    3    0  502 -0.11332924368E+04 -0.72791937753E+03 -0.15772878630E+04  0.20741396699E+04  0.25500000920E-02 0. -1.
</event>
<event>
 5   0  0.7726743E-07  0.3103148E+04  0.7818609E-02  0.8214875E-01
       -1   -1    0    0    0  501  0.00000000000E+00  0.00000000000E+00  0.10501036456E+04  0.10501036456E+04  0.50400001928E-02 0. -1.
        1   -1    0    0  501    0  0.00000000000E+00  0.00000000000E+00 -0.22925183191E+04  0.22925183191E+04  0.50400001928E-02 0.  1.
    10030    2    1    2    0    0  0.00000000000E+00  0.00000000000E+00 -0.12424146735E+04  0.33426219647E+04  0.31031479788E+04 0.  0.
        1    1    3    3  502    0 -0.18402286185E+03 -0.86102925207E+03 -0.19973526225E+04  0.21828085773E+04  0.50400001928E-02 0.  1.
       -1    1    3    3    0  502  0.18402286185E+03  0.86102925207E+03  0.75493794905E+03  0.11598133874E+04  0.50400001928E-02 0. -1.
</event>
<event>
 5   0  0.2226334E-06  0.3093503E+04  0.7818609E-02  0.8217523E-01
       -2   -1    0    0    0  501  0.00000000000E+00  0.00000000000E+00  0.10939526137E+04  0.10939526137E+04  0.25500000920E-02 0.  1.
        2   -1    0    0  501    0  0.00000000000E+00  0.00000000000E+00 -0.21869684380E+04  0.21869684380E+04  0.25500000920E-02 0. -1.
    10030    2    1    2    0    0  0.00000000000E+00  0.00000000000E+00 -0.10930158243E+04  0.32809210517E+04  0.30935027647E+04 0.  0.
        5    1    3    3  502    0  0.15709570898E+03  0.21970196771E+03 -0.21617574538E+04  0.21785695755E+04  0.46999998093E+01 0. -1.
       -5    1    3    3    0  502 -0.15709570898E+03 -0.21970196771E+03  0.10687416295E+04  0.11023514762E+04  0.46999998093E+01 0.  1.
</event>
<event>
 5   0  0.2067926E-06  0.3063231E+04  0.7818609E-02  0.8225902E-01
       -2   -1    0    0    0  501  0.00000000000E+00  0.00000000000E+00  0.13972049247E+04  0.13972049247E+04  0.25500000920E-02 0.  1.
        2   -1    0    0  501    0  0.00000000000E+00  0.00000000000E+00 -0.16789565567E+04  0.16789565567E+04  0.25500000920E-02 0. -1.
    10030    2    1    2    0    0  0.00000000000E+00  0.00000000000E+00 -0.28175163201E+03  0.30761614814E+04  0.30632312152E+04 0.  0.
        1    1    3    3  502    0 -0.60491520013E+03 -0.13251827018E+04 -0.61596345309E+03  0.15815949444E+04  0.50400001928E-02 0. -1.
       -1    1    3    3    0  502  0.60491520013E+03  0.13251827018E+04  0.33421182108E+03  0.14945665371E+04  0.50400001928E-02 0.  1.
</event>
<event>
 5   0  0.7519202E-07  0.3105176E+04  0.7818609E-02  0.8214319E-01
       -1   -1    0    0    0  501  0.00000000000E+00  0.00000000000E+00  0.98110389283E+03  0.98110389284E+03  0.50400001928E-02 0. -1.
        1   -1    0    0  501    0  0.00000000000E+00  0.00000000000E+00 -0.24569558788E+04  0.24569558788E+04  0.50400001928E-02 0.  1.
    10030    2    1    2    0    0  0.00000000000E+00  0.00000000000E+00 -0.14758519860E+04  0.34380597717E+04  0.31051756648E+04 0.  0.
        4    1    3    3  502    0  0.11790260161E+04 -0.99591650348E+03 -0.92509025230E+03  0.17993736734E+04  0.12699999809E+01 0.  1.
       -4    1    3    3    0  502 -0.11790260161E+04  0.99591650348E+03 -0.55076173370E+03  0.16386860983E+04  0.12699999809E+01 0. -1.
</event>
<event>
 5   0  0.7656332E-07  0.3110510E+04  0.7818609E-02  0.8212859E-01
       -1   -1    0    0    0  501  0.00000000000E+00  0.00000000000E+00  0.13960588187E+04  0.13960588187E+04  0.50400001928E-02 0.  1.
        1   -1    0    0  501    0  0.00000000000E+00  0.00000000000E+00 -0.17326049338E+04  0.17326049338E+04  0.50400001928E-02 0. -1.
    10030    2    1    2    0    0  0.00000000000E+00  0.00000000000E+00 -0.33654611510E+03  0.31286637526E+04  0.31105101815E+04 0.  0.
        2    1    3    3  502    0  0.54748312947E+03 -0.11918440179E+04 -0.10089670929E+04  0.16547641931E+04  0.25500000920E-02 0.  1.
       -2    1    3    3    0  502 -0.54748312947E+03  0.11918440179E+04  0.67242097784E+03  0.14738995595E+04  0.25500000920E-02 0. -1.
</event>
<event>
 5   0  0.2133385E-06  0.3094773E+04  0.7818609E-02  0.8217174E-01
       -2   -1    0    0    0  501  0.00000000000E+00  0.00000000000E+00  0.13410349134E+04  0.13410349134E+04  0.25500000920E-02 0.  1.
        2   -1    0    0  501    0  0.00000000000E+00  0.00000000000E+00 -0.17854908345E+04  0.17854908345E+04  0.25500000920E-02 0. -1.
    10030    2    1    2    0    0  0.00000000000E+00  0.00000000000E+00 -0.44445592112E+03  0.31265257479E+04  0.30947733660E+04 0.  0.
        2    1    3    3  502    0 -0.27993782227E+03 -0.69078693906E+03  0.11477284719E+04  0.13685146783E+04  0.25500000920E-02 0.  1.
       -2    1    3    3    0  502  0.27993782227E+03  0.69078693906E+03 -0.15921843930E+04  0.17580110696E+04  0.25500000920E-02 0. -1.
</event>
<event>
 5   0  0.7561815E-07  0.3178993E+04  0.7818609E-02  0.8194387E-01
       -1   -1    0    0    0  501  0.00000000000E+00  0.00000000000E+00  0.16935919263E+04  0.16935919263E+04  0.50400001928E-02 0. -1.
        1   -1    0    0  501    0  0.00000000000E+00  0.00000000000E+00 -0.14917993479E+04  0.14917993479E+04  0.50400001928E-02 0.  1.
    10030    2    1    2    0    0  0.00000000000E+00  0.00000000000E+00  0.20179257837E+03  0.31853912742E+04  0.31789931307E+04 0.  0.
        3    1    3    3  502    0 -0.42034647879E+03 -0.12491030931E+04 -0.78945811534E+03  0.15362922331E+04  0.10100000352E+00 0.  1.
       -3    1    3    3    0  502  0.42034647879E+03  0.12491030931E+04  0.99125069372E+03  0.16490990411E+04  0.10100000352E+00 0. -1.
</event>
<event>
 5   0  0.2226334E-06  0.3102669E+04  0.7818609E-02  0.8215006E-01
       -2   -1    0    0    0  501  0.00000000000E+00  0.00000000000E+00  0.10700202048E+04  0.10700202048E+04  0.25500000920E-02 0. -1.
        2   -1    0    0  501    0  0.00000000000E+00  0.00000000000E+00 -0.22491523722E+04  0.22491523722E+04  0.25500000920E-02 0.  1.
    10030    2    1    2    0    0  0.00000000000E+00  0.00000000000E+00 -0.11791321674E+04  0.33191725771E+04  0.31026688396E+04 0.  0.
        5    1    3    3  502    0  0.44685103648E+03 -0.10422747313E+04  0.54288768089E+03  0.12572834161E+04  0.46999998093E+01 0. -1.
       -5    1    3    3    0  502 -0.44685103648E+03  0.10422747313E+04 -0.17220198483E+04  0.20618891610E+04  0.46999998093E+01 0.  1.
</event>
<event>
 5   0  0.7561815E-07  0.3053781E+04  0.7818609E-02  0.8228538E-01
       -1   -1    0    0    0  501  0.00000000000E+00  0.00000000000E+00  0.15690560156E+04  0.15690560156E+04  0.50400001928E-02 0. -1.
        1   -1    0    0  501    0  0.00000000000E+00  0.00000000000E+00 -0.14858581915E+04  0.14858581915E+04  0.50400001928E-02 0.  1.
    10030    2    1    2    0    0  0.00000000000E+00  0.00000000000E+00  0.83197824114E+02  0.30549142071E+04  0.30537810883E+04 0.  0.
        3    1    3    3  502    0  0.10298516060E+04  0.23903537725E+03 -0.10604733715E+04  0.14974431622E+04  0.10100000352E+00 0.  1.
       -3    1    3    3    0  502 -0.10298516060E+04 -0.23903537725E+03  0.11436711956E+04  0.15574710450E+04  0.10100000352E+00 0. -1.
</event>
<event>
 5   0  0.2133385E-06  0.3271069E+04  0.7818609E-02  0.8170296E-01
        2   -1    0    0  501    0  0.00000000000E+00  0.00000000000E+00  0.75572348278E+03  0.75572348279E+03  0.25500000920E-02 0. -1.
       -2   -1    0    0    0  501  0.00000000000E+00  0.00000000000E+00 -0.35396192142E+04  0.35396192142E+04  0.25500000920E-02 0.  1.
    10030    2    1    2    0    0  0.00000000000E+00  0.00000000000E+00 -0.27838957314E+04  0.42953426970E+04  0.32710691587E+04 0.  0.
        2    1    3    3  502    0 -0.67165278270E+03 -0.50531426515E+02 -0.33490430259E+04  0.34161030539E+04  0.25500000920E-02 0.  1.
       -2    1    3    3    0  502  0.67165278270E+03  0.50531426515E+02  0.56514729446E+03  0.87923964311E+03  0.25500000920E-02 0. -1.
</event>
<event>
 5   0  0.2133385E-06  0.3136710E+04  0.7818609E-02  0.8205735E-01
        2   -1    0    0  501    0  0.00000000000E+00  0.00000000000E+00  0.14152656785E+04  0.14152656785E+04  0.25500000920E-02 0.  1.
       -2   -1    0    0    0  501  0.00000000000E+00  0.00000000000E+00 -0.17380035614E+04  0.17380035614E+04  0.25500000920E-02 0. -1.
    10030    2    1    2    0    0  0.00000000000E+00  0.00000000000E+00 -0.32273788287E+03  0.31532692399E+04  0.31367096069E+04 0.  0.
        2    1    3    3  502    0  0.48426029034E+03  0.10674470775E+04  0.88614245967E+03  0.14694215702E+04  0.25500000920E-02 0.  1.
       -2    1    3    3    0  502 -0.48426029034E+03 -0.10674470775E+04 -0.12088803425E+04  0.16838476697E+04  0.25500000920E-02 0. -1.
</event>
<event>
 5   0  0.7726743E-07  0.3216273E+04  0.7818609E-02  0.8184533E-01
       -1   -1    0    0    0  501  0.00000000000E+00  0.00000000000E+00  0.11510868309E+04  0.11510868309E+04  0.50400001928E-02 0.  1.
        1   -1    0    0  501    0  0.00000000000E+00  0.00000000000E+00 -0.22466620366E+04  0.22466620366E+04  0.50400001928E-02 0. -1.
    10030    2    1    2    0    0  0.00000000000E+00  0.00000000000E+00 -0.10955752057E+04  0.33977488675E+04  0.32162730504E+04 0.  0.
        1    1    3    3  502    0  0.13539747687E+04 -0.72869162389E+03 -0.50186067030E+02  0.15384270533E+04  0.50400001928E-02 0.  1.
       -1    1    3    3    0  502 -0.13539747687E+04  0.72869162389E+03 -0.10453891387E+04  0.18593218141E+04  0.50400001928E-02 0. -1.
</event>
<event>
 5   0  0.2078009E-06  0.3083093E+04  0.7818609E-02  0.8220393E-01
        2   -1    0    0  501    0  0.00000000000E+00  0.00000000000E+00  0.12768720380E+04  0.12768720380E+04  0.25500000920E-02 0.  1.
       -2   -1    0    0    0  501  0.00000000000E+00  0.00000000000E+00 -0.18610831473E+04  0.18610831473E+04  0.25500000920E-02 0. -1.
    10030    2    1    2    0    0  0.00000000000E+00  0.00000000000E+00 -0.58421110928E+03  0.31379551853E+04  0.30830926234E+04 0.  0.
        3    1    3    3  502    0 -0.44343659687E+03 -0.14324180240E+04  0.71900290029E+02  0.15012085374E+04  0.10100000352E+00 0.  1.
       -3    1    3    3    0  502  0.44343659687E+03  0.14324180240E+04 -0.65611139931E+03  0.16367466479E+04  0.10100000352E+00 0. -1.
</event>
<event>
 5   0  0.2133385E-06  0.3104456E+04  0.7818609E-02  0.8214516E-01
       -2   -1    0    0    0  501  0.00000000000E+00  0.00000000000E+00  0.18923774506E+04  0.18923774506E+04  0.25500000920E-02 0.  1.
        2   -1    0    0  501    0  0.00000000000E+00  0.00000000000E+00 -0.12732191426E+04  0.12732191426E+04  0.25500000920E-02 0. -1.
    10030    2    1    2    0    0  0.00000000000E+00  0.00000000000E+00  0.61915830793E+03  0.31655965932E+04  0.31044556336E+04 0.  0.
        2    1    3    3  502    0  0.47462040243E+03 -0.10120479647E+04  0.14077791359E+04  0.17975949779E+04  0.25500000920E-02 0.  1.
       -2    1    3    3    0  502 -0.47462040243E+03  0.10120479647E+04 -0.78862082794E+03  0.13680016153E+04  0.25500000920E-02 0. -1.
</event>
<event>
 5   0  0.7561815E-07  0.3102676E+04  0.7818609E-02  0.8215004E-01
        1   -1    0    0  501    0  0.00000000000E+00  0.00000000000E+00  0.22265814393E+04  0.22265814393E+04  0.50400001928E-02 0. -1.
       -1   -1    0    0    0  501  0.00000000000E+00  0.00000000000E+00 -0.10808718781E+04  0.10808718781E+04  0.50400001928E-02 0.  1.
    10030    2    1    2    0    0  0.00000000000E+00  0.00000000000E+00  0.11457095612E+04  0.33074533174E+04  0.31026757884E+04 0.  0.
        3    1    3    3  502    0  0.55633924989E+03 -0.13558600145E+04  0.30576424081E+02  0.14658801683E+04  0.10100000352E+00 0.  1.
       -3    1    3    3    0  502 -0.55633924989E+03  0.13558600145E+04  0.11151331371E+04  0.18415731491E+04  0.10100000352E+00 0. -1.
</event>
<event>
 5   0  0.7561815E-07  0.3097624E+04  0.7818609E-02  0.8216390E-01
        1   -1    0    0  501    0  0.00000000000E+00  0.00000000000E+00  0.23253526721E+04  0.23253526721E+04  0.50400001928E-02 0.  1.
       -1   -1    0    0    0  501  0.00000000000E+00  0.00000000000E+00 -0.10315936610E+04  0.10315936610E+04  0.50400001928E-02 0. -1.
    10030    2    1    2    0    0  0.00000000000E+00  0.00000000000E+00  0.12937590111E+04  0.33569463331E+04  0.30976243001E+04 0.  0.
        3    1    3    3  502    0 -0.80323876858E+03  0.58345844379E+02 -0.78683362717E+03  0.11259235871E+04  0.10100000352E+00 0. -1.
       -3    1    3    3    0  502  0.80323876858E+03 -0.58345844379E+02  0.20805926382E+04  0.22310227461E+04  0.10100000352E+00 0.  1.
</event>
<event>
 5   0  0.7519202E-07  0.3106142E+04  0.7818609E-02  0.8214054E-01
       -1   -1    0    0    0  501  0.00000000000E+00  0.00000000000E+00  0.20384136055E+04  0.20384136055E+04  0.50400001928E-02 0.  1.
        1   -1    0    0  501    0  0.00000000000E+00  0.00000000000E+00 -0.11832877146E+04  0.11832877146E+04  0.50400001928E-02 0. -1.
    10030    2    1    2    0    0  0.00000000000E+00  0.00000000000E+00  0.85512589087E+03  0.32217013201E+04  0.31061421581E+04 0.  0.
        4    1    3    3  502    0 -0.13242569522E+04 -0.43309266656E+03  0.11392405428E+04  0.17997489715E+04  0.12699999809E+01 0.  1.
       -4    1    3    3    0  502  0.13242569522E+04  0.43309266656E+03 -0.28411465194E+03  0.14219523486E+04  0.12699999809E+01 0. -1.
</event>
<event>
 5   0  0.2078009E-06  0.3084603E+04  0.7818609E-02  0.8219976E-01
        2   -1    0    0  501    0  0.00000000000E+00  0.00000000000E+00  0.16254818696E+04  0.16254818696E+04  0.25500000920E-02 0. -1.
       -2   -1    0    0    0  501  0.00000000000E+00  0.00000000000E+00 -0.14633774408E+04  0.14633774408E+04  0.25500000920E-02 0.  1.
    10030    2    1    2    0    0  0.00000000000E+00  0.00000000000E+00  0.16210442882E+03  0.30888593104E+04  0.30846027286E+04 0.  0.
        3    1    3    3  502    0 -0.55913924590E+03 -0.13657611629E+04  0.52972545507E+03  0.15679761855E+04  0.10100000352E+00 0.  1.
       -3    1    3    3    0  502  0.55913924590E+03  0.13657611629E+04 -0.36762102625E+03  0.15208831249E+04  0.10100000352E+00 0. -1.
</event>
<event>
 5   0  0.2133385E-06  0.3110778E+04  0.7818609E-02  0.8212786E-01
       -2   -1    0    0    0  501  0.00000000000E+00  0.00000000000E+00  0.10633176837E+04  0.10633176837E+04  0.25500000920E-02 0. -1.
        2   -1    0    0  501    0  0.00000000000E+00  0.00000000000E+00 -0.22751766040E+04  0.22751766040E+04  0.25500000920E-02 0.  1.
    10030    2    1    2    0    0  0.00000000000E+00  0.00000000000E+00 -0.12118589203E+04  0.33384942878E+04  0.31107783699E+04 0.  0.
        2    1    3    3  502    0  0.19171675155E+03  0.10430573063E+04  0.61512363889E+03  0.12260101745E+04  0.25500000920E-02 0. -1.
       -2    1    3    3    0  502 -0.19171675155E+03 -0.10430573063E+04 -0.18269825592E+04  0.21124841132E+04  0.25500000920E-02 0.  1.
</event>
<event>
 5   0  0.2094135E-06  0.3045750E+04  0.7818609E-02  0.8230786E-01
       -2   -1    0    0    0  501  0.00000000000E+00  0.00000000000E+00  0.16178728459E+04  0.16178728459E+04  0.25500000920E-02 0.  1.
        2   -1    0    0  501    0  0.00000000000E+00  0.00000000000E+00 -0.14334553402E+04  0.14334553402E+04  0.25500000920E-02 0. -1.
    10030    2    1    2    0    0  0.00000000000E+00  0.00000000000E+00  0.18441750575E+03  0.30513281861E+04  0.30457501347E+04 0.  0.
        4    1    3    3  502    0 -0.13075704130E+04  0.78062193365E+03  0.98208836674E+02  0.15260267287E+04  0.12699999809E+01 0. -1.
       -4    1    3    3    0  502  0.13075704130E+04 -0.78062193365E+03  0.86208669080E+02  0.15253014574E+04  0.12699999809E+01 0.  1.
</event>
<event>
 5   0  0.7656332E-07  0.3102953E+04  0.7818609E-02  0.8214928E-01
       -1   -1    0    0    0  501  0.00000000000E+00  0.00000000000E+00  0.13129187303E+04  0.13129187303E+04  0.50400001928E-02 0.  1.
        1   -1    0    0  501    0  0.00000000000E+00  0.00000000000E+00 -0.18333800811E+04  0.18333800811E+04  0.50400001928E-02 0. -1.
    10030    2    1    2    0    0  0.00000000000E+00  0.00000000000E+00 -0.52046135083E+03  0.31462988114E+04  0.31029528183E+04 0.  0.
        2    1    3    3  502    0 -0.63885817291E+03 -0.10764215938E+04  0.66922902173E+03  0.14193980049E+04  0.25500000920E-02 0.  1.
       -2    1    3    3    0  502  0.63885817291E+03  0.10764215938E+04 -0.11896903726E+04  0.17269008065E+04  0.25500000920E-02 0. -1.
</event>
<event>
 5   0  0.6979625E-07  0.3127405E+04  0.7818609E-02  0.8208257E-01
       -3   -1    0    0    0  501  0.00000000000E+00  0.00000000000E+00  0.12885619654E+04  0.12885619693E+04  0.10100000352E+00 0. -1.
        3   -1    0    0  501    0  0.00000000000E+00  0.00000000000E+00 -0.18975921459E+04  0.18975921485E+04  0.10100000352E+00 0.  1.
    10030    2    1    2    0    0  0.00000000000E+00  0.00000000000E+00 -0.60903018047E+03  0.31861541179E+04  0.31274047231E+04 0.  0.
        5    1    3    3  502    0  0.72040478198E+03 -0.13674234666E+04 -0.54627652155E+03  0.16392895153E+04  0.46999998093E+01 0. -1.
       -5    1    3    3    0  502 -0.72040478198E+03  0.13674234666E+04 -0.62753658914E+02  0.15468646026E+04  0.46999998093E+01 0.  1.
</event>
<event>
 5   0  0.2067926E-06  0.3080633E+04  0.7818609E-02  0.8221073E-01
       -2   -1    0    0    0  501  0.00000000000E+00  0.00000000000E+00  0.16472517078E+04  0.16472517078E+04  0.25500000920E-02 0.  1.
        2   -1    0    0  501    0  0.00000000000E+00  0.00000000000E+00 -0.14403230612E+04  0.14403230612E+04  0.25500000920E-02 0. -1.
    10030    2    1    2    0    0  0.00000000000E+00  0.00000000000E+00  0.20692864661E+03  0.30875747690E+04  0.30806328067E+04 0.  0.
        1    1    3    3  502    0 -0.11140305834E+04 -0.78688465273E+03  0.82084468637E+03  0.15918660737E+04  0.50400001928E-02 0.  1.
       -1    1    3    3    0  502  0.11140305834E+04  0.78688465273E+03 -0.61391603976E+03  0.14957086953E+04  0.50400001928E-02 0. -1.
</event>
<event>
 5   0  0.2133385E-06  0.3095395E+04  0.7818609E-02  0.8217003E-01
       -2   -1    0    0    0  501  0.00000000000E+00  0.00000000000E+00  0.11370001020E+04  0.11370001020E+04  0.25500000920E-02 0. -1.
        2   -1    0    0  501    0  0.00000000000E+00  0.00000000000E+00 -0.21067439412E+04  0.21067439412E+04  0.25500000920E-02 0.  1.
    10030    2    1    2    0    0  0.00000000000E+00  0.00000000000E+00 -0.96974383922E+03  0.32437440432E+04  0.30953953389E+04 0.  0.
        2    1    3    3  502    0 -0.23837292810E+03  0.28650760246E+03  0.10892713446E+04  0.11512690048E+04  0.25500000920E-02 0. -1.
       -2    1    3    3    0  502  0.23837292810E+03 -0.28650760246E+03 -0.20590151839E+04  0.20924750384E+04  0.25500000920E-02 0.  1.
</event>
<event>
 5   0  0.7726743E-07  0.3111957E+04  0.7818609E-02  0.8212464E-01
       -1   -1    0    0    0  501  0.00000000000E+00  0.00000000000E+00  0.15144869129E+04  0.15144869129E+04  0.50400001928E-02 0.  1.
        1   -1    0    0  501    0  0.00000000000E+00  0.00000000000E+00 -0.15986066374E+04  0.15986066374E+04  0.50400001928E-02 0. -1.
    10030    2    1    2    0    0  0.00000000000E+00  0.00000000000E+00 -0.84119724522E+02  0.31130935503E+04  0.31119568321E+04 0.  0.
        1    1    3    3  502    0  0.80437643857E+03 -0.36802887920E+01  0.12903552708E+04  0.15205432333E+04  0.50400001928E-02 0.  1.
       -1    1    3    3    0  502 -0.80437643857E+03  0.36802887920E+01 -0.13744749953E+04  0.15925503170E+04  0.50400001928E-02 0. -1.
</event>
<event>
 5   0  0.7561815E-07  0.3067804E+04  0.7818609E-02  0.8224630E-01
       -1   -1    0    0    0  501  0.00000000000E+00  0.00000000000E+00  0.16193476200E+04  0.16193476200E+04  0.50400001928E-02 0. -1.
        1   -1    0    0  501    0  0.00000000000E+00  0.00000000000E+00 -0.14529654275E+04  0.14529654275E+04  0.50400001928E-02 0.  1.
    10030    2    1    2    0    0  0.00000000000E+00  0.00000000000E+00  0.16638219252E+03  0.30723130475E+04  0.30678044964E+04 0.  0.
        3    1    3    3  502    0 -0.90822467223E+03 -0.12205219863E+04 -0.11282627326E+03  0.15255411343E+04  0.10100000352E+00 0. -1.
       -3    1    3    3    0  502  0.90822467223E+03  0.12205219863E+04  0.27920846579E+03  0.15467719133E+04  0.10100000352E+00 0.  1.
</event>
<event>
 5   0  0.7519202E-07  0.3139294E+04  0.7818609E-02  0.8205036E-01
       -1   -1    0    0    0  501  0.00000000000E+00  0.00000000000E+00  0.10643724905E+04  0.10643724905E+04  0.50400001928E-02 0.  1.
        1   -1    0    0  501    0  0.00000000000E+00  0.00000000000E+00 -0.23147827861E+04  0.23147827861E+04  0.50400001928E-02 0. -1.
    10030    2    1    2    0    0  0.00000000000E+00  0.00000000000E+00 -0.12504102956E+04  0.33791552766E+04  0.31392936270E+04 0.  0.
        4    1    3    3  502    0 -0.12679078327E+04 -0.35727945285E+03 -0.15439736082E+04  0.20295553689E+04  0.12699999809E+01 0. -1.
       -4    1    3    3    0  502  0.12679078327E+04  0.35727945285E+03  0.29356331264E+03  0.13495999078E+04  0.12699999809E+01 0.  1.
</event>
<event>
 5   0  0.7561815E-07  0.3099971E+04  0.7818609E-02  0.8215746E-01
       -1   -1    0    0    0  501  0.00000000000E+00  0.00000000000E+00  0.10175527225E+04  0.10175527226E+04  0.50400001928E-02 0.  1.
        1   -1    0    0  501    0  0.00000000000E+00  0.00000000000E+00 -0.23610129290E+04  0.23610129290E+04  0.50400001928E-02 0. -1.
    10030    2    1    2    0    0  0.00000000000E+00  0.00000000000E+00 -0.13434602065E+04  0.33785656516E+04  0.30999710540E+04 0.  0.
        3    1    3    3  502    0 -0.37544118517E+03 -0.11683421080E+04  0.36018507174E+03  0.12789498274E+04  0.10100000352E+00 0.  1.
       -3    1    3    3    0  502  0.37544118517E+03  0.11683421080E+04 -0.17036452782E+04  0.20996158242E+04  0.10100000352E+00 0. -1.
</event>
<event>
 5   0  0.2078009E-06  0.3037313E+04  0.7818609E-02  0.8233156E-01
       -2   -1    0    0    0  501  0.00000000000E+00  0.00000000000E+00  0.12020420495E+04  0.12020420495E+04  0.25500000920E-02 0. -1.
        2   -1    0    0  501    0  0.00000000000E+00  0.00000000000E+00 -0.19186660560E+04  0.19186660560E+04  0.25500000920E-02 0.  1.
    10030    2    1    2    0    0  0.00000000000E+00  0.00000000000E+00 -0.71662400655E+03  0.31207081055E+04  0.30373128112E+04 0.  0.
        3    1    3    3  502    0  0.11182567838E+04  0.72506645397E+03  0.38975685378E+03  0.13885712126E+04  0.10100000352E+00 0. -1.
       -3    1    3    3    0  502 -0.11182567838E+04 -0.72506645397E+03 -0.11063808603E+04  0.17321368928E+04  0.10100000352E+00 0.  1.
</event>
<event>
 5   0  0.7656332E-07  0.3084287E+04  0.7818609E-02  0.8220064E-01
        1   -1    0    0  501    0  0.00000000000E+00  0.00000000000E+00  0.17558065283E+04  0.17558065283E+04  0.50400001928E-02 0.  1.
       -1   -1    0    0    0  501  0.00000000000E+00  0.00000000000E+00 -0.13544806263E+04  0.13544806263E+04  0.50400001928E-02 0. -1.
    10030    2    1    2    0    0  0.00000000000E+00  0.00000000000E+00  0.40132590200E+03  0.31102871545E+04  0.30842865794E+04 0.  0.
        2    1    3    3  502    0  0.38349151512E+03  0.33471626619E+03 -0.12673234138E+04  0.13657266769E+04  0.25500000920E-02 0. -1.
       -2    1    3    3    0  502 -0.38349151512E+03 -0.33471626619E+03  0.16686493158E+04  0.17445604776E+04  0.25500000920E-02 0.  1.
</event>
<event>
 5   0  0.2067926E-06  0.3086323E+04  0.7818609E-02  0.8219501E-01
       -2   -1    0    0    0  501  0.00000000000E+00  0.00000000000E+00  0.11303952459E+04  0.11303952459E+04  0.25500000920E-02 0. -1.
        2   -1    0    0  501    0  0.00000000000E+00  0.00000000000E+00 -0.21066503223E+04  0.21066503223E+04  0.25500000920E-02 0.  1.
    10030    2    1    2    0    0  0.00000000000E+00  0.00000000000E+00 -0.97625507643E+03  0.32370455682E+04  0.30863230610E+04 0.  0.
        1    1    3    3  502    0  0.42129199322E+03 -0.13910371423E+04 -0.10319831796E+04  0.17825432835E+04  0.50400001928E-02 0.  1.
       -1    1    3    3    0  502 -0.42129199322E+03  0.13910371423E+04  0.55728103129E+02  0.14545022847E+04  0.50400001928E-02 0. -1.
</event>
<event>
 5   0  0.7656332E-07  0.3102900E+04  0.7818609E-02  0.8214943E-01
        1   -1    0    0  501    0  0.00000000000E+00  0.00000000000E+00  0.13617071146E+04  0.13617071146E+04  0.50400001928E-02 0. -1.
       -1   -1    0    0    0  501  0.00000000000E+00  0.00000000000E+00 -0.17676318262E+04  0.17676318262E+04  0.50400001928E-02 0.  1.
    10030    2    1    2    0    0  0.00000000000E+00  0.00000000000E+00 -0.40592471159E+03  0.31293389409E+04  0.31028998268E+04 0.  0.
        2    1    3    3  502    0 -0.14410364310E+04  0.88375709931E+02 -0.77578135737E+03  0.16389731468E+04  0.25500000920E-02 0.  1.
       -2    1    3    3    0  502  0.14410364310E+04 -0.88375709931E+02  0.36985664577E+03  0.14903657940E+04  0.25500000920E-02 0. -1.
</event>
<event>
 5   0  0.7561815E-07  0.3079803E+04  0.7818609E-02  0.8221303E-01
        1   -1    0    0  501    0  0.00000000000E+00  0.00000000000E+00  0.14928710897E+04  0.14928710897E+04  0.50400001928E-02 0. -1.
       -1   -1    0    0    0  501  0.00000000000E+00  0.00000000000E+00 -0.15884140314E+04  0.15884140314E+04  0.50400001928E-02 0.  1.
    10030    2    1    2    0    0  0.00000000000E+00  0.00000000000E+00 -0.95542941659E+02  0.30812851211E+04  0.30798034911E+04 0.  0.
        3    1    3    3  502    0 -0.59683667792E+03  0.81854066480E+03  0.11125599569E+04  0.15046635863E+04  0.10100000352E+00 0. -1.
       -3    1    3    3    0  502  0.59683667792E+03 -0.81854066480E+03 -0.12081028986E+04  0.15766215347E+04  0.10100000352E+00 0.  1.
</event>
<event>
 5   0  0.2094135E-06  0.3125150E+04  0.7818609E-02  0.8208870E-01
       -2   -1    0    0    0  501  0.00000000000E+00  0.00000000000E+00  0.17685030919E+04  0.17685030919E+04  0.25500000920E-02 0. -1.
        2   -1    0    0  501    0  0.00000000000E+00  0.00000000000E+00 -0.13806253634E+04  0.13806253635E+04  0.25500000920E-02 0.  1.
    10030    2    1    2    0    0  0.00000000000E+00  0.00000000000E+00  0.38787772850E+03  0.31491284554E+04  0.31251497398E+04 0.  0.
        4    1    3    3  502    0 -0.14502263348E+04 -0.56854285139E+03  0.69536297291E+02  0.15592415803E+04  0.12699999809E+01 0.  1.
       -4    1    3    3    0  502  0.14502263348E+04  0.56854285139E+03  0.31834143121E+03  0.15898868751E+04  0.12699999809E+01 0. -1.
</event>
<event>
 5   0  0.7519202E-07  0.3092397E+04  0.7818609E-02  0.8217828E-01
       -1   -1    0    0    0  501  0.00000000000E+00  0.00000000000E+00  0.13171521304E+04  0.13171521304E+04  0.50400001928E-02 0. -1.
        1   -1    0    0  501    0  0.00000000000E+00  0.00000000000E+00 -0.18150747155E+04  0.18150747155E+04  0.50400001928E-02 0.  1.
    10030    2    1    2    0    0  0.00000000000E+00  0.00000000000E+00 -0.49792258513E+03  0.31322268459E+04  0.30923968234E+04 0.  0.
        4    1    3    3  502    0  0.50482876785E+03 -0.27679096258E+03 -0.17024573375E+04  0.17971722012E+04  0.12699999809E+01 0.  1.
       -4    1    3    3    0  502 -0.50482876785E+03  0.27679096258E+03  0.12045347524E+04  0.13350546447E+04  0.12699999809E+01 0. -1.
</event>
<event>
 5   0  0.2133385E-06  0.3087697E+04  0.7818609E-02  0.8219122E-01
       -2   -1    0    0    0  501  0.00000000000E+00  0.00000000000E+00  0.98859987050E+03  0.98859987051E+03  0.25500000920E-02 0. -1.
        2   -1    0    0  501    0  0.00000000000E+00  0.00000000000E+00 -0.24109532691E+04  0.24109532691E+04  0.25500000920E-02 0.  1.
    10030    2    1    2    0    0  0.00000000000E+00  0.00000000000E+00 -0.14223533986E+04  0.33995531396E+04  0.30876969344E+04 0.  0.
        2    1    3    3  502    0  0.59507222827E+03 -0.16751439831E+03  0.84637631512E+03  0.10481053846E+04  0.25500000920E-02 0. -1.
       -2    1    3    3    0  502 -0.59507222827E+03  0.16751439831E+03 -0.22687297138E+04  0.23514477550E+04  0.25500000920E-02 0.  1.
</event>
<event>
 5   0  0.7413481E-07  0.3125505E+04  0.7818609E-02  0.8208773E-01
       -1   -1    0    0    0  501  0.00000000000E+00  0.00000000000E+00  0.16026401701E+04  0.16026401701E+04  0.50400001928E-02 0.  1.
        1   -1    0    0  501    0  0.00000000000E+00  0.00000000000E+00 -0.15238572974E+04  0.15238572974E+04  0.50400001928E-02 0. -1.
    10030    2    1    2    0    0  0.00000000000E+00  0.00000000000E+00  0.78782872659E+02  0.31264974675E+04  0.31255047070E+04 0.  0.
        5    1    3    3  502    0 -0.12641520071E+04  0.81825976261E+03 -0.37852529097E+03  0.15527178823E+04  0.46999998093E+01 0. -1.
       -5    1    3    3    0  502  0.12641520071E+04 -0.81825976261E+03  0.45730816363E+03  0.15737795852E+04  0.46999998093E+01 0.  1.
</event>
<event>
 5   0  0.2078009E-06  0.3087608E+04  0.7818609E-02  0.8219147E-01
       -2   -1    0    0    0  501  0.00000000000E+00  0.00000000000E+00  0.99926566638E+03  0.99926566638E+03  0.25500000920E-02 0.  1.
        2   -1    0    0  501    0  0.00000000000E+00  0.00000000000E+00 -0.23850829459E+04  0.23850829459E+04  0.25500000920E-02 0. -1.
    10030    2    1    2    0    0  0.00000000000E+00  0.00000000000E+00 -0.13858172795E+04  0.33843486123E+04  0.30876084592E+04 0.  0.
        3    1    3    3  502    0  0.10898314386E+04 -0.45497416089E+03 -0.17827483050E+04  0.21384399877E+04  0.10100000352E+00 0. -1.
       -3    1    3    3    0  502 -0.10898314386E+04  0.45497416089E+03  0.39693102546E+03  0.12459086246E+04  0.10100000352E+00 0.  1.
</event>
<event>
 5   0  0.7656332E-07  0.3112946E+04  0.7818609E-02  0.8212194E-01
        1   -1    0    0  501    0  0.00000000000E+00  0.00000000000E+00  0.13406851280E+04  0.13406851280E+04  0.50400001928E-02 0.  1.
       -1   -1    0    0    0  501  0.00000000000E+00  0.00000000000E+00 -0.18069926257E+04  0.18069926257E+04  0.50400001928E-02 0. -1.
    10030    2    1    2    0    0  0.00000000000E+00  0.00000000000E+00 -0.46630749774E+03  0.31476777537E+04  0.31129459614E+04 0.  0.
        2    1    3    3  502    0 -0.13685420013E+04 -0.57180904637E+03  0.24406033492E+03  0.15031427883E+04  0.25500000920E-02 0.  1.
       -2    1    3    3    0  502  0.13685420013E+04  0.57180904637E+03 -0.71036783266E+03  0.16445349654E+04  0.25500000920E-02 0. -1.
</event>
<event>
 5   0  0.2133385E-06  0.2824092E+04  0.7818609E-02  0.8295827E-01
       -2   -1    0    0    0  501  0.00000000000E+00  0.00000000000E+00  0.19690775284E+04  0.19690775284E+04  0.25500000920E-02 0.  1.
        2   -1    0    0  501    0  0.00000000000E+00  0.00000000000E+00 -0.10125931459E+04  0.10125931459E+04  0.25500000920E-02 0. -1.
    10030    2    1    2    0    0  0.00000000000E+00  0.00000000000E+00  0.95648438251E+03  0.29816706742E+04  0.28240923561E+04 0.  0.
        2    1    3    3  502    0  0.13012660855E+04  0.42387278971E+03  0.84536975552E+03  0.16086054801E+04  0.25500000920E-02 0.  1.
       -2    1    3    3    0  502 -0.13012660855E+04 -0.42387278971E+03  0.11111462699E+03  0.13730651941E+04  0.25500000920E-02 0. -1.
</event>
<event>
 5   0  0.2067926E-06  0.3095172E+04  0.7818609E-02  0.8217064E-01
       -2   -1    0    0    0  501  0.00000000000E+00  0.00000000000E+00  0.16299903631E+04  0.16299903631E+04  0.25500000920E-02 0. -1.
        2   -1    0    0  501    0  0.00000000000E+00  0.00000000000E+00 -0.14693474780E+04  0.14693474780E+04  0.25500000920E-02 0.  1.
    10030    2    1    2    0    0  0.00000000000E+00  0.00000000000E+00  0.16064288503E+03  0.30993378411E+04  0.30951718719E+04 0.  0.
        1    1    3    3  502    0 -0.43861615606E+03 -0.14815249095E+04  0.16831485407E+03  0.15542297384E+04  0.50400001928E-02 0. -1.
       -1    1    3    3    0  502  0.43861615606E+03  0.14815249095E+04 -0.76719690447E+01  0.15451081026E+04  0.50400001928E-02 0.  1.
</event>
<event>
 5   0  0.7561815E-07  0.3104046E+04  0.7818609E-02  0.8214628E-01
       -1   -1    0    0    0  501  0.00000000000E+00  0.00000000000E+00  0.13476211419E+04  0.13476211419E+04  0.50400001928E-02 0.  1.
        1   -1    0    0  501    0  0.00000000000E+00  0.00000000000E+00 -0.17874278824E+04  0.17874278824E+04  0.50400001928E-02 0. -1.
    10030    2    1    2    0    0  0.00000000000E+00  0.00000000000E+00 -0.43980674049E+03  0.31350490243E+04  0.31040461362E+04 0.  0.
        3    1    3    3  502    0 -0.20163524104E+03 -0.49909603472E+03  0.12503219528E+04  0.13612709569E+04  0.10100000352E+00 0.  1.
       -3    1    3    3    0  502  0.20163524104E+03  0.49909603472E+03 -0.16901286933E+04  0.17737780674E+04  0.10100000352E+00 0. -1.
</event>
<event>
 5   0  0.7519202E-07  0.3094933E+04  0.7818609E-02  0.8217130E-01
        1   -1    0    0  501    0  0.00000000000E+00  0.00000000000E+00  0.17157924955E+04  0.17157924955E+04  0.50400001928E-02 0. -1.
       -1   -1    0    0    0  501  0.00000000000E+00  0.00000000000E+00 -0.13956537958E+04  0.13956537958E+04  0.50400001928E-02 0.  1.
    10030    2    1    2    0    0  0.00000000000E+00  0.00000000000E+00  0.32013869968E+03  0.31114462913E+04  0.30949328323E+04 0.  0.
        4    1    3    3  502    0  0.58415686350E+03  0.13704200518E+03 -0.12739463403E+04  0.14081763538E+04  0.12699999809E+01 0.  1.
       -4    1    3    3    0  502 -0.58415686350E+03 -0.13704200518E+03  0.15940850400E+04  0.17032699375E+04  0.12699999809E+01 0. -1.
</event>
<event>
 5   0  0.2133385E-06  0.3054095E+04  0.7818609E-02  0.8228450E-01
       -2   -1    0    0    0  501  0.00000000000E+00  0.00000000000E+00  0.14879171960E+04  0.14879171960E+04  0.25500000920E-02 0. -1.
        2   -1    0    0  501    0  0.00000000000E+00  0.00000000000E+00 -0.15672067376E+04  0.15672067376E+04  0.25500000920E-02 0.  1.
    10030    2    1    2    0    0  0.00000000000E+00  0.00000000000E+00 -0.79289541641E+02  0.30551239336E+04  0.30540948607E+04 0.  0.
        2    1    3    3  502    0  0.13111700001E+04 -0.73912584055E+03 -0.29741372067E+03  0.15342518368E+04  0.25500000920E-02 0.  1.
       -2    1    3    3    0  502 -0.13111700001E+04  0.73912584055E+03  0.21812417902E+03  0.15208720968E+04  0.25500000920E-02 0. -1.
</event>
<event>
 5   0  0.2094135E-06  0.3102158E+04  0.7818609E-02  0.8215146E-01
        2   -1    0    0  501    0  0.00000000000E+00  0.00000000000E+00  0.14170043104E+04  0.14170043104E+04  0.25500000920E-02 0.  1.
       -2   -1    0    0    0  501  0.00000000000E+00  0.00000000000E+00 -0.16978400351E+04  0.16978400351E+04  0.25500000920E-02 0. -1.
    10030    2    1    2    0    0  0.00000000000E+00  0.00000000000E+00 -0.28083572470E+03  0.31148443455E+04  0.31021583765E+04 0.  0.
        4    1    3    3  502    0  0.15069415585E+04 -0.17572106927E+03  0.18353797992E+03  0.15282141727E+04  0.12699999809E+01 0. -1.
       -4    1    3    3    0  502 -0.15069415585E+04  0.17572106927E+03 -0.46437370461E+03  0.15866301728E+04  0.12699999809E+01 0.  1.
</event>
<event>
 5   0  0.2078009E-06  0.2984180E+04  0.7818609E-02  0.8248263E-01
        2   -1    0    0  501    0  0.00000000000E+00  0.00000000000E+00  0.17151791288E+04  0.17151791288E+04  0.25500000920E-02 0. -1.
       -2   -1    0    0    0  501  0.00000000000E+00  0.00000000000E+00 -0.12980173316E+04  0.12980173316E+04  0.25500000920E-02 0.  1.
    10030    2    1    2    0    0  0.00000000000E+00  0.00000000000E+00  0.41716179715E+03  0.30131964604E+04  0.29841797774E+04 0.  0.
        3    1    3    3  502    0  0.67931300410E+03 -0.79157996010E+03  0.12858509415E+04  0.16557408145E+04  0.10100000352E+00 0. -1.
       -3    1    3    3    0  502 -0.67931300410E+03  0.79157996010E+03 -0.86868914437E+03  0.13574556459E+04  0.10100000352E+00 0.  1.
</event>
<event>
 5   0  0.2226334E-06  0.3068147E+04  0.7818609E-02  0.8224534E-01
       -2   -1    0    0    0  501  0.00000000000E+00  0.00000000000E+00  0.16375295492E+04  0.16375295492E+04  0.25500000920E-02 0. -1.
        2   -1    0    0  501    0  0.00000000000E+00  0.00000000000E+00 -0.14371538144E+04  0.14371538145E+04  0.25500000920E-02 0.  1.
    10030    2    1    2    0    0  0.00000000000E+00  0.00000000000E+00  0.20037573476E+03  0.30746833637E+04  0.30681472181E+04 0.  0.
        5    1    3    3  502    0 -0.12113561170E+04 -0.11344997298E+03 -0.83620369840E+03  0.14763174638E+04  0.46999998093E+01 0.  1.
       -5    1    3    3    0  502  0.12113561170E+04  0.11344997298E+03  0.10365794332E+04  0.15983658999E+04  0.46999998093E+01 0. -1.
</event>
<event>
 5   0  0.7519202E-07  0.3104879E+04  0.7818609E-02  0.8214400E-01
       -1   -1    0    0    0  501  0.00000000000E+00  0.00000000000E+00  0.10747530578E+04  0.10747530578E+04  0.50400001928E-02 0.  1.
        1   -1    0    0  501    0  0.00000000000E+00  0.00000000000E+00 -0.22424396478E+04  0.22424396478E+04  0.50400001928E-02 0. -1.
    10030    2    1    2    0    0  0.00000000000E+00  0.00000000000E+00 -0.11676865900E+04  0.33171927056E+04  0.31048793010E+04 0.  0.
        4    1    3    3  502    0 -0.92694248919E+03  0.12398000330E+04 -0.45860669065E+03  0.16145117559E+04  0.12699999809E+01 0.  1.
       -4    1    3    3    0  502  0.92694248919E+03 -0.12398000330E+04 -0.70907989931E+03  0.17026809498E+04  0.12699999809E+01 0. -1.
</event>
<event>
 5   0  0.7413481E-07  0.3105498E+04  0.7818609E-02  0.8214231E-01
        1   -1    0    0  501    0  0.00000000000E+00  0.00000000000E+00  0.22655896464E+04  0.22655896464E+04  0.50400001928E-02 0. -1.
       -1   -1    0    0    0  501  0.00000000000E+00  0.00000000000E+00 -0.10641950658E+04  0.10641950658E+04  0.50400001928E-02 0.  1.
    10030    2    1    2    0    0  0.00000000000E+00  0.00000000000E+00  0.12013945806E+04  0.33297847122E+04  0.31054979136E+04 0.  0.
        5    1    3    3  502    0 -0.12290293704E+04 -0.12156852840E+03  0.16097920376E+04  0.20289762430E+04  0.46999998093E+01 0. -1.
       -5    1    3    3    0  502  0.12290293704E+04  0.12156852840E+03 -0.40839745699E+03  0.13008084691E+04  0.46999998093E+01 0.  1.
</event>
<event>
 5   0  0.7726743E-07  0.3090365E+04  0.7818609E-02  0.8218387E-01
        1   -1    0    0  501    0  0.00000000000E+00  0.00000000000E+00  0.15924988820E+04  0.15924988820E+04  0.50400001928E-02 0.  1.
       -1   -1    0    0    0  501  0.00000000000E+00  0.00000000000E+00 -0.14992720506E+04  0.14992720506E+04  0.50400001928E-02 0. -1.
    10030    2    1    2    0    0  0.00000000000E+00  0.00000000000E+00  0.93226831425E+02  0.30917709326E+04  0.30903650687E+04 0.  0.
        1    1    3    3  502    0 -0.10233682546E+04  0.44493090334E+03 -0.10226772619E+04  0.15136429154E+04  0.50400001928E-02 0. -1.
       -1    1    3    3    0  502  0.10233682546E+04 -0.44493090334E+03  0.11159040933E+04  0.15781280172E+04  0.50400001928E-02 0.  1.
</event>
<event>
 5   0  0.2094135E-06  0.3090995E+04  0.7818609E-02  0.8218214E-01
       -2   -1    0    0    0  501  0.00000000000E+00  0.00000000000E+00  0.11616895305E+04  0.11616895305E+04  0.25500000920E-02 0.  1.
        2   -1    0    0  501    0  0.00000000000E+00  0.00000000000E+00 -0.20561112638E+04  0.20561112638E+04  0.25500000920E-02 0. -1.
    10030    2    1    2    0    0  0.00000000000E+00  0.00000000000E+00 -0.89442173329E+03  0.32178007943E+04  0.30909952628E+04 0.  0.
        4    1    3    3  502    0 -0.11374055488E+04 -0.14351677426E+03 -0.15262026038E+04  0.19088175522E+04  0.12699999809E+01 0. -1.
       -4    1    3    3    0  502  0.11374055488E+04  0.14351677426E+03  0.63178087048E+03  0.13089832421E+04  0.12699999809E+01 0.  1.
</event>
<event>
 5   0  0.2094135E-06  0.3099439E+04  0.7818609E-02  0.8215892E-01
       -2   -1    0    0    0  501  0.00000000000E+00  0.00000000000E+00  0.11594408731E+04  0.11594408731E+04  0.25500000920E-02 0. -1.
        2   -1    0    0  501    0  0.00000000000E+00  0.00000000000E+00 -0.20713700194E+04  0.20713700194E+04  0.25500000920E-02 0.  1.
    10030    2    1    2    0    0  0.00000000000E+00  0.00000000000E+00 -0.91192914626E+03  0.32308108925E+04  0.30994393453E+04 0.  0.
        4    1    3    3  502    0  0.14230303446E+04  0.29323316268E+03  0.10598510048E+03  0.14567894507E+04  0.12699999809E+01 0. -1.
       -4    1    3    3    0  502 -0.14230303446E+04 -0.29323316268E+03 -0.10179142467E+04  0.17740214418E+04  0.12699999809E+01 0.  1.
</event>
<event>
 5   0  0.6979625E-07  0.3116411E+04  0.7818609E-02  0.8211249E-01
       -3   -1    0    0    0  501  0.00000000000E+00  0.00000000000E+00  0.13569168313E+04  0.13569168351E+04  0.10100000352E+00 0.  1.
        3   -1    0    0  501    0  0.00000000000E+00  0.00000000000E+00 -0.17893534721E+04  0.17893534749E+04  0.10100000352E+00 0. -1.
    10030    2    1    2    0    0  0.00000000000E+00  0.00000000000E+00 -0.43243664073E+03  0.31462703100E+04  0.31164106622E+04 0.  0.
        4    1    3    3  502    0 -0.46416751728E+03 -0.12540304106E+04 -0.10238572634E+04  0.16841404524E+04  0.12699999809E+01 0. -1.
       -4    1    3    3    0  502  0.46416751728E+03  0.12540304106E+04  0.59142062264E+03  0.14621298576E+04  0.12699999809E+01 0.  1.
</event>
<event>
 5   0  0.2133385E-06  0.3093939E+04  0.7818609E-02  0.8217403E-01
       -2   -1    0    0    0  501  0.00000000000E+00  0.00000000000E+00  0.25189080094E+04  0.25189080094E+04  0.25500000920E-02 0. -1.
        2   -1    0    0  501    0  0.00000000000E+00  0.00000000000E+00 -0.95006038854E+03  0.95006038854E+03  0.25500000920E-02 0.  1.
    10030    2    1    2    0    0  0.00000000000E+00  0.00000000000E+00  0.15688476209E+04  0.34689683979E+04  0.30939390570E+04 0.  0.
        2    1    3    3  502    0 -0.26555650956E+03 -0.15240058404E+04  0.78351251075E+03  0.17340720619E+04  0.25500000920E-02 0. -1.
       -2    1    3    3    0  502  0.26555650956E+03  0.15240058404E+04  0.78533511012E+03  0.17348963360E+04  0.25500000920E-02 0.  1.
</event>
<event>
 5   0  0.7656332E-07  0.2938969E+04  0.7818609E-02  0.8261377E-01
       -1   -1    0    0    0  501  0.00000000000E+00  0.00000000000E+00  0.17218151081E+04  0.17218151081E+04  0.50400001928E-02 0.  1.
        1   -1    0    0  501    0  0.00000000000E+00  0.00000000000E+00 -0.12541328412E+04  0.12541328412E+04  0.50400001928E-02 0. -1.
    10030    2    1    2    0    0  0.00000000000E+00  0.00000000000E+00  0.46768226690E+03  0.29759479492E+04  0.29389691209E+04 0.  0.
        2    1    3    3  502    0  0.46909054417E+03 -0.13443235135E+04 -0.13423387175E+03  0.14301294976E+04  0.25500000920E-02 0.  1.
       -2    1    3    3    0  502 -0.46909054417E+03  0.13443235135E+04  0.60191613865E+03  0.15458184517E+04  0.25500000920E-02 0. -1.
</event>
<event>
 5   0  0.7561815E-07  0.3120427E+04  0.7818609E-02  0.8210154E-01
        1   -1    0    0  501    0  0.00000000000E+00  0.00000000000E+00  0.11769871288E+04  0.11769871288E+04  0.50400001928E-02 0. -1.
       -1   -1    0    0    0  501  0.00000000000E+00  0.00000000000E+00 -0.20682186268E+04  0.20682186268E+04  0.50400001928E-02 0.  1.
    10030    2    1    2    0    0  0.00000000000E+00  0.00000000000E+00 -0.89123149803E+03  0.32452057556E+04  0.31204273446E+04 0.  0.
        3    1    3    3  502    0 -0.56592282958E+03  0.14358329397E+04 -0.68363847630E+03  0.16879711064E+04  0.10100000352E+00 0.  1.
       -3    1    3    3    0  502  0.56592282958E+03 -0.14358329397E+04 -0.20759302173E+03  0.15572346492E+04  0.10100000352E+00 0. -1.
</event>
<event>
 5   0  0.2078009E-06  0.3096783E+04  0.7818609E-02  0.8216621E-01
       -2   -1    0    0    0  501  0.00000000000E+00  0.00000000000E+00  0.10203838053E+04  0.10203838054E+04  0.25500000920E-02 0.  1.
        2   -1    0    0  501    0  0.00000000000E+00  0.00000000000E+00 -0.23496212594E+04  0.23496212594E+04  0.25500000920E-02 0. -1.
    10030    2    1    2    0    0  0.00000000000E+00  0.00000000000E+00 -0.13292374540E+04  0.33700050647E+04  0.30967825121E+04 0.  0.
        3    1    3    3  502    0  0.76988075686E+03 -0.12531498780E+04 -0.11914991483E+04  0.18928209707E+04  0.10100000352E+00 0. -1.
       -3    1    3    3    0  502 -0.76988075686E+03  0.12531498780E+04 -0.13773830575E+03  0.14771840940E+04  0.10100000352E+00 0.  1.
</event>
<event>
 5   0  0.2067926E-06  0.3090090E+04  0.7818609E-02  0.8218463E-01
        2   -1    0    0  501    0  0.00000000000E+00  0.00000000000E+00  0.19756751612E+04  0.19756751612E+04  0.25500000920E-02 0. -1.
       -2   -1    0    0    0  501  0.00000000000E+00  0.00000000000E+00 -0.12082773177E+04  0.12082773177E+04  0.25500000920E-02 0.  1.
    10030    2    1    2    0    0  0.00000000000E+00  0.00000000000E+00  0.76739784344E+03  0.31839524789E+04  0.30900896327E+04 0.  0.
        1    1    3    3  502    0  0.15438383714E+04  0.19773473516E+02  0.44320769477E+03  0.16063190742E+04  0.50400001928E-02 0.  1.
       -1    1    3    3    0  502 -0.15438383714E+04 -0.19773473516E+02  0.32419014868E+03  0.15776334048E+04  0.50400001928E-02 0. -1.
</event>
<event>
 5   0  0.7519202E-07  0.3254485E+04  0.7818609E-02  0.8174574E-01
       -1   -1    0    0    0  501  0.00000000000E+00  0.00000000000E+00  0.12985561479E+04  0.12985561479E+04  0.50400001928E-02 0.  1.
        1   -1    0    0  501    0  0.00000000000E+00  0.00000000000E+00 -0.20391243804E+04  0.20391243804E+04  0.50400001928E-02 0. -1.
    10030    2    1    2    0    0  0.00000000000E+00  0.00000000000E+00 -0.74056823247E+03  0.33376805284E+04  0.32544845986E+04 0.  0.
        4    1    3    3  502    0  0.37623781198E+03  0.15646188493E+04 -0.12259651741E+03  0.16138830669E+04  0.12699999809E+01 0.  1.
       -4    1    3    3    0  502 -0.37623781198E+03 -0.15646188493E+04 -0.61797171506E+03  0.17237974615E+04  0.12699999809E+01 0. -1.
</event>
<event>
 5   0  0.7519202E-07  0.3043919E+04  0.7818609E-02  0.8231300E-01
       -1   -1    0    0    0  501  0.00000000000E+00  0.00000000000E+00  0.13977176240E+04  0.13977176240E+04  0.50400001928E-02 0.  1.
        1   -1    0    0  501    0  0.00000000000E+00  0.00000000000E+00 -0.16572448495E+04  0.16572448495E+04  0.50400001928E-02 0. -1.
    10030    2    1    2    0    0  0.00000000000E+00  0.00000000000E+00 -0.25952722548E+03  0.30549624735E+04  0.30439187462E+04 0.  0.
        4    1    3    3  502    0  0.77993002551E+02  0.14436926494E+04 -0.60691184311E+03  0.15680162539E+04  0.12699999809E+01 0. -1.
       -4    1    3    3    0  502 -0.77993002551E+02 -0.14436926494E+04  0.34738461762E+03  0.14869462195E+04  0.12699999809E+01 0.  1.
</event>
<event>
 5   0  0.7413481E-07  0.3111441E+04  0.7818609E-02  0.8212605E-01
       -1   -1    0    0    0  501  0.00000000000E+00  0.00000000000E+00  0.14899460264E+04  0.14899460264E+04  0.50400001928E-02 0.  1.
        1   -1    0    0  501    0  0.00000000000E+00  0.00000000000E+00 -0.16243986449E+04  0.16243986449E+04  0.50400001928E-02 0. -1.
    10030    2    1    2    0    0  0.00000000000E+00  0.00000000000E+00 -0.13445261855E+03  0.31143446713E+04  0.31114410207E+04 0.  0.
        5    1    3    3  502    0  0.11112321798E+04  0.44265729974E+03 -0.10628715279E+04  0.16001563727E+04  0.46999998093E+01 0. -1.
       -5    1    3    3    0  502 -0.11112321798E+04 -0.44265729974E+03  0.92841890931E+03  0.15141882986E+04  0.46999998093E+01 0.  1.
</event>
<event>
 5   0  0.2094135E-06  0.3106116E+04  0.7818609E-02  0.8214061E-01
        2   -1    0    0  501    0  0.00000000000E+00  0.00000000000E+00  0.19946156105E+04  0.19946156105E+04  0.25500000920E-02 0.  1.
       -2   -1    0    0    0  501  0.00000000000E+00  0.00000000000E+00 -0.12092503727E+04  0.12092503728E+04  0.25500000920E-02 0. -1.
    10030    2    1    2    0    0  0.00000000000E+00  0.00000000000E+00  0.78536523772E+03  0.32038659832E+04  0.31061163342E+04 0.  0.
        4    1    3    3  502    0 -0.10170860873E+04  0.20717683498E+00  0.16032980243E+04  0.18986917389E+04  0.12699999809E+01 0.  1.
       -4    1    3    3    0  502  0.10170860873E+04 -0.20717683498E+00 -0.81793278654E+03  0.13051742443E+04  0.12699999809E+01 0. -1.
</event>
<event>
 5   0  0.7413481E-07  0.3097716E+04  0.7818609E-02  0.8216365E-01
       -1   -1    0    0    0  501  0.00000000000E+00  0.00000000000E+00  0.19493584181E+04  0.19493584181E+04  0.50400001928E-02 0.  1.
        1   -1    0    0  501    0  0.00000000000E+00  0.00000000000E+00 -0.12306414111E+04  0.12306414111E+04  0.50400001928E-02 0. -1.
    10030    2    1    2    0    0  0.00000000000E+00  0.00000000000E+00  0.71871700700E+03  0.31799998293E+04  0.30977160583E+04 0.  0.
        5    1    3    3  502    0  0.51552419901E+03 -0.77018791946E+03 -0.91456591038E+03  0.13020781564E+04  0.46999998093E+01 0. -1.
       -5    1    3    3    0  502 -0.51552419901E+03  0.77018791946E+03  0.16332829174E+04  0.18779216728E+04  0.46999998093E+01 0.  1.
</event>
<event>
 5   0  0.2078009E-06  0.3116829E+04  0.7818609E-02  0.8211134E-01
       -2   -1    0    0    0  501  0.00000000000E+00  0.00000000000E+00  0.94818284602E+03  0.94818284603E+03  0.25500000920E-02 0. -1.
        2   -1    0    0  501    0  0.00000000000E+00  0.00000000000E+00 -0.25613798490E+04  0.25613798490E+04  0.25500000920E-02 0.  1.
    10030    2    1    2    0    0  0.00000000000E+00  0.00000000000E+00 -0.16131970030E+04  0.35095626951E+04  0.31168294371E+04 0.  0.
        3    1    3    3  502    0  0.61614187264E+03  0.14299332429E+04 -0.88057738582E+03  0.17887863005E+04  0.10100000352E+00 0. -1.
       -3    1    3    3    0  502 -0.61614187264E+03 -0.14299332429E+04 -0.73261961718E+03  0.17207763945E+04  0.10100000352E+00 0.  1.
</event>
<event>
 5   0  0.2078009E-06  0.3084053E+04  0.7818609E-02  0.8220128E-01
        2   -1    0    0  501    0  0.00000000000E+00  0.00000000000E+00  0.20518783295E+04  0.20518783295E+04  0.25500000920E-02 0. -1.
       -2   -1    0    0    0  501  0.00000000000E+00  0.00000000000E+00 -0.11588627145E+04  0.11588627145E+04  0.25500000920E-02 0.  1.
    10030    2    1    2    0    0  0.00000000000E+00  0.00000000000E+00  0.89301561504E+03  0.32107410440E+04  0.30840527173E+04 0.  0.
        3    1    3    3  502    0  0.11109277744E+04 -0.10693459833E+04  0.43238867648E+03  0.16014435144E+04  0.10100000352E+00 0.  1.
       -3    1    3    3    0  502 -0.11109277744E+04  0.10693459833E+04  0.46062693856E+03  0.16092975296E+04  0.10100000352E+00 0. -1.
</event>
<event>
 5   0  0.6979625E-07  0.3095844E+04  0.7818609E-02  0.8216880E-01
        3   -1    0    0  501    0  0.00000000000E+00  0.00000000000E+00  0.16367350464E+04  0.16367350495E+04  0.10100000352E+00 0. -1.
       -3   -1    0    0    0  501  0.00000000000E+00  0.00000000000E+00 -0.14639278350E+04  0.14639278385E+04  0.10100000352E+00 0.  1.
    10030    2    1    2    0    0  0.00000000000E+00  0.00000000000E+00  0.17280721144E+03  0.31006628880E+04  0.30958436673E+04 0.  0.
        3    1    3    3  502    0 -0.61740501513E+03  0.40728177223E+03 -0.12754905326E+04  0.14744298911E+04  0.10100000352E+00 0.  1.
       -3    1    3    3    0  502  0.61740501513E+03 -0.40728177223E+03  0.14482977440E+04  0.16262329969E+04  0.10100000352E+00 0. -1.
</event>
<event>
 5   0  0.7413481E-07  0.3104551E+04  0.7818609E-02  0.8214490E-01
        1   -1    0    0  501    0  0.00000000000E+00  0.00000000000E+00  0.14324182085E+04  0.14324182085E+04  0.50400001928E-02 0.  1.
       -1   -1    0    0    0  501  0.00000000000E+00  0.00000000000E+00 -0.16821617488E+04  0.16821617488E+04  0.50400001928E-02 0. -1.
    10030    2    1    2    0    0  0.00000000000E+00  0.00000000000E+00 -0.24974354033E+03  0.31145799574E+04  0.31045509297E+04 0.  0.
        5    1    3    3  502    0  0.10759198313E+04 -0.13592764442E+03 -0.12390707119E+04  0.16466323594E+04  0.46999998093E+01 0. -1.
       -5    1    3    3    0  502 -0.10759198313E+04  0.13592764442E+03  0.98932717161E+03  0.14679475980E+04  0.46999998093E+01 0.  1.
</event>
<event>
 5   0  0.2078009E-06  0.3111874E+04  0.7818609E-02  0.8212487E-01
        2   -1    0    0  501    0  0.00000000000E+00  0.00000000000E+00  0.15525144675E+04  0.15525144676E+04  0.25500000920E-02 0. -1.
       -2   -1    0    0    0  501  0.00000000000E+00  0.00000000000E+00 -0.15593667774E+04  0.15593667774E+04  0.25500000920E-02 0.  1.
    10030    2    1    2    0    0  0.00000000000E+00  0.00000000000E+00 -0.68523098797E+01  0.31118812450E+04  0.31118737006E+04 0.  0.
        3    1    3    3  502    0  0.66293873558E+03 -0.76143204607E+03  0.11804994088E+04  0.15533336384E+04  0.10100000352E+00 0. -1.
       -3    1    3    3    0  502 -0.66293873558E+03  0.76143204607E+03 -0.11873517187E+04  0.15585476066E+04  0.10100000352E+00 0.  1.
</event>
<event>
 5   0  0.2133385E-06  0.3082300E+04  0.7818609E-02  0.8220612E-01
        2   -1    0    0  501    0  0.00000000000E+00  0.00000000000E+00  0.19899912685E+04  0.19899912685E+04  0.25500000920E-02 0.  1.
       -2   -1    0    0    0  501  0.00000000000E+00  0.00000000000E+00 -0.11935447038E+04  0.11935447038E+04  0.25500000920E-02 0. -1.
    10030    2    1    2    0    0  0.00000000000E+00  0.00000000000E+00  0.79644656470E+03  0.31835359722E+04  0.30823001405E+04 0.  0.
        2    1    3    3  502    0  0.14801278506E+03 -0.35295710730E+03  0.19401241604E+04  0.19775156793E+04  0.25500000920E-02 0.  1.
       -2    1    3    3    0  502 -0.14801278506E+03  0.35295710730E+03 -0.11436775957E+04  0.12060202929E+04  0.25500000920E-02 0. -1.
</event>
<event>
 5   0  0.2067926E-06  0.3083003E+04  0.7818609E-02  0.8220418E-01
       -2   -1    0    0    0  501  0.00000000000E+00  0.00000000000E+00  0.29238863226E+04  0.29238863226E+04  0.25500000920E-02 0. -1.
        2   -1    0    0  501    0  0.00000000000E+00  0.00000000000E+00 -0.81269459475E+03  0.81269459475E+03  0.25500000920E-02 0.  1.
    10030    2    1    2    0    0  0.00000000000E+00  0.00000000000E+00  0.21111917278E+04  0.37365809173E+04  0.30830028284E+04 0.  0.
        1    1    3    3  502    0  0.53882395913E+03 -0.96903122175E+02  0.28020893620E+04  0.28550702736E+04  0.50400001928E-02 0. -1.
       -1    1    3    3    0  502 -0.53882395913E+03  0.96903122175E+02 -0.69089763424E+03  0.88151064375E+03  0.50400001928E-02 0.  1.
</event>
<event>
 5   0  0.7726743E-07  0.3092836E+04  0.7818609E-02  0.8217707E-01
        1   -1    0    0  501    0  0.00000000000E+00  0.00000000000E+00  0.16828767943E+04  0.16828767943E+04  0.50400001928E-02 0.  1.
       -1   -1    0    0    0  501  0.00000000000E+00  0.00000000000E+00 -0.14210241591E+04  0.14210241591E+04  0.50400001928E-02 0. -1.
    10030    2    1    2    0    0  0.00000000000E+00  0.00000000000E+00  0.26185263523E+03  0.31039009534E+04  0.30928359681E+04 0.  0.
        1    1    3    3  502    0 -0.54532007944E+03  0.10822370014E+03  0.15791142826E+04  0.16741231364E+04  0.50400001928E-02 0.  1.
       -1    1    3    3    0  502  0.54532007944E+03 -0.10822370014E+03 -0.13172616474E+04  0.14297778170E+04  0.50400001928E-02 0. -1.
</event>
<event>
 5   0  0.2094135E-06  0.3112462E+04  0.7818609E-02  0.8212326E-01
        2   -1    0    0  501    0  0.00000000000E+00  0.00000000000E+00  0.13037449148E+04  0.13037449148E+04  0.25500000920E-02 0. -1.
       -2   -1    0    0    0  501  0.00000000000E+00  0.00000000000E+00 -0.18576136999E+04  0.18576136999E+04  0.25500000920E-02 0.  1.
    10030    2    1    2    0    0  0.00000000000E+00  0.00000000000E+00 -0.55386878514E+03  0.31613586147E+04  0.31124616720E+04 0.  0.
        4    1    3    3  502    0  0.14035806336E+04 -0.45187945829E+03  0.22849660878E+03  0.14921279949E+04  0.12699999809E+01 0.  1.
       -4    1    3    3    0  502 -0.14035806336E+04  0.45187945829E+03 -0.78236539392E+03  0.16692306199E+04  0.12699999809E+01 0. -1.
</event>
<event>
 5   0  0.2094135E-06  0.3288494E+04  0.7818609E-02  0.8165829E-01
        2   -1    0    0  501    0  0.00000000000E+00  0.00000000000E+00  0.16144410526E+04  0.16144410526E+04  0.25500000920E-02 0.  1.
       -2   -1    0    0    0  501  0.00000000000E+00  0.00000000000E+00 -0.16746028685E+04  0.16746028685E+04  0.25500000920E-02 0. -1.
    10030    2    1    2    0    0  0.00000000000E+00  0.00000000000E+00 -0.60161815905E+02  0.32890439210E+04  0.32884936476E+04 0.  0.
        4    1    3    3  502    0  0.44943559635E+02 -0.12428052632E+04 -0.11058821845E+04  0.16642000676E+04  0.12699999809E+01 0. -1.
       -4    1    3    3    0  502 -0.44943559635E+02  0.12428052632E+04  0.10457203686E+04  0.16248438535E+04  0.12699999809E+01 0.  1.
</event>
<event>
 5   0  0.2078009E-06  0.3119010E+04  0.7818609E-02  0.8210540E-01
        2   -1    0    0  501    0  0.00000000000E+00  0.00000000000E+00  0.16575977560E+04  0.16575977560E+04  0.25500000920E-02 0.  1.
       -2   -1    0    0    0  501  0.00000000000E+00  0.00000000000E+00 -0.14672166961E+04  0.14672166961E+04  0.25500000920E-02 0. -1.
    10030    2    1    2    0    0  0.00000000000E+00  0.00000000000E+00  0.19038105992E+03  0.31248144522E+04  0.31190095243E+04 0.  0.
        3    1    3    3  502    0 -0.60640719014E+03  0.16821461959E+03  0.15247411576E+04  0.16495033938E+04  0.10100000352E+00 0.  1.
       -3    1    3    3    0  502  0.60640719014E+03 -0.16821461959E+03 -0.13343600976E+04  0.14753110583E+04  0.10100000352E+00 0. -1.
</event>
<event>
 5   0  0.7519202E-07  0.3035507E+04  0.7818609E-02  0.8233664E-01
        1   -1    0    0  501    0  0.00000000000E+00  0.00000000000E+00  0.17673749517E+04  0.17673749517E+04  0.50400001928E-02 0.  1.
       -1   -1    0    0    0  501  0.00000000000E+00  0.00000000000E+00 -0.13033881411E+04  0.13033881411E+04  0.50400001928E-02 0. -1.
    10030    2    1    2    0    0  0.00000000000E+00  0.00000000000E+00  0.46398681056E+03  0.30707630928E+04  0.30355069118E+04 0.  0.
        4    1    3    3  502    0  0.96102531619E+03 -0.19027919615E+03  0.14046803735E+04  0.17125724497E+04  0.12699999809E+01 0.  1.
       -4    1    3    3    0  502 -0.96102531619E+03  0.19027919615E+03 -0.94069356291E+03  0.13581906431E+04  0.12699999809E+01 0. -1.
</event>
<event>
 5   0  0.7656332E-07  0.3148352E+04  0.7818609E-02  0.8202592E-01
        1   -1    0    0  501    0  0.00000000000E+00  0.00000000000E+00  0.17724970848E+04  0.17724970848E+04  0.50400001928E-02 0. -1.
       -1   -1    0    0    0  501  0.00000000000E+00  0.00000000000E+00 -0.13980443092E+04  0.13980443092E+04  0.50400001928E-02 0.  1.
    10030    2    1    2    0    0  0.00000000000E+00  0.00000000000E+00  0.37445277559E+03  0.31705413940E+04  0.31483516084E+04 0.  0.
        2    1    3    3  502    0 -0.52027250125E+03  0.28611832014E+03  0.16554051749E+04  0.17586680931E+04  0.25500000920E-02 0. -1.
       -2    1    3    3    0  502  0.52027250125E+03 -0.28611832014E+03 -0.12809523993E+04  0.14118733009E+04  0.25500000920E-02 0.  1.
</event>
<event>
 5   0  0.2078009E-06  0.3086147E+04  0.7818609E-02  0.8219550E-01
        2   -1    0    0  501    0  0.00000000000E+00  0.00000000000E+00  0.10741954045E+04  0.10741954045E+04  0.25500000920E-02 0.  1.
       -2   -1    0    0    0  501  0.00000000000E+00  0.00000000000E+00 -0.22166126905E+04  0.22166126905E+04  0.25500000920E-02 0. -1.
    10030    2    1    2    0    0  0.00000000000E+00  0.00000000000E+00 -0.11424172860E+04  0.32908080950E+04  0.30861465719E+04 0.  0.
        3    1    3    3  502    0  0.20670766590E+03  0.98321412199E+03 -0.18200452428E+04  0.20789427036E+04  0.10100000352E+00 0. -1.
       -3    1    3    3    0  502 -0.20670766590E+03 -0.98321412199E+03  0.67762795682E+03  0.12118653914E+04  0.10100000352E+00 0.  1.
</event>
<event>
 5   0  0.2094135E-06  0.2925325E+04  0.7818609E-02  0.8265382E-01
       -2   -1    0    0    0  501  0.00000000000E+00  0.00000000000E+00  0.11925110636E+04  0.11925110636E+04  0.25500000920E-02 0.  1.
        2   -1    0    0  501    0  0.00000000000E+00  0.00000000000E+00 -0.17940136312E+04  0.17940136312E+04  0.25500000920E-02 0. -1.
    10030    2    1    2    0    0  0.00000000000E+00  0.00000000000E+00 -0.60150256761E+03  0.29865246949E+04  0.29253246682E+04 0.  0.
        4    1    3    3  502    0 -0.23202714485E+03 -0.13373489533E+04 -0.85716777858E+03  0.16053277025E+04  0.12699999809E+01 0.  1.
       -4    1    3    3    0  502  0.23202714485E+03  0.13373489533E+04  0.25566521097E+03  0.13811969924E+04  0.12699999809E+01 0. -1.
</event>
<event>
 5   0  0.2094135E-06  0.3092120E+04  0.7818609E-02  0.8217904E-01
       -2   -1    0    0    0  501  0.00000000000E+00  0.00000000000E+00  0.10691236577E+04  0.10691236577E+04  0.25500000920E-02 0. -1.
        2   -1    0    0  501    0  0.00000000000E+00  0.00000000000E+00 -0.22357577459E+04  0.22357577459E+04  0.25500000920E-02 0.  1.
    10030    2    1    2    0    0  0.00000000000E+00  0.00000000000E+00 -0.11666340883E+04  0.33048814036E+04  0.30921199841E+04 0.  0.
        4    1    3    3  502    0  0.65960621074E+03 -0.94892143898E+03  0.51436848647E+03  0.12649540716E+04  0.12699999809E+01 0. -1.
       -4    1    3    3    0  502 -0.65960621074E+03  0.94892143898E+03 -0.16810025747E+04  0.20399273320E+04  0.12699999809E+01 0.  1.
</event>
<event>
 5   0  0.7561815E-07  0.3104934E+04  0.7818609E-02  0.8214385E-01
        1   -1    0    0  501    0  0.00000000000E+00  0.00000000000E+00  0.30522008323E+04  0.30522008323E+04  0.50400001928E-02 0. -1.
       -1   -1    0    0    0  501  0.00000000000E+00  0.00000000000E+00 -0.78964459456E+03  0.78964459458E+03  0.50400001928E-02 0.  1.
    10030    2    1    2    0    0  0.00000000000E+00  0.00000000000E+00  0.22625562377E+04  0.38418454268E+04  0.31049340661E+04 0.  0.
        3    1    3    3  502    0 -0.13843536794E+04  0.60923738120E+03  0.69812479562E+03  0.16658281835E+04  0.10100000352E+00 0.  1.
       -3    1    3    3    0  502  0.13843536794E+04 -0.60923738120E+03  0.15644314421E+04  0.21760172434E+04  0.10100000352E+00 0. -1.
</event>
<event>
 5   0  0.7726743E-07  0.2766985E+04  0.7818609E-02  0.8313592E-01
       -1   -1    0    0    0  501  0.00000000000E+00  0.00000000000E+00  0.17393343357E+04  0.17393343357E+04  0.50400001928E-02 0. -1.
        1   -1    0    0  501    0  0.00000000000E+00  0.00000000000E+00 -0.11004506377E+04  0.11004506377E+04  0.50400001928E-02 0.  1.
    10030    2    1    2    0    0  0.00000000000E+00  0.00000000000E+00  0.63888369793E+03  0.28397849734E+04  0.27669850588E+04 0.  0.
        1    1    3    3  502    0 -0.11275959747E+04 -0.21042490572E+03  0.11132914612E+04  0.15984896624E+04  0.50400001928E-02 0. -1.
       -1    1    3    3    0  502  0.11275959747E+04  0.21042490572E+03 -0.47440776329E+03  0.12412953110E+04  0.50400001928E-02 0.  1.
</event>
<event>
 5   0  0.7656332E-07  0.3217559E+04  0.7818609E-02  0.8184195E-01
       -1   -1    0    0    0  501  0.00000000000E+00  0.00000000000E+00  0.13623429331E+04  0.13623429331E+04  0.50400001928E-02 0. -1.
        1   -1    0    0  501    0  0.00000000000E+00  0.00000000000E+00 -0.18997947200E+04  0.18997947200E+04  0.50400001928E-02 0.  1.
    10030    2    1    2    0    0  0.00000000000E+00  0.00000000000E+00 -0.53745178693E+03  0.32621376532E+04  0.32175592683E+04 0.  0.
        2    1    3    3  502    0 -0.74921742178E+03 -0.44577107202E+03  0.11020916679E+04  0.14052204945E+04  0.25500000920E-02 0. -1.
       -2    1    3    3    0  502  0.74921742178E+03  0.44577107202E+03 -0.16395434548E+04  0.18569171586E+04  0.25500000920E-02 0.  1.
</event>
<event>
 5   0  0.2067926E-06  0.3103003E+04  0.7818609E-02  0.8214914E-01
       -2   -1    0    0    0  501  0.00000000000E+00  0.00000000000E+00  0.12862954896E+04  0.12862954896E+04  0.25500000920E-02 0. -1.
        2   -1    0    0  501    0  0.00000000000E+00  0.00000000000E+00 -0.18713874118E+04  0.18713874118E+04  0.25500000920E-02 0.  1.
    10030    2    1    2    0    0  0.00000000000E+00  0.00000000000E+00 -0.58509192216E+03  0.31576829014E+04  0.31030031822E+04 0.  0.
        1    1    3    3  502    0 -0.91285751002E+03 -0.88828947702E+03  0.60894851229E+03  0.14118021530E+04  0.50400001928E-02 0. -1.
       -1    1    3    3    0  502  0.91285751002E+03  0.88828947702E+03 -0.11940404344E+04  0.17458807484E+04  0.50400001928E-02 0.  1.
</event>
<event>
 5   0  0.2094135E-06  0.2755314E+04  0.7818609E-02  0.8317277E-01
       -2   -1    0    0    0  501  0.00000000000E+00  0.00000000000E+00  0.10208486557E+04  0.10208486557E+04  0.25500000920E-02 0. -1.
        2   -1    0    0  501    0  0.00000000000E+00  0.00000000000E+00 -0.18591779919E+04  0.18591779919E+04  0.25500000920E-02 0.  1.
    10030    2    1    2    0    0  0.00000000000E+00  0.00000000000E+00 -0.83832933620E+03  0.28800266476E+04  0.27553143949E+04 0.  0.
        4    1    3    3  502    0  0.62859547873E+03  0.12109388842E+04 -0.61867699493E+03  0.14980881463E+04  0.12699999809E+01 0. -1.
       -4    1    3    3    0  502 -0.62859547873E+03 -0.12109388842E+04 -0.21965234126E+03  0.13819385012E+04  0.12699999809E+01 0.  1.
</event>
<event>
 5   0  0.7413481E-07  0.3127847E+04  0.7818609E-02  0.8208137E-01
       -1   -1    0    0    0  501  0.00000000000E+00  0.00000000000E+00  0.16493636889E+04  0.16493636889E+04  0.50400001928E-02 0.  1.
        1   -1    0    0  501    0  0.00000000000E+00  0.00000000000E+00 -0.14829091522E+04  0.14829091522E+04  0.50400001928E-02 0. -1.
    10030    2    1    2    0    0  0.00000000000E+00  0.00000000000E+00  0.16645453666E+03  0.31322728411E+04  0.31278468694E+04 0.  0.
        5    1    3    3  502    0 -0.12282744107E+04  0.91145660155E+03 -0.24346012161E+03  0.15487756730E+04  0.46999998093E+01 0.  1.
       -5    1    3    3    0  502  0.12282744107E+04 -0.91145660155E+03  0.40991465827E+03  0.15834971681E+04  0.46999998093E+01 0. -1.
</event>
<event>
 5   0  0.2067926E-06  0.3114405E+04  0.7818609E-02  0.8211796E-01
        2   -1    0    0  501    0  0.00000000000E+00  0.00000000000E+00  0.12394314233E+04  0.12394314233E+04  0.25500000920E-02 0.  1.
       -2   -1    0    0    0  501  0.00000000000E+00  0.00000000000E+00 -0.19564451812E+04  0.19564451812E+04  0.25500000920E-02 0. -1.
    10030    2    1    2    0    0  0.00000000000E+00  0.00000000000E+00 -0.71701375793E+03  0.31958766045E+04  0.31144050061E+04 0.  0.
        1    1    3    3  502    0 -0.79988233749E+02 -0.36917797438E+03  0.11917038240E+04  0.12501393916E+04  0.50400001928E-02 0.  1.
       -1    1    3    3    0  502  0.79988233749E+02  0.36917797438E+03 -0.19087175819E+04  0.19457372129E+04  0.50400001928E-02 0. -1.
</event>
<event>
 5   0  0.7561815E-07  0.3102029E+04  0.7818609E-02  0.8215181E-01
        1   -1    0    0  501    0  0.00000000000E+00  0.00000000000E+00  0.18307163581E+04  0.18307163581E+04  0.50400001928E-02 0.  1.
       -1   -1    0    0    0  501  0.00000000000E+00  0.00000000000E+00 -0.13140460937E+04  0.13140460937E+04  0.50400001928E-02 0. -1.
    10030    2    1    2    0    0  0.00000000000E+00  0.00000000000E+00  0.51667026444E+03  0.31447624518E+04  0.31020288064E+04 0.  0.
        3    1    3    3  502    0 -0.13236172027E+04 -0.46378618561E+03 -0.41304606654E+03  0.14620763279E+04  0.10100000352E+00 0. -1.
       -3    1    3    3    0  502  0.13236172027E+04  0.46378618561E+03  0.92971633098E+03  0.16826861239E+04  0.10100000352E+00 0.  1.
</event>
<event>
 5   0  0.7413481E-07  0.3111981E+04  0.7818609E-02  0.8212458E-01
        1   -1    0    0  501    0  0.00000000000E+00  0.00000000000E+00  0.25792285306E+04  0.25792285306E+04  0.50400001928E-02 0.  1.
       -1   -1    0    0    0  501  0.00000000000E+00  0.00000000000E+00 -0.93869394520E+03  0.93869394521E+03  0.50400001928E-02 0. -1.
    10030    2    1    2    0    0  0.00000000000E+00  0.00000000000E+00  0.16405345854E+04  0.35179224758E+04  0.31119808515E+04 0.  0.
        5    1    3    3  502    0 -0.68448809343E+03 -0.12400776462E+04  0.92233130510E+02  0.14194525561E+04  0.46999998093E+01 0. -1.
       -5    1    3    3    0  502  0.68448809343E+03  0.12400776462E+04  0.15483014549E+04  0.20984699197E+04  0.46999998093E+01 0.  1.
</event>
<event>
 5   0  0.7413481E-07  0.3105382E+04  0.7818609E-02  0.8214263E-01
       -1   -1    0    0    0  501  0.00000000000E+00  0.00000000000E+00  0.13150456470E+04  0.13150456470E+04  0.50400001928E-02 0. -1.
        1   -1    0    0  501    0  0.00000000000E+00  0.00000000000E+00 -0.18332814620E+04  0.18332814620E+04  0.50400001928E-02 0.  1.
    10030    2    1    2    0    0  0.00000000000E+00  0.00000000000E+00 -0.51823581502E+03  0.31483271090E+04  0.31053816553E+04 0.  0.
        5    1    3    3  502    0  0.85628099539E+03  0.33668916632E+03  0.10088782709E+04  0.13654428561E+04  0.46999998093E+01 0. -1.
       -5    1    3    3    0  502 -0.85628099539E+03 -0.33668916632E+03 -0.15271140859E+04  0.17828842529E+04  0.46999998093E+01 0.  1.
</event>
<event>
 5   0  0.2226334E-06  0.3108211E+04  0.7818609E-02  0.8213488E-01
        2   -1    0    0  501    0  0.00000000000E+00  0.00000000000E+00  0.20862303817E+04  0.20862303817E+04  0.25500000920E-02 0.  1.
       -2   -1    0    0    0  501  0.00000000000E+00  0.00000000000E+00 -0.11577068929E+04  0.11577068929E+04  0.25500000920E-02 0. -1.
    10030    2    1    2    0    0  0.00000000000E+00  0.00000000000E+00  0.92852348883E+03  0.32439372746E+04  0.31082106061E+04 0.  0.
        5    1    3    3  502    0 -0.91368325561E+03 -0.55796712196E+03  0.16399873126E+04  0.19585006704E+04  0.46999998093E+01 0.  1.
       -5    1    3    3    0  502  0.91368325561E+03  0.55796712196E+03 -0.71146382372E+03  0.12854366041E+04  0.46999998093E+01 0. -1.
</event>
<event>
 5   0  0.2226334E-06  0.3093304E+04  0.7818609E-02  0.8217578E-01
        2   -1    0    0  501    0  0.00000000000E+00  0.00000000000E+00  0.19699526951E+04  0.19699526951E+04  0.25500000920E-02 0.  1.
       -2   -1    0    0    0  501  0.00000000000E+00  0.00000000000E+00 -0.12143094790E+04  0.12143094790E+04  0.25500000920E-02 0. -1.
    10030    2    1    2    0    0  0.00000000000E+00  0.00000000000E+00  0.75564321606E+03  0.31842621740E+04  0.30933038847E+04 0.  0.
        5    1    3    3  502    0  0.11601226456E+01 -0.84321615910E+03 -0.95687451326E+03  0.12754002356E+04  0.46999998093E+01 0. -1.
       -5    1    3    3    0  502 -0.11601226456E+01  0.84321615910E+03  0.17125177293E+04  0.19088619384E+04  0.46999998093E+01 0.  1.
</event>
<event>
 5   0  0.2094135E-06  0.3122336E+04  0.7818609E-02  0.8209635E-01
        2   -1    0    0  501    0  0.00000000000E+00  0.00000000000E+00  0.18374509501E+04  0.18374509501E+04  0.25500000920E-02 0.  1.
       -2   -1    0    0    0  501  0.00000000000E+00  0.00000000000E+00 -0.13264271408E+04  0.13264271408E+04  0.25500000920E-02 0. -1.
    10030    2    1    2    0    0  0.00000000000E+00  0.00000000000E+00  0.51102380937E+03  0.31638780909E+04  0.31223355426E+04 0.  0.
        4    1    3    3  502    0  0.83125096454E+03  0.11237084614E+04 -0.44911352658E+03  0.14681292330E+04  0.12699999809E+01 0. -1.
       -4    1    3    3    0  502 -0.83125096454E+03 -0.11237084614E+04  0.96013733596E+03  0.16957488579E+04  0.12699999809E+01 0.  1.
</event>
<event>
 5   0  0.7726743E-07  0.3113851E+04  0.7818609E-02  0.8211947E-01
       -1   -1    0    0    0  501  0.00000000000E+00  0.00000000000E+00  0.14803142559E+04  0.14803142559E+04  0.50400001928E-02 0.  1.
        1   -1    0    0  501    0  0.00000000000E+00  0.00000000000E+00 -0.16375020414E+04  0.16375020414E+04  0.50400001928E-02 0. -1.
    10030    2    1    2    0    0  0.00000000000E+00  0.00000000000E+00 -0.15718778547E+03  0.31178162974E+04  0.31138513876E+04 0.  0.
        1    1    3    3  502    0 -0.75213135347E+03 -0.34079082367E+03 -0.14001903363E+04  0.16255377376E+04  0.50400001928E-02 0. -1.
       -1    1    3    3    0  502  0.75213135347E+03  0.34079082367E+03  0.12430025509E+04  0.14922785597E+04  0.50400001928E-02 0.  1.
</event>
<event>
 5   0  0.2226334E-06  0.3095392E+04  0.7818609E-02  0.8217004E-01
       -2   -1    0    0    0  501  0.00000000000E+00  0.00000000000E+00  0.11812340646E+04  0.11812340646E+04  0.25500000920E-02 0.  1.
        2   -1    0    0  501    0  0.00000000000E+00  0.00000000000E+00 -0.20278481849E+04  0.20278481849E+04  0.25500000920E-02 0. -1.
    10030    2    1    2    0    0  0.00000000000E+00  0.00000000000E+00 -0.84661412032E+03  0.32090822494E+04  0.30953922877E+04 0.  0.
        5    1    3    3  502    0 -0.10832989388E+04 -0.11032837614E+04 -0.49338881112E+03  0.16230299621E+04  0.46999998093E+01 0. -1.
       -5    1    3    3    0  502  0.10832989388E+04  0.11032837614E+04 -0.35322530920E+03  0.15860522873E+04  0.46999998093E+01 0.  1.
</event>
<event>
 5   0  0.7413481E-07  0.3120995E+04  0.7818609E-02  0.8210000E-01
        1   -1    0    0  501    0  0.00000000000E+00  0.00000000000E+00  0.11355758825E+04  0.11355758825E+04  0.50400001928E-02 0. -1.
       -1   -1    0    0    0  501  0.00000000000E+00  0.00000000000E+00 -0.21444201044E+04  0.21444201044E+04  0.50400001928E-02 0.  1.
    10030    2    1    2    0    0  0.00000000000E+00  0.00000000000E+00 -0.10088442220E+04  0.32799959869E+04  0.31209945546E+04 0.  0.
        5    1    3    3  502    0  0.54250216527E+03 -0.55821546821E+03 -0.19258108256E+04  0.20771813917E+04  0.46999998093E+01 0.  1.
       -5    1    3    3    0  502 -0.54250216527E+03  0.55821546821E+03  0.91696660359E+03  0.12028145952E+04  0.46999998093E+01 0. -1.
</event>
<event>
 5   0  0.2078009E-06  0.2897420E+04  0.7818609E-02  0.8273645E-01
        2   -1    0    0  501    0  0.00000000000E+00  0.00000000000E+00  0.15716748014E+04  0.15716748014E+04  0.25500000920E-02 0. -1.
       -2   -1    0    0    0  501  0.00000000000E+00  0.00000000000E+00 -0.13353659384E+04  0.13353659384E+04  0.25500000920E-02 0.  1.
    10030    2    1    2    0    0  0.00000000000E+00  0.00000000000E+00  0.23630886298E+03  0.29070407399E+04  0.28974202292E+04 0.  0.
        3    1    3    3  502    0 -0.10247726892E+04  0.80029453972E+03 -0.52281776810E+03  0.14014167273E+04  0.10100000352E+00 0.  1.
       -3    1    3    3    0  502  0.10247726892E+04 -0.80029453972E+03  0.75912663109E+03  0.15056240125E+04  0.10100000352E+00 0. -1.
</event>
<event>
 5   0  0.2226334E-06  0.3095790E+04  0.7818609E-02  0.8216894E-01
        2   -1    0    0  501    0  0.00000000000E+00  0.00000000000E+00  0.27024233684E+04  0.27024233684E+04  0.25500000920E-02 0. -1.
       -2   -1    0    0    0  501  0.00000000000E+00  0.00000000000E+00 -0.88660357139E+03  0.88660357139E+03  0.25500000920E-02 0.  1.
    10030    2    1    2    0    0  0.00000000000E+00  0.00000000000E+00  0.18158197970E+04  0.35890269398E+04  0.30957895341E+04 0.  0.
        5    1    3    3  502    0  0.88248018703E+03  0.12713725326E+04  0.94063333501E+03  0.18110694515E+04  0.46999998093E+01 0.  1.
       -5    1    3    3    0  502 -0.88248018703E+03 -0.12713725326E+04  0.87518646202E+03  0.17779574884E+04  0.46999998093E+01 0. -1.
</event>
<event>
 5   0  0.7519202E-07  0.3045037E+04  0.7818609E-02  0.8230986E-01
       -1   -1    0    0    0  501  0.00000000000E+00  0.00000000000E+00  0.75817671958E+03  0.75817671960E+03  0.50400001928E-02 0.  1.
        1   -1    0    0  501    0  0.00000000000E+00  0.00000000000E+00 -0.30574178083E+04  0.30574178083E+04  0.50400001928E-02 0. -1.
    10030    2    1    2    0    0  0.00000000000E+00  0.00000000000E+00 -0.22992410887E+04  0.38155945279E+04  0.30450372768E+04 0.  0.
        4    1    3    3  502    0 -0.27844179838E+03 -0.14050628035E+02 -0.30251591236E+04  0.30379790307E+04  0.12699999809E+01 0. -1.
       -4    1    3    3    0  502  0.27844179838E+03  0.14050628035E+02  0.72591803486E+03  0.77761549719E+03  0.12699999809E+01 0.  1.
</event>
<event>
 5   0  0.2078009E-06  0.2854011E+04  0.7818609E-02  0.8286693E-01
        2   -1    0    0  501    0  0.00000000000E+00  0.00000000000E+00  0.22742566219E+04  0.22742566219E+04  0.25500000920E-02 0.  1.
       -2   -1    0    0    0  501  0.00000000000E+00  0.00000000000E+00 -0.89538935013E+03  0.89538935013E+03  0.25500000920E-02 0. -1.
    10030    2    1    2    0    0  0.00000000000E+00  0.00000000000E+00  0.13788672718E+04  0.31696459720E+04  0.28540113235E+04 0.  0.
        3    1    3    3  502    0 -0.69086640104E+03 -0.42883246678E+03 -0.61292422448E+03  0.10182680314E+04  0.10100000352E+00 0. -1.
       -3    1    3    3    0  502  0.69086640104E+03  0.42883246678E+03  0.19917914963E+04  0.21513779406E+04  0.10100000352E+00 0.  1.
</event>
<event>
 5   0  0.2133385E-06  0.3060997E+04  0.7818609E-02  0.8226524E-01
        2   -1    0    0  501    0  0.00000000000E+00  0.00000000000E+00  0.13275765896E+04  0.13275765896E+04  0.25500000920E-02 0. -1.
       -2   -1    0    0    0  501  0.00000000000E+00  0.00000000000E+00 -0.17644372683E+04  0.17644372683E+04  0.25500000920E-02 0.  1.
    10030    2    1    2    0    0  0.00000000000E+00  0.00000000000E+00 -0.43686067869E+03  0.30920138580E+04  0.30609969692E+04 0.  0.
        2    1    3    3  502    0  0.13529818414E+03  0.99732250087E+03 -0.13831393906E+04  0.17105649193E+04  0.25500000920E-02 0. -1.
       -2    1    3    3    0  502 -0.13529818414E+03 -0.99732250087E+03  0.94627871194E+03  0.13814489386E+04  0.25500000920E-02 0.  1.
</event>
<event>
 5   0  0.2094135E-06  0.3097909E+04  0.7818609E-02  0.8216312E-01
        2   -1    0    0  501    0  0.00000000000E+00  0.00000000000E+00  0.16128385186E+04  0.16128385186E+04  0.25500000920E-02 0. -1.
       -2   -1    0    0    0  501  0.00000000000E+00  0.00000000000E+00 -0.14876009492E+04  0.14876009492E+04  0.25500000920E-02 0.  1.
    10030    2    1    2    0    0  0.00000000000E+00  0.00000000000E+00  0.12523756939E+03  0.31004394678E+04  0.30979090440E+04 0.  0.
        4    1    3    3  502    0  0.84731741270E+03 -0.57827909476E+03  0.12241291104E+04  0.15971371892E+04  0.12699999809E+01 0. -1.
       -4    1    3    3    0  502 -0.84731741270E+03  0.57827909476E+03 -0.10988915410E+04  0.15033022787E+04  0.12699999809E+01 0.  1.
</event>
<event>
 5   0  0.2078009E-06  0.3087356E+04  0.7818609E-02  0.8219217E-01
        2   -1    0    0  501    0  0.00000000000E+00  0.00000000000E+00  0.29104290870E+04  0.29104290870E+04  0.25500000920E-02 0.  1.
       -2   -1    0    0    0  501  0.00000000000E+00  0.00000000000E+00 -0.81875952236E+03  0.81875952236E+03  0.25500000920E-02 0. -1.
    10030    2    1    2    0    0  0.00000000000E+00  0.00000000000E+00  0.20916695646E+04  0.37291886094E+04  0.30873558455E+04 0.  0.
        3    1    3    3  502    0 -0.14129826027E+04  0.40411161231E+03  0.16163832191E+04  0.21846099771E+04  0.10100000352E+00 0.  1.
       -3    1    3    3    0  502  0.14129826027E+04 -0.40411161231E+03  0.47528634556E+03  0.15445786323E+04  0.10100000352E+00 0. -1.
</event>
<event>
 5   0  0.2067926E-06  0.3090765E+04  0.7818609E-02  0.8218277E-01
       -2   -1    0    0    0  501  0.00000000000E+00  0.00000000000E+00  0.25256904156E+04  0.25256904156E+04  0.25500000920E-02 0. -1.
        2   -1    0    0  501    0  0.00000000000E+00  0.00000000000E+00 -0.94556604397E+03  0.94556604397E+03  0.25500000920E-02 0.  1.
    10030    2    1    2    0    0  0.00000000000E+00  0.00000000000E+00  0.15801243716E+04  0.34712564595E+04  0.30907650150E+04 0.  0.
        1    1    3    3  502    0 -0.42453889887E+03  0.14041947975E+04  0.13359087461E+04  0.19840989098E+04  0.50400001928E-02 0. -1.
       -1    1    3    3    0  502  0.42453889887E+03 -0.14041947975E+04  0.24421562554E+03  0.14871575498E+04  0.50400001928E-02 0.  1.
</event>
<event>
 5   0  0.2067926E-06  0.3107041E+04  0.7818609E-02  0.8213808E-01
       -2   -1    0    0    0  501  0.00000000000E+00  0.00000000000E+00  0.12807718114E+04  0.12807718114E+04  0.25500000920E-02 0.  1.
        2   -1    0    0  501    0  0.00000000000E+00  0.00000000000E+00 -0.18843533640E+04  0.18843533640E+04  0.25500000920E-02 0. -1.
    10030    2    1    2    0    0  0.00000000000E+00  0.00000000000E+00 -0.60358155261E+03  0.31651251754E+04  0.31070414682E+04 0.  0.
        1    1    3    3  502    0 -0.52563540674E+03 -0.10352001963E+04 -0.13533154705E+04  0.17830857495E+04  0.50400001928E-02 0. -1.
       -1    1    3    3    0  502  0.52563540674E+03  0.10352001963E+04  0.74973391790E+03  0.13820394259E+04  0.50400001928E-02 0.  1.
</event>
<event>
 5   0  0.7726743E-07  0.3168205E+04  0.7818609E-02  0.8197265E-01
        1   -1    0    0  501    0  0.00000000000E+00  0.00000000000E+00  0.18496423700E+04  0.18496423700E+04  0.50400001928E-02 0. -1.
       -1   -1    0    0    0  501  0.00000000000E+00  0.00000000000E+00 -0.13566843119E+04  0.13566843119E+04  0.50400001928E-02 0.  1.
    10030    2    1    2    0    0  0.00000000000E+00  0.00000000000E+00  0.49295805819E+03  0.32063266819E+04  0.31682050350E+04 0.  0.
        1    1    3    3  502    0  0.85274919388E+03  0.84002910321E+03 -0.80357521335E+03  0.14417223052E+04  0.50400001928E-02 0.  1.
       -1    1    3    3    0  502 -0.85274919388E+03 -0.84002910321E+03  0.12965332715E+04  0.17646043767E+04  0.50400001928E-02 0. -1.
</event>
<event>
 5   0  0.7656332E-07  0.3089609E+04  0.7818609E-02  0.8218595E-01
        1   -1    0    0  501    0  0.00000000000E+00  0.00000000000E+00  0.18336943376E+04  0.18336943377E+04  0.50400001928E-02 0. -1.
       -1   -1    0    0    0  501  0.00000000000E+00  0.00000000000E+00 -0.13014279939E+04  0.13014279939E+04  0.50400001928E-02 0.  1.
    10030    2    1    2    0    0  0.00000000000E+00  0.00000000000E+00  0.53226634374E+03  0.31351223316E+04  0.30896091295E+04 0.  0.
        2    1    3    3  502    0 -0.17214483274E+03  0.13944070091E+04 -0.38552359825E+03  0.14569259402E+04  0.25500000920E-02 0.  1.
       -2    1    3    3    0  502  0.17214483274E+03 -0.13944070091E+04  0.91778994199E+03  0.16781963914E+04  0.25500000920E-02 0. -1.
</event>
<event>
 5   0  0.2067926E-06  0.3126887E+04  0.7818609E-02  0.8208398E-01
        2   -1    0    0  501    0  0.00000000000E+00  0.00000000000E+00  0.10631840795E+04  0.10631840795E+04  0.25500000920E-02 0.  1.
       -2   -1    0    0    0  501  0.00000000000E+00  0.00000000000E+00 -0.22990894519E+04  0.22990894519E+04  0.25500000920E-02 0. -1.
    10030    2    1    2    0    0  0.00000000000E+00  0.00000000000E+00 -0.12359053725E+04  0.33622735314E+04  0.31268868240E+04 0.  0.
        1    1    3    3  502    0 -0.41315053706E+03 -0.78013105153E+03  0.76955530911E+03  0.11711162187E+04  0.50400001928E-02 0.  1.
       -1    1    3    3    0  502  0.41315053706E+03  0.78013105153E+03 -0.20054606816E+04  0.21911573127E+04  0.50400001928E-02 0. -1.
</event>
<event>
 5   0  0.7413481E-07  0.3195974E+04  0.7818609E-02  0.8189881E-01
       -1   -1    0    0    0  501  0.00000000000E+00  0.00000000000E+00  0.10669641397E+04  0.10669641397E+04  0.50400001928E-02 0. -1.
        1   -1    0    0  501    0  0.00000000000E+00  0.00000000000E+00 -0.23932967311E+04  0.23932967311E+04  0.50400001928E-02 0.  1.
    10030    2    1    2    0    0  0.00000000000E+00  0.00000000000E+00 -0.13263325914E+04  0.34602608708E+04  0.31959735842E+04 0.  0.
        5    1    3    3  502    0 -0.39326313806E+03  0.20255493522E+03  0.99934358566E+03  0.10928833834E+04  0.46999998093E+01 0. -1.
       -5    1    3    3    0  502  0.39326313806E+03 -0.20255493522E+03 -0.23256761770E+04  0.23673774874E+04  0.46999998093E+01 0.  1.
</event>
<event>
 5   0  0.2226334E-06  0.3076854E+04  0.7818609E-02  0.8222119E-01
       -2   -1    0    0    0  501  0.00000000000E+00  0.00000000000E+00  0.12875486631E+04  0.12875486631E+04  0.25500000920E-02 0. -1.
        2   -1    0    0  501    0  0.00000000000E+00  0.00000000000E+00 -0.18381890530E+04  0.18381890530E+04  0.25500000920E-02 0.  1.
    10030    2    1    2    0    0  0.00000000000E+00  0.00000000000E+00 -0.55064038988E+03  0.31257377161E+04  0.30768541452E+04 0.  0.
        5    1    3    3  502    0 -0.12984368236E+04  0.79664613254E+03 -0.49356471331E+03  0.16013155409E+04  0.46999998093E+01 0.  1.
       -5    1    3    3    0  502  0.12984368236E+04 -0.79664613254E+03 -0.57075676568E+02  0.15244221752E+04  0.46999998093E+01 0. -1.
</event>
<event>
 5   0  0.7561815E-07  0.3121513E+04  0.7818609E-02  0.8209859E-01
       -1   -1    0    0    0  501  0.00000000000E+00  0.00000000000E+00  0.19785827876E+04  0.19785827876E+04  0.50400001928E-02 0.  1.
        1   -1    0    0  501    0  0.00000000000E+00  0.00000000000E+00 -0.12311641469E+04  0.12311641469E+04  0.50400001928E-02 0. -1.
    10030    2    1    2    0    0  0.00000000000E+00  0.00000000000E+00  0.74741864067E+03  0.32097469345E+04  0.31215125755E+04 0.  0.
        3    1    3    3  502    0  0.23634849164E+03  0.74470500891E+03  0.17630165323E+04  0.19283862329E+04  0.10100000352E+00 0.  1.
       -3    1    3    3    0  502 -0.23634849164E+03 -0.74470500891E+03 -0.10155978917E+04  0.12813607016E+04  0.10100000352E+00 0. -1.
</event>
<event>
 5   0  0.2133385E-06  0.3101175E+04  0.7818609E-02  0.8215416E-01
       -2   -1    0    0    0  501  0.00000000000E+00  0.00000000000E+00  0.11837402663E+04  0.11837402663E+04  0.25500000920E-02 0.  1.
        2   -1    0    0  501    0  0.00000000000E+00  0.00000000000E+00 -0.20311222678E+04  0.20311222678E+04  0.25500000920E-02 0. -1.
    10030    2    1    2    0    0  0.00000000000E+00  0.00000000000E+00 -0.84738200155E+03  0.32148625341E+04  0.31011747543E+04 0.  0.
        2    1    3    3  502    0 -0.97181948797E+03 -0.19414143267E+02 -0.16760818388E+04  0.19375397690E+04  0.25500000920E-02 0. -1.
       -2    1    3    3    0  502  0.97181948797E+03  0.19414143267E+02  0.82869983721E+03  0.12773227651E+04  0.25500000920E-02 0.  1.
</event>
<event>
 5   0  0.7519202E-07  0.3107651E+04  0.7818609E-02  0.8213641E-01
        1   -1    0    0  501    0  0.00000000000E+00  0.00000000000E+00  0.26535991618E+04  0.26535991618E+04  0.50400001928E-02 0. -1.
       -1   -1    0    0    0  501  0.00000000000E+00  0.00000000000E+00 -0.90984877092E+03  0.90984877093E+03  0.50400001928E-02 0.  1.
    10030    2    1    2    0    0  0.00000000000E+00  0.00000000000E+00  0.17437503908E+04  0.35634479327E+04  0.31076511618E+04 0.  0.
        4    1    3    3  502    0 -0.42365621231E+03 -0.12099665782E+03 -0.83671871474E+03  0.94563449489E+03  0.12699999809E+01 0.  1.
       -4    1    3    3    0  502  0.42365621231E+03  0.12099665782E+03  0.25804691056E+04  0.26178134378E+04  0.12699999809E+01 0. -1.
</event>
<event>
 5   0  0.7413481E-07  0.3099303E+04  0.7818609E-02  0.8215929E-01
        1   -1    0    0  501    0  0.00000000000E+00  0.00000000000E+00  0.13780881739E+04  0.13780881739E+04  0.50400001928E-02 0.  1.
       -1   -1    0    0    0  501  0.00000000000E+00  0.00000000000E+00 -0.17425729960E+04  0.17425729960E+04  0.50400001928E-02 0. -1.
    10030    2    1    2    0    0  0.00000000000E+00  0.00000000000E+00 -0.36448482214E+03  0.31206611699E+04  0.30993026557E+04 0.  0.
        5    1    3    3  502    0 -0.95604246307E+03  0.12903106722E+03  0.10388519991E+04  0.14177100457E+04  0.46999998093E+01 0.  1.
       -5    1    3    3    0  502  0.95604246307E+03 -0.12903106722E+03 -0.14033368213E+04  0.17029511242E+04  0.46999998093E+01 0. -1.
</event>
<event>
 5   0  0.7726743E-07  0.3166418E+04  0.7818609E-02  0.8197743E-01
        1   -1    0    0  501    0  0.00000000000E+00  0.00000000000E+00  0.17962866970E+04  0.17962866970E+04  0.50400001928E-02 0. -1.
       -1   -1    0    0    0  501  0.00000000000E+00  0.00000000000E+00 -0.13954068181E+04  0.13954068182E+04  0.50400001928E-02 0.  1.
    10030    2    1    2    0    0  0.00000000000E+00  0.00000000000E+00  0.40087987885E+03  0.31916935152E+04  0.31664179790E+04 0.  0.
        1    1    3    3  502    0  0.61486001893E+03  0.45233277112E+03 -0.11976766448E+04  0.14202419245E+04  0.50400001928E-02 0.  1.
       -1    1    3    3    0  502 -0.61486001893E+03 -0.45233277112E+03  0.15985565236E+04  0.17714515906E+04  0.50400001928E-02 0. -1.
</event>
<event>
 5   0  0.7656332E-07  0.3092284E+04  0.7818609E-02  0.8217859E-01
        1   -1    0    0  501    0  0.00000000000E+00  0.00000000000E+00  0.27906162878E+04  0.27906162878E+04  0.50400001928E-02 0. -1.
       -1   -1    0    0    0  501  0.00000000000E+00  0.00000000000E+00 -0.85664034130E+03  0.85664034131E+03  0.50400001928E-02 0.  1.
    10030    2    1    2    0    0  0.00000000000E+00  0.00000000000E+00  0.19339759465E+04  0.36472566291E+04  0.30922836152E+04 0.  0.
        2    1    3    3  502    0  0.88092981806E+03  0.47717535211E+03 -0.42199582772E+03  0.10871127539E+04  0.25500000920E-02 0.  1.
       -2    1    3    3    0  502 -0.88092981806E+03 -0.47717535211E+03  0.23559717742E+04  0.25601438752E+04  0.25500000920E-02 0. -1.
</event>
<event>
 5   0  0.2078009E-06  0.3103864E+04  0.7818609E-02  0.8214678E-01
        2   -1    0    0  501    0  0.00000000000E+00  0.00000000000E+00  0.20435331595E+04  0.20435331595E+04  0.25500000920E-02 0. -1.
       -2   -1    0    0    0  501  0.00000000000E+00  0.00000000000E+00 -0.11785923421E+04  0.11785923421E+04  0.25500000920E-02 0.  1.
    10030    2    1    2    0    0  0.00000000000E+00  0.00000000000E+00  0.86494081743E+03  0.32221255016E+04  0.31038637423E+04 0.  0.
        3    1    3    3  502    0  0.12544451821E+03  0.13217694151E+04  0.12666298695E+04  0.18349828202E+04  0.10100000352E+00 0. -1.
       -3    1    3    3    0  502 -0.12544451821E+03 -0.13217694151E+04 -0.40168905208E+03  0.13871426814E+04  0.10100000352E+00 0.  1.
</event>
<event>
 5   0  0.2067926E-06  0.3239497E+04  0.7818609E-02  0.8178463E-01
       -2   -1    0    0    0  501  0.00000000000E+00  0.00000000000E+00  0.12718201908E+04  0.12718201908E+04  0.25500000920E-02 0. -1.
        2   -1    0    0  501    0  0.00000000000E+00  0.00000000000E+00 -0.20628589201E+04  0.20628589201E+04  0.25500000920E-02 0.  1.
    10030    2    1    2    0    0  0.00000000000E+00  0.00000000000E+00 -0.79103872934E+03  0.33346791109E+04  0.32394972606E+04 0.  0.
        1    1    3    3  502    0 -0.11764367013E+03 -0.13778342021E+04 -0.12636967824E+04  0.18732849968E+04  0.50400001928E-02 0.  1.
       -1    1    3    3    0  502  0.11764367013E+03  0.13778342021E+04  0.47265805303E+03  0.14613941141E+04  0.50400001928E-02 0. -1.
</event>
<event>
 5   0  0.7656332E-07  0.3098415E+04  0.7818609E-02  0.8216173E-01
       -1   -1    0    0    0  501  0.00000000000E+00  0.00000000000E+00  0.10161186906E+04  0.10161186906E+04  0.50400001928E-02 0. -1.
        1   -1    0    0  501    0  0.00000000000E+00  0.00000000000E+00 -0.23619721682E+04  0.23619721682E+04  0.50400001928E-02 0.  1.
    10030    2    1    2    0    0  0.00000000000E+00  0.00000000000E+00 -0.13458534776E+04  0.33780908588E+04  0.30984151218E+04 0.  0.
        2    1    3    3  502    0  0.35129649554E+03  0.71163463663E+03  0.77766178845E+03  0.11111214790E+04  0.25500000920E-02 0. -1.
       -2    1    3    3    0  502 -0.35129649554E+03 -0.71163463663E+03 -0.21235152661E+04  0.22669693798E+04  0.25500000920E-02 0.  1.
</event>
<event>
 5   0  0.7519202E-07  0.2825704E+04  0.7818609E-02  0.8295332E-01
        1   -1    0    0  501    0  0.00000000000E+00  0.00000000000E+00  0.24603545210E+04  0.24603545210E+04  0.50400001928E-02 0. -1.
       -1   -1    0    0    0  501  0.00000000000E+00  0.00000000000E+00 -0.81132657433E+03  0.81132657435E+03  0.50400001928E-02 0.  1.
    10030    2    1    2    0    0  0.00000000000E+00  0.00000000000E+00  0.16490279467E+04  0.32716810954E+04  0.28257041637E+04 0.  0.
        4    1    3    3  502    0 -0.46555245372E+03 -0.10647847807E+04  0.17548518951E+04  0.21047594882E+04  0.12699999809E+01 0. -1.
       -4    1    3    3    0  502  0.46555245372E+03  0.10647847807E+04 -0.10582394841E+03  0.11669216072E+04  0.12699999809E+01 0.  1.
</event>
<event>
 5   0  0.7561815E-07  0.3091081E+04  0.7818609E-02  0.8218190E-01
        1   -1    0    0  501    0  0.00000000000E+00  0.00000000000E+00  0.24766082478E+04  0.24766082479E+04  0.50400001928E-02 0. -1.
       -1   -1    0    0    0  501  0.00000000000E+00  0.00000000000E+00 -0.96450255442E+03  0.96450255443E+03  0.50400001928E-02 0.  1.
    10030    2    1    2    0    0  0.00000000000E+00  0.00000000000E+00  0.15121056934E+04  0.34411108023E+04  0.30910807051E+04 0.  0.
        3    1    3    3  502    0 -0.85360937376E+03 -0.66696809116E+03  0.19832437206E+04  0.22598121743E+04  0.10100000352E+00 0. -1.
       -3    1    3    3    0  502  0.85360937376E+03  0.66696809116E+03 -0.47113802718E+03  0.11812986280E+04  0.10100000352E+00 0.  1.
</event>
<event>
 5   0  0.7519202E-07  0.3079711E+04  0.7818609E-02  0.8221328E-01
       -1   -1    0    0    0  501  0.00000000000E+00  0.00000000000E+00  0.14261154060E+04  0.14261154060E+04  0.50400001928E-02 0. -1.
        1   -1    0    0  501    0  0.00000000000E+00  0.00000000000E+00 -0.16626673205E+04  0.16626673205E+04  0.50400001928E-02 0.  1.
    10030    2    1    2    0    0  0.00000000000E+00  0.00000000000E+00 -0.23655191453E+03  0.30887827265E+04  0.30797113377E+04 0.  0.
        4    1    3    3  502    0  0.59606229103E+03  0.83317188469E+03 -0.12713092791E+04  0.16326954830E+04  0.12699999809E+01 0.  1.
       -4    1    3    3    0  502 -0.59606229103E+03 -0.83317188469E+03  0.10347573646E+04  0.14560872435E+04  0.12699999809E+01 0. -1.
</event>
<event>
 5   0  0.2133385E-06  0.3090733E+04  0.7818609E-02  0.8218286E-01
       -2   -1    0    0    0  501  0.00000000000E+00  0.00000000000E+00  0.23513342535E+04  0.23513342535E+04  0.25500000920E-02 0.  1.
        2   -1    0    0  501    0  0.00000000000E+00  0.00000000000E+00 -0.10156606947E+04  0.10156606947E+04  0.25500000920E-02 0. -1.
    10030    2    1    2    0    0  0.00000000000E+00  0.00000000000E+00  0.13356735588E+04  0.33669949482E+04  0.30907331048E+04 0.  0.
        2    1    3    3  502    0  0.12512718327E+04  0.89111913927E+03  0.48430464679E+03  0.16106910041E+04  0.25500000920E-02 0.  1.
       -2    1    3    3    0  502 -0.12512718327E+04 -0.89111913927E+03  0.85136891197E+03  0.17563039441E+04  0.25500000920E-02 0. -1.
</event>
<event>
 5   0  0.2067926E-06  0.3124298E+04  0.7818609E-02  0.8209101E-01
       -2   -1    0    0    0  501  0.00000000000E+00  0.00000000000E+00  0.13848153900E+04  0.13848153900E+04  0.25500000920E-02 0. -1.
        2   -1    0    0  501    0  0.00000000000E+00  0.00000000000E+00 -0.17621910066E+04  0.17621910066E+04  0.25500000920E-02 0.  1.
    10030    2    1    2    0    0  0.00000000000E+00  0.00000000000E+00 -0.37737561656E+03  0.31470063966E+04  0.31242978257E+04 0.  0.
        1    1    3    3  502    0 -0.10673875536E+03 -0.11272668969E+04  0.89532457499E+03  0.14435130457E+04  0.50400001928E-02 0. -1.
       -1    1    3    3    0  502  0.10673875536E+03  0.11272668969E+04 -0.12727001916E+04  0.17034933508E+04  0.50400001928E-02 0.  1.
</event>
<event>
 5   0  0.7726743E-07  0.3073612E+04  0.7818609E-02  0.8223017E-01
       -1   -1    0    0    0  501  0.00000000000E+00  0.00000000000E+00  0.13189077510E+04  0.13189077510E+04  0.50400001928E-02 0. -1.
        1   -1    0    0  501    0  0.00000000000E+00  0.00000000000E+00 -0.17907032837E+04  0.17907032837E+04  0.50400001928E-02 0.  1.
    10030    2    1    2    0    0  0.00000000000E+00  0.00000000000E+00 -0.47179553269E+03  0.31096110347E+04  0.30736118431E+04 0.  0.
        1    1    3    3  502    0  0.61732270407E+03 -0.53432676514E+03  0.10813423884E+04  0.13549515762E+04  0.50400001928E-02 0. -1.
       -1    1    3    3    0  502 -0.61732270407E+03  0.53432676514E+03 -0.15531379211E+04  0.17546594584E+04  0.50400001928E-02 0.  1.
</event>
<event>
 5   0  0.2133385E-06  0.3035342E+04  0.7818609E-02  0.8233710E-01
       -2   -1    0    0    0  501  0.00000000000E+00  0.00000000000E+00  0.17245356709E+04  0.17245356709E+04  0.25500000920E-02 0.  1.
        2   -1    0    0  501    0  0.00000000000E+00  0.00000000000E+00 -0.13356208122E+04  0.13356208122E+04  0.25500000920E-02 0. -1.
    10030    2    1    2    0    0  0.00000000000E+00  0.00000000000E+00  0.38891485867E+03  0.30601564831E+04  0.30353423092E+04 0.  0.
        2    1    3    3  502    0 -0.96946807640E+03 -0.18998583010E+03  0.13559883490E+04  0.16776970434E+04  0.25500000920E-02 0.  1.
       -2    1    3    3    0  502  0.96946807640E+03  0.18998583010E+03 -0.96707349034E+03  0.13824594397E+04  0.25500000920E-02 0. -1.
</event>
<event>
 5   0  0.7561815E-07  0.3027852E+04  0.7818609E-02  0.8235822E-01
       -1   -1    0    0    0  501  0.00000000000E+00  0.00000000000E+00  0.11756395804E+04  0.11756395805E+04  0.50400001928E-02 0. -1.
        1   -1    0    0  501    0  0.00000000000E+00  0.00000000000E+00 -0.19495527105E+04  0.19495527105E+04  0.50400001928E-02 0.  1.
    10030    2    1    2    0    0  0.00000000000E+00  0.00000000000E+00 -0.77391313006E+03  0.31251922910E+04  0.30278516018E+04 0.  0.
        3    1    3    3  502    0  0.40873955147E+01 -0.34545706442E+03  0.11344085307E+04  0.11858499124E+04  0.10100000352E+00 0. -1.
       -3    1    3    3    0  502 -0.40873955147E+01  0.34545706442E+03 -0.19083216607E+04  0.19393423785E+04  0.10100000352E+00 0.  1.
</event>
<event>
 5   0  0.2067926E-06  0.3109142E+04  0.7818609E-02  0.8213233E-01
        2   -1    0    0  501    0  0.00000000000E+00  0.00000000000E+00  0.25731289722E+04  0.25731289722E+04  0.25500000920E-02 0.  1.
       -2   -1    0    0    0  501  0.00000000000E+00  0.00000000000E+00 -0.93920329937E+03  0.93920329938E+03  0.25500000920E-02 0. -1.
    10030    2    1    2    0    0  0.00000000000E+00  0.00000000000E+00  0.16339256729E+04  0.35123322716E+04  0.31091421456E+04 0.  0.
        1    1    3    3  502    0 -0.52794845825E+03  0.14388341300E+04  0.52299010125E+03  0.16194109652E+04  0.50400001928E-02 0. -1.
       -1    1    3    3    0  502  0.52794845825E+03 -0.14388341300E+04  0.11109355716E+04  0.18929213064E+04  0.50400001928E-02 0.  1.
</event>
<event>
 5   0  0.7561815E-07  0.3089075E+04  0.7818609E-02  0.8218743E-01
       -1   -1    0    0    0  501  0.00000000000E+00  0.00000000000E+00  0.94170104601E+03  0.94170104602E+03  0.50400001928E-02 0.  1.
        1   -1    0    0  501    0  0.00000000000E+00  0.00000000000E+00 -0.25332838115E+04  0.25332838115E+04  0.50400001928E-02 0. -1.
    10030    2    1    2    0    0  0.00000000000E+00  0.00000000000E+00 -0.15915827655E+04  0.34749848576E+04  0.30890749523E+04 0.  0.
        3    1    3    3  502    0 -0.10821334781E+04 -0.10888249865E+04 -0.60408023366E+03  0.16496865322E+04  0.10100000352E+00 0.  1.
       -3    1    3    3    0  502  0.10821334781E+04  0.10888249865E+04 -0.98750253186E+03  0.18252983253E+04  0.10100000352E+00 0. -1.
</event>
<event>
 5   0  0.2226334E-06  0.3043356E+04  0.7818609E-02  0.8231458E-01
        2   -1    0    0  501    0  0.00000000000E+00  0.00000000000E+00  0.15788441383E+04  0.15788441383E+04  0.25500000920E-02 0. -1.
       -2   -1    0    0    0  501  0.00000000000E+00  0.00000000000E+00 -0.14665816861E+04  0.14665816861E+04  0.25500000920E-02 0.  1.
    10030    2    1    2    0    0  0.00000000000E+00  0.00000000000E+00  0.11226245220E+03  0.30454258245E+04  0.30433559756E+04 0.  0.
        5    1    3    3  502    0 -0.31575435431E+03 -0.52987918972E+03  0.14481233289E+04  0.15740254235E+04  0.46999998093E+01 0. -1.
       -5    1    3    3    0  502  0.31575435431E+03  0.52987918972E+03 -0.13358608767E+04  0.14714004010E+04  0.46999998093E+01 0.  1.
</event>
<event>
 5   0  0.2067926E-06  0.3084218E+04  0.7818609E-02  0.8220083E-01
       -2   -1    0    0    0  501  0.00000000000E+00  0.00000000000E+00  0.14939498232E+04  0.14939498232E+04  0.25500000920E-02 0. -1.
        2   -1    0    0  501    0  0.00000000000E+00  0.00000000000E+00 -0.15918205788E+04  0.15918205788E+04  0.25500000920E-02 0.  1.
    10030    2    1    2    0    0  0.00000000000E+00  0.00000000000E+00 -0.97870755580E+02  0.30857704020E+04  0.30842179380E+04 0.  0.
        1    1    3    3  502    0  0.11703535592E+04 -0.88795738312E+03 -0.51811097503E+03  0.15577659485E+04  0.50400001928E-02 0.  1.
       -1    1    3    3    0  502 -0.11703535592E+04  0.88795738312E+03  0.42024021945E+03  0.15280044535E+04  0.50400001928E-02 0. -1.
</event>
<event>
 5   0  0.7656332E-07  0.3096330E+04  0.7818609E-02  0.8216746E-01
       -1   -1    0    0    0  501  0.00000000000E+00  0.00000000000E+00  0.16982316636E+04  0.16982316636E+04  0.50400001928E-02 0. -1.
        1   -1    0    0  501    0  0.00000000000E+00  0.00000000000E+00 -0.14113591961E+04  0.14113591961E+04  0.50400001928E-02 0.  1.
    10030    2    1    2    0    0  0.00000000000E+00  0.00000000000E+00  0.28687246752E+03  0.31095908597E+04  0.30963300054E+04 0.  0.
        2    1    3    3  502    0 -0.11165455055E+03 -0.42210959709E+03 -0.13482437322E+04  0.14171818556E+04  0.25500000920E-02 0.  1.
       -2    1    3    3    0  502  0.11165455055E+03  0.42210959709E+03  0.16351161997E+04  0.16924090041E+04  0.25500000920E-02 0. -1.
</event>
<event>
 5   0  0.2133385E-06  0.3098669E+04  0.7818609E-02  0.8216103E-01
        2   -1    0    0  501    0  0.00000000000E+00  0.00000000000E+00  0.15934628143E+04  0.15934628143E+04  0.25500000920E-02 0.  1.
       -2   -1    0    0    0  501  0.00000000000E+00  0.00000000000E+00 -0.15064287158E+04  0.15064287158E+04  0.25500000920E-02 0. -1.
    10030    2    1    2    0    0  0.00000000000E+00  0.00000000000E+00  0.87034098463E+02  0.30998915301E+04  0.30986694829E+04 0.  0.
        2    1    3    3  502    0  0.92539787267E+03  0.40682316760E+03 -0.11310719853E+04  0.15169674183E+04  0.25500000920E-02 0. -1.
       -2    1    3    3    0  502 -0.92539787267E+03 -0.40682316760E+03  0.12181060837E+04  0.15829241118E+04  0.25500000920E-02 0.  1.
</event>
<event>
 5   0  0.2067926E-06  0.2980718E+04  0.7818609E-02  0.8249259E-01
        2   -1    0    0  501    0  0.00000000000E+00  0.00000000000E+00  0.24026356408E+04  0.24026356408E+04  0.25500000920E-02 0.  1.
       -2   -1    0    0    0  501  0.00000000000E+00  0.00000000000E+00 -0.92447207639E+03  0.92447207639E+03  0.25500000920E-02 0. -1.
    10030    2    1    2    0    0  0.00000000000E+00  0.00000000000E+00  0.14781635644E+04  0.33271077172E+04  0.29807177388E+04 0.  0.
        1    1    3    3  502    0 -0.12245519653E+04 -0.33890272733E+03  0.16085708745E+04  0.20498494658E+04  0.50400001928E-02 0.  1.
       -1    1    3    3    0  502  0.12245519653E+04  0.33890272733E+03 -0.13040731006E+03  0.12772582514E+04  0.50400001928E-02 0. -1.
</event>
<event>
 5   0  0.7656332E-07  0.3087345E+04  0.7818609E-02  0.8219220E-01
        1   -1    0    0  501    0  0.00000000000E+00  0.00000000000E+00  0.21451502922E+04  0.21451502922E+04  0.50400001928E-02 0.  1.
       -1   -1    0    0    0  501  0.00000000000E+00  0.00000000000E+00 -0.11108428050E+04  0.11108428050E+04  0.50400001928E-02 0. -1.
    10030    2    1    2    0    0  0.00000000000E+00  0.00000000000E+00  0.10343074872E+04  0.32559930972E+04  0.30873449873E+04 0.  0.
        2    1    3    3  502    0  0.44247185231E+01 -0.67536144779E+03 -0.94676085995E+03  0.11629655151E+04  0.25500000920E-02 0. -1.
       -2    1    3    3    0  502 -0.44247185231E+01  0.67536144779E+03  0.19810683472E+04  0.20930275821E+04  0.25500000920E-02 0.  1.
</event>
<event>
 5   0  0.7519202E-07  0.3060125E+04  0.7818609E-02  0.8226767E-01
       -1   -1    0    0    0  501  0.00000000000E+00  0.00000000000E+00  0.17691212680E+04  0.17691212680E+04  0.50400001928E-02 0.  1.
        1   -1    0    0  501    0  0.00000000000E+00  0.00000000000E+00 -0.13233072174E+04  0.13233072175E+04  0.50400001928E-02 0. -1.
    10030    2    1    2    0    0  0.00000000000E+00  0.00000000000E+00  0.44581405059E+03  0.30924284855E+04  0.30601247965E+04 0.  0.
        4    1    3    3  502    0  0.17506620287E+03  0.24120387241E+03 -0.12936891869E+04  0.13275770443E+04  0.12699999809E+01 0. -1.
       -4    1    3    3    0  502 -0.17506620287E+03 -0.24120387241E+03  0.17395032375E+04  0.17648514412E+04  0.12699999809E+01 0.  1.
</event>
<event>
 5   0  0.2226334E-06  0.3098180E+04  0.7818609E-02  0.8216238E-01
        2   -1    0    0  501    0  0.00000000000E+00  0.00000000000E+00  0.21651550926E+04  0.21651550926E+04  0.25500000920E-02 0.  1.
       -2   -1    0    0    0  501  0.00000000000E+00  0.00000000000E+00 -0.11083178740E+04  0.11083178741E+04  0.25500000920E-02 0. -1.
    10030    2    1    2    0    0  0.00000000000E+00  0.00000000000E+00  0.10568372186E+04  0.32734729667E+04  0.30981801686E+04 0.  0.
        5    1    3    3  502    0  0.86392428357E+03  0.12753644219E+04  0.70118926540E+03  0.16925153034E+04  0.46999998093E+01 0.  1.
       -5    1    3    3    0  502 -0.86392428357E+03 -0.12753644219E+04  0.35564795319E+03  0.15809576633E+04  0.46999998093E+01 0. -1.
</event>
<event>
 5   0  0.7561815E-07  0.3049279E+04  0.7818609E-02  0.8229797E-01
        1   -1    0    0  501    0  0.00000000000E+00  0.00000000000E+00  0.12417306859E+04  0.12417306859E+04  0.50400001928E-02 0.  1.
       -1   -1    0    0    0  501  0.00000000000E+00  0.00000000000E+00 -0.18720043183E+04  0.18720043184E+04  0.50400001928E-02 0. -1.
    10030    2    1    2    0    0  0.00000000000E+00  0.00000000000E+00 -0.63027363243E+03  0.31137350043E+04  0.30492787385E+04 0.  0.
        3    1    3    3  502    0 -0.86300902787E+03  0.52820631886E+02 -0.15974484045E+04  0.18164294692E+04  0.10100000352E+00 0. -1.
       -3    1    3    3    0  502  0.86300902787E+03 -0.52820631886E+02  0.96717477209E+03  0.12973055351E+04  0.10100000352E+00 0.  1.
</event>
<event>
 5   0  0.7561815E-07  0.3062152E+04  0.7818609E-02  0.8226202E-01
        1   -1    0    0  501    0  0.00000000000E+00  0.00000000000E+00  0.16336684350E+04  0.16336684350E+04  0.50400001928E-02 0. -1.
       -1   -1    0    0    0  501  0.00000000000E+00  0.00000000000E+00 -0.14349264172E+04  0.14349264172E+04  0.50400001928E-02 0.  1.
    10030    2    1    2    0    0  0.00000000000E+00  0.00000000000E+00  0.19874201781E+03  0.30685948522E+04  0.30621521806E+04 0.  0.
        3    1    3    3  502    0 -0.13152418036E+04  0.77040473415E+03  0.24392959616E+03  0.15436599737E+04  0.10100000352E+00 0.  1.
       -3    1    3    3    0  502  0.13152418036E+04 -0.77040473415E+03 -0.45187578351E+02  0.15249348785E+04  0.10100000352E+00 0. -1.
</event>
<event>
 5   0  0.2078009E-06  0.3102160E+04  0.7818609E-02  0.8215145E-01
       -2   -1    0    0    0  501  0.00000000000E+00  0.00000000000E+00  0.90075742856E+03  0.90075742856E+03  0.25500000920E-02 0.  1.
        2   -1    0    0  501    0  0.00000000000E+00  0.00000000000E+00 -0.26709183658E+04  0.26709183658E+04  0.25500000920E-02 0. -1.
    10030    2    1    2    0    0  0.00000000000E+00  0.00000000000E+00 -0.17701609372E+04  0.35716757943E+04  0.31021602531E+04 0.  0.
        3    1    3    3  502    0  0.13786276419E+04 -0.71051437968E+03 -0.90824209667E+03  0.17973170491E+04  0.10100000352E+00 0. -1.
       -3    1    3    3    0  502 -0.13786276419E+04  0.71051437968E+03 -0.86191884055E+03  0.17743587452E+04  0.10100000352E+00 0.  1.
</event>
<event>
 5   0  0.2226334E-06  0.3135073E+04  0.7818609E-02  0.8206178E-01
        2   -1    0    0  501    0  0.00000000000E+00  0.00000000000E+00  0.24635719048E+04  0.24635719048E+04  0.25500000920E-02 0.  1.
       -2   -1    0    0    0  501  0.00000000000E+00  0.00000000000E+00 -0.99740163808E+03  0.99740163809E+03  0.25500000920E-02 0. -1.
    10030    2    1    2    0    0  0.00000000000E+00  0.00000000000E+00  0.14661702667E+04  0.34609735429E+04  0.31350729838E+04 0.  0.
        5    1    3    3  502    0 -0.61377300828E+03  0.91829086847E+03 -0.49482296839E+03  0.12103087560E+04  0.46999998093E+01 0. -1.
       -5    1    3    3    0  502  0.61377300828E+03 -0.91829086847E+03  0.19609932351E+04  0.22506647869E+04  0.46999998093E+01 0.  1.
</event>
<event>
 5   0  0.7413481E-07  0.3057851E+04  0.7818609E-02  0.8227402E-01
       -1   -1    0    0    0  501  0.00000000000E+00  0.00000000000E+00  0.15777622315E+04  0.15777622315E+04  0.50400001928E-02 0.  1.
        1   -1    0    0  501    0  0.00000000000E+00  0.00000000000E+00 -0.14815999891E+04  0.14815999891E+04  0.50400001928E-02 0. -1.
    10030    2    1    2    0    0  0.00000000000E+00  0.00000000000E+00  0.96162242467E+02  0.30593622206E+04  0.30578505555E+04 0.  0.
        5    1    3    3  502    0  0.44054756625E+03 -0.12292708533E+04 -0.74754871913E+03  0.15046727772E+04  0.46999998093E+01 0. -1.
       -5    1    3    3    0  502 -0.44054756625E+03  0.12292708533E+04  0.84371096159E+03  0.15546894435E+04  0.46999998093E+01 0.  1.
</event>
<event>
 5   0  0.7656332E-07  0.3090476E+04  0.7818609E-02  0.8218356E-01
        1   -1    0    0  501    0  0.00000000000E+00  0.00000000000E+00  0.18213978638E+04  0.18213978638E+04  0.50400001928E-02 0.  1.
       -1   -1    0    0    0  501  0.00000000000E+00  0.00000000000E+00 -0.13109496598E+04  0.13109496599E+04  0.50400001928E-02 0. -1.
    10030    2    1    2    0    0  0.00000000000E+00  0.00000000000E+00  0.51044820399E+03  0.31323475237E+04  0.30904762805E+04 0.  0.
        2    1    3    3  502    0  0.10232769362E+04 -0.61441071624E+03 -0.73948204584E+03  0.14040761776E+04  0.25500000920E-02 0. -1.
       -2    1    3    3    0  502 -0.10232769362E+04  0.61441071624E+03  0.12499302498E+04  0.17282713461E+04  0.25500000920E-02 0.  1.
</event>
<event>
 5   0  0.2094135E-06  0.3113911E+04  0.7818609E-02  0.8211930E-01
        2   -1    0    0  501    0  0.00000000000E+00  0.00000000000E+00  0.22066040175E+04  0.22066040175E+04  0.25500000920E-02 0.  1.
       -2   -1    0    0    0  501  0.00000000000E+00  0.00000000000E+00 -0.10985708334E+04  0.10985708334E+04  0.25500000920E-02 0. -1.
    10030    2    1    2    0    0  0.00000000000E+00  0.00000000000E+00  0.11080331841E+04  0.33051748509E+04  0.31139112476E+04 0.  0.
        4    1    3    3  502    0 -0.11586693670E+04 -0.95376306776E+03  0.11390309694E+03  0.15050429295E+04  0.12699999809E+01 0.  1.
       -4    1    3    3    0  502  0.11586693670E+04  0.95376306776E+03  0.99413008716E+03  0.18001319214E+04  0.12699999809E+01 0. -1.
</event>
<event>
 5   0  0.2226334E-06  0.3091306E+04  0.7818609E-02  0.8218128E-01
       -2   -1    0    0    0  501  0.00000000000E+00  0.00000000000E+00  0.17298403414E+04  0.17298403414E+04  0.25500000920E-02 0. -1.
        2   -1    0    0  501    0  0.00000000000E+00  0.00000000000E+00 -0.13810772692E+04  0.13810772692E+04  0.25500000920E-02 0.  1.
    10030    2    1    2    0    0  0.00000000000E+00  0.00000000000E+00  0.34876307216E+03  0.31109176106E+04  0.30913059861E+04 0.  0.
        5    1    3    3  502    0 -0.52835299354E+03  0.69429527846E+03  0.14583355615E+04  0.16994021064E+04  0.46999998093E+01 0. -1.
       -5    1    3    3    0  502  0.52835299354E+03 -0.69429527846E+03 -0.11095724893E+04  0.14115155042E+04  0.46999998093E+01 0.  1.
</event>
<event>
 5   0  0.7726743E-07  0.3097804E+04  0.7818609E-02  0.8216341E-01
       -1   -1    0    0    0  501  0.00000000000E+00  0.00000000000E+00  0.13870099584E+04  0.13870099584E+04  0.50400001928E-02 0.  1.
        1   -1    0    0  501    0  0.00000000000E+00  0.00000000000E+00 -0.17296896360E+04  0.17296896360E+04  0.50400001928E-02 0. -1.
    10030    2    1    2    0    0  0.00000000000E+00  0.00000000000E+00 -0.34267967763E+03  0.31166995944E+04  0.30978035768E+04 0.  0.
        1    1    3    3  502    0  0.15749112474E+03 -0.83295427885E+03  0.11329010207E+04  0.14149491184E+04  0.50400001928E-02 0.  1.
       -1    1    3    3    0  502 -0.15749112474E+03  0.83295427885E+03 -0.14755806983E+04  0.17017504759E+04  0.50400001928E-02 0. -1.
</event>
<event>
 5   0  0.2133385E-06  0.3124537E+04  0.7818609E-02  0.8209036E-01
        2   -1    0    0  501    0  0.00000000000E+00  0.00000000000E+00  0.87812810051E+03  0.87812810052E+03  0.25500000920E-02 0.  1.
       -2   -1    0    0    0  501  0.00000000000E+00  0.00000000000E+00 -0.27794147662E+04  0.27794147662E+04  0.25500000920E-02 0. -1.
    10030    2    1    2    0    0  0.00000000000E+00  0.00000000000E+00 -0.19012866657E+04  0.36575428667E+04  0.31245365795E+04 0.  0.
        2    1    3    3  502    0  0.96060529980E+03  0.65241979818E+03  0.27275654086E+03  0.11928161072E+04  0.25500000920E-02 0.  1.
       -2    1    3    3    0  502 -0.96060529980E+03 -0.65241979818E+03 -0.21740432066E+04  0.24647267595E+04  0.25500000920E-02 0. -1.
</event>
<event>
 5   0  0.7656332E-07  0.3097806E+04  0.7818609E-02  0.8216340E-01
       -1   -1    0    0    0  501  0.00000000000E+00  0.00000000000E+00  0.12338820105E+04  0.12338820106E+04  0.50400001928E-02 0.  1.
        1   -1    0    0  501    0  0.00000000000E+00  0.00000000000E+00 -0.19443512673E+04  0.19443512673E+04  0.50400001928E-02 0. -1.
    10030    2    1    2    0    0  0.00000000000E+00  0.00000000000E+00 -0.71046925672E+03  0.31782332778E+04  0.30978057078E+04 0.  0.
        2    1    3    3  502    0  0.23204973429E+03 -0.82731259335E+03 -0.16774163774E+04  0.18846800549E+04  0.25500000920E-02 0. -1.
       -2    1    3    3    0  502 -0.23204973429E+03  0.82731259335E+03  0.96694712067E+03  0.12935532229E+04  0.25500000920E-02 0.  1.
</event>
<event>
 5   0  0.2067926E-06  0.3100464E+04  0.7818609E-02  0.8215611E-01
       -2   -1    0    0    0  501  0.00000000000E+00  0.00000000000E+00  0.10925399120E+04  0.10925399120E+04  0.25500000920E-02 0. -1.
        2   -1    0    0  501    0  0.00000000000E+00  0.00000000000E+00 -0.21996619738E+04  0.21996619738E+04  0.25500000920E-02 0.  1.
    10030    2    1    2    0    0  0.00000000000E+00  0.00000000000E+00 -0.11071220618E+04  0.32922018858E+04  0.31004635133E+04 0.  0.
        1    1    3    3  502    0 -0.74281114665E+03  0.94076145559E+03  0.49029916104E+03  0.12950651656E+04  0.50400001928E-02 0. -1.
       -1    1    3    3    0  502  0.74281114665E+03 -0.94076145559E+03 -0.15974212228E+04  0.19971367202E+04  0.50400001928E-02 0.  1.
</event>
<event>
 5   0  0.7561815E-07  0.3120125E+04  0.7818609E-02  0.8210237E-01
       -1   -1    0    0    0  501  0.00000000000E+00  0.00000000000E+00  0.17273953240E+04  0.17273953240E+04  0.50400001928E-02 0.  1.
        1   -1    0    0  501    0  0.00000000000E+00  0.00000000000E+00 -0.14089387931E+04  0.14089387931E+04  0.50400001928E-02 0. -1.
    10030    2    1    2    0    0  0.00000000000E+00  0.00000000000E+00  0.31845653089E+03  0.31363341170E+04  0.31201245378E+04 0.  0.
        3    1    3    3  502    0  0.15142357616E+04  0.12700722216E+03 -0.19581130292E+03  0.15321171145E+04  0.10100000352E+00 0. -1.
       -3    1    3    3    0  502 -0.15142357616E+04 -0.12700722216E+03  0.51426783381E+03  0.16042170025E+04  0.10100000352E+00 0.  1.
</event>
<event>
 5   0  0.7561815E-07  0.3084132E+04  0.7818609E-02  0.8220106E-01
       -1   -1    0    0    0  501  0.00000000000E+00  0.00000000000E+00  0.16805972068E+04  0.16805972068E+04  0.50400001928E-02 0. -1.
        1   -1    0    0  501    0  0.00000000000E+00  0.00000000000E+00 -0.14149539449E+04  0.14149539449E+04  0.50400001928E-02 0.  1.
    10030    2    1    2    0    0  0.00000000000E+00  0.00000000000E+00  0.26564326187E+03  0.30955511518E+04  0.30841320644E+04 0.  0.
        3    1    3    3  502    0 -0.97871692870E+03  0.11559918070E+04 -0.15766963690E+03  0.15228472048E+04  0.10100000352E+00 0. -1.
       -3    1    3    3    0  502  0.97871692870E+03 -0.11559918070E+04  0.42331289877E+03  0.15727039470E+04  0.10100000352E+00 0.  1.
</event>
<event>
 5   0  0.2094135E-06  0.3110161E+04  0.7818609E-02  0.8212955E-01
       -2   -1    0    0    0  501  0.00000000000E+00  0.00000000000E+00  0.21482683899E+04  0.21482683899E+04  0.25500000920E-02 0. -1.
        2   -1    0    0  501    0  0.00000000000E+00  0.00000000000E+00 -0.11256855543E+04  0.11256855543E+04  0.25500000920E-02 0.  1.
    10030    2    1    2    0    0  0.00000000000E+00  0.00000000000E+00  0.10225828356E+04  0.32739539442E+04  0.31101605703E+04 0.  0.
        4    1    3    3  502    0  0.58647715300E+03  0.13103971212E+04 -0.11782570504E+03  0.14404792869E+04  0.12699999809E+01 0.  1.
       -4    1    3    3    0  502 -0.58647715300E+03 -0.13103971212E+04  0.11404085407E+04  0.18334746573E+04  0.12699999809E+01 0. -1.
</event>
<event>
 5   0  0.2067926E-06  0.3142677E+04  0.7818609E-02  0.8204122E-01
       -2   -1    0    0    0  501  0.00000000000E+00  0.00000000000E+00  0.97948695301E+03  0.97948695301E+03  0.25500000920E-02 0. -1.
        2   -1    0    0  501    0  0.00000000000E+00  0.00000000000E+00 -0.25208135746E+04  0.25208135746E+04  0.25500000920E-02 0.  1.
    10030    2    1    2    0    0  0.00000000000E+00  0.00000000000E+00 -0.15413266216E+04  0.35003005276E+04  0.31426765709E+04 0.  0.
        1    1    3    3  502    0  0.12608894648E+04 -0.56612306992E+03 -0.16032333925E+04  0.21167651933E+04  0.50400001928E-02 0.  1.
       -1    1    3    3    0  502 -0.12608894648E+04  0.56612306992E+03  0.61906770968E+02  0.13835353342E+04  0.50400001928E-02 0. -1.
</event>
<event>
 5   0  0.2226334E-06  0.3124558E+04  0.7818609E-02  0.8209030E-01
       -2   -1    0    0    0  501  0.00000000000E+00  0.00000000000E+00  0.12417200672E+04  0.12417200672E+04  0.25500000920E-02 0. -1.
        2   -1    0    0  501    0  0.00000000000E+00  0.00000000000E+00 -0.19655929821E+04  0.19655929821E+04  0.25500000920E-02 0.  1.
    10030    2    1    2    0    0  0.00000000000E+00  0.00000000000E+00 -0.72387291485E+03  0.32073130493E+04  0.31245583687E+04 0.  0.
        5    1    3    3  502    0  0.12719513622E+03 -0.14672186373E+04 -0.89707406581E+03  0.17244341396E+04  0.46999998093E+01 0.  1.
       -5    1    3    3    0  502 -0.12719513622E+03  0.14672186373E+04  0.17320115095E+03  0.14828789097E+04  0.46999998093E+01 0. -1.
</event>
<event>
 5   0  0.7519202E-07  0.3118398E+04  0.7818609E-02  0.8210707E-01
        1   -1    0    0  501    0  0.00000000000E+00  0.00000000000E+00  0.76298700420E+03  0.76298700422E+03  0.50400001928E-02 0.  1.
       -1   -1    0    0    0  501  0.00000000000E+00  0.00000000000E+00 -0.31862950901E+04  0.31862950901E+04  0.50400001928E-02 0. -1.
    10030    2    1    2    0    0  0.00000000000E+00  0.00000000000E+00 -0.24233080859E+04  0.39492820944E+04  0.31183981435E+04 0.  0.
        4    1    3    3  502    0  0.96490640221E+03  0.47229084424E+03 -0.26427921731E+04  0.28527977653E+04  0.12699999809E+01 0. -1.
       -4    1    3    3    0  502 -0.96490640221E+03 -0.47229084424E+03  0.21948408711E+03  0.10964843291E+04  0.12699999809E+01 0.  1.
</event>
<event>
 5   0  0.7413481E-07  0.3090829E+04  0.7818609E-02  0.8218259E-01
       -1   -1    0    0    0  501  0.00000000000E+00  0.00000000000E+00  0.10698017871E+04  0.10698017871E+04  0.50400001928E-02 0. -1.
        1   -1    0    0  501    0  0.00000000000E+00  0.00000000000E+00 -0.22324746739E+04  0.22324746739E+04  0.50400001928E-02 0.  1.
    10030    2    1    2    0    0  0.00000000000E+00  0.00000000000E+00 -0.11626728869E+04  0.33022764610E+04  0.30908286240E+04 0.  0.
        5    1    3    3  502    0  0.75955726623E+03  0.11741288827E+04 -0.12841996444E+04  0.18986038793E+04  0.46999998093E+01 0. -1.
       -5    1    3    3    0  502 -0.75955726623E+03 -0.11741288827E+04  0.12152675757E+03  0.14036725817E+04  0.46999998093E+01 0.  1.
</event>
<event>
 5   0  0.2133385E-06  0.3121770E+04  0.7818609E-02  0.8209789E-01
       -2   -1    0    0    0  501  0.00000000000E+00  0.00000000000E+00  0.15162852614E+04  0.15162852614E+04  0.25500000920E-02 0. -1.
        2   -1    0    0  501    0  0.00000000000E+00  0.00000000000E+00 -0.16067963573E+04  0.16067963573E+04  0.25500000920E-02 0.  1.
    10030    2    1    2    0    0  0.00000000000E+00  0.00000000000E+00 -0.90511095913E+02  0.31230816186E+04  0.31217697766E+04 0.  0.
        2    1    3    3  502    0  0.10045587346E+03  0.35648050718E+03 -0.15622013797E+04  0.16055039350E+04  0.25500000920E-02 0.  1.
       -2    1    3    3    0  502 -0.10045587346E+03 -0.35648050718E+03  0.14716902838E+04  0.15175776836E+04  0.25500000920E-02 0. -1.
</event>
<event>
 5   0  0.7519202E-07  0.3076216E+04  0.7818609E-02  0.8222296E-01
       -1   -1    0    0    0  501  0.00000000000E+00  0.00000000000E+00  0.10984834893E+04  0.10984834893E+04  0.50400001928E-02 0. -1.
        1   -1    0    0  501    0  0.00000000000E+00  0.00000000000E+00 -0.21536751774E+04  0.21536751774E+04  0.50400001928E-02 0.  1.
    10030    2    1    2    0    0  0.00000000000E+00  0.00000000000E+00 -0.10551916881E+04  0.32521586667E+04  0.30762162626E+04 0.  0.
        4    1    3    3  502    0  0.23909174045E+03  0.12070328397E+04 -0.15032447556E+04  0.19426372653E+04  0.12699999809E+01 0.  1.
       -4    1    3    3    0  502 -0.23909174045E+03 -0.12070328397E+04  0.44805306744E+03  0.13095214014E+04  0.12699999809E+01 0. -1.
</event>
<event>
 5   0  0.2226334E-06  0.3105259E+04  0.7818609E-02  0.8214296E-01
       -2   -1    0    0    0  501  0.00000000000E+00  0.00000000000E+00  0.10366208301E+04  0.10366208301E+04  0.25500000920E-02 0.  1.
        2   -1    0    0  501    0  0.00000000000E+00  0.00000000000E+00 -0.23254965930E+04  0.23254965930E+04  0.25500000920E-02 0. -1.
    10030    2    1    2    0    0  0.00000000000E+00  0.00000000000E+00 -0.12888757629E+04  0.33621174231E+04  0.31052588998E+04 0.  0.
        5    1    3    3  502    0 -0.96664101294E+03 -0.88985437754E+03 -0.15401536251E+04  0.20244334862E+04  0.46999998093E+01 0. -1.
       -5    1    3    3    0  502  0.96664101294E+03  0.88985437754E+03  0.25127786217E+03  0.13376839369E+04  0.46999998093E+01 0.  1.
</event>
<event>
 5   0  0.7413481E-07  0.3090884E+04  0.7818609E-02  0.8218244E-01
       -1   -1    0    0    0  501  0.00000000000E+00  0.00000000000E+00  0.22777409189E+04  0.22777409190E+04  0.50400001928E-02 0. -1.
        1   -1    0    0  501    0  0.00000000000E+00  0.00000000000E+00 -0.10485790063E+04  0.10485790063E+04  0.50400001928E-02 0.  1.
    10030    2    1    2    0    0  0.00000000000E+00  0.00000000000E+00  0.12291619127E+04  0.33263199252E+04  0.30908842161E+04 0.  0.
        5    1    3    3  502    0  0.64501804438E+03 -0.13992096501E+04  0.74431780709E+03  0.17111011105E+04  0.46999998093E+01 0.  1.
       -5    1    3    3    0  502 -0.64501804438E+03  0.13992096501E+04  0.48484410560E+03  0.16152188147E+04  0.46999998093E+01 0. -1.
</event>
<event>
 5   0  0.7726743E-07  0.2953147E+04  0.7818609E-02  0.8257238E-01
       -1   -1    0    0    0  501  0.00000000000E+00  0.00000000000E+00  0.17229140751E+04  0.17229140751E+04  0.50400001928E-02 0.  1.
        1   -1    0    0  501    0  0.00000000000E+00  0.00000000000E+00 -0.12654540325E+04  0.12654540325E+04  0.50400001928E-02 0. -1.
    10030    2    1    2    0    0  0.00000000000E+00  0.00000000000E+00  0.45746004260E+03  0.29883681077E+04  0.29531465010E+04 0.  0.
        1    1    3    3  502    0 -0.47131292512E+03 -0.30516926732E+03  0.16106695267E+04  0.17057316551E+04  0.50400001928E-02 0.  1.
       -1    1    3    3    0  502  0.47131292512E+03  0.30516926732E+03 -0.11532094841E+04  0.12826364525E+04  0.50400001928E-02 0. -1.
</event>
<event>
 5   0  0.2133385E-06  0.3076514E+04  0.7818609E-02  0.8222213E-01
       -2   -1    0    0    0  501  0.00000000000E+00  0.00000000000E+00  0.86117302561E+03  0.86117302561E+03  0.25500000920E-02 0.  1.
        2   -1    0    0  501    0  0.00000000000E+00  0.00000000000E+00 -0.27476879792E+04  0.27476879792E+04  0.25500000920E-02 0. -1.
    10030    2    1    2    0    0  0.00000000000E+00  0.00000000000E+00 -0.18865149536E+04  0.36088610048E+04  0.30765141121E+04 0.  0.
        2    1    3    3  502    0  0.66777051723E+02 -0.15334638131E+04 -0.10621012809E+04  0.18665555367E+04  0.25500000920E-02 0. -1.
       -2    1    3    3    0  502 -0.66777051723E+02  0.15334638131E+04 -0.82441367266E+03  0.17423054681E+04  0.25500000920E-02 0.  1.
</event>
<event>
 5   0  0.7413481E-07  0.3090533E+04  0.7818609E-02  0.8218341E-01
        1   -1    0    0  501    0  0.00000000000E+00  0.00000000000E+00  0.22638797754E+04  0.22638797754E+04  0.50400001928E-02 0. -1.
       -1   -1    0    0    0  501  0.00000000000E+00  0.00000000000E+00 -0.10547592121E+04  0.10547592121E+04  0.50400001928E-02 0.  1.
    10030    2    1    2    0    0  0.00000000000E+00  0.00000000000E+00  0.12091205633E+04  0.33186389874E+04  0.30905326713E+04 0.  0.
        5    1    3    3  502    0  0.18828342025E+03 -0.42674502007E+03  0.21864745932E+04  0.22356777932E+04  0.46999998093E+01 0. -1.
       -5    1    3    3    0  502 -0.18828342025E+03  0.42674502007E+03 -0.97735402987E+03  0.10829611942E+04  0.46999998093E+01 0.  1.
</event>
<event>
 5   0  0.2067926E-06  0.3036401E+04  0.7818609E-02  0.8233412E-01
       -2   -1    0    0    0  501  0.00000000000E+00  0.00000000000E+00  0.94847781296E+03  0.94847781297E+03  0.25500000920E-02 0. -1.
        2   -1    0    0  501    0  0.00000000000E+00  0.00000000000E+00 -0.24301391345E+04  0.24301391345E+04  0.25500000920E-02 0.  1.
    10030    2    1    2    0    0  0.00000000000E+00  0.00000000000E+00 -0.14816613215E+04  0.33786169475E+04  0.30364011932E+04 0.  0.
        1    1    3    3  502    0 -0.10009740331E+04  0.25426183233E+03 -0.19790536677E+04  0.22323197607E+04  0.50400001928E-02 0.  1.
       -1    1    3    3    0  502  0.10009740331E+04 -0.25426183233E+03  0.49739234616E+03  0.11462971868E+04  0.50400001928E-02 0. -1.
</event>
<event>
 5   0  0.7726743E-07  0.3096975E+04  0.7818609E-02  0.8216569E-01
        1   -1    0    0  501    0  0.00000000000E+00  0.00000000000E+00  0.72604688007E+03  0.72604688008E+03  0.50400001928E-02 0.  1.
       -1   -1    0    0    0  501  0.00000000000E+00  0.00000000000E+00 -0.33025603199E+04  0.33025603199E+04  0.50400001928E-02 0. -1.
    10030    2    1    2    0    0  0.00000000000E+00  0.00000000000E+00 -0.25765134398E+04  0.40286072000E+04  0.30969750509E+04 0.  0.
        1    1    3    3  502    0 -0.43099910093E+03  0.39772061251E+03 -0.31525055272E+04  0.32065921178E+04  0.50400001928E-02 0. -1.
       -1    1    3    3    0  502  0.43099910093E+03 -0.39772061251E+03  0.57599208739E+03  0.82201508221E+03  0.50400001928E-02 0.  1.
</event>
<event>
 5   0  0.7656332E-07  0.3101188E+04  0.7818609E-02  0.8215412E-01
       -1   -1    0    0    0  501  0.00000000000E+00  0.00000000000E+00  0.12469357220E+04  0.12469357220E+04  0.50400001928E-02 0. -1.
        1   -1    0    0  501    0  0.00000000000E+00  0.00000000000E+00 -0.19281999461E+04  0.19281999461E+04  0.50400001928E-02 0.  1.
    10030    2    1    2    0    0  0.00000000000E+00  0.00000000000E+00 -0.68126422408E+03  0.31751356681E+04  0.31011877673E+04 0.  0.
        2    1    3    3  502    0  0.25057237975E+03  0.61494171906E+03 -0.17752584179E+04  0.18953844691E+04  0.25500000920E-02 0.  1.
       -2    1    3    3    0  502 -0.25057237975E+03 -0.61494171906E+03  0.10939941938E+04  0.12797511990E+04  0.25500000920E-02 0. -1.
</event>
<event>
 5   0  0.2094135E-06  0.3087444E+04  0.7818609E-02  0.8219192E-01
        2   -1    0    0  501    0  0.00000000000E+00  0.00000000000E+00  0.15348300512E+04  0.15348300512E+04  0.25500000920E-02 0. -1.
       -2   -1    0    0    0  501  0.00000000000E+00  0.00000000000E+00 -0.15526659337E+04  0.15526659337E+04  0.25500000920E-02 0.  1.
    10030    2    1    2    0    0  0.00000000000E+00  0.00000000000E+00 -0.17835882520E+02  0.30874959849E+04  0.30874444672E+04 0.  0.
        4    1    3    3  502    0  0.15110074661E+04  0.30665512530E+03 -0.85703290330E+02  0.15441915669E+04  0.12699999809E+01 0. -1.
       -4    1    3    3    0  502 -0.15110074661E+04 -0.30665512530E+03  0.67867407810E+02  0.15433044180E+04  0.12699999809E+01 0.  1.
</event>
<event>
 5   0  0.2133385E-06  0.2975805E+04  0.7818609E-02  0.8250674E-01
       -2   -1    0    0    0  501  0.00000000000E+00  0.00000000000E+00  0.98660810248E+03  0.98660810249E+03  0.25500000920E-02 0.  1.
        2   -1    0    0  501    0  0.00000000000E+00  0.00000000000E+00 -0.22439042789E+04  0.22439042789E+04  0.25500000920E-02 0. -1.
    10030    2    1    2    0    0  0.00000000000E+00  0.00000000000E+00 -0.12572961764E+04  0.32305123813E+04  0.29758051971E+04 0.  0.
        2    1    3    3  502    0 -0.69506955417E+03 -0.86320653429E+03 -0.17063999646E+04  0.20347108014E+04  0.25500000920E-02 0. -1.
       -2    1    3    3    0  502  0.69506955417E+03  0.86320653429E+03  0.44910378826E+03  0.11958015800E+04  0.25500000920E-02 0.  1.
</event>
<event>
 5   0  0.2094135E-06  0.3114212E+04  0.7818609E-02  0.8211848E-01
        2   -1    0    0  501    0  0.00000000000E+00  0.00000000000E+00  0.14089318140E+04  0.14089318140E+04  0.25500000920E-02 0.  1.
       -2   -1    0    0    0  501  0.00000000000E+00  0.00000000000E+00 -0.17208629389E+04  0.17208629389E+04  0.25500000920E-02 0. -1.
    10030    2    1    2    0    0  0.00000000000E+00  0.00000000000E+00 -0.31193112491E+03  0.31297947530E+04  0.31142116449E+04 0.  0.
        4    1    3    3  502    0  0.64354496898E+03  0.12531012396E+04  0.51080287844E+03  0.14984438720E+04  0.12699999809E+01 0.  1.
       -4    1    3    3    0  502 -0.64354496898E+03 -0.12531012396E+04 -0.82273400334E+03  0.16313508810E+04  0.12699999809E+01 0. -1.
</event>
<event>
 5   0  0.7656332E-07  0.3124875E+04  0.7818609E-02  0.8208944E-01
        1   -1    0    0  501    0  0.00000000000E+00  0.00000000000E+00  0.11991506630E+04  0.11991506630E+04  0.50400001928E-02 0. -1.
       -1   -1    0    0    0  501  0.00000000000E+00  0.00000000000E+00 -0.20357829180E+04  0.20357829181E+04  0.50400001928E-02 0.  1.
    10030    2    1    2    0    0  0.00000000000E+00  0.00000000000E+00 -0.83663225503E+03  0.32349335811E+04  0.31248746765E+04 0.  0.
        2    1    3    3  502    0  0.11211323271E+04 -0.10698661068E+04 -0.21215582767E+03  0.15641487386E+04  0.25500000920E-02 0.  1.
       -2    1    3    3    0  502 -0.11211323271E+04  0.10698661068E+04 -0.62447642736E+03  0.16707848424E+04  0.25500000920E-02 0. -1.
</event>
<event>
 5   0  0.2067926E-06  0.3134169E+04  0.7818609E-02  0.8206423E-01
       -2   -1    0    0    0  501  0.00000000000E+00  0.00000000000E+00  0.14590694937E+04  0.14590694937E+04  0.25500000920E-02 0. -1.
        2   -1    0    0  501    0  0.00000000000E+00  0.00000000000E+00 -0.16830962944E+04  0.16830962944E+04  0.25500000920E-02 0.  1.
    10030    2    1    2    0    0  0.00000000000E+00  0.00000000000E+00 -0.22402680068E+03  0.31421657880E+04  0.31341694007E+04 0.  0.
        1    1    3    3  502    0 -0.12648906710E+04 -0.91530307555E+03  0.22591313424E+02  0.15614859900E+04  0.50400001928E-02 0. -1.
       -1    1    3    3    0  502  0.12648906710E+04  0.91530307555E+03 -0.24661811410E+03  0.15806797980E+04  0.50400001928E-02 0.  1.
</event>
<event>
 5   0  0.7519202E-07  0.3052836E+04  0.7818609E-02  0.8228802E-01
        1   -1    0    0  501    0  0.00000000000E+00  0.00000000000E+00  0.14711355844E+04  0.14711355844E+04  0.50400001928E-02 0.  1.
       -1   -1    0    0    0  501  0.00000000000E+00  0.00000000000E+00 -0.15837782166E+04  0.15837782166E+04  0.50400001928E-02 0. -1.
    10030    2    1    2    0    0  0.00000000000E+00  0.00000000000E+00 -0.11264263221E+03  0.30549138010E+04  0.30528363810E+04 0.  0.
        4    1    3    3  502    0  0.13010437575E+04 -0.79537664533E+03 -0.12427932800E+03  0.15299626895E+04  0.12699999809E+01 0. -1.
       -4    1    3    3    0  502 -0.13010437575E+04  0.79537664533E+03  0.11636695787E+02  0.15249511115E+04  0.12699999809E+01 0.  1.
</event>
<event>
 5   0  0.7656332E-07  0.3089873E+04  0.7818609E-02  0.8218523E-01
       -1   -1    0    0    0  501  0.00000000000E+00  0.00000000000E+00  0.21878893754E+04  0.21878893754E+04  0.50400001928E-02 0.  1.
        1   -1    0    0  501    0  0.00000000000E+00  0.00000000000E+00 -0.10909272607E+04  0.10909272607E+04  0.50400001928E-02 0. -1.
    10030    2    1    2    0    0  0.00000000000E+00  0.00000000000E+00  0.10969621148E+04  0.32788166361E+04  0.30898725948E+04 0.  0.
        2    1    3    3  502    0 -0.25169797254E+03  0.13379372920E+04 -0.22652144074E+03  0.13801231937E+04  0.25500000920E-02 0. -1.
       -2    1    3    3    0  502  0.25169797254E+03 -0.13379372920E+04  0.13234835555E+04  0.18986934424E+04  0.25500000920E-02 0.  1.
</event>
<event>
 5   0  0.7726743E-07  0.3094002E+04  0.7818609E-02  0.8217386E-01
        1   -1    0    0  501    0  0.00000000000E+00  0.00000000000E+00  0.20978708847E+04  0.20978708847E+04  0.50400001928E-02 0. -1.
       -1   -1    0    0    0  501  0.00000000000E+00  0.00000000000E+00 -0.11407811416E+04  0.11407811417E+04  0.50400001928E-02 0.  1.
    10030    2    1    2    0    0  0.00000000000E+00  0.00000000000E+00  0.95708974305E+03  0.32386520264E+04  0.30940016438E+04 0.  0.
        1    1    3    3  502    0  0.93556133144E+03 -0.10951542675E+04 -0.11226628325E+03  0.14447288994E+04  0.50400001928E-02 0. -1.
       -1    1    3    3    0  502 -0.93556133144E+03  0.10951542675E+04  0.10693560263E+04  0.17939231270E+04  0.50400001928E-02 0.  1.
</event>
<event>
 5   0  0.2067926E-06  0.3055631E+04  0.7818609E-02  0.8228021E-01
       -2   -1    0    0    0  501  0.00000000000E+00  0.00000000000E+00  0.10568231496E+04  0.10568231496E+04  0.25500000920E-02 0. -1.
        2   -1    0    0  501    0  0.00000000000E+00  0.00000000000E+00 -0.22087139395E+04  0.22087139395E+04  0.25500000920E-02 0.  1.
    10030    2    1    2    0    0  0.00000000000E+00  0.00000000000E+00 -0.11518907899E+04  0.32655370891E+04  0.30556308822E+04 0.  0.
        1    1    3    3  502    0 -0.27693087917E+03 -0.13778757602E+04  0.64369366841E+02  0.14069028886E+04  0.50400001928E-02 0. -1.
       -1    1    3    3    0  502  0.27693087917E+03  0.13778757602E+04 -0.12162601567E+04  0.18586342005E+04  0.50400001928E-02 0.  1.
</event>
<event>
 5   0  0.7561815E-07  0.3098335E+04  0.7818609E-02  0.8216195E-01
        1   -1    0    0  501    0  0.00000000000E+00  0.00000000000E+00  0.10945538320E+04  0.10945538320E+04  0.50400001928E-02 0. -1.
       -1   -1    0    0    0  501  0.00000000000E+00  0.00000000000E+00 -0.21926004229E+04  0.21926004229E+04  0.50400001928E-02 0.  1.
    10030    2    1    2    0    0  0.00000000000E+00  0.00000000000E+00 -0.10980465909E+04  0.32871542549E+04  0.30983345171E+04 0.  0.
        3    1    3    3  502    0  0.81774912372E+03 -0.12244676401E+04 -0.38132957354E+02  0.14729184511E+04  0.10100000352E+00 0. -1.
       -3    1    3    3    0  502 -0.81774912372E+03  0.12244676401E+04 -0.10599136335E+04  0.18142358038E+04  0.10100000352E+00 0.  1.
</event>
<event>
 5   0  0.7413481E-07  0.3046192E+04  0.7818609E-02  0.8230662E-01
       -1   -1    0    0    0  501  0.00000000000E+00  0.00000000000E+00  0.18441646817E+04  0.18441646817E+04  0.50400001928E-02 0.  1.
        1   -1    0    0  501    0  0.00000000000E+00  0.00000000000E+00 -0.12579254490E+04  0.12579254491E+04  0.50400001928E-02 0. -1.
    10030    2    1    2    0    0  0.00000000000E+00  0.00000000000E+00  0.58623923266E+03  0.31020901308E+04  0.30461921708E+04 0.  0.
        5    1    3    3  502    0 -0.14930468490E+04  0.76497474188E+02 -0.33564314666E+01  0.14950164255E+04  0.46999998093E+01 0. -1.
       -5    1    3    3    0  502  0.14930468490E+04 -0.76497474188E+02  0.58959566412E+03  0.16070737052E+04  0.46999998093E+01 0.  1.
</event>
<event>
 5   0  0.7561815E-07  0.3113251E+04  0.7818609E-02  0.8212111E-01
        1   -1    0    0  501    0  0.00000000000E+00  0.00000000000E+00  0.15271891186E+04  0.15271891186E+04  0.50400001928E-02 0. -1.
       -1   -1    0    0    0  501  0.00000000000E+00  0.00000000000E+00 -0.15866288899E+04  0.15866288899E+04  0.50400001928E-02 0.  1.
    10030    2    1    2    0    0  0.00000000000E+00  0.00000000000E+00 -0.59439771357E+02  0.31138180085E+04  0.31132506330E+04 0.  0.
        3    1    3    3  502    0  0.96464914950E+03  0.63752119057E+03  0.10126317947E+04  0.15370115198E+04  0.10100000352E+00 0. -1.
       -3    1    3    3    0  502 -0.96464914950E+03 -0.63752119057E+03 -0.10720715661E+04  0.15768064888E+04  0.10100000352E+00 0.  1.
</event>
<event>
 5   0  0.2133385E-06  0.3079208E+04  0.7818609E-02  0.8221467E-01
        2   -1    0    0  501    0  0.00000000000E+00  0.00000000000E+00  0.21752359421E+04  0.21752359421E+04  0.25500000920E-02 0.  1.
       -2   -1    0    0    0  501  0.00000000000E+00  0.00000000000E+00 -0.10897115750E+04  0.10897115750E+04  0.25500000920E-02 0. -1.
    10030    2    1    2    0    0  0.00000000000E+00  0.00000000000E+00  0.10855243671E+04  0.32649475171E+04  0.30792075503E+04 0.  0.
        2    1    3    3  502    0  0.15076729759E+04 -0.29624086216E+03  0.64634490141E+03  0.16669127698E+04  0.25500000920E-02 0. -1.
       -2    1    3    3    0  502 -0.15076729759E+04  0.29624086216E+03  0.43917946565E+03  0.15980347473E+04  0.25500000920E-02 0.  1.
</event>
<event>
 5   0  0.2133385E-06  0.3095029E+04  0.7818609E-02  0.8217103E-01
        2   -1    0    0  501    0  0.00000000000E+00  0.00000000000E+00  0.24606651113E+04  0.24606651113E+04  0.25500000920E-02 0. -1.
       -2   -1    0    0    0  501  0.00000000000E+00  0.00000000000E+00 -0.97323330099E+03  0.97323330099E+03  0.25500000920E-02 0.  1.
    10030    2    1    2    0    0  0.00000000000E+00  0.00000000000E+00  0.14874318104E+04  0.34338984123E+04  0.30950290654E+04 0.  0.
        2    1    3    3  502    0  0.91789779742E+03  0.79272262186E+03 -0.32269550729E+03  0.12550210804E+04  0.25500000920E-02 0.  1.
       -2    1    3    3    0  502 -0.91789779742E+03 -0.79272262186E+03  0.18101273176E+04  0.21788773320E+04  0.25500000920E-02 0. -1.
</event>
<event>
 5   0  0.2094135E-06  0.3074660E+04  0.7818609E-02  0.8222727E-01
       -2   -1    0    0    0  501  0.00000000000E+00  0.00000000000E+00  0.10087279139E+04  0.10087279139E+04  0.25500000920E-02 0.  1.
        2   -1    0    0  501    0  0.00000000000E+00  0.00000000000E+00 -0.23429351966E+04  0.23429351966E+04  0.25500000920E-02 0. -1.
    10030    2    1    2    0    0  0.00000000000E+00  0.00000000000E+00 -0.13342072827E+04  0.33516631106E+04  0.30746603932E+04 0.  0.
        4    1    3    3  502    0  0.20173127741E+03  0.14871142789E+04 -0.10305772609E+04  0.18205206646E+04  0.12699999809E+01 0.  1.
       -4    1    3    3    0  502 -0.20173127741E+03 -0.14871142789E+04 -0.30363002181E+03  0.15311424460E+04  0.12699999809E+01 0. -1.
</event>
<event>
 5   0  0.6979625E-07  0.3103755E+04  0.7818609E-02  0.8214708E-01
       -3   -1    0    0    0  501  0.00000000000E+00  0.00000000000E+00  0.14242145721E+04  0.14242145756E+04  0.10100000352E+00 0. -1.
        3   -1    0    0  501    0  0.00000000000E+00  0.00000000000E+00 -0.16909838512E+04  0.16909838542E+04  0.10100000352E+00 0.  1.
    10030    2    1    2    0    0  0.00000000000E+00  0.00000000000E+00 -0.26676927916E+03  0.31151984299E+04  0.31037550498E+04 0.  0.
        3    1    3    3  502    0  0.12215308203E+04  0.13462675846E+03 -0.10845399131E+04  0.16390511713E+04  0.10100000352E+00 0.  1.
       -3    1    3    3    0  502 -0.12215308203E+04 -0.13462675846E+03  0.81777063394E+03  0.14761472585E+04  0.10100000352E+00 0. -1.
</event>
<event>
 5   0  0.7561815E-07  0.3056437E+04  0.7818609E-02  0.8227796E-01
       -1   -1    0    0    0  501  0.00000000000E+00  0.00000000000E+00  0.11529328184E+04  0.11529328185E+04  0.50400001928E-02 0. -1.
        1   -1    0    0  501    0  0.00000000000E+00  0.00000000000E+00 -0.20256620456E+04  0.20256620456E+04  0.50400001928E-02 0.  1.
    10030    2    1    2    0    0  0.00000000000E+00  0.00000000000E+00 -0.87272922712E+03  0.31785948640E+04  0.30564373061E+04 0.  0.
        3    1    3    3  502    0 -0.65910546243E+03 -0.88604245390E+03  0.66224702151E+03  0.12876577062E+04  0.10100000352E+00 0.  1.
       -3    1    3    3    0  502  0.65910546243E+03  0.88604245390E+03 -0.15349762486E+04  0.18909371578E+04  0.10100000352E+00 0. -1.
</event>
<event>
 5   0  0.7519202E-07  0.3000827E+04  0.7818609E-02  0.8243495E-01
        1   -1    0    0  501    0  0.00000000000E+00  0.00000000000E+00  0.27821439692E+04  0.27821439692E+04  0.50400001928E-02 0. -1.
       -1   -1    0    0    0  501  0.00000000000E+00  0.00000000000E+00 -0.80917460954E+03  0.80917460955E+03  0.50400001928E-02 0.  1.
    10030    2    1    2    0    0  0.00000000000E+00  0.00000000000E+00  0.19729693597E+04  0.35913185788E+04  0.30008267261E+04 0.  0.
        4    1    3    3  502    0  0.27470918808E+01 -0.17735496312E+03 -0.79658214602E+03  0.81609255463E+03  0.12699999809E+01 0.  1.
       -4    1    3    3    0  502 -0.27470918808E+01  0.17735496312E+03  0.27695515057E+04  0.27752260241E+04  0.12699999809E+01 0. -1.
</event>
<event>
 5   0  0.2226334E-06  0.2959368E+04  0.7818609E-02  0.8255430E-01
        2   -1    0    0  501    0  0.00000000000E+00  0.00000000000E+00  0.18157206544E+04  0.18157206544E+04  0.25500000920E-02 0. -1.
       -2   -1    0    0    0  501  0.00000000000E+00  0.00000000000E+00 -0.12058377587E+04  0.12058377587E+04  0.25500000920E-02 0.  1.
    10030    2    1    2    0    0  0.00000000000E+00  0.00000000000E+00  0.60988289564E+03  0.30215584131E+04  0.29593678544E+04 0.  0.
        5    1    3    3  502    0 -0.29885897415E+03 -0.31725496485E+03 -0.11388020306E+04  0.12193685062E+04  0.46999998093E+01 0.  1.
       -5    1    3    3    0  502  0.29885897415E+03  0.31725496485E+03  0.17486849262E+04  0.18021899069E+04  0.46999998093E+01 0. -1.
</event>
<event>
 5   0  0.7413481E-07  0.3101719E+04  0.7818609E-02  0.8215266E-01
       -1   -1    0    0    0  501  0.00000000000E+00  0.00000000000E+00  0.17879454888E+04  0.17879454888E+04  0.50400001928E-02 0.  1.
        1   -1    0    0  501    0  0.00000000000E+00  0.00000000000E+00 -0.13452117009E+04  0.13452117010E+04  0.50400001928E-02 0. -1.
    10030    2    1    2    0    0  0.00000000000E+00  0.00000000000E+00  0.44273378786E+03  0.31331571898E+04  0.31017190022E+04 0.  0.
        5    1    3    3  502    0 -0.47837443843E+03 -0.67013057671E+03 -0.11061935930E+04  0.13789863844E+04  0.46999998093E+01 0. -1.
       -5    1    3    3    0  502  0.47837443843E+03  0.67013057671E+03  0.15489273809E+04  0.17541708054E+04  0.46999998093E+01 0.  1.
</event>
<event>
 5   0  0.7656332E-07  0.3075230E+04  0.7818609E-02  0.8222569E-01
        1   -1    0    0  501    0  0.00000000000E+00  0.00000000000E+00  0.16587007678E+04  0.16587007678E+04  0.50400001928E-02 0.  1.
       -1   -1    0    0    0  501  0.00000000000E+00  0.00000000000E+00 -0.14253686441E+04  0.14253686441E+04  0.50400001928E-02 0. -1.
    10030    2    1    2    0    0  0.00000000000E+00  0.00000000000E+00  0.23333212364E+03  0.30840694119E+04  0.30752301145E+04 0.  0.
        2    1    3    3  502    0 -0.10411428490E+03  0.15136962577E+04  0.36666942170E+03  0.15609492656E+04  0.25500000920E-02 0. -1.
       -2    1    3    3    0  502  0.10411428490E+03 -0.15136962577E+04 -0.13333729806E+03  0.15231201463E+04  0.25500000920E-02 0.  1.
</event>
<event>
 5   0  0.2078009E-06  0.3120469E+04  0.7818609E-02  0.8210143E-01
        2   -1    0    0  501    0  0.00000000000E+00  0.00000000000E+00  0.13066671159E+04  0.13066671159E+04  0.25500000920E-02 0. -1.
       -2   -1    0    0    0  501  0.00000000000E+00  0.00000000000E+00 -0.18630085067E+04  0.18630085067E+04  0.25500000920E-02 0.  1.
    10030    2    1    2    0    0  0.00000000000E+00  0.00000000000E+00 -0.55634139084E+03  0.31696756226E+04  0.31204691650E+04 0.  0.
        3    1    3    3  502    0 -0.49151615140E+03 -0.12955406100E+04 -0.10066394539E+04  0.17126986307E+04  0.10100000352E+00 0. -1.
       -3    1    3    3    0  502  0.49151615140E+03  0.12955406100E+04  0.45029806307E+03  0.14569769919E+04  0.10100000352E+00 0.  1.
</event>
<event>
 5   0  0.7561815E-07  0.3104473E+04  0.7818609E-02  0.8214511E-01
        1   -1    0    0  501    0  0.00000000000E+00  0.00000000000E+00  0.22223969269E+04  0.22223969270E+04  0.50400001928E-02 0.  1.
       -1   -1    0    0    0  501  0.00000000000E+00  0.00000000000E+00 -0.10841620171E+04  0.10841620171E+04  0.50400001928E-02 0. -1.
    10030    2    1    2    0    0  0.00000000000E+00  0.00000000000E+00  0.11382349099E+04  0.33065589441E+04  0.31044731180E+04 0.  0.
        3    1    3    3  502    0  0.97960586060E+03  0.44013780907E+03  0.17628269252E+04  0.20641966262E+04  0.10100000352E+00 0.  1.
       -3    1    3    3    0  502 -0.97960586060E+03 -0.44013780907E+03 -0.62459201535E+03  0.12423623179E+04  0.10100000352E+00 0. -1.
</event>
<event>
 5   0  0.7561815E-07  0.3160782E+04  0.7818609E-02  0.8199252E-01
       -1   -1    0    0    0  501  0.00000000000E+00  0.00000000000E+00  0.11671570591E+04  0.11671570591E+04  0.50400001928E-02 0.  1.
        1   -1    0    0  501    0  0.00000000000E+00  0.00000000000E+00 -0.21399312056E+04  0.21399312056E+04  0.50400001928E-02 0. -1.
    10030    2    1    2    0    0  0.00000000000E+00  0.00000000000E+00 -0.97277414646E+03  0.33070882647E+04  0.31607820631E+04 0.  0.
        3    1    3    3  502    0  0.46782991753E+03 -0.10136219351E+04  0.68402600384E+03  0.13092692020E+04  0.10100000352E+00 0.  1.
       -3    1    3    3    0  502 -0.46782991753E+03  0.10136219351E+04 -0.16568001503E+04  0.19978190627E+04  0.10100000352E+00 0. -1.
</event>
<event>
 5   0  0.7561815E-07  0.3080988E+04  0.7818609E-02  0.8220975E-01
        1   -1    0    0  501    0  0.00000000000E+00  0.00000000000E+00  0.16548198637E+04  0.16548198637E+04  0.50400001928E-02 0. -1.
       -1   -1    0    0    0  501  0.00000000000E+00  0.00000000000E+00 -0.14340664830E+04  0.14340664831E+04  0.50400001928E-02 0.  1.
    10030    2    1    2    0    0  0.00000000000E+00  0.00000000000E+00  0.22075338068E+03  0.30888863468E+04  0.30809879598E+04 0.  0.
        3    1    3    3  502    0 -0.90253603129E+03 -0.75795887920E+03  0.11049120602E+04  0.16155196134E+04  0.10100000352E+00 0. -1.
       -3    1    3    3    0  502  0.90253603129E+03  0.75795887920E+03 -0.88415867950E+03  0.14733667334E+04  0.10100000352E+00 0.  1.
</event>
<event>
 5   0  0.6979625E-07  0.3126418E+04  0.7818609E-02  0.8208525E-01
        4   -1    0    0  501    0  0.00000000000E+00  0.00000000000E+00  0.21046394466E+04  0.21046398297E+04  0.12699999809E+01 0. -1.
       -4   -1    0    0    0  501  0.00000000000E+00  0.00000000000E+00 -0.11610640670E+04  0.11610647616E+04  0.12699999809E+01 0.  1.
    10030    2    1    2    0    0  0.00000000000E+00  0.00000000000E+00  0.94357537954E+03  0.32657045914E+04  0.31264183951E+04 0.  0.
        4    1    3    3  502    0 -0.46261069664E+03  0.99694705618E+03  0.16329366988E+04  0.19683485374E+04  0.12699999809E+01 0. -1.
       -4    1    3    3    0  502  0.46261069664E+03 -0.99694705618E+03 -0.68936131923E+03  0.12973560540E+04  0.12699999809E+01 0.  1.
</event>
<event>
 5   0  0.7519202E-07  0.3127817E+04  0.7818609E-02  0.8208145E-01
        1   -1    0    0  501    0  0.00000000000E+00  0.00000000000E+00  0.19045580408E+04  0.19045580409E+04  0.50400001928E-02 0. -1.
       -1   -1    0    0    0  501  0.00000000000E+00  0.00000000000E+00 -0.12841878978E+04  0.12841878978E+04  0.50400001928E-02 0.  1.
    10030    2    1    2    0    0  0.00000000000E+00  0.00000000000E+00  0.62037014302E+03  0.31887459387E+04  0.31278173775E+04 0.  0.
        4    1    3    3  502    0 -0.24227823457E+03  0.82445661488E+03  0.16423064351E+04  0.18535370222E+04  0.12699999809E+01 0. -1.
       -4    1    3    3    0  502  0.24227823457E+03 -0.82445661488E+03 -0.10219362921E+04  0.13352089165E+04  0.12699999809E+01 0.  1.
</event>
<event>
 5   0  0.7519202E-07  0.3108671E+04  0.7818609E-02  0.8213362E-01
        1   -1    0    0  501    0  0.00000000000E+00  0.00000000000E+00  0.16750090889E+04  0.16750090889E+04  0.50400001928E-02 0.  1.
       -1   -1    0    0    0  501  0.00000000000E+00  0.00000000000E+00 -0.14423557375E+04  0.14423557375E+04  0.50400001928E-02 0. -1.
    10030    2    1    2    0    0  0.00000000000E+00  0.00000000000E+00  0.23265335134E+03  0.31173648264E+04  0.31086710793E+04 0.  0.
        4    1    3    3  502    0  0.13048720906E+04  0.82393439437E+03 -0.69659786559E+02  0.15448019802E+04  0.12699999809E+01 0. -1.
       -4    1    3    3    0  502 -0.13048720906E+04 -0.82393439437E+03  0.30231313789E+03  0.15725628463E+04  0.12699999809E+01 0.  1.
</event>
<event>
 5   0  0.2078009E-06  0.3102229E+04  0.7818609E-02  0.8215126E-01
        2   -1    0    0  501    0  0.00000000000E+00  0.00000000000E+00  0.21161287498E+04  0.21161287498E+04  0.25500000920E-02 0. -1.
       -2   -1    0    0    0  501  0.00000000000E+00  0.00000000000E+00 -0.11369613615E+04  0.11369613615E+04  0.25500000920E-02 0.  1.
    10030    2    1    2    0    0  0.00000000000E+00  0.00000000000E+00  0.97916738825E+03  0.32530901113E+04  0.31022292787E+04 0.  0.
        3    1    3    3  502    0  0.15229447986E+04  0.29219264547E+03  0.52619893696E+03  0.16375661004E+04  0.10100000352E+00 0.  1.
       -3    1    3    3    0  502 -0.15229447986E+04 -0.29219264547E+03  0.45296845129E+03  0.16155240109E+04  0.10100000352E+00 0. -1.
</event>
<event>
 5   0  0.2094135E-06  0.3047002E+04  0.7818609E-02  0.8230435E-01
        2   -1    0    0  501    0  0.00000000000E+00  0.00000000000E+00  0.28127663029E+04  0.28127663029E+04  0.25500000920E-02 0. -1.
       -2   -1    0    0    0  501  0.00000000000E+00  0.00000000000E+00 -0.82518598322E+03  0.82518598322E+03  0.25500000920E-02 0.  1.
    10030    2    1    2    0    0  0.00000000000E+00  0.00000000000E+00  0.19875803197E+04  0.36379522862E+04  0.30470020199E+04 0.  0.
        4    1    3    3  502    0  0.67455905631E+03 -0.13514589518E+04  0.75625065776E+03  0.16891974098E+04  0.12699999809E+01 0. -1.
       -4    1    3    3    0  502 -0.67455905631E+03  0.13514589518E+04  0.12313296620E+04  0.19487548764E+04  0.12699999809E+01 0.  1.
</event>
<event>
 5   0  0.2094135E-06  0.3098042E+04  0.7818609E-02  0.8216275E-01
       -2   -1    0    0    0  501  0.00000000000E+00  0.00000000000E+00  0.94447476042E+03  0.94447476042E+03  0.25500000920E-02 0. -1.
        2   -1    0    0  501    0  0.00000000000E+00  0.00000000000E+00 -0.25405296420E+04  0.25405296420E+04  0.25500000920E-02 0.  1.
    10030    2    1    2    0    0  0.00000000000E+00  0.00000000000E+00 -0.15960548816E+04  0.34850044024E+04  0.30980420430E+04 0.  0.
        4    1    3    3  502    0  0.13133078562E+04  0.22270791917E+03 -0.16874060169E+04  0.21498179042E+04  0.12699999809E+01 0.  1.
       -4    1    3    3    0  502 -0.13133078562E+04 -0.22270791917E+03  0.91351135285E+02  0.13351864983E+04  0.12699999809E+01 0. -1.
</event>
<event>
 5   0  0.7413481E-07  0.3088933E+04  0.7818609E-02  0.8218782E-01
        1   -1    0    0  501    0  0.00000000000E+00  0.00000000000E+00  0.21390170651E+04  0.21390170651E+04  0.50400001928E-02 0.  1.
       -1   -1    0    0    0  501  0.00000000000E+00  0.00000000000E+00 -0.11151739170E+04  0.11151739170E+04  0.50400001928E-02 0. -1.
    10030    2    1    2    0    0  0.00000000000E+00  0.00000000000E+00  0.10238431482E+04  0.32541909821E+04  0.30889325270E+04 0.  0.
        5    1    3    3  502    0  0.61707011698E+03  0.10229184078E+04 -0.51933422558E+03  0.13026387550E+04  0.46999998093E+01 0. -1.
       -5    1    3    3    0  502 -0.61707011698E+03 -0.10229184078E+04  0.15431773737E+04  0.19515522271E+04  0.46999998093E+01 0.  1.
</event>
<event>
 5   0  0.7561815E-07  0.3124512E+04  0.7818609E-02  0.8209043E-01
       -1   -1    0    0    0  501  0.00000000000E+00  0.00000000000E+00  0.31632565057E+04  0.31632565057E+04  0.50400001928E-02 0. -1.
        1   -1    0    0  501    0  0.00000000000E+00  0.00000000000E+00 -0.77156047821E+03  0.77156047822E+03  0.50400001928E-02 0.  1.
    10030    2    1    2    0    0  0.00000000000E+00  0.00000000000E+00  0.23916960275E+04  0.39348169839E+04  0.31245119313E+04 0.  0.
        3    1    3    3  502    0  0.15309640719E+04  0.26380569719E+03  0.98815548732E+03  0.18411669431E+04  0.10100000352E+00 0.  1.
       -3    1    3    3    0  502 -0.15309640719E+04 -0.26380569719E+03  0.14035405402E+04  0.20936500408E+04  0.10100000352E+00 0. -1.
</event>
<event>
 5   0  0.2094135E-06  0.3104804E+04  0.7818609E-02  0.8214421E-01
        2   -1    0    0  501    0  0.00000000000E+00  0.00000000000E+00  0.19360610257E+04  0.19360610257E+04  0.25500000920E-02 0.  1.
       -2   -1    0    0    0  501  0.00000000000E+00  0.00000000000E+00 -0.12447703289E+04  0.12447703289E+04  0.25500000920E-02 0. -1.
    10030    2    1    2    0    0  0.00000000000E+00  0.00000000000E+00  0.69129069682E+03  0.31808313546E+04  0.31048035813E+04 0.  0.
        4    1    3    3  502    0 -0.11353386639E+04  0.10526429540E+04  0.22929212716E+03  0.15651286091E+04  0.12699999809E+01 0. -1.
       -4    1    3    3    0  502  0.11353386639E+04 -0.10526429540E+04  0.46199856965E+03  0.16157027455E+04  0.12699999809E+01 0.  1.
</event>
<event>
 5   0  0.2226334E-06  0.3031703E+04  0.7818609E-02  0.8234735E-01
       -2   -1    0    0    0  501  0.00000000000E+00  0.00000000000E+00  0.19240632588E+04  0.19240632588E+04  0.25500000920E-02 0.  1.
        2   -1    0    0  501    0  0.00000000000E+00  0.00000000000E+00 -0.11942462877E+04  0.11942462877E+04  0.25500000920E-02 0. -1.
    10030    2    1    2    0    0  0.00000000000E+00  0.00000000000E+00  0.72981697111E+03  0.31183095465E+04  0.30317027586E+04 0.  0.
        5    1    3    3  502    0  0.10544577411E+04  0.53866659433E+03 -0.60856405936E+03  0.13313208223E+04  0.46999998093E+01 0. -1.
       -5    1    3    3    0  502 -0.10544577411E+04 -0.53866659433E+03  0.13383810305E+04  0.17869887242E+04  0.46999998093E+01 0.  1.
</event>
<event>
 5   0  0.7413481E-07  0.3093528E+04  0.7818609E-02  0.8217516E-01
       -1   -1    0    0    0  501  0.00000000000E+00  0.00000000000E+00  0.15391610995E+04  0.15391610995E+04  0.50400001928E-02 0.  1.
        1   -1    0    0  501    0  0.00000000000E+00  0.00000000000E+00 -0.15544044756E+04  0.15544044756E+04  0.50400001928E-02 0. -1.
    10030    2    1    2    0    0  0.00000000000E+00  0.00000000000E+00 -0.15243376019E+02  0.30935655751E+04  0.30935280194E+04 0.  0.
        5    1    3    3  502    0  0.11246073349E+04  0.79765508176E+03  0.69342999159E+03  0.15433283936E+04  0.46999998093E+01 0.  1.
       -5    1    3    3    0  502 -0.11246073349E+04 -0.79765508176E+03 -0.70867336761E+03  0.15502371816E+04  0.46999998093E+01 0. -1.
</event>
<event>
 5   0  0.7561815E-07  0.3021295E+04  0.7818609E-02  0.8237676E-01
        1   -1    0    0  501    0  0.00000000000E+00  0.00000000000E+00  0.20066349272E+04  0.20066349272E+04  0.50400001928E-02 0.  1.
       -1   -1    0    0    0  501  0.00000000000E+00  0.00000000000E+00 -0.11372548831E+04  0.11372548831E+04  0.50400001928E-02 0. -1.
    10030    2    1    2    0    0  0.00000000000E+00  0.00000000000E+00  0.86938004411E+03  0.31438898103E+04  0.30212946692E+04 0.  0.
        3    1    3    3  502    0 -0.44066321291E+02  0.81956380631E+03  0.17543897791E+04  0.19368815608E+04  0.10100000352E+00 0.  1.
       -3    1    3    3    0  502  0.44066321291E+02 -0.81956380631E+03 -0.88500973497E+03  0.12070082495E+04  0.10100000352E+00 0. -1.
</event>
<event>
 5   0  0.2133385E-06  0.3113558E+04  0.7818609E-02  0.8212027E-01
        2   -1    0    0  501    0  0.00000000000E+00  0.00000000000E+00  0.15109050930E+04  0.15109050930E+04  0.25500000920E-02 0.  1.
       -2   -1    0    0    0  501  0.00000000000E+00  0.00000000000E+00 -0.16040456395E+04  0.16040456395E+04  0.25500000920E-02 0. -1.
    10030    2    1    2    0    0  0.00000000000E+00  0.00000000000E+00 -0.93140546499E+02  0.31149507325E+04  0.31135579173E+04 0.  0.
        2    1    3    3  502    0  0.14099518762E+04 -0.65573299520E+03 -0.12150820016E+03  0.15597160950E+04  0.25500000920E-02 0. -1.
       -2    1    3    3    0  502 -0.14099518762E+04  0.65573299520E+03  0.28367653664E+02  0.15552346376E+04  0.25500000920E-02 0.  1.
</event>
<event>
 5   0  0.2226334E-06  0.3002517E+04  0.7818609E-02  0.8243013E-01
       -2   -1    0    0    0  501  0.00000000000E+00  0.00000000000E+00  0.95479565886E+03  0.95479565886E+03  0.25500000920E-02 0.  1.
        2   -1    0    0  501    0  0.00000000000E+00  0.00000000000E+00 -0.23604804463E+04  0.23604804463E+04  0.25500000920E-02 0. -1.
    10030    2    1    2    0    0  0.00000000000E+00  0.00000000000E+00 -0.14056847875E+04  0.33152761052E+04  0.30025165998E+04 0.  0.
        5    1    3    3  502    0 -0.24783580085E+03  0.72757724009E+03  0.72104485755E+03  0.10539065429E+04  0.46999998093E+01 0.  1.
       -5    1    3    3    0  502  0.24783580085E+03 -0.72757724009E+03 -0.21267296450E+04  0.22613695623E+04  0.46999998093E+01 0. -1.
</event>
<event>
 5   0  0.2067926E-06  0.3086254E+04  0.7818609E-02  0.8219521E-01
       -2   -1    0    0    0  501  0.00000000000E+00  0.00000000000E+00  0.71715632064E+03  0.71715632065E+03  0.25500000920E-02 0.  1.
        2   -1    0    0  501    0  0.00000000000E+00  0.00000000000E+00 -0.33203931578E+04  0.33203931578E+04  0.25500000920E-02 0. -1.
    10030    2    1    2    0    0  0.00000000000E+00  0.00000000000E+00 -0.26032368371E+04  0.40375494784E+04  0.30862540013E+04 0.  0.
        1    1    3    3  502    0 -0.47957820962E+03  0.14667117647E+04 -0.12996429021E+04  0.20175010118E+04  0.50400001928E-02 0. -1.
       -1    1    3    3    0  502  0.47957820962E+03 -0.14667117647E+04 -0.13035939351E+04  0.20200484666E+04  0.50400001928E-02 0.  1.
</event>
<event>
 5   0  0.2094135E-06  0.3097930E+04  0.7818609E-02  0.8216306E-01
        2   -1    0    0  501    0  0.00000000000E+00  0.00000000000E+00  0.19356753534E+04  0.19356753534E+04  0.25500000920E-02 0.  1.
       -2   -1    0    0    0  501  0.00000000000E+00  0.00000000000E+00 -0.12395118353E+04  0.12395118353E+04  0.25500000920E-02 0. -1.
    10030    2    1    2    0    0  0.00000000000E+00  0.00000000000E+00  0.69616351818E+03  0.31751871887E+04  0.30979299604E+04 0.  0.
        4    1    3    3  502    0 -0.81295376648E+03 -0.12244149875E+04 -0.15320112181E+03  0.14776867343E+04  0.12699999809E+01 0. -1.
       -4    1    3    3    0  502  0.81295376648E+03  0.12244149875E+04  0.84936463999E+03  0.16975004544E+04  0.12699999809E+01 0.  1.
</event>
<event>
 5   0  0.2226334E-06  0.3140679E+04  0.7818609E-02  0.8204662E-01
       -2   -1    0    0    0  501  0.00000000000E+00  0.00000000000E+00  0.11108193985E+04  0.11108193985E+04  0.25500000920E-02 0. -1.
        2   -1    0    0  501    0  0.00000000000E+00  0.00000000000E+00 -0.22199518329E+04  0.22199518329E+04  0.25500000920E-02 0.  1.
    10030    2    1    2    0    0  0.00000000000E+00  0.00000000000E+00 -0.11091324344E+04  0.33307712315E+04  0.31406786272E+04 0.  0.
        5    1    3    3  502    0  0.22822239831E+03  0.14645756365E+03  0.10857929346E+04  0.11191531030E+04  0.46999998093E+01 0. -1.
       -5    1    3    3    0  502 -0.22822239831E+03 -0.14645756365E+03 -0.21949253690E+04  0.22116181285E+04  0.46999998093E+01 0.  1.
</event>
<event>
 5   0  0.2078009E-06  0.3097262E+04  0.7818609E-02  0.8216490E-01
       -2   -1    0    0    0  501  0.00000000000E+00  0.00000000000E+00  0.22877819072E+04  0.22877819072E+04  0.25500000920E-02 0.  1.
        2   -1    0    0  501    0  0.00000000000E+00  0.00000000000E+00 -0.10482894289E+04  0.10482894289E+04  0.25500000920E-02 0. -1.
    10030    2    1    2    0    0  0.00000000000E+00  0.00000000000E+00  0.12394924783E+04  0.33360713360E+04  0.30972617512E+04 0.  0.
        3    1    3    3  502    0  0.50931802378E+03 -0.87850596195E+03  0.18791192587E+04  0.21359463413E+04  0.10100000352E+00 0.  1.
       -3    1    3    3    0  502 -0.50931802378E+03  0.87850596195E+03 -0.63962678039E+03  0.12001249947E+04  0.10100000352E+00 0. -1.
</event>
<event>
 5   0  0.7519202E-07  0.3082736E+04  0.7818609E-02  0.8220492E-01
       -1   -1    0    0    0  501  0.00000000000E+00  0.00000000000E+00  0.98811165022E+03  0.98811165023E+03  0.50400001928E-02 0.  1.
        1   -1    0    0  501    0  0.00000000000E+00  0.00000000000E+00 -0.24043995562E+04  0.24043995562E+04  0.50400001928E-02 0. -1.
    10030    2    1    2    0    0  0.00000000000E+00  0.00000000000E+00 -0.14162879059E+04  0.33925112064E+04  0.30827359363E+04 0.  0.
        4    1    3    3  502    0  0.40530371588E+03 -0.90398834811E+03 -0.20076266079E+04  0.22387568526E+04  0.12699999809E+01 0.  1.
       -4    1    3    3    0  502 -0.40530371588E+03  0.90398834811E+03  0.59133870192E+03  0.11537543538E+04  0.12699999809E+01 0. -1.
</event>
<event>
 5   0  0.2226334E-06  0.3091553E+04  0.7818609E-02  0.8218060E-01
        2   -1    0    0  501    0  0.00000000000E+00  0.00000000000E+00  0.16893931710E+04  0.16893931710E+04  0.25500000920E-02 0. -1.
       -2   -1    0    0    0  501  0.00000000000E+00  0.00000000000E+00 -0.14143687725E+04  0.14143687725E+04  0.25500000920E-02 0.  1.
    10030    2    1    2    0    0  0.00000000000E+00  0.00000000000E+00  0.27502439854E+03  0.31037619435E+04  0.30915529726E+04 0.  0.
        5    1    3    3  502    0 -0.14786614290E+04  0.35781033349E+03  0.41233582505E+03  0.15762330979E+04  0.46999998093E+01 0. -1.
       -5    1    3    3    0  502  0.14786614290E+04 -0.35781033349E+03 -0.13731142650E+03  0.15275288456E+04  0.46999998093E+01 0.  1.
</event>
<event>
 5   0  0.7413481E-07  0.3121409E+04  0.7818609E-02  0.8209887E-01
       -1   -1    0    0    0  501  0.00000000000E+00  0.00000000000E+00  0.11999281193E+04  0.11999281193E+04  0.50400001928E-02 0. -1.
        1   -1    0    0  501    0  0.00000000000E+00  0.00000000000E+00 -0.20299537905E+04  0.20299537905E+04  0.50400001928E-02 0.  1.
    10030    2    1    2    0    0  0.00000000000E+00  0.00000000000E+00 -0.83002567119E+03  0.32298819099E+04  0.31214090627E+04 0.  0.
        5    1    3    3  502    0  0.13763089763E+04  0.19300973789E+03 -0.11498300402E+04  0.18037766958E+04  0.46999998093E+01 0.  1.
       -5    1    3    3    0  502 -0.13763089763E+04 -0.19300973789E+03  0.31980436898E+03  0.14261052140E+04  0.46999998093E+01 0. -1.
</event>
<event>
 5   0  0.7413481E-07  0.3048241E+04  0.7818609E-02  0.8230088E-01
        1   -1    0    0  501    0  0.00000000000E+00  0.00000000000E+00  0.15192862726E+04  0.15192862726E+04  0.50400001928E-02 0.  1.
       -1   -1    0    0    0  501  0.00000000000E+00  0.00000000000E+00 -0.15289698157E+04  0.15289698157E+04  0.50400001928E-02 0. -1.
    10030    2    1    2    0    0  0.00000000000E+00  0.00000000000E+00 -0.96835431371E+01  0.30482560883E+04  0.30482407072E+04 0.  0.
        5    1    3    3  502    0  0.92431332669E+03  0.10306142155E+04  0.63265652371E+03  0.15221028724E+04  0.46999998093E+01 0.  1.
       -5    1    3    3    0  502 -0.92431332669E+03 -0.10306142155E+04 -0.64234006684E+03  0.15261532160E+04  0.46999998093E+01 0. -1.
</event>
<event>
 5   0  0.7413481E-07  0.3065918E+04  0.7818609E-02  0.8225154E-01
       -1   -1    0    0    0  501  0.00000000000E+00  0.00000000000E+00  0.95905748972E+03  0.95905748974E+03  0.50400001928E-02 0.  1.
        1   -1    0    0  501    0  0.00000000000E+00  0.00000000000E+00 -0.24502841557E+04  0.24502841557E+04  0.50400001928E-02 0. -1.
    10030    2    1    2    0    0  0.00000000000E+00  0.00000000000E+00 -0.14912266660E+04  0.34093416454E+04  0.30659180495E+04 0.  0.
        5    1    3    3  502    0 -0.93074405686E+02  0.12795724003E+04  0.18740022465E+03  0.12965759934E+04  0.46999998093E+01 0.  1.
       -5    1    3    3    0  502  0.93074405686E+02 -0.12795724003E+04 -0.16786268906E+04  0.21127656520E+04  0.46999998093E+01 0. -1.
</event>
<event>
 5   0  0.7726743E-07  0.3115482E+04  0.7818609E-02  0.8211502E-01
       -1   -1    0    0    0  501  0.00000000000E+00  0.00000000000E+00  0.90508885438E+03  0.90508885439E+03  0.50400001928E-02 0.  1.
        1   -1    0    0  501    0  0.00000000000E+00  0.00000000000E+00 -0.26810148923E+04  0.26810148923E+04  0.50400001928E-02 0. -1.
    10030    2    1    2    0    0  0.00000000000E+00  0.00000000000E+00 -0.17759260379E+04  0.35861037467E+04  0.31154817910E+04 0.  0.
        1    1    3    3  502    0 -0.10437303700E+04  0.11503880176E+04 -0.10231378530E+04  0.18599937480E+04  0.50400001928E-02 0.  1.
       -1    1    3    3    0  502  0.10437303700E+04 -0.11503880176E+04 -0.75278818492E+03  0.17261099987E+04  0.50400001928E-02 0. -1.
</event>
<event>
 5   0  0.2078009E-06  0.3094712E+04  0.7818609E-02  0.8217191E-01
        2   -1    0    0  501    0  0.00000000000E+00  0.00000000000E+00  0.13929052316E+04  0.13929052316E+04  0.25500000920E-02 0.  1.
       -2   -1    0    0    0  501  0.00000000000E+00  0.00000000000E+00 -0.17189327765E+04  0.17189327765E+04  0.25500000920E-02 0. -1.
    10030    2    1    2    0    0  0.00000000000E+00  0.00000000000E+00 -0.32602754486E+03  0.31118380081E+04  0.30947119136E+04 0.  0.
        3    1    3    3  502    0 -0.67386572951E+03  0.12357080033E+04  0.48338204568E+03  0.14881960567E+04  0.10100000352E+00 0.  1.
       -3    1    3    3    0  502  0.67386572951E+03 -0.12357080033E+04 -0.80940959053E+03  0.16236419514E+04  0.10100000352E+00 0. -1.
</event>
<event>
 5   0  0.2226334E-06  0.3112571E+04  0.7818609E-02  0.8212296E-01
       -2   -1    0    0    0  501  0.00000000000E+00  0.00000000000E+00  0.10603031207E+04  0.10603031207E+04  0.25500000920E-02 0. -1.
        2   -1    0    0  501    0  0.00000000000E+00  0.00000000000E+00 -0.22842757249E+04  0.22842757249E+04  0.25500000920E-02 0.  1.
    10030    2    1    2    0    0  0.00000000000E+00  0.00000000000E+00 -0.12239726041E+04  0.33445788456E+04  0.31125710785E+04 0.  0.
        5    1    3    3  502    0  0.65714855225E+03 -0.99855301650E+03 -0.16827848457E+04  0.20641558258E+04  0.46999998093E+01 0.  1.
       -5    1    3    3    0  502 -0.65714855225E+03  0.99855301650E+03  0.45881224157E+03  0.12804230198E+04  0.46999998093E+01 0. -1.
</event>
<event>
 5   0  0.7519202E-07  0.3102494E+04  0.7818609E-02  0.8215054E-01
        1   -1    0    0  501    0  0.00000000000E+00  0.00000000000E+00  0.23087662142E+04  0.23087662142E+04  0.50400001928E-02 0. -1.
       -1   -1    0    0    0  501  0.00000000000E+00  0.00000000000E+00 -0.10422743255E+04  0.10422743256E+04  0.50400001928E-02 0.  1.
    10030    2    1    2    0    0  0.00000000000E+00  0.00000000000E+00  0.12664918887E+04  0.33510405398E+04  0.31024943183E+04 0.  0.
        4    1    3    3  502    0 -0.22694249860E+02  0.48683457937E+03  0.22239257387E+04  0.22767016143E+04  0.12699999809E+01 0. -1.
       -4    1    3    3    0  502  0.22694249860E+02 -0.48683457937E+03 -0.95743385002E+03  0.10743389254E+04  0.12699999809E+01 0.  1.
</event>
<event>
 5   0  0.2133385E-06  0.3097690E+04  0.7818609E-02  0.8216372E-01
       -2   -1    0    0    0  501  0.00000000000E+00  0.00000000000E+00  0.19968030708E+04  0.19968030708E+04  0.25500000920E-02 0. -1.
        2   -1    0    0  501    0  0.00000000000E+00  0.00000000000E+00 -0.12013806510E+04  0.12013806510E+04  0.25500000920E-02 0.  1.
    10030    2    1    2    0    0  0.00000000000E+00  0.00000000000E+00  0.79542241982E+03  0.31981837218E+04  0.30976898315E+04 0.  0.
        2    1    3    3  502    0 -0.99345233306E+03 -0.95250141198E+03  0.11311910726E+04  0.17815161298E+04  0.25500000920E-02 0. -1.
       -2    1    3    3    0  502  0.99345233306E+03  0.95250141198E+03 -0.33576865282E+03  0.14166675920E+04  0.25500000920E-02 0.  1.
</event>
<event>
 5   0  0.2133385E-06  0.3038112E+04  0.7818609E-02  0.8232931E-01
       -2   -1    0    0    0  501  0.00000000000E+00  0.00000000000E+00  0.16885142334E+04  0.16885142334E+04  0.25500000920E-02 0.  1.
        2   -1    0    0  501    0  0.00000000000E+00  0.00000000000E+00 -0.13666047607E+04  0.13666047607E+04  0.25500000920E-02 0. -1.
    10030    2    1    2    0    0  0.00000000000E+00  0.00000000000E+00  0.32190947268E+03  0.30551189942E+04  0.30381123021E+04 0.  0.
        2    1    3    3  502    0  0.33766217260E+03  0.14367330032E+04 -0.20066097327E+03  0.14894570459E+04  0.25500000920E-02 0. -1.
       -2    1    3    3    0  502 -0.33766217260E+03 -0.14367330032E+04  0.52257044595E+03  0.15656619483E+04  0.25500000920E-02 0.  1.
</event>
<event>
 5   0  0.7726743E-07  0.3084214E+04  0.7818609E-02  0.8220084E-01
        1   -1    0    0  501    0  0.00000000000E+00  0.00000000000E+00  0.24532181126E+04  0.24532181126E+04  0.50400001928E-02 0. -1.
       -1   -1    0    0    0  501  0.00000000000E+00  0.00000000000E+00 -0.96937753596E+03  0.96937753597E+03  0.50400001928E-02 0.  1.
    10030    2    1    2    0    0  0.00000000000E+00  0.00000000000E+00  0.14838405766E+04  0.34225956486E+04  0.30842143435E+04 0.  0.
        1    1    3    3  502    0 -0.77892447831E+02 -0.10896598844E+04 -0.46591992828E+03  0.11876477915E+04  0.50400001928E-02 0. -1.
       -1    1    3    3    0  502  0.77892447831E+02  0.10896598844E+04  0.19497605049E+04  0.22349478570E+04  0.50400001928E-02 0.  1.
</event>
<event>
 5   0  0.2226334E-06  0.3059493E+04  0.7818609E-02  0.8226943E-01
        2   -1    0    0  501    0  0.00000000000E+00  0.00000000000E+00  0.16883120459E+04  0.16883120459E+04  0.25500000920E-02 0.  1.
       -2   -1    0    0    0  501  0.00000000000E+00  0.00000000000E+00 -0.13860738004E+04  0.13860738004E+04  0.25500000920E-02 0. -1.
    10030    2    1    2    0    0  0.00000000000E+00  0.00000000000E+00  0.30223824555E+03  0.30743858463E+04  0.30594934834E+04 0.  0.
        5    1    3    3  502    0 -0.29191944137E+03 -0.43572883918E+02 -0.13571825948E+04  0.13889140513E+04  0.46999998093E+01 0. -1.
       -5    1    3    3    0  502  0.29191944137E+03  0.43572883918E+02  0.16594208403E+04  0.16854717950E+04  0.46999998093E+01 0.  1.
</event>
<event>
 5   0  0.7561815E-07  0.3080903E+04  0.7818609E-02  0.8220998E-01
       -1   -1    0    0    0  501  0.00000000000E+00  0.00000000000E+00  0.11894086432E+04  0.11894086432E+04  0.50400001928E-02 0.  1.
        1   -1    0    0  501    0  0.00000000000E+00  0.00000000000E+00 -0.19951020076E+04  0.19951020076E+04  0.50400001928E-02 0. -1.
    10030    2    1    2    0    0  0.00000000000E+00  0.00000000000E+00 -0.80569336440E+03  0.31845106507E+04  0.30809034855E+04 0.  0.
        3    1    3    3  502    0  0.12004402900E+04 -0.81951484485E+03 -0.93023049686E+03  0.17256854459E+04  0.10100000352E+00 0. -1.
       -3    1    3    3    0  502 -0.12004402900E+04  0.81951484485E+03  0.12453713246E+03  0.14588252048E+04  0.10100000352E+00 0.  1.
</event>
<event>
 5   0  0.2094135E-06  0.3072363E+04  0.7818609E-02  0.8223364E-01
       -2   -1    0    0    0  501  0.00000000000E+00  0.00000000000E+00  0.11356056535E+04  0.11356056535E+04  0.25500000920E-02 0. -1.
        2   -1    0    0  501    0  0.00000000000E+00  0.00000000000E+00 -0.20780571207E+04  0.20780571207E+04  0.25500000920E-02 0.  1.
    10030    2    1    2    0    0  0.00000000000E+00  0.00000000000E+00 -0.94245146717E+03  0.32136627742E+04  0.30723628787E+04 0.  0.
        4    1    3    3  502    0  0.84780553952E+03  0.77621928686E+03 -0.15371929226E+04  0.19194411448E+04  0.12699999809E+01 0.  1.
       -4    1    3    3    0  502 -0.84780553952E+03 -0.77621928686E+03  0.59474145546E+03  0.12942216293E+04  0.12699999809E+01 0. -1.
</event>
<event>
 5   0  0.2226334E-06  0.3107615E+04  0.7818609E-02  0.8213651E-01
        2   -1    0    0  501    0  0.00000000000E+00  0.00000000000E+00  0.26171551927E+04  0.26171551927E+04  0.25500000920E-02 0.  1.
       -2   -1    0    0    0  501  0.00000000000E+00  0.00000000000E+00 -0.92249705935E+03  0.92249705935E+03  0.25500000920E-02 0. -1.
    10030    2    1    2    0    0  0.00000000000E+00  0.00000000000E+00  0.16946581333E+04  0.35396522520E+04  0.31076151429E+04 0.  0.
        5    1    3    3  502    0 -0.20013227834E+03 -0.10153773982E+04  0.21674449797E+04  0.24018501243E+04  0.46999998093E+01 0.  1.
       -5    1    3    3    0  502  0.20013227834E+03  0.10153773982E+04 -0.47278684637E+03  0.11378021277E+04  0.46999998093E+01 0. -1.
</event>
<event>
 5   0  0.7726743E-07  0.3249613E+04  0.7818609E-02  0.8175836E-01
        1   -1    0    0  501    0  0.00000000000E+00  0.00000000000E+00  0.20910002342E+04  0.20910002342E+04  0.50400001928E-02 0.  1.
       -1   -1    0    0    0  501  0.00000000000E+00  0.00000000000E+00 -0.12625515542E+04  0.12625515543E+04  0.50400001928E-02 0. -1.
    10030    2    1    2    0    0  0.00000000000E+00  0.00000000000E+00  0.82844867994E+03  0.33535517885E+04  0.32496126512E+04 0.  0.
        1    1    3    3  502    0 -0.13753031304E+04 -0.30887324724E+03 -0.41979214983E+03  0.14707436324E+04  0.50400001928E-02 0. -1.
       -1    1    3    3    0  502  0.13753031304E+04  0.30887324724E+03  0.12482408298E+04  0.18828081560E+04  0.50400001928E-02 0.  1.
</event>
<event>
 5   0  0.7726743E-07  0.3069131E+04  0.7818609E-02  0.8224261E-01
        1   -1    0    0  501    0  0.00000000000E+00  0.00000000000E+00  0.18026618843E+04  0.18026618843E+04  0.50400001928E-02 0.  1.
       -1   -1    0    0    0  501  0.00000000000E+00  0.00000000000E+00 -0.13063409174E+04  0.13063409174E+04  0.50400001928E-02 0. -1.
    10030    2    1    2    0    0  0.00000000000E+00  0.00000000000E+00  0.49632096688E+03  0.31090028017E+04  0.30691308083E+04 0.  0.
        1    1    3    3  502    0 -0.42041186779E+03  0.13835734994E+04  0.76851589487E+03  0.16375708985E+04  0.50400001928E-02 0.  1.
       -1    1    3    3    0  502  0.42041186779E+03 -0.13835734994E+04 -0.27219492799E+03  0.14714319032E+04  0.50400001928E-02 0. -1.
</event>
<event>
 5   0  0.7561815E-07  0.3087575E+04  0.7818609E-02  0.8219156E-01
       -1   -1    0    0    0  501  0.00000000000E+00  0.00000000000E+00  0.11300289625E+04  0.11300289625E+04  0.50400001928E-02 0. -1.
        1   -1    0    0  501    0  0.00000000000E+00  0.00000000000E+00 -0.21090431114E+04  0.21090431114E+04  0.50400001928E-02 0.  1.
    10030    2    1    2    0    0  0.00000000000E+00  0.00000000000E+00 -0.97901414898E+03  0.32390720739E+04  0.30875749701E+04 0.  0.
        3    1    3    3  502    0  0.13166946811E+04 -0.15644914503E+03  0.33993163643E+03  0.13688370049E+04  0.10100000352E+00 0. -1.
       -3    1    3    3    0  502 -0.13166946811E+04  0.15644914503E+03 -0.13189457854E+04  0.18702350690E+04  0.10100000352E+00 0.  1.
</event>
<event>
 5   0  0.2094135E-06  0.3124008E+04  0.7818609E-02  0.8209180E-01
       -2   -1    0    0    0  501  0.00000000000E+00  0.00000000000E+00  0.16953106908E+04  0.16953106908E+04  0.25500000920E-02 0.  1.
        2   -1    0    0  501    0  0.00000000000E+00  0.00000000000E+00 -0.14391791110E+04  0.14391791110E+04  0.25500000920E-02 0. -1.
    10030    2    1    2    0    0  0.00000000000E+00  0.00000000000E+00  0.25613157985E+03  0.31344898018E+04  0.31240075114E+04 0.  0.
        4    1    3    3  502    0 -0.34045333943E+03  0.14230901894E+04 -0.42035762108E+03  0.15224310513E+04  0.12699999809E+01 0. -1.
       -4    1    3    3    0  502  0.34045333943E+03 -0.14230901894E+04  0.67648920092E+03  0.16120587506E+04  0.12699999809E+01 0.  1.
</event>
<event>
 5   0  0.2067926E-06  0.2977221E+04  0.7818609E-02  0.8250266E-01
        2   -1    0    0  501    0  0.00000000000E+00  0.00000000000E+00  0.14819931031E+04  0.14819931031E+04  0.25500000920E-02 0.  1.
       -2   -1    0    0    0  501  0.00000000000E+00  0.00000000000E+00 -0.14952577757E+04  0.14952577757E+04  0.25500000920E-02 0. -1.
    10030    2    1    2    0    0  0.00000000000E+00  0.00000000000E+00 -0.13264672525E+02  0.29772508788E+04  0.29772213293E+04 0.  0.
        1    1    3    3  502    0 -0.11632748948E+04  0.41666079286E+03  0.82352469331E+03  0.14849268055E+04  0.50400001928E-02 0.  1.
       -1    1    3    3    0  502  0.11632748948E+04 -0.41666079286E+03 -0.83678936583E+03  0.14923240733E+04  0.50400001928E-02 0. -1.
</event>
<event>
 5   0  0.2226334E-06  0.3112476E+04  0.7818609E-02  0.8212322E-01
       -2   -1    0    0    0  501  0.00000000000E+00  0.00000000000E+00  0.19369349900E+04  0.19369349900E+04  0.25500000920E-02 0. -1.
        2   -1    0    0  501    0  0.00000000000E+00  0.00000000000E+00 -0.12503654358E+04  0.12503654358E+04  0.25500000920E-02 0.  1.
    10030    2    1    2    0    0  0.00000000000E+00  0.00000000000E+00  0.68656955419E+03  0.31873004259E+04  0.31124759039E+04 0.  0.
        5    1    3    3  502    0  0.35710271406E+03  0.98703643885E+03 -0.83328847142E+03  0.13402070909E+04  0.46999998093E+01 0.  1.
       -5    1    3    3    0  502 -0.35710271406E+03 -0.98703643885E+03  0.15198580256E+04  0.18470933349E+04  0.46999998093E+01 0. -1.
</event>
<event>
 5   0  0.7656332E-07  0.3066206E+04  0.7818609E-02  0.8225074E-01
        1   -1    0    0  501    0  0.00000000000E+00  0.00000000000E+00  0.14160650861E+04  0.14160650861E+04  0.50400001928E-02 0. -1.
       -1   -1    0    0    0  501  0.00000000000E+00  0.00000000000E+00 -0.16598142896E+04  0.16598142896E+04  0.50400001928E-02 0.  1.
    10030    2    1    2    0    0  0.00000000000E+00  0.00000000000E+00 -0.24374920354E+03  0.30758793757E+04  0.30662061671E+04 0.  0.
        2    1    3    3  502    0  0.84773684750E+03 -0.72487321133E+03 -0.11770037158E+04  0.16215537864E+04  0.25500000920E-02 0.  1.
       -2    1    3    3    0  502 -0.84773684750E+03  0.72487321133E+03  0.93325451223E+03  0.14543255893E+04  0.25500000920E-02 0. -1.
</event>
<event>
 5   0  0.6979625E-07  0.3088718E+04  0.7818609E-02  0.8218841E-01
       -3   -1    0    0    0  501  0.00000000000E+00  0.00000000000E+00  0.17883544667E+04  0.17883544696E+04  0.10100000352E+00 0. -1.
        3   -1    0    0  501    0  0.00000000000E+00  0.00000000000E+00 -0.13336534885E+04  0.13336534923E+04  0.10100000352E+00 0.  1.
    10030    2    1    2    0    0  0.00000000000E+00  0.00000000000E+00  0.45470097823E+03  0.31220079619E+04  0.30887182996E+04 0.  0.
        2    1    3    3  502    0 -0.13669298543E+04  0.70377289636E+03  0.37470119140E+03  0.15824646913E+04  0.25500000920E-02 0. -1.
       -2    1    3    3    0  502  0.13669298543E+04 -0.70377289636E+03  0.79999786831E+02  0.15395432706E+04  0.25500000920E-02 0.  1.
</event>
<event>
 5   0  0.2094135E-06  0.3107899E+04  0.7818609E-02  0.8213574E-01
       -2   -1    0    0    0  501  0.00000000000E+00  0.00000000000E+00  0.11028950461E+04  0.11028950461E+04  0.25500000920E-02 0.  1.
        2   -1    0    0  501    0  0.00000000000E+00  0.00000000000E+00 -0.21894725869E+04  0.21894725869E+04  0.25500000920E-02 0. -1.
    10030    2    1    2    0    0  0.00000000000E+00  0.00000000000E+00 -0.10865775408E+04  0.32923676330E+04  0.31078986275E+04 0.  0.
        4    1    3    3  502    0 -0.73600585622E+03 -0.47403915555E+03 -0.19033697313E+04  0.20950502830E+04  0.12699999809E+01 0. -1.
       -4    1    3    3    0  502  0.73600585622E+03  0.47403915555E+03  0.81679219049E+03  0.11973173501E+04  0.12699999809E+01 0.  1.
</event>
<event>
 5   0  0.7561815E-07  0.3061873E+04  0.7818609E-02  0.8226280E-01
        1   -1    0    0  501    0  0.00000000000E+00  0.00000000000E+00  0.12945949252E+04  0.12945949252E+04  0.50400001928E-02 0. -1.
       -1   -1    0    0    0  501  0.00000000000E+00  0.00000000000E+00 -0.18104241791E+04  0.18104241791E+04  0.50400001928E-02 0.  1.
    10030    2    1    2    0    0  0.00000000000E+00  0.00000000000E+00 -0.51582925388E+03  0.31050191043E+04  0.30618726001E+04 0.  0.
        3    1    3    3  502    0  0.11938672343E+04  0.55201756214E+03  0.53652987896E+03  0.14205304232E+04  0.10100000352E+00 0. -1.
       -3    1    3    3    0  502 -0.11938672343E+04 -0.55201756214E+03 -0.10523591328E+04  0.16844886811E+04  0.10100000352E+00 0.  1.
</event>
<event>
 5   0  0.2094135E-06  0.3102848E+04  0.7818609E-02  0.8214957E-01
        2   -1    0    0  501    0  0.00000000000E+00  0.00000000000E+00  0.17291969691E+04  0.17291969691E+04  0.25500000920E-02 0.  1.
       -2   -1    0    0    0  501  0.00000000000E+00  0.00000000000E+00 -0.13919270932E+04  0.13919270932E+04  0.25500000920E-02 0. -1.
    10030    2    1    2    0    0  0.00000000000E+00  0.00000000000E+00  0.33726987596E+03  0.31211240623E+04  0.31028477957E+04 0.  0.
        4    1    3    3  502    0 -0.51861678456E+03 -0.39610022545E+03 -0.12471552785E+04  0.14075711916E+04  0.12699999809E+01 0. -1.
       -4    1    3    3    0  502  0.51861678456E+03  0.39610022545E+03  0.15844251544E+04  0.17135528707E+04  0.12699999809E+01 0.  1.
</event>
<event>
 5   0  0.7561815E-07  0.3234341E+04  0.7818609E-02  0.8179806E-01
       -1   -1    0    0    0  501  0.00000000000E+00  0.00000000000E+00  0.10717610893E+04  0.10717610893E+04  0.50400001928E-02 0. -1.
        1   -1    0    0  501    0  0.00000000000E+00  0.00000000000E+00 -0.24401337029E+04  0.24401337029E+04  0.50400001928E-02 0.  1.
    10030    2    1    2    0    0  0.00000000000E+00  0.00000000000E+00 -0.13683726136E+04  0.35118947923E+04  0.32343409564E+04 0.  0.
        3    1    3    3  502    0 -0.85414390793E+03 -0.11856950874E+04 -0.14363084823E+04  0.20490038366E+04  0.10100000352E+00 0.  1.
       -3    1    3    3    0  502  0.85414390793E+03  0.11856950874E+04  0.67935868661E+02  0.14628909557E+04  0.10100000352E+00 0. -1.
</event>
<event>
 5   0  0.7561815E-07  0.3112282E+04  0.7818609E-02  0.8212375E-01
        1   -1    0    0  501    0  0.00000000000E+00  0.00000000000E+00  0.14557739643E+04  0.14557739643E+04  0.50400001928E-02 0. -1.
       -1   -1    0    0    0  501  0.00000000000E+00  0.00000000000E+00 -0.16634277930E+04  0.16634277930E+04  0.50400001928E-02 0.  1.
    10030    2    1    2    0    0  0.00000000000E+00  0.00000000000E+00 -0.20765382871E+03  0.31192017573E+04  0.31122820390E+04 0.  0.
        3    1    3    3  502    0  0.31580291286E+03  0.14560762341E+04  0.34626554021E+03  0.15296369876E+04  0.10100000352E+00 0. -1.
       -3    1    3    3    0  502 -0.31580291286E+03 -0.14560762341E+04 -0.55391936892E+03  0.15895647696E+04  0.10100000352E+00 0.  1.
</event>
<event>
 5   0  0.2094135E-06  0.3087814E+04  0.7818609E-02  0.8219090E-01
        2   -1    0    0  501    0  0.00000000000E+00  0.00000000000E+00  0.14193131812E+04  0.14193131812E+04  0.25500000920E-02 0.  1.
       -2   -1    0    0    0  501  0.00000000000E+00  0.00000000000E+00 -0.16794379605E+04  0.16794379605E+04  0.25500000920E-02 0. -1.
    10030    2    1    2    0    0  0.00000000000E+00  0.00000000000E+00 -0.26012477929E+03  0.30987511416E+04  0.30878137471E+04 0.  0.
        4    1    3    3  502    0 -0.11515079810E+03  0.10284753250E+04 -0.12798193354E+04  0.16458919602E+04  0.12699999809E+01 0. -1.
       -4    1    3    3    0  502  0.11515079810E+03 -0.10284753250E+04  0.10196945562E+04  0.14528591814E+04  0.12699999809E+01 0.  1.
</event>
<event>
 5   0  0.2067926E-06  0.3090671E+04  0.7818609E-02  0.8218303E-01
       -2   -1    0    0    0  501  0.00000000000E+00  0.00000000000E+00  0.18335515275E+04  0.18335515275E+04  0.25500000920E-02 0. -1.
        2   -1    0    0  501    0  0.00000000000E+00  0.00000000000E+00 -0.13024239222E+04  0.13024239222E+04  0.25500000920E-02 0.  1.
    10030    2    1    2    0    0  0.00000000000E+00  0.00000000000E+00  0.53112760526E+03  0.31359754497E+04  0.30906707182E+04 0.  0.
        1    1    3    3  502    0 -0.70241336119E+03  0.23837312287E+03 -0.11099835647E+04  0.13350167750E+04  0.50400001928E-02 0.  1.
       -1    1    3    3    0  502  0.70241336119E+03 -0.23837312287E+03  0.16411111700E+04  0.18009586747E+04  0.50400001928E-02 0. -1.
</event>
<event>
 5   0  0.2133385E-06  0.3000003E+04  0.7818609E-02  0.8243730E-01
       -2   -1    0    0    0  501  0.00000000000E+00  0.00000000000E+00  0.12230236164E+04  0.12230236164E+04  0.25500000920E-02 0. -1.
        2   -1    0    0  501    0  0.00000000000E+00  0.00000000000E+00 -0.18397063143E+04  0.18397063143E+04  0.25500000920E-02 0.  1.
    10030    2    1    2    0    0  0.00000000000E+00  0.00000000000E+00 -0.61668269784E+03  0.30627299307E+04  0.30000028464E+04 0.  0.
        2    1    3    3  502    0 -0.59175867647E+03  0.12299216194E+04 -0.94353937302E+03  0.16592625077E+04  0.25500000920E-02 0.  1.
       -2    1    3    3    0  502  0.59175867647E+03 -0.12299216194E+04  0.32685667518E+03  0.14034674229E+04  0.25500000920E-02 0. -1.
</event>
<event>
 5   0  0.2094135E-06  0.2991510E+04  0.7818609E-02  0.8246159E-01
       -2   -1    0    0    0  501  0.00000000000E+00  0.00000000000E+00  0.13832801860E+04  0.13832801860E+04  0.25500000920E-02 0. -1.
        2   -1    0    0  501    0  0.00000000000E+00  0.00000000000E+00 -0.16173755608E+04  0.16173755608E+04  0.25500000920E-02 0.  1.
    10030    2    1    2    0    0  0.00000000000E+00  0.00000000000E+00 -0.23409537483E+03  0.30006557469E+04  0.29915103655E+04 0.  0.
        4    1    3    3  502    0  0.71341807359E+03 -0.15957551553E+03  0.11918754558E+04  0.13982125761E+04  0.12699999809E+01 0. -1.
       -4    1    3    3    0  502 -0.71341807359E+03  0.15957551553E+03 -0.14259708306E+04  0.16024431708E+04  0.12699999809E+01 0.  1.
</event>
<event>
 5   0  0.7726743E-07  0.3012042E+04  0.7818609E-02  0.8240301E-01
       -1   -1    0    0    0  501  0.00000000000E+00  0.00000000000E+00  0.10670973544E+04  0.10670973544E+04  0.50400001928E-02 0.  1.
        1   -1    0    0  501    0  0.00000000000E+00  0.00000000000E+00 -0.21254849968E+04  0.21254849968E+04  0.50400001928E-02 0. -1.
    10030    2    1    2    0    0  0.00000000000E+00  0.00000000000E+00 -0.10583876424E+04  0.31925823512E+04  0.30120421092E+04 0.  0.
        1    1    3    3  502    0  0.13322024439E+04  0.70229535411E+03 -0.54067355714E+03  0.16000968756E+04  0.50400001928E-02 0.  1.
       -1    1    3    3    0  502 -0.13322024439E+04 -0.70229535411E+03 -0.51771408529E+03  0.15924854756E+04  0.50400001928E-02 0. -1.
</event>
<event>
 5   0  0.7561815E-07  0.3102359E+04  0.7818609E-02  0.8215091E-01
       -1   -1    0    0    0  501  0.00000000000E+00  0.00000000000E+00  0.14796840705E+04  0.14796840705E+04  0.50400001928E-02 0.  1.
        1   -1    0    0  501    0  0.00000000000E+00  0.00000000000E+00 -0.16261296889E+04  0.16261296889E+04  0.50400001928E-02 0. -1.
    10030    2    1    2    0    0  0.00000000000E+00  0.00000000000E+00 -0.14644561838E+03  0.31058137595E+04  0.31023592296E+04 0.  0.
        3    1    3    3  502    0  0.65294523538E+03 -0.82861252130E+03  0.10652426708E+04  0.14992258498E+04  0.10100000352E+00 0.  1.
       -3    1    3    3    0  502 -0.65294523538E+03  0.82861252130E+03 -0.12116882892E+04  0.16065879096E+04  0.10100000352E+00 0. -1.
</event>
<event>
 5   0  0.2133385E-06  0.3105025E+04  0.7818609E-02  0.8214360E-01
       -2   -1    0    0    0  501  0.00000000000E+00  0.00000000000E+00  0.24931835182E+04  0.24931835182E+04  0.25500000920E-02 0. -1.
        2   -1    0    0  501    0  0.00000000000E+00  0.00000000000E+00 -0.96675411153E+03  0.96675411154E+03  0.25500000920E-02 0.  1.
    10030    2    1    2    0    0  0.00000000000E+00  0.00000000000E+00  0.15264294067E+04  0.34599376297E+04  0.31050252283E+04 0.  0.
        2    1    3    3  502    0  0.31662146892E+03 -0.22587287585E+03  0.24380184187E+04  0.24688461922E+04  0.25500000920E-02 0. -1.
       -2    1    3    3    0  502 -0.31662146892E+03  0.22587287585E+03 -0.91158901207E+03  0.99109143754E+03  0.25500000920E-02 0.  1.
</event>
<event>
 5   0  0.7656332E-07  0.3093501E+04  0.7818609E-02  0.8217524E-01
       -1   -1    0    0    0  501  0.00000000000E+00  0.00000000000E+00  0.10159821253E+04  0.10159821253E+04  0.50400001928E-02 0. -1.
        1   -1    0    0  501    0  0.00000000000E+00  0.00000000000E+00 -0.23548016630E+04  0.23548016630E+04  0.50400001928E-02 0.  1.
    10030    2    1    2    0    0  0.00000000000E+00  0.00000000000E+00 -0.13388195377E+04  0.33707837883E+04  0.30935005403E+04 0.  0.
        2    1    3    3  502    0  0.14450915182E+04 -0.27637793389E+03 -0.11894314698E+04  0.18919359080E+04  0.25500000920E-02 0.  1.
       -2    1    3    3    0  502 -0.14450915182E+04  0.27637793389E+03 -0.14938806790E+03  0.14788478803E+04  0.25500000920E-02 0. -1.
</event>
<event>
 5   0  0.7519202E-07  0.3090346E+04  0.7818609E-02  0.8218392E-01
       -1   -1    0    0    0  501  0.00000000000E+00  0.00000000000E+00  0.15165354925E+04  0.15165354925E+04  0.50400001928E-02 0. -1.
        1   -1    0    0  501    0  0.00000000000E+00  0.00000000000E+00 -0.15743517204E+04  0.15743517204E+04  0.50400001928E-02 0.  1.
    10030    2    1    2    0    0  0.00000000000E+00  0.00000000000E+00 -0.57816227870E+02  0.30908872129E+04  0.30903464282E+04 0.  0.
        4    1    3    3  502    0  0.97479642609E+02 -0.14353557431E+04  0.53493716345E+03  0.15348966648E+04  0.12699999809E+01 0. -1.
       -4    1    3    3    0  502 -0.97479642609E+02  0.14353557431E+04 -0.59275339132E+03  0.15559905481E+04  0.12699999809E+01 0.  1.
</event>
<event>
 5   0  0.7519202E-07  0.3083949E+04  0.7818609E-02  0.8220157E-01
        1   -1    0    0  501    0  0.00000000000E+00  0.00000000000E+00  0.12263573720E+04  0.12263573720E+04  0.50400001928E-02 0.  1.
       -1   -1    0    0    0  501  0.00000000000E+00  0.00000000000E+00 -0.19388198926E+04  0.19388198926E+04  0.50400001928E-02 0. -1.
    10030    2    1    2    0    0  0.00000000000E+00  0.00000000000E+00 -0.71246252062E+03  0.31651772646E+04  0.30839494601E+04 0.  0.
        4    1    3    3  502    0 -0.13014143114E+04  0.81690326465E+03 -0.22370113445E+03  0.15527568915E+04  0.12699999809E+01 0.  1.
       -4    1    3    3    0  502  0.13014143114E+04 -0.81690326465E+03 -0.48876138616E+03  0.16124203730E+04  0.12699999809E+01 0. -1.
</event>
<event>
 5   0  0.2133385E-06  0.2978041E+04  0.7818609E-02  0.8250029E-01
        2   -1    0    0  501    0  0.00000000000E+00  0.00000000000E+00  0.11538369158E+04  0.11538369158E+04  0.25500000920E-02 0. -1.
       -2   -1    0    0    0  501  0.00000000000E+00  0.00000000000E+00 -0.19215728963E+04  0.19215728963E+04  0.25500000920E-02 0.  1.
    10030    2    1    2    0    0  0.00000000000E+00  0.00000000000E+00 -0.76773598055E+03  0.30754098121E+04  0.29780407950E+04 0.  0.
        2    1    3    3  502    0 -0.11121512832E+03  0.11970281435E+04  0.52345759796E+03  0.13112028973E+04  0.25500000920E-02 0. -1.
       -2    1    3    3    0  502  0.11121512832E+03 -0.11970281435E+04 -0.12911935785E+04  0.17642069148E+04  0.25500000920E-02 0.  1.
</event>
<event>
 5   0  0.7726743E-07  0.3106943E+04  0.7818609E-02  0.8213835E-01
       -1   -1    0    0    0  501  0.00000000000E+00  0.00000000000E+00  0.25909530367E+04  0.25909530367E+04  0.50400001928E-02 0.  1.
        1   -1    0    0  501    0  0.00000000000E+00  0.00000000000E+00 -0.93142343995E+03  0.93142343996E+03  0.50400001928E-02 0. -1.
    10030    2    1    2    0    0  0.00000000000E+00  0.00000000000E+00  0.16595295967E+04  0.35223764766E+04  0.31069434434E+04 0.  0.
        1    1    3    3  502    0  0.49781171796E+02  0.94617167732E+02  0.25867771156E+04  0.25889855966E+04  0.50400001928E-02 0.  1.
       -1    1    3    3    0  502 -0.49781171796E+02 -0.94617167732E+02 -0.92724751893E+03  0.93339088000E+03  0.50400001928E-02 0. -1.
</event>
<event>
 5   0  0.2133385E-06  0.3100464E+04  0.7818609E-02  0.8215611E-01
        2   -1    0    0  501    0  0.00000000000E+00  0.00000000000E+00  0.24037596366E+04  0.24037596366E+04  0.25500000920E-02 0.  1.
       -2   -1    0    0    0  501  0.00000000000E+00  0.00000000000E+00 -0.99977493353E+03  0.99977493353E+03  0.25500000920E-02 0. -1.
    10030    2    1    2    0    0  0.00000000000E+00  0.00000000000E+00  0.14039847030E+04  0.34035345701E+04  0.31004635982E+04 0.  0.
        2    1    3    3  502    0 -0.13514772157E+03 -0.13879455873E+04  0.14453571281E+04  0.20084110854E+04  0.25500000920E-02 0.  1.
       -2    1    3    3    0  502  0.13514772157E+03  0.13879455873E+04 -0.41372425091E+02  0.13951234847E+04  0.25500000920E-02 0. -1.
</event>
<event>
 5   0  0.2133385E-06  0.3048582E+04  0.7818609E-02  0.8229993E-01
       -2   -1    0    0    0  501  0.00000000000E+00  0.00000000000E+00  0.80423269381E+03  0.80423269382E+03  0.25500000920E-02 0. -1.
        2   -1    0    0  501    0  0.00000000000E+00  0.00000000000E+00 -0.28890427579E+04  0.28890427579E+04  0.25500000920E-02 0.  1.
    10030    2    1    2    0    0  0.00000000000E+00  0.00000000000E+00 -0.20848100641E+04  0.36932754518E+04  0.30485817291E+04 0.  0.
        2    1    3    3  502    0  0.10444730138E+04 -0.48446612714E+03 -0.22525640067E+04  0.25297580733E+04  0.25500000920E-02 0.  1.
       -2    1    3    3    0  502 -0.10444730138E+04  0.48446612714E+03  0.16775394259E+03  0.11635173785E+04  0.25500000920E-02 0. -1.
</event>
<event>
 5   0  0.2133385E-06  0.3047887E+04  0.7818609E-02  0.8230187E-01
       -2   -1    0    0    0  501  0.00000000000E+00  0.00000000000E+00  0.90132773900E+03  0.90132773901E+03  0.25500000920E-02 0.  1.
        2   -1    0    0  501    0  0.00000000000E+00  0.00000000000E+00 -0.25766469402E+04  0.25766469402E+04  0.25500000920E-02 0. -1.
    10030    2    1    2    0    0  0.00000000000E+00  0.00000000000E+00 -0.16753192012E+04  0.34779746792E+04  0.30478867176E+04 0.  0.
        2    1    3    3  502    0 -0.43824980769E+03  0.77836955130E+03 -0.22465871025E+04  0.24176591284E+04  0.25500000920E-02 0. -1.
       -2    1    3    3    0  502  0.43824980769E+03 -0.77836955130E+03  0.57126790122E+03  0.10603155508E+04  0.25500000920E-02 0.  1.
</event>
<event>
 5   0  0.2067926E-06  0.3146981E+04  0.7818609E-02  0.8202961E-01
       -2   -1    0    0    0  501  0.00000000000E+00  0.00000000000E+00  0.12887520004E+04  0.12887520004E+04  0.25500000920E-02 0.  1.
        2   -1    0    0  501    0  0.00000000000E+00  0.00000000000E+00 -0.19211399867E+04  0.19211399867E+04  0.25500000920E-02 0. -1.
    10030    2    1    2    0    0  0.00000000000E+00  0.00000000000E+00 -0.63238798630E+03  0.32098919870E+04  0.31469814113E+04 0.  0.
        1    1    3    3  502    0 -0.55218555292E+03  0.14562716579E+04 -0.87577279126E+02  0.15599057043E+04  0.50400001928E-02 0. -1.
       -1    1    3    3    0  502  0.55218555292E+03 -0.14562716579E+04 -0.54481070718E+03  0.16499862827E+04  0.50400001928E-02 0.  1.
</event>
<event>
 5   0  0.7656332E-07  0.3081481E+04  0.7818609E-02  0.8220839E-01
       -1   -1    0    0    0  501  0.00000000000E+00  0.00000000000E+00  0.10226382513E+04  0.10226382514E+04  0.50400001928E-02 0.  1.
        1   -1    0    0  501    0  0.00000000000E+00  0.00000000000E+00 -0.23213310436E+04  0.23213310436E+04  0.50400001928E-02 0. -1.
    10030    2    1    2    0    0  0.00000000000E+00  0.00000000000E+00 -0.12986927923E+04  0.33439692950E+04  0.30814814095E+04 0.  0.
        2    1    3    3  502    0  0.57186963810E+02 -0.11376695909E+04 -0.17751777198E+04  0.21092222225E+04  0.25500000920E-02 0. -1.
       -2    1    3    3    0  502 -0.57186963810E+02  0.11376695909E+04  0.47648492755E+03  0.12347470725E+04  0.25500000920E-02 0.  1.
</event>
<event>
 5   0  0.2094135E-06  0.3107786E+04  0.7818609E-02  0.8213604E-01
        2   -1    0    0  501    0  0.00000000000E+00  0.00000000000E+00  0.16709213338E+04  0.16709213338E+04  0.25500000920E-02 0. -1.
       -2   -1    0    0    0  501  0.00000000000E+00  0.00000000000E+00 -0.14450612121E+04  0.14450612121E+04  0.25500000920E-02 0.  1.
    10030    2    1    2    0    0  0.00000000000E+00  0.00000000000E+00  0.22586012169E+03  0.31159825459E+04  0.31077860982E+04 0.  0.
        4    1    3    3  502    0 -0.14362783854E+04 -0.55954208709E+03 -0.84054500683E+02  0.15437129654E+04  0.12699999809E+01 0.  1.
       -4    1    3    3    0  502  0.14362783854E+04  0.55954208709E+03  0.30991462238E+03  0.15722695805E+04  0.12699999809E+01 0. -1.
</event>
<event>
 5   0  0.2226334E-06  0.3061238E+04  0.7818609E-02  0.8226457E-01
       -2   -1    0    0    0  501  0.00000000000E+00  0.00000000000E+00  0.14798359707E+04  0.14798359707E+04  0.25500000920E-02 0.  1.
        2   -1    0    0  501    0  0.00000000000E+00  0.00000000000E+00 -0.15831446644E+04  0.15831446644E+04  0.25500000920E-02 0. -1.
    10030    2    1    2    0    0  0.00000000000E+00  0.00000000000E+00 -0.10330869377E+03  0.30629806351E+04  0.30612379334E+04 0.  0.
        5    1    3    3  502    0  0.97769820444E+03  0.34654815602E+03  0.10745009030E+04  0.14935071757E+04  0.46999998093E+01 0.  1.
       -5    1    3    3    0  502 -0.97769820444E+03 -0.34654815602E+03 -0.11778095968E+04  0.15694734594E+04  0.46999998093E+01 0. -1.
</event>
<event>
 5   0  0.7561815E-07  0.3096553E+04  0.7818609E-02  0.8216685E-01
       -1   -1    0    0    0  501  0.00000000000E+00  0.00000000000E+00  0.84854700740E+03  0.84854700741E+03  0.50400001928E-02 0.  1.
        1   -1    0    0  501    0  0.00000000000E+00  0.00000000000E+00 -0.28250173554E+04  0.28250173554E+04  0.50400001928E-02 0. -1.
    10030    2    1    2    0    0  0.00000000000E+00  0.00000000000E+00 -0.19764703480E+04  0.36735643628E+04  0.30965529369E+04 0.  0.
        3    1    3    3  502    0 -0.55838384525E+03  0.42580563306E+03 -0.26252368483E+04  0.27175304001E+04  0.10100000352E+00 0. -1.
       -3    1    3    3    0  502  0.55838384525E+03 -0.42580563306E+03  0.64876650027E+03  0.95603396271E+03  0.10100000352E+00 0.  1.
</event>
<event>
 5   0  0.2226334E-06  0.3110401E+04  0.7818609E-02  0.8212889E-01
        2   -1    0    0  501    0  0.00000000000E+00  0.00000000000E+00  0.25296430384E+04  0.25296430384E+04  0.25500000920E-02 0.  1.
       -2   -1    0    0    0  501  0.00000000000E+00  0.00000000000E+00 -0.95612239866E+03  0.95612239866E+03  0.25500000920E-02 0. -1.
    10030    2    1    2    0    0  0.00000000000E+00  0.00000000000E+00  0.15735206398E+04  0.34857654371E+04  0.31104008550E+04 0.  0.
        5    1    3    3  502    0  0.76384117990E+03 -0.12517680418E+04  0.13671924166E+04  0.20048974469E+04  0.46999998093E+01 0.  1.
       -5    1    3    3    0  502 -0.76384117990E+03  0.12517680418E+04  0.20632822313E+03  0.14808679902E+04  0.46999998093E+01 0. -1.
</event>
<event>
 5   0  0.7413481E-07  0.3091809E+04  0.7818609E-02  0.8217989E-01
       -1   -1    0    0    0  501  0.00000000000E+00  0.00000000000E+00  0.12464013575E+04  0.12464013575E+04  0.50400001928E-02 0.  1.
        1   -1    0    0  501    0  0.00000000000E+00  0.00000000000E+00 -0.19173765926E+04  0.19173765927E+04  0.50400001928E-02 0. -1.
    10030    2    1    2    0    0  0.00000000000E+00  0.00000000000E+00 -0.67097523517E+03  0.31637779501E+04  0.30918090419E+04 0.  0.
        5    1    3    3  502    0 -0.11903337371E+04  0.93871756303E+03 -0.64537955098E+03  0.16476109746E+04  0.46999998093E+01 0.  1.
       -5    1    3    3    0  502  0.11903337371E+04 -0.93871756303E+03 -0.25595684194E+02  0.15161669756E+04  0.46999998093E+01 0. -1.
</event>
<event>
 5   0  0.2078009E-06  0.3096118E+04  0.7818609E-02  0.8216804E-01
        2   -1    0    0  501    0  0.00000000000E+00  0.00000000000E+00  0.15153146168E+04  0.15153146168E+04  0.25500000920E-02 0. -1.
       -2   -1    0    0    0  501  0.00000000000E+00  0.00000000000E+00 -0.15815108317E+04  0.15815108317E+04  0.25500000920E-02 0.  1.
    10030    2    1    2    0    0  0.00000000000E+00  0.00000000000E+00 -0.66196214882E+02  0.30968254485E+04  0.30961178788E+04 0.  0.
        3    1    3    3  502    0 -0.15109062997E+04  0.33488156476E+03  0.56787922636E+01  0.15475838483E+04  0.10100000352E+00 0. -1.
       -3    1    3    3    0  502  0.15109062997E+04 -0.33488156476E+03 -0.71875007146E+02  0.15492416001E+04  0.10100000352E+00 0.  1.
</event>
<event>
 5   0  0.2133385E-06  0.3115545E+04  0.7818609E-02  0.8211485E-01
        2   -1    0    0  501    0  0.00000000000E+00  0.00000000000E+00  0.24351064485E+04  0.24351064485E+04  0.25500000920E-02 0.  1.
       -2   -1    0    0    0  501  0.00000000000E+00  0.00000000000E+00 -0.99652942811E+03  0.99652942812E+03  0.25500000920E-02 0. -1.
    10030    2    1    2    0    0  0.00000000000E+00  0.00000000000E+00  0.14385770203E+04  0.34316358766E+04  0.31155450480E+04 0.  0.
        2    1    3    3  502    0  0.70759681642E+02 -0.25763116854E+03 -0.97110543364E+03  0.10071874278E+04  0.25500000920E-02 0. -1.
       -2    1    3    3    0  502 -0.70759681642E+02  0.25763116854E+03  0.24096824540E+04  0.24244484487E+04  0.25500000920E-02 0.  1.
</event>
<event>
 5   0  0.7726743E-07  0.3123636E+04  0.7818609E-02  0.8209281E-01
       -1   -1    0    0    0  501  0.00000000000E+00  0.00000000000E+00  0.15502789012E+04  0.15502789012E+04  0.50400001928E-02 0. -1.
        1   -1    0    0  501    0  0.00000000000E+00  0.00000000000E+00 -0.15734433037E+04  0.15734433038E+04  0.50400001928E-02 0.  1.
    10030    2    1    2    0    0  0.00000000000E+00  0.00000000000E+00 -0.23164402510E+02  0.31237222050E+04  0.31236363144E+04 0.  0.
        1    1    3    3  502    0  0.70897612731E+03  0.10252966071E+04  0.92939833335E+03  0.15548831286E+04  0.50400001928E-02 0. -1.
       -1    1    3    3    0  502 -0.70897612731E+03 -0.10252966071E+04 -0.95256273586E+03  0.15688390763E+04  0.50400001928E-02 0.  1.
</event>
<event>
 5   0  0.7561815E-07  0.3102111E+04  0.7818609E-02  0.8215159E-01
       -1   -1    0    0    0  501  0.00000000000E+00  0.00000000000E+00  0.13420493633E+04  0.13420493633E+04  0.50400001928E-02 0. -1.
        1   -1    0    0  501    0  0.00000000000E+00  0.00000000000E+00 -0.17926116735E+04  0.17926116735E+04  0.50400001928E-02 0.  1.
    10030    2    1    2    0    0  0.00000000000E+00  0.00000000000E+00 -0.45056231017E+03  0.31346610368E+04  0.31021111232E+04 0.  0.
        3    1    3    3  502    0 -0.10276156896E+04 -0.10462230354E+04 -0.73575178696E+03  0.16407033088E+04  0.10100000352E+00 0.  1.
       -3    1    3    3    0  502  0.10276156896E+04  0.10462230354E+04  0.28518947680E+03  0.14939577280E+04  0.10100000352E+00 0. -1.
</event>
<event>
 5   0  0.2094135E-06  0.3110084E+04  0.7818609E-02  0.8212976E-01
       -2   -1    0    0    0  501  0.00000000000E+00  0.00000000000E+00  0.11876245105E+04  0.11876245105E+04  0.25500000920E-02 0. -1.
        2   -1    0    0  501    0  0.00000000000E+00  0.00000000000E+00 -0.20361277686E+04  0.20361277686E+04  0.25500000920E-02 0.  1.
    10030    2    1    2    0    0  0.00000000000E+00  0.00000000000E+00 -0.84850325810E+03  0.32237522791E+04  0.31100837574E+04 0.  0.
        4    1    3    3  502    0  0.67054389256E+03  0.10452071053E+04 -0.13944446479E+04  0.18672344507E+04  0.12699999809E+01 0.  1.
       -4    1    3    3    0  502 -0.67054389256E+03 -0.10452071053E+04  0.54594138975E+03  0.13565178284E+04  0.12699999809E+01 0. -1.
</event>
<event>
 5   0  0.2094135E-06  0.3116763E+04  0.7818609E-02  0.8211153E-01
        2   -1    0    0  501    0  0.00000000000E+00  0.00000000000E+00  0.17791414083E+04  0.17791414083E+04  0.25500000920E-02 0.  1.
       -2   -1    0    0    0  501  0.00000000000E+00  0.00000000000E+00 -0.13650137444E+04  0.13650137444E+04  0.25500000920E-02 0. -1.
    10030    2    1    2    0    0  0.00000000000E+00  0.00000000000E+00  0.41412766388E+03  0.31441551526E+04  0.31167627279E+04 0.  0.
        4    1    3    3  502    0  0.52350407588E+03 -0.13936459142E+04 -0.25768615005E+03  0.15108637319E+04  0.12699999809E+01 0. -1.
       -4    1    3    3    0  502 -0.52350407588E+03  0.13936459142E+04  0.67181381393E+03  0.16332914207E+04  0.12699999809E+01 0.  1.
</event>
<event>
 5   0  0.2067926E-06  0.3113478E+04  0.7818609E-02  0.8212049E-01
       -2   -1    0    0    0  501  0.00000000000E+00  0.00000000000E+00  0.11390372074E+04  0.11390372074E+04  0.25500000920E-02 0.  1.
        2   -1    0    0  501    0  0.00000000000E+00  0.00000000000E+00 -0.21276175802E+04  0.21276175802E+04  0.25500000920E-02 0. -1.
    10030    2    1    2    0    0  0.00000000000E+00  0.00000000000E+00 -0.98858037277E+03  0.32666547877E+04  0.31134775330E+04 0.  0.
        1    1    3    3  502    0 -0.14015252213E+04  0.40511854740E+03 -0.10641908144E+04  0.18057951359E+04  0.50400001928E-02 0. -1.
       -1    1    3    3    0  502  0.14015252213E+04 -0.40511854740E+03  0.75610441596E+02  0.14608596518E+04  0.50400001928E-02 0.  1.
</event>
<event>
 5   0  0.2226334E-06  0.3154893E+04  0.7818609E-02  0.8200833E-01
        2   -1    0    0  501    0  0.00000000000E+00  0.00000000000E+00  0.17400047941E+04  0.17400047941E+04  0.25500000920E-02 0. -1.
       -2   -1    0    0    0  501  0.00000000000E+00  0.00000000000E+00 -0.14300746829E+04  0.14300746830E+04  0.25500000920E-02 0.  1.
    10030    2    1    2    0    0  0.00000000000E+00  0.00000000000E+00  0.30993011112E+03  0.31700794770E+04  0.31548925840E+04 0.  0.
        5    1    3    3  502    0  0.15025131320E+04  0.97473715743E+02 -0.31769049026E+03  0.15388294820E+04  0.46999998093E+01 0.  1.
       -5    1    3    3    0  502 -0.15025131320E+04 -0.97473715743E+02  0.62762060137E+03  0.16312499950E+04  0.46999998093E+01 0. -1.
</event>
<event>
 5   0  0.7561815E-07  0.3057356E+04  0.7818609E-02  0.8227540E-01
       -1   -1    0    0    0  501  0.00000000000E+00  0.00000000000E+00  0.12851994251E+04  0.12851994251E+04  0.50400001928E-02 0. -1.
        1   -1    0    0  501    0  0.00000000000E+00  0.00000000000E+00 -0.18182832705E+04  0.18182832705E+04  0.50400001928E-02 0.  1.
    10030    2    1    2    0    0  0.00000000000E+00  0.00000000000E+00 -0.53308384534E+03  0.31034826956E+04  0.30573561218E+04 0.  0.
        3    1    3    3  502    0  0.11417405721E+04 -0.50238260984E+03 -0.11635577720E+04  0.17058213622E+04  0.10100000352E+00 0.  1.
       -3    1    3    3    0  502 -0.11417405721E+04  0.50238260984E+03  0.63047392665E+03  0.13976613335E+04  0.10100000352E+00 0. -1.
</event>
<event>
 5   0  0.7726743E-07  0.3062455E+04  0.7818609E-02  0.8226118E-01
       -1   -1    0    0    0  501  0.00000000000E+00  0.00000000000E+00  0.12392197468E+04  0.12392197469E+04  0.50400001928E-02 0. -1.
        1   -1    0    0  501    0  0.00000000000E+00  0.00000000000E+00 -0.18920440300E+04  0.18920440300E+04  0.50400001928E-02 0.  1.
    10030    2    1    2    0    0  0.00000000000E+00  0.00000000000E+00 -0.65282428320E+03  0.31312637769E+04  0.30624554357E+04 0.  0.
        1    1    3    3  502    0 -0.14670034583E+04 -0.33823333011E+03 -0.40564308003E+02  0.15060366514E+04  0.50400001928E-02 0.  1.
       -1    1    3    3    0  502  0.14670034583E+04  0.33823333011E+03 -0.61225997520E+03  0.16252271255E+04  0.50400001928E-02 0. -1.
</event>
<event>
 5   0  0.2133385E-06  0.3101734E+04  0.7818609E-02  0.8215262E-01
       -2   -1    0    0    0  501  0.00000000000E+00  0.00000000000E+00  0.10184752284E+04  0.10184752284E+04  0.25500000920E-02 0.  1.
        2   -1    0    0  501    0  0.00000000000E+00  0.00000000000E+00 -0.23615587947E+04  0.23615587947E+04  0.25500000920E-02 0. -1.
    10030    2    1    2    0    0  0.00000000000E+00  0.00000000000E+00 -0.13430835663E+04  0.33800340231E+04  0.31017344392E+04 0.  0.
        2    1    3    3  502    0 -0.10932496113E+04 -0.23156443431E+03 -0.18433736550E+04  0.21556537829E+04  0.25500000920E-02 0. -1.
       -2    1    3    3    0  502  0.10932496113E+04  0.23156443431E+03  0.50029008875E+03  0.12243802402E+04  0.25500000920E-02 0.  1.
</event>
<event>
 5   0  0.7413481E-07  0.3110689E+04  0.7818609E-02  0.8212811E-01
        1   -1    0    0  501    0  0.00000000000E+00  0.00000000000E+00  0.16887724849E+04  0.16887724849E+04  0.50400001928E-02 0.  1.
       -1   -1    0    0    0  501  0.00000000000E+00  0.00000000000E+00 -0.14324582724E+04  0.14324582724E+04  0.50400001928E-02 0. -1.
    10030    2    1    2    0    0  0.00000000000E+00  0.00000000000E+00  0.25631421254E+03  0.31212307573E+04  0.31106887444E+04 0.  0.
        5    1    3    3  502    0  0.77788645062E+02 -0.38863824928E+03 -0.13809289760E+04  0.14366898374E+04  0.46999998093E+01 0. -1.
       -5    1    3    3    0  502 -0.77788645062E+02  0.38863824928E+03  0.16372431886E+04  0.16845409199E+04  0.46999998093E+01 0.  1.
</event>
<event>
 5   0  0.7561815E-07  0.3126511E+04  0.7818609E-02  0.8208500E-01
        1   -1    0    0  501    0  0.00000000000E+00  0.00000000000E+00  0.14326398736E+04  0.14326398736E+04  0.50400001928E-02 0.  1.
       -1   -1    0    0    0  501  0.00000000000E+00  0.00000000000E+00 -0.17057792777E+04  0.17057792777E+04  0.50400001928E-02 0. -1.
    10030    2    1    2    0    0  0.00000000000E+00  0.00000000000E+00 -0.27313940417E+03  0.31384191513E+04  0.31265107764E+04 0.  0.
        3    1    3    3  502    0 -0.14949508339E+04  0.43451280802E+03  0.57023543260E+01  0.15568275123E+04  0.10100000352E+00 0.  1.
       -3    1    3    3    0  502  0.14949508339E+04 -0.43451280802E+03 -0.27884175849E+03  0.15815916390E+04  0.10100000352E+00 0. -1.
</event>
<event>
 5   0  0.7656332E-07  0.3053511E+04  0.7818609E-02  0.8228613E-01
        1   -1    0    0  501    0  0.00000000000E+00  0.00000000000E+00  0.17955616135E+04  0.17955616135E+04  0.50400001928E-02 0.  1.
       -1   -1    0    0    0  501  0.00000000000E+00  0.00000000000E+00 -0.12981915424E+04  0.12981915425E+04  0.50400001928E-02 0. -1.
    10030    2    1    2    0    0  0.00000000000E+00  0.00000000000E+00  0.49737007106E+03  0.30937531560E+04  0.30535113562E+04 0.  0.
        2    1    3    3  502    0  0.18388248423E+03  0.92416230232E+03  0.14658051959E+04  0.17425480198E+04  0.25500000920E-02 0.  1.
       -2    1    3    3    0  502 -0.18388248423E+03 -0.92416230232E+03 -0.96843512481E+03  0.13512051362E+04  0.25500000920E-02 0. -1.
</event>
<event>
 5   0  0.2133385E-06  0.3081546E+04  0.7818609E-02  0.8220821E-01
        2   -1    0    0  501    0  0.00000000000E+00  0.00000000000E+00  0.21921659007E+04  0.21921659007E+04  0.25500000920E-02 0. -1.
       -2   -1    0    0    0  501  0.00000000000E+00  0.00000000000E+00 -0.10829387705E+04  0.10829387705E+04  0.25500000920E-02 0.  1.
    10030    2    1    2    0    0  0.00000000000E+00  0.00000000000E+00  0.11092271301E+04  0.32751046712E+04  0.30815460051E+04 0.  0.
        2    1    3    3  502    0  0.20318791384E+03 -0.10260009239E+04  0.17570568590E+04  0.20448012201E+04  0.25500000920E-02 0. -1.
       -2    1    3    3    0  502 -0.20318791384E+03  0.10260009239E+04 -0.64782972881E+03  0.12303034511E+04  0.25500000920E-02 0.  1.
</event>
<event>
 5   0  0.2078009E-06  0.3062790E+04  0.7818609E-02  0.8226025E-01
        2   -1    0    0  501    0  0.00000000000E+00  0.00000000000E+00  0.20662016897E+04  0.20662016897E+04  0.25500000920E-02 0. -1.
       -2   -1    0    0    0  501  0.00000000000E+00  0.00000000000E+00 -0.11350152298E+04  0.11350152298E+04  0.25500000920E-02 0.  1.
    10030    2    1    2    0    0  0.00000000000E+00  0.00000000000E+00  0.93118645997E+03  0.32012169195E+04  0.30627898300E+04 0.  0.
        3    1    3    3  502    0 -0.80547353242E+03 -0.10727621538E+04  0.12375994681E+04  0.18251736092E+04  0.10100000352E+00 0. -1.
       -3    1    3    3    0  502  0.80547353242E+03  0.10727621538E+04 -0.30641300814E+03  0.13760433103E+04  0.10100000352E+00 0.  1.
</event>
<event>
 5   0  0.7413481E-07  0.3102529E+04  0.7818609E-02  0.8215044E-01
       -1   -1    0    0    0  501  0.00000000000E+00  0.00000000000E+00  0.11354997240E+04  0.11354997240E+04  0.50400001928E-02 0.  1.
        1   -1    0    0  501    0  0.00000000000E+00  0.00000000000E+00 -0.21192617825E+04  0.21192617825E+04  0.50400001928E-02 0. -1.
    10030    2    1    2    0    0  0.00000000000E+00  0.00000000000E+00 -0.98376205849E+03  0.32547615065E+04  0.31025287552E+04 0.  0.
        5    1    3    3  502    0 -0.92886218124E+02 -0.10474386384E+04  0.70453575735E+03  0.12657599591E+04  0.46999998093E+01 0.  1.
       -5    1    3    3    0  502  0.92886218124E+02  0.10474386384E+04 -0.16882978158E+04  0.19890015474E+04  0.46999998093E+01 0. -1.
</event>
<event>
 5   0  0.7726743E-07  0.3098117E+04  0.7818609E-02  0.8216255E-01
       -1   -1    0    0    0  501  0.00000000000E+00  0.00000000000E+00  0.18010882620E+04  0.18010882620E+04  0.50400001928E-02 0.  1.
        1   -1    0    0  501    0  0.00000000000E+00  0.00000000000E+00 -0.13322955839E+04  0.13322955839E+04  0.50400001928E-02 0. -1.
    10030    2    1    2    0    0  0.00000000000E+00  0.00000000000E+00  0.46879267811E+03  0.31333838458E+04  0.30981168071E+04 0.  0.
        1    1    3    3  502    0 -0.83258706378E+02  0.32226734573E+03 -0.12957012662E+04  0.13377705429E+04  0.50400001928E-02 0. -1.
       -1    1    3    3    0  502  0.83258706378E+02 -0.32226734573E+03  0.17644939443E+04  0.17956133029E+04  0.50400001928E-02 0.  1.
</event>
<event>
 5   0  0.7413481E-07  0.3103019E+04  0.7818609E-02  0.8214910E-01
        1   -1    0    0  501    0  0.00000000000E+00  0.00000000000E+00  0.18442320933E+04  0.18442320934E+04  0.50400001928E-02 0. -1.
       -1   -1    0    0    0  501  0.00000000000E+00  0.00000000000E+00 -0.13052489644E+04  0.13052489644E+04  0.50400001928E-02 0.  1.
    10030    2    1    2    0    0  0.00000000000E+00  0.00000000000E+00  0.53898312899E+03  0.31494810577E+04  0.31030191942E+04 0.  0.
        5    1    3    3  502    0  0.12991106199E+04  0.21787158087E+03 -0.56254097248E+03  0.14323515156E+04  0.46999998093E+01 0.  1.
       -5    1    3    3    0  502 -0.12991106199E+04 -0.21787158087E+03  0.11015241015E+04  0.17171295422E+04  0.46999998093E+01 0. -1.
</event>
<event>
 5   0  0.2226334E-06  0.3100230E+04  0.7818609E-02  0.8215675E-01
       -2   -1    0    0    0  501  0.00000000000E+00  0.00000000000E+00  0.11909700729E+04  0.11909700729E+04  0.25500000920E-02 0. -1.
        2   -1    0    0  501    0  0.00000000000E+00  0.00000000000E+00 -0.20175629002E+04  0.20175629002E+04  0.25500000920E-02 0.  1.
    10030    2    1    2    0    0  0.00000000000E+00  0.00000000000E+00 -0.82659282730E+03  0.32085329731E+04  0.31002303362E+04 0.  0.
        5    1    3    3  502    0 -0.12506058526E+04  0.42848409897E+03  0.42443838543E+03  0.13884464897E+04  0.46999998093E+01 0. -1.
       -5    1    3    3    0  502  0.12506058526E+04 -0.42848409897E+03 -0.12510312127E+04  0.18200864834E+04  0.46999998093E+01 0.  1.
</event>
<event>
 5   0  0.6979625E-07  0.3094773E+04  0.7818609E-02  0.8217174E-01
       -3   -1    0    0    0  501  0.00000000000E+00  0.00000000000E+00  0.99028218858E+03  0.99028219373E+03  0.10100000352E+00 0.  1.
        3   -1    0    0  501    0  0.00000000000E+00  0.00000000000E+00 -0.24179014175E+04  0.24179014196E+04  0.10100000352E+00 0. -1.
    10030    2    1    2    0    0  0.00000000000E+00  0.00000000000E+00 -0.14276192289E+04  0.34081836133E+04  0.30947728316E+04 0.  0.
        3    1    3    3  502    0  0.60280480194E+03  0.82494912463E+03 -0.19936031093E+04  0.22401714343E+04  0.10100000352E+00 0. -1.
       -3    1    3    3    0  502 -0.60280480194E+03 -0.82494912463E+03  0.56598388034E+03  0.11680121791E+04  0.10100000352E+00 0.  1.
</event>
<event>
 5   0  0.2133385E-06  0.3084337E+04  0.7818609E-02  0.8220050E-01
        2   -1    0    0  501    0  0.00000000000E+00  0.00000000000E+00  0.23078760632E+04  0.23078760632E+04  0.25500000920E-02 0. -1.
       -2   -1    0    0    0  501  0.00000000000E+00  0.00000000000E+00 -0.10305077033E+04  0.10305077033E+04  0.25500000920E-02 0.  1.
    10030    2    1    2    0    0  0.00000000000E+00  0.00000000000E+00  0.12773683599E+04  0.33383837665E+04  0.30843372458E+04 0.  0.
        2    1    3    3  502    0  0.33522057561E+03 -0.85242362212E+03  0.19815541059E+04  0.21830152406E+04  0.25500000920E-02 0. -1.
       -2    1    3    3    0  502 -0.33522057561E+03  0.85242362212E+03 -0.70418574602E+03  0.11553685260E+04  0.25500000920E-02 0.  1.
</event>
<event>
 5   0  0.2133385E-06  0.3081193E+04  0.7818609E-02  0.8220918E-01
        2   -1    0    0  501    0  0.00000000000E+00  0.00000000000E+00  0.26589104647E+04  0.26589104647E+04  0.25500000920E-02 0. -1.
       -2   -1    0    0    0  501  0.00000000000E+00  0.00000000000E+00 -0.89263539700E+03  0.89263539701E+03  0.25500000920E-02 0.  1.
    10030    2    1    2    0    0  0.00000000000E+00  0.00000000000E+00  0.17662750677E+04  0.35515458617E+04  0.30811930146E+04 0.  0.
        2    1    3    3  502    0 -0.41802308831E+03  0.67402186422E+03 -0.63923230157E+03  0.10186592714E+04  0.25500000920E-02 0.  1.
       -2    1    3    3    0  502  0.41802308831E+03 -0.67402186422E+03  0.24055073692E+04  0.25328865903E+04  0.25500000920E-02 0. -1.
</event>
<event>
 5   0  0.2226334E-06  0.3091974E+04  0.7818609E-02  0.8217944E-01
       -2   -1    0    0    0  501  0.00000000000E+00  0.00000000000E+00  0.12677271948E+04  0.12677271948E+04  0.25500000920E-02 0.  1.
        2   -1    0    0  501    0  0.00000000000E+00  0.00000000000E+00 -0.18853237001E+04  0.18853237001E+04  0.25500000920E-02 0. -1.
    10030    2    1    2    0    0  0.00000000000E+00  0.00000000000E+00 -0.61759650531E+03  0.31530508949E+04  0.30919742079E+04 0.  0.
        5    1    3    3  502    0 -0.64304680299E+03 -0.14058764981E+04 -0.30115915662E+03  0.15750291573E+04  0.46999998093E+01 0.  1.
       -5    1    3    3    0  502  0.64304680299E+03  0.14058764981E+04 -0.31643734869E+03  0.15780217376E+04  0.46999998093E+01 0. -1.
</event>
<event>
 5   0  0.2067926E-06  0.3111914E+04  0.7818609E-02  0.8212476E-01
       -2   -1    0    0    0  501  0.00000000000E+00  0.00000000000E+00  0.11992531947E+04  0.11992531947E+04  0.25500000920E-02 0.  1.
        2   -1    0    0  501    0  0.00000000000E+00  0.00000000000E+00 -0.20187575547E+04  0.20187575547E+04  0.25500000920E-02 0. -1.
    10030    2    1    2    0    0  0.00000000000E+00  0.00000000000E+00 -0.81950435996E+03  0.32180107494E+04  0.31119135250E+04 0.  0.
        1    1    3    3  502    0 -0.84308492557E+03  0.11143121920E+04  0.29806797092E+03  0.14287506320E+04  0.50400001928E-02 0.  1.
       -1    1    3    3    0  502  0.84308492557E+03 -0.11143121920E+04 -0.11175723309E+04  0.17892601174E+04  0.50400001928E-02 0. -1.
</event>
<event>
 5   0  0.2133385E-06  0.3113409E+04  0.7818609E-02  0.8212068E-01
       -2   -1    0    0    0  501  0.00000000000E+00  0.00000000000E+00  0.15553187047E+04  0.15553187047E+04  0.25500000920E-02 0.  1.
        2   -1    0    0  501    0  0.00000000000E+00  0.00000000000E+00 -0.15580911027E+04  0.15580911027E+04  0.25500000920E-02 0. -1.
    10030    2    1    2    0    0  0.00000000000E+00  0.00000000000E+00 -0.27723980861E+01  0.31134098074E+04  0.31134085730E+04 0.  0.
        2    1    3    3  502    0 -0.23805078817E+03  0.64807679607E+03 -0.13966130866E+04  0.15579473114E+04  0.25500000920E-02 0. -1.
       -2    1    3    3    0  502  0.23805078817E+03 -0.64807679607E+03  0.13938406885E+04  0.15554624960E+04  0.25500000920E-02 0.  1.
</event>
<event>
 5   0  0.2067926E-06  0.3116827E+04  0.7818609E-02  0.8211135E-01
        2   -1    0    0  501    0  0.00000000000E+00  0.00000000000E+00  0.25008702157E+04  0.25008702157E+04  0.25500000920E-02 0.  1.
       -2   -1    0    0    0  501  0.00000000000E+00  0.00000000000E+00 -0.97112324782E+03  0.97112324782E+03  0.25500000920E-02 0. -1.
    10030    2    1    2    0    0  0.00000000000E+00  0.00000000000E+00  0.15297469679E+04  0.34719934635E+04  0.31168273653E+04 0.  0.
        1    1    3    3  502    0 -0.38886425339E+03 -0.15088476336E+04  0.79670632879E+03  0.17500221608E+04  0.50400001928E-02 0. -1.
       -1    1    3    3    0  502  0.38886425339E+03  0.15088476336E+04  0.73304063908E+03  0.17219713027E+04  0.50400001928E-02 0.  1.
</event>
<event>
 5   0  0.7519202E-07  0.3139335E+04  0.7818609E-02  0.8205025E-01
       -1   -1    0    0    0  501  0.00000000000E+00  0.00000000000E+00  0.96595074257E+03  0.96595074258E+03  0.50400001928E-02 0. -1.
        1   -1    0    0  501    0  0.00000000000E+00  0.00000000000E+00 -0.25507052507E+04  0.25507052507E+04  0.50400001928E-02 0.  1.
    10030    2    1    2    0    0  0.00000000000E+00  0.00000000000E+00 -0.15847545081E+04  0.35166559933E+04  0.31393347263E+04 0.  0.
        4    1    3    3  502    0  0.58928053174E+03  0.10361788586E+04 -0.19363641769E+04  0.22738570779E+04  0.12699999809E+01 0.  1.
       -4    1    3    3    0  502 -0.58928053174E+03 -0.10361788586E+04  0.35160966878E+03  0.12427989154E+04  0.12699999809E+01 0. -1.
</event>
<event>
 5   0  0.7519202E-07  0.3105295E+04  0.7818609E-02  0.8214286E-01
        1   -1    0    0  501    0  0.00000000000E+00  0.00000000000E+00  0.17809324712E+04  0.17809324712E+04  0.50400001928E-02 0.  1.
       -1   -1    0    0    0  501  0.00000000000E+00  0.00000000000E+00 -0.13536247584E+04  0.13536247584E+04  0.50400001928E-02 0. -1.
    10030    2    1    2    0    0  0.00000000000E+00  0.00000000000E+00  0.42730771283E+03  0.31345572296E+04  0.31052950173E+04 0.  0.
        4    1    3    3  502    0 -0.31643635793E+03 -0.28074188270E+03 -0.12943329401E+04  0.13617075112E+04  0.12699999809E+01 0. -1.
       -4    1    3    3    0  502  0.31643635793E+03  0.28074188270E+03  0.17216406530E+04  0.17728497184E+04  0.12699999809E+01 0.  1.
</event>
<event>
 5   0  0.7519202E-07  0.3064122E+04  0.7818609E-02  0.8225654E-01
       -1   -1    0    0    0  501  0.00000000000E+00  0.00000000000E+00  0.11042663064E+04  0.11042663065E+04  0.50400001928E-02 0.  1.
        1   -1    0    0  501    0  0.00000000000E+00  0.00000000000E+00 -0.21255834274E+04  0.21255834274E+04  0.50400001928E-02 0. -1.
    10030    2    1    2    0    0  0.00000000000E+00  0.00000000000E+00 -0.10213171209E+04  0.32298497338E+04  0.30641215122E+04 0.  0.
        4    1    3    3  502    0  0.94682942780E+03  0.11707076461E+04 -0.80910881525E+03  0.17092984075E+04  0.12699999809E+01 0. -1.
       -4    1    3    3    0  502 -0.94682942780E+03 -0.11707076461E+04 -0.21220830567E+03  0.15205513263E+04  0.12699999809E+01 0.  1.
</event>
<event>
 5   0  0.2094135E-06  0.3104389E+04  0.7818609E-02  0.8214534E-01
       -2   -1    0    0    0  501  0.00000000000E+00  0.00000000000E+00  0.11394884980E+04  0.11394884980E+04  0.25500000920E-02 0.  1.
        2   -1    0    0  501    0  0.00000000000E+00  0.00000000000E+00 -0.21143765903E+04  0.21143765903E+04  0.25500000920E-02 0. -1.
    10030    2    1    2    0    0  0.00000000000E+00  0.00000000000E+00 -0.97488809227E+03  0.32538650883E+04  0.31043890253E+04 0.  0.
        4    1    3    3  502    0  0.37318328023E+03  0.14706040148E+04 -0.14400214712E+03  0.15240341729E+04  0.12699999809E+01 0. -1.
       -4    1    3    3    0  502 -0.37318328023E+03 -0.14706040148E+04 -0.83088594515E+03  0.17298309154E+04  0.12699999809E+01 0.  1.
</event>
<event>
 5   0  0.7413481E-07  0.3096073E+04  0.7818609E-02  0.8216816E-01
       -1   -1    0    0    0  501  0.00000000000E+00  0.00000000000E+00  0.15662159029E+04  0.15662159029E+04  0.50400001928E-02 0.  1.
        1   -1    0    0  501    0  0.00000000000E+00  0.00000000000E+00 -0.15300686029E+04  0.15300686029E+04  0.50400001928E-02 0. -1.
    10030    2    1    2    0    0  0.00000000000E+00  0.00000000000E+00  0.36147300089E+02  0.30962845058E+04  0.30960734994E+04 0.  0.
        5    1    3    3  502    0  0.34359032215E+03  0.10391875456E+04 -0.10767295206E+04  0.15353610699E+04  0.46999998093E+01 0. -1.
       -5    1    3    3    0  502 -0.34359032215E+03 -0.10391875456E+04  0.11128768207E+04  0.15609234359E+04  0.46999998093E+01 0.  1.
</event>
<event>
 5   0  0.7656332E-07  0.3119588E+04  0.7818609E-02  0.8210383E-01
       -1   -1    0    0    0  501  0.00000000000E+00  0.00000000000E+00  0.20578967076E+04  0.20578967076E+04  0.50400001928E-02 0.  1.
        1   -1    0    0  501    0  0.00000000000E+00  0.00000000000E+00 -0.11822539700E+04  0.11822539700E+04  0.50400001928E-02 0. -1.
    10030    2    1    2    0    0  0.00000000000E+00  0.00000000000E+00  0.87564273762E+03  0.32401506777E+04  0.31195875064E+04 0.  0.
        2    1    3    3  502    0  0.11692421126E+04 -0.57668655805E+03 -0.45157968214E+03  0.13797168961E+04  0.25500000920E-02 0. -1.
       -2    1    3    3    0  502 -0.11692421126E+04  0.57668655805E+03  0.13272224198E+04  0.18604337816E+04  0.25500000920E-02 0.  1.
</event>
<event>
 5   0  0.7519202E-07  0.3082977E+04  0.7818609E-02  0.8220425E-01
       -1   -1    0    0    0  501  0.00000000000E+00  0.00000000000E+00  0.15677923070E+04  0.15677923070E+04  0.50400001928E-02 0. -1.
        1   -1    0    0  501    0  0.00000000000E+00  0.00000000000E+00 -0.15156262583E+04  0.15156262584E+04  0.50400001928E-02 0.  1.
    10030    2    1    2    0    0  0.00000000000E+00  0.00000000000E+00  0.52166048639E+02  0.30834185653E+04  0.30829772546E+04 0.  0.
        4    1    3    3  502    0 -0.12054748069E+04  0.93664779941E+03  0.23990550049E+03  0.15453267850E+04  0.12699999809E+01 0. -1.
       -4    1    3    3    0  502  0.12054748069E+04 -0.93664779941E+03 -0.18773945185E+03  0.15380917804E+04  0.12699999809E+01 0.  1.
</event>
<event>
 5   0  0.7519202E-07  0.3105528E+04  0.7818609E-02  0.8214222E-01
        1   -1    0    0  501    0  0.00000000000E+00  0.00000000000E+00  0.25385426553E+04  0.25385426553E+04  0.50400001928E-02 0.  1.
       -1   -1    0    0    0  501  0.00000000000E+00  0.00000000000E+00 -0.94978768356E+03  0.94978768357E+03  0.50400001928E-02 0. -1.
    10030    2    1    2    0    0  0.00000000000E+00  0.00000000000E+00  0.15887549718E+04  0.34883303389E+04  0.31055283275E+04 0.  0.
        4    1    3    3  502    0 -0.36505028251E+03 -0.12117806925E+04  0.18049417100E+04  0.22044251733E+04  0.12699999809E+01 0.  1.
       -4    1    3    3    0  502  0.36505028251E+03  0.12117806925E+04 -0.21618673823E+03  0.12839051656E+04  0.12699999809E+01 0. -1.
</event>
<event>
 5   0  0.2078009E-06  0.3343237E+04  0.7818609E-02  0.8151980E-01
       -2   -1    0    0    0  501  0.00000000000E+00  0.00000000000E+00  0.10270792503E+04  0.10270792503E+04  0.25500000920E-02 0.  1.
        2   -1    0    0  501    0  0.00000000000E+00  0.00000000000E+00 -0.27206355536E+04  0.27206355536E+04  0.25500000920E-02 0. -1.
    10030    2    1    2    0    0  0.00000000000E+00  0.00000000000E+00 -0.16935563033E+04  0.37477148039E+04  0.33432369493E+04 0.  0.
        3    1    3    3  502    0 -0.43638664967E+03 -0.64816064424E+03  0.80976253317E+03  0.11252825863E+04  0.10100000352E+00 0.  1.
       -3    1    3    3    0  502  0.43638664967E+03  0.64816064424E+03 -0.25033188364E+04  0.26224322176E+04  0.10100000352E+00 0. -1.
</event>
<event>
 5   0  0.7656332E-07  0.3117100E+04  0.7818609E-02  0.8211061E-01
       -1   -1    0    0    0  501  0.00000000000E+00  0.00000000000E+00  0.14961831500E+04  0.14961831500E+04  0.50400001928E-02 0.  1.
        1   -1    0    0  501    0  0.00000000000E+00  0.00000000000E+00 -0.16235163588E+04  0.16235163588E+04  0.50400001928E-02 0. -1.
    10030    2    1    2    0    0  0.00000000000E+00  0.00000000000E+00 -0.12733320877E+03  0.31196995089E+04  0.31170998187E+04 0.  0.
        2    1    3    3  502    0  0.14302837895E+04 -0.61874280835E+03 -0.86564462208E+02  0.15607843501E+04  0.25500000920E-02 0. -1.
       -2    1    3    3    0  502 -0.14302837895E+04  0.61874280835E+03 -0.40768746567E+02  0.15589151587E+04  0.25500000920E-02 0.  1.
</event>
<event>
 5   0  0.2078009E-06  0.3142805E+04  0.7818609E-02  0.8204088E-01
       -2   -1    0    0    0  501  0.00000000000E+00  0.00000000000E+00  0.14536351231E+04  0.14536351231E+04  0.25500000920E-02 0.  1.
        2   -1    0    0  501    0  0.00000000000E+00  0.00000000000E+00 -0.16987107192E+04  0.16987107192E+04  0.25500000920E-02 0. -1.
    10030    2    1    2    0    0  0.00000000000E+00  0.00000000000E+00 -0.24507559614E+03  0.31523458423E+04  0.31428048399E+04 0.  0.
        3    1    3    3  502    0 -0.90593400337E+03 -0.79035717849E+03 -0.11375013512E+04  0.16550801256E+04  0.10100000352E+00 0. -1.
       -3    1    3    3    0  502  0.90593400337E+03  0.79035717849E+03  0.89242575501E+03  0.14972657167E+04  0.10100000352E+00 0.  1.
</event>
<event>
 5   0  0.7413481E-07  0.3062303E+04  0.7818609E-02  0.8226160E-01
       -1   -1    0    0    0  501  0.00000000000E+00  0.00000000000E+00  0.12998716365E+04  0.12998716366E+04  0.50400001928E-02 0.  1.
        1   -1    0    0  501    0  0.00000000000E+00  0.00000000000E+00 -0.18035823020E+04  0.18035823020E+04  0.50400001928E-02 0. -1.
    10030    2    1    2    0    0  0.00000000000E+00  0.00000000000E+00 -0.50371066544E+03  0.31034539385E+04  0.30623033674E+04 0.  0.
        5    1    3    3  502    0  0.13058085469E+04 -0.48594086655E+03 -0.89531163618E+03  0.16561640929E+04  0.46999998093E+01 0. -1.
       -5    1    3    3    0  502 -0.13058085469E+04  0.48594086655E+03  0.39160097074E+03  0.14472898456E+04  0.46999998093E+01 0.  1.
</event>
<event>
 5   0  0.2078009E-06  0.2851642E+04  0.7818609E-02  0.8287413E-01
       -2   -1    0    0    0  501  0.00000000000E+00  0.00000000000E+00  0.29381336406E+04  0.29381336406E+04  0.25500000920E-02 0. -1.
        2   -1    0    0  501    0  0.00000000000E+00  0.00000000000E+00 -0.69192400272E+03  0.69192400272E+03  0.25500000920E-02 0.  1.
    10030    2    1    2    0    0  0.00000000000E+00  0.00000000000E+00  0.22462096379E+04  0.36300576433E+04  0.28516417651E+04 0.  0.
        3    1    3    3  502    0  0.66850208783E+03 -0.93768469515E+03  0.21933227345E+04  0.24772590209E+04  0.10100000352E+00 0.  1.
       -3    1    3    3    0  502 -0.66850208783E+03  0.93768469515E+03  0.52886903352E+02  0.11527986224E+04  0.10100000352E+00 0. -1.
</event>
<event>
 5   0  0.7561815E-07  0.3081168E+04  0.7818609E-02  0.8220925E-01
       -1   -1    0    0    0  501  0.00000000000E+00  0.00000000000E+00  0.14255313831E+04  0.14255313831E+04  0.50400001928E-02 0.  1.
        1   -1    0    0  501    0  0.00000000000E+00  0.00000000000E+00 -0.16649218601E+04  0.16649218601E+04  0.50400001928E-02 0. -1.
    10030    2    1    2    0    0  0.00000000000E+00  0.00000000000E+00 -0.23939047700E+03  0.30904532432E+04  0.30811675462E+04 0.  0.
        3    1    3    3  502    0  0.15193871430E+04 -0.25141713596E+03 -0.16044383643E+03  0.15483830603E+04  0.10100000352E+00 0. -1.
       -3    1    3    3    0  502 -0.15193871430E+04  0.25141713596E+03 -0.78946640570E+02  0.15420701829E+04  0.10100000352E+00 0.  1.
</event>
<event>
 5   0  0.7413481E-07  0.3090938E+04  0.7818609E-02  0.8218229E-01
        1   -1    0    0  501    0  0.00000000000E+00  0.00000000000E+00  0.18008418346E+04  0.18008418346E+04  0.50400001928E-02 0. -1.
       -1   -1    0    0    0  501  0.00000000000E+00  0.00000000000E+00 -0.13263097529E+04  0.13263097529E+04  0.50400001928E-02 0.  1.
    10030    2    1    2    0    0  0.00000000000E+00  0.00000000000E+00  0.47453208170E+03  0.31271515875E+04  0.30909377792E+04 0.  0.
        5    1    3    3  502    0 -0.67139375858E+03 -0.79101646791E+03 -0.92156871411E+03  0.13877275008E+04  0.46999998093E+01 0.  1.
       -5    1    3    3    0  502  0.67139375858E+03  0.79101646791E+03  0.13961007958E+04  0.17394240868E+04  0.46999998093E+01 0. -1.
</event>
<event>
 5   0  0.2078009E-06  0.3089624E+04  0.7818609E-02  0.8218591E-01
       -2   -1    0    0    0  501  0.00000000000E+00  0.00000000000E+00  0.15876426856E+04  0.15876426856E+04  0.25500000920E-02 0.  1.
        2   -1    0    0  501    0  0.00000000000E+00  0.00000000000E+00 -0.15031372246E+04  0.15031372246E+04  0.25500000920E-02 0. -1.
    10030    2    1    2    0    0  0.00000000000E+00  0.00000000000E+00  0.84505460970E+02  0.30907799102E+04  0.30896244562E+04 0.  0.
        3    1    3    3  502    0 -0.33865246959E+03  0.18267358088E+03  0.15389371365E+04  0.15863110201E+04  0.10100000352E+00 0.  1.
       -3    1    3    3    0  502  0.33865246959E+03 -0.18267358088E+03 -0.14544316755E+04  0.15044688901E+04  0.10100000352E+00 0. -1.
</event>
<event>
 5   0  0.7561815E-07  0.3091689E+04  0.7818609E-02  0.8218023E-01
        1   -1    0    0  501    0  0.00000000000E+00  0.00000000000E+00  0.22951329524E+04  0.22951329524E+04  0.50400001928E-02 0.  1.
       -1   -1    0    0    0  501  0.00000000000E+00  0.00000000000E+00 -0.10411747824E+04  0.10411747824E+04  0.50400001928E-02 0. -1.
    10030    2    1    2    0    0  0.00000000000E+00  0.00000000000E+00  0.12539581700E+04  0.33363077349E+04  0.30916885693E+04 0.  0.
        3    1    3    3  502    0 -0.11457985866E+04 -0.96870124239E+03  0.22552550191E+03  0.15172667070E+04  0.10100000352E+00 0.  1.
       -3    1    3    3    0  502  0.11457985866E+04  0.96870124239E+03  0.10284326681E+04  0.18190410279E+04  0.10100000352E+00 0. -1.
</event>
<event>
 5   0  0.7656332E-07  0.3086048E+04  0.7818609E-02  0.8219577E-01
       -1   -1    0    0    0  501  0.00000000000E+00  0.00000000000E+00  0.11572045555E+04  0.11572045555E+04  0.50400001928E-02 0. -1.
        1   -1    0    0  501    0  0.00000000000E+00  0.00000000000E+00 -0.20574776664E+04  0.20574776664E+04  0.50400001928E-02 0.  1.
    10030    2    1    2    0    0  0.00000000000E+00  0.00000000000E+00 -0.90027311086E+03  0.32146822219E+04  0.30860476525E+04 0.  0.
        2    1    3    3  502    0 -0.55427652387E+03 -0.49017686638E+03 -0.18606174141E+04  0.20023468698E+04  0.25500000920E-02 0.  1.
       -2    1    3    3    0  502  0.55427652387E+03  0.49017686638E+03  0.96034430323E+03  0.12123353521E+04  0.25500000920E-02 0. -1.
</event>
<event>
 5   0  0.2133385E-06  0.2824689E+04  0.7818609E-02  0.8295644E-01
        2   -1    0    0  501    0  0.00000000000E+00  0.00000000000E+00  0.22600312465E+04  0.22600312465E+04  0.25500000920E-02 0.  1.
       -2   -1    0    0    0  501  0.00000000000E+00  0.00000000000E+00 -0.88260618108E+03  0.88260618109E+03  0.25500000920E-02 0. -1.
    10030    2    1    2    0    0  0.00000000000E+00  0.00000000000E+00  0.13774250654E+04  0.31426374276E+04  0.28246893972E+04 0.  0.
        2    1    3    3  502    0 -0.68918836670E+03  0.89376492807E+03  0.16333550223E+04  0.19853576454E+04  0.25500000920E-02 0.  1.
       -2    1    3    3    0  502  0.68918836670E+03 -0.89376492807E+03 -0.25592995684E+03  0.11572797822E+04  0.25500000920E-02 0. -1.
</event>
<event>
 5   0  0.2133385E-06  0.3137838E+04  0.7818609E-02  0.8205430E-01
       -2   -1    0    0    0  501  0.00000000000E+00  0.00000000000E+00  0.14011405496E+04  0.14011405496E+04  0.25500000920E-02 0.  1.
        2   -1    0    0  501    0  0.00000000000E+00  0.00000000000E+00 -0.17567880993E+04  0.17567880993E+04  0.25500000920E-02 0. -1.
    10030    2    1    2    0    0  0.00000000000E+00  0.00000000000E+00 -0.35564754969E+03  0.31579286488E+04  0.31378381366E+04 0.  0.
        2    1    3    3  502    0  0.79622920116E+02 -0.12090883738E+04 -0.11808354546E+04  0.16919240160E+04  0.25500000920E-02 0. -1.
       -2    1    3    3    0  502 -0.79622920116E+02  0.12090883738E+04  0.82518790490E+03  0.14660046328E+04  0.25500000920E-02 0.  1.
</event>
<event>
 5   0  0.2094135E-06  0.3140341E+04  0.7818609E-02  0.8204753E-01
       -2   -1    0    0    0  501  0.00000000000E+00  0.00000000000E+00  0.97338602185E+03  0.97338602185E+03  0.25500000920E-02 0. -1.
        2   -1    0    0  501    0  0.00000000000E+00  0.00000000000E+00 -0.25328439627E+04  0.25328439627E+04  0.25500000920E-02 0.  1.
    10030    2    1    2    0    0  0.00000000000E+00  0.00000000000E+00 -0.15594579408E+04  0.35062299845E+04  0.31403406878E+04 0.  0.
        4    1    3    3  502    0  0.14613721930E+04  0.57114746466E+03 -0.84686084646E+03  0.17829730842E+04  0.12699999809E+01 0.  1.
       -4    1    3    3    0  502 -0.14613721930E+04 -0.57114746466E+03 -0.71259709438E+03  0.17232569004E+04  0.12699999809E+01 0. -1.
</event>
<event>
 5   0  0.2067926E-06  0.3151054E+04  0.7818609E-02  0.8201865E-01
        2   -1    0    0  501    0  0.00000000000E+00  0.00000000000E+00  0.16090671685E+04  0.16090671685E+04  0.25500000920E-02 0. -1.
       -2   -1    0    0    0  501  0.00000000000E+00  0.00000000000E+00 -0.15426860638E+04  0.15426860638E+04  0.25500000920E-02 0.  1.
    10030    2    1    2    0    0  0.00000000000E+00  0.00000000000E+00  0.66381104667E+02  0.31517532323E+04  0.31510541072E+04 0.  0.
        1    1    3    3  502    0  0.75266630082E+03  0.97861977381E+03 -0.94584339064E+03  0.15552565517E+04  0.50400001928E-02 0.  1.
       -1    1    3    3    0  502 -0.75266630082E+03 -0.97861977381E+03  0.10122244953E+04  0.15964966806E+04  0.50400001928E-02 0. -1.
</event>
<event>
 5   0  0.2226334E-06  0.3083272E+04  0.7818609E-02  0.8220344E-01
       -2   -1    0    0    0  501  0.00000000000E+00  0.00000000000E+00  0.10910454539E+04  0.10910454539E+04  0.25500000920E-02 0. -1.
        2   -1    0    0  501    0  0.00000000000E+00  0.00000000000E+00 -0.21783154268E+04  0.21783154268E+04  0.25500000920E-02 0.  1.
    10030    2    1    2    0    0  0.00000000000E+00  0.00000000000E+00 -0.10872699729E+04  0.32693608807E+04  0.30832717321E+04 0.  0.
        5    1    3    3  502    0  0.15297843347E+04  0.13962030337E+02 -0.34193337119E+03  0.15676018529E+04  0.46999998093E+01 0.  1.
       -5    1    3    3    0  502 -0.15297843347E+04 -0.13962030337E+02 -0.74533660172E+03  0.17017590278E+04  0.46999998093E+01 0. -1.
</event>
<event>
 5   0  0.2094135E-06  0.3098677E+04  0.7818609E-02  0.8216101E-01
        2   -1    0    0  501    0  0.00000000000E+00  0.00000000000E+00  0.98814947907E+03  0.98814947907E+03  0.25500000920E-02 0. -1.
       -2   -1    0    0    0  501  0.00000000000E+00  0.00000000000E+00 -0.24292377574E+04  0.24292377574E+04  0.25500000920E-02 0.  1.
    10030    2    1    2    0    0  0.00000000000E+00  0.00000000000E+00 -0.14410882783E+04  0.34173872364E+04  0.30986771529E+04 0.  0.
        4    1    3    3  502    0 -0.92604221945E+03  0.12133321458E+04 -0.10138271533E+04  0.18323690125E+04  0.12699999809E+01 0.  1.
       -4    1    3    3    0  502  0.92604221945E+03 -0.12133321458E+04 -0.42726112497E+03  0.15850182239E+04  0.12699999809E+01 0. -1.
</event>
<event>
 5   0  0.2067926E-06  0.3094147E+04  0.7818609E-02  0.8217346E-01
       -2   -1    0    0    0  501  0.00000000000E+00  0.00000000000E+00  0.12303506226E+04  0.12303506226E+04  0.25500000920E-02 0.  1.
        2   -1    0    0  501    0  0.00000000000E+00  0.00000000000E+00 -0.19453284541E+04  0.19453284541E+04  0.25500000920E-02 0. -1.
    10030    2    1    2    0    0  0.00000000000E+00  0.00000000000E+00 -0.71497783149E+03  0.31756790767E+04  0.30941467804E+04 0.  0.
        1    1    3    3  502    0 -0.92087583312E+03  0.12129793698E+04 -0.63688411056E+03  0.16507430515E+04  0.50400001928E-02 0.  1.
       -1    1    3    3    0  502  0.92087583312E+03 -0.12129793698E+04 -0.78093720930E+02  0.15249360252E+04  0.50400001928E-02 0. -1.
</event>
<event>
 5   0  0.6979625E-07  0.3115622E+04  0.7818609E-02  0.8211464E-01
       -3   -1    0    0    0  501  0.00000000000E+00  0.00000000000E+00  0.25253471492E+04  0.25253471513E+04  0.10100000352E+00 0. -1.
        3   -1    0    0  501    0  0.00000000000E+00  0.00000000000E+00 -0.96096691799E+03  0.96096692330E+03  0.10100000352E+00 0.  1.
    10030    2    1    2    0    0  0.00000000000E+00  0.00000000000E+00  0.15643802312E+04  0.34863140746E+04  0.31156219794E+04 0.  0.
        5    1    3    3  502    0 -0.10235029785E+04 -0.49621046295E+03 -0.40886242750E+03  0.12087074688E+04  0.46999998093E+01 0.  1.
       -5    1    3    3    0  502  0.10235029785E+04  0.49621046295E+03  0.19732426587E+04  0.22776066058E+04  0.46999998093E+01 0. -1.
</event>
<event>
 5   0  0.7561815E-07  0.3112468E+04  0.7818609E-02  0.8212325E-01
       -1   -1    0    0    0  501  0.00000000000E+00  0.00000000000E+00  0.12022409212E+04  0.12022409212E+04  0.50400001928E-02 0.  1.
        1   -1    0    0  501    0  0.00000000000E+00  0.00000000000E+00 -0.20144579912E+04  0.20144579912E+04  0.50400001928E-02 0. -1.
    10030    2    1    2    0    0  0.00000000000E+00  0.00000000000E+00 -0.81221707005E+03  0.32166989124E+04  0.31124677226E+04 0.  0.
        3    1    3    3  502    0 -0.10953958463E+04 -0.10626970948E+04 -0.91536287329E+02  0.15289199055E+04  0.10100000352E+00 0. -1.
       -3    1    3    3    0  502  0.10953958463E+04  0.10626970948E+04 -0.72068078272E+03  0.16877790069E+04  0.10100000352E+00 0.  1.
</event>
<event>
 5   0  0.2226334E-06  0.3117863E+04  0.7818609E-02  0.8210853E-01
       -2   -1    0    0    0  501  0.00000000000E+00  0.00000000000E+00  0.91309825603E+03  0.91309825603E+03  0.25500000920E-02 0. -1.
        2   -1    0    0  501    0  0.00000000000E+00  0.00000000000E+00 -0.26615611308E+04  0.26615611308E+04  0.25500000920E-02 0.  1.
    10030    2    1    2    0    0  0.00000000000E+00  0.00000000000E+00 -0.17484628747E+04  0.35746593868E+04  0.31178626184E+04 0.  0.
        5    1    3    3  502    0 -0.13050860717E+04 -0.32601680994E+03  0.29046505131E+02  0.13455119488E+04  0.46999998093E+01 0. -1.
       -5    1    3    3    0  502  0.13050860717E+04  0.32601680994E+03 -0.17775093799E+04  0.22291474380E+04  0.46999998093E+01 0.  1.
</event>
<event>
 5   0  0.7519202E-07  0.3103742E+04  0.7818609E-02  0.8214712E-01
        1   -1    0    0  501    0  0.00000000000E+00  0.00000000000E+00  0.15255624345E+04  0.15255624345E+04  0.50400001928E-02 0. -1.
       -1   -1    0    0    0  501  0.00000000000E+00  0.00000000000E+00 -0.15786334902E+04  0.15786334902E+04  0.50400001928E-02 0.  1.
    10030    2    1    2    0    0  0.00000000000E+00  0.00000000000E+00 -0.53071055683E+02  0.31041959247E+04  0.31037422255E+04 0.  0.
        4    1    3    3  502    0 -0.78980512288E+03 -0.13353232281E+04  0.11180487337E+02  0.15514531484E+04  0.12699999809E+01 0. -1.
       -4    1    3    3    0  502  0.78980512288E+03  0.13353232281E+04 -0.64251543021E+02  0.15527427763E+04  0.12699999809E+01 0.  1.
</event>
<event>
 5   0  0.2067926E-06  0.3094509E+04  0.7818609E-02  0.8217247E-01
        2   -1    0    0  501    0  0.00000000000E+00  0.00000000000E+00  0.23020799132E+04  0.23020799132E+04  0.25500000920E-02 0.  1.
       -2   -1    0    0    0  501  0.00000000000E+00  0.00000000000E+00 -0.10399275093E+04  0.10399275093E+04  0.25500000920E-02 0. -1.
    10030    2    1    2    0    0  0.00000000000E+00  0.00000000000E+00  0.12621524039E+04  0.33420074225E+04  0.30945088336E+04 0.  0.
        1    1    3    3  502    0 -0.14214206047E+03 -0.30968481165E+02  0.22946775113E+04  0.22992843002E+04  0.50400001928E-02 0.  1.
       -1    1    3    3    0  502  0.14214206047E+03  0.30968481165E+02 -0.10325251075E+04  0.10427231223E+04  0.50400001928E-02 0. -1.
</event>
<event>
 5   0  0.2133385E-06  0.3098879E+04  0.7818609E-02  0.8216046E-01
        2   -1    0    0  501    0  0.00000000000E+00  0.00000000000E+00  0.26991574342E+04  0.26991574342E+04  0.25500000920E-02 0.  1.
       -2   -1    0    0    0  501  0.00000000000E+00  0.00000000000E+00 -0.88944886303E+03  0.88944886304E+03  0.25500000920E-02 0. -1.
    10030    2    1    2    0    0  0.00000000000E+00  0.00000000000E+00  0.18097085712E+04  0.35886062972E+04  0.30988788366E+04 0.  0.
        2    1    3    3  502    0  0.84115701509E+03 -0.89881055462E+03  0.19944877311E+04  0.23437975268E+04  0.25500000920E-02 0.  1.
       -2    1    3    3    0  502 -0.84115701509E+03  0.89881055462E+03 -0.18477915988E+03  0.12448087705E+04  0.25500000920E-02 0. -1.
</event>
<event>
 5   0  0.7413481E-07  0.3098600E+04  0.7818609E-02  0.8216122E-01
       -1   -1    0    0    0  501  0.00000000000E+00  0.00000000000E+00  0.99973624446E+03  0.99973624448E+03  0.50400001928E-02 0.  1.
        1   -1    0    0  501    0  0.00000000000E+00  0.00000000000E+00 -0.24009642791E+04  0.24009642791E+04  0.50400001928E-02 0. -1.
    10030    2    1    2    0    0  0.00000000000E+00  0.00000000000E+00 -0.14012280346E+04  0.34007005235E+04  0.30986003366E+04 0.  0.
        5    1    3    3  502    0 -0.67702206891E+03 -0.11785964983E+04  0.11542427890E+03  0.13641090285E+04  0.46999998093E+01 0.  1.
       -5    1    3    3    0  502  0.67702206891E+03  0.11785964983E+04 -0.15166523135E+04  0.20365914950E+04  0.46999998093E+01 0. -1.
</event>
<event>
 5   0  0.2094135E-06  0.2903962E+04  0.7818609E-02  0.8271700E-01
       -2   -1    0    0    0  501  0.00000000000E+00  0.00000000000E+00  0.11084256946E+04  0.11084256946E+04  0.25500000920E-02 0. -1.
        2   -1    0    0  501    0  0.00000000000E+00  0.00000000000E+00 -0.19020214970E+04  0.19020214970E+04  0.25500000920E-02 0.  1.
    10030    2    1    2    0    0  0.00000000000E+00  0.00000000000E+00 -0.79359580241E+03  0.30104471917E+04  0.29039624647E+04 0.  0.
        4    1    3    3  502    0 -0.11305033479E+04 -0.86277148690E+03 -0.93077962788E+02  0.14251587906E+04  0.12699999809E+01 0.  1.
       -4    1    3    3    0  502  0.11305033479E+04  0.86277148690E+03 -0.70051783962E+03  0.15852884011E+04  0.12699999809E+01 0. -1.
</event>
<event>
 5   0  0.2226334E-06  0.3086169E+04  0.7818609E-02  0.8219544E-01
        2   -1    0    0  501    0  0.00000000000E+00  0.00000000000E+00  0.17431302200E+04  0.17431302200E+04  0.25500000920E-02 0.  1.
       -2   -1    0    0    0  501  0.00000000000E+00  0.00000000000E+00 -0.13659962352E+04  0.13659962352E+04  0.25500000920E-02 0. -1.
    10030    2    1    2    0    0  0.00000000000E+00  0.00000000000E+00  0.37713398481E+03  0.31091264551E+04  0.30861687043E+04 0.  0.
        5    1    3    3  502    0 -0.10249473851E+04  0.10774577258E+04  0.60352291877E+03  0.16048969738E+04  0.46999998093E+01 0.  1.
       -5    1    3    3    0  502  0.10249473851E+04 -0.10774577258E+04 -0.22638893396E+03  0.15042294813E+04  0.46999998093E+01 0. -1.
</event>
<event>
 5   0  0.7519202E-07  0.3116611E+04  0.7818609E-02  0.8211194E-01
       -1   -1    0    0    0  501  0.00000000000E+00  0.00000000000E+00  0.13632330451E+04  0.13632330451E+04  0.50400001928E-02 0.  1.
        1   -1    0    0  501    0  0.00000000000E+00  0.00000000000E+00 -0.17812921587E+04  0.17812921587E+04  0.50400001928E-02 0. -1.
    10030    2    1    2    0    0  0.00000000000E+00  0.00000000000E+00 -0.41805911358E+03  0.31445252038E+04  0.31166111941E+04 0.  0.
        4    1    3    3  502    0  0.56355043485E+03  0.76296308885E+03  0.10384149115E+04  0.14064170466E+04  0.12699999809E+01 0.  1.
       -4    1    3    3    0  502 -0.56355043485E+03 -0.76296308885E+03 -0.14564740251E+04  0.17381081572E+04  0.12699999809E+01 0. -1.
</event>
<event>
 5   0  0.2067926E-06  0.3102082E+04  0.7818609E-02  0.8215167E-01
        2   -1    0    0  501    0  0.00000000000E+00  0.00000000000E+00  0.18624588036E+04  0.18624588036E+04  0.25500000920E-02 0.  1.
       -2   -1    0    0    0  501  0.00000000000E+00  0.00000000000E+00 -0.12916945602E+04  0.12916945602E+04  0.25500000920E-02 0. -1.
    10030    2    1    2    0    0  0.00000000000E+00  0.00000000000E+00  0.57076424339E+03  0.31541533638E+04  0.31020818204E+04 0.  0.
        1    1    3    3  502    0  0.80069712331E+03  0.38525801509E+03  0.15780160016E+04  0.18109870576E+04  0.50400001928E-02 0.  1.
       -1    1    3    3    0  502 -0.80069712331E+03 -0.38525801509E+03 -0.10072517582E+04  0.13431663061E+04  0.50400001928E-02 0. -1.
</event>
<event>
 5   0  0.7413481E-07  0.3106500E+04  0.7818609E-02  0.8213956E-01
        1   -1    0    0  501    0  0.00000000000E+00  0.00000000000E+00  0.27172701755E+04  0.27172701755E+04  0.50400001928E-02 0. -1.
       -1   -1    0    0    0  501  0.00000000000E+00  0.00000000000E+00 -0.88787097532E+03  0.88787097534E+03  0.50400001928E-02 0.  1.
    10030    2    1    2    0    0  0.00000000000E+00  0.00000000000E+00  0.18293992001E+04  0.36051411508E+04  0.31064998445E+04 0.  0.
        5    1    3    3  502    0  0.50430417903E+02 -0.84060164291E+03  0.24293429787E+04  0.25711638896E+04  0.46999998093E+01 0. -1.
       -5    1    3    3    0  502 -0.50430417903E+02  0.84060164291E+03 -0.59994377859E+03  0.10339772612E+04  0.46999998093E+01 0.  1.
</event>
<event>
 5   0  0.7561815E-07  0.3103940E+04  0.7818609E-02  0.8214657E-01
        1   -1    0    0  501    0  0.00000000000E+00  0.00000000000E+00  0.19691746228E+04  0.19691746228E+04  0.50400001928E-02 0. -1.
       -1   -1    0    0    0  501  0.00000000000E+00  0.00000000000E+00 -0.12231578497E+04  0.12231578497E+04  0.50400001928E-02 0.  1.
    10030    2    1    2    0    0  0.00000000000E+00  0.00000000000E+00  0.74601677303E+03  0.31923324725E+04  0.31039403328E+04 0.  0.
        3    1    3    3  502    0  0.31763883007E+03 -0.95942145993E+03  0.15843554312E+04  0.18792461539E+04  0.10100000352E+00 0. -1.
       -3    1    3    3    0  502 -0.31763883007E+03  0.95942145993E+03 -0.83833865821E+03  0.13130863186E+04  0.10100000352E+00 0.  1.
</event>
<event>
 5   0  0.7561815E-07  0.3092032E+04  0.7818609E-02  0.8217928E-01
       -1   -1    0    0    0  501  0.00000000000E+00  0.00000000000E+00  0.89287217966E+03  0.89287217968E+03  0.50400001928E-02 0.  1.
        1   -1    0    0  501    0  0.00000000000E+00  0.00000000000E+00 -0.26769401121E+04  0.26769401121E+04  0.50400001928E-02 0. -1.
    10030    2    1    2    0    0  0.00000000000E+00  0.00000000000E+00 -0.17840679325E+04  0.35698122918E+04  0.30920319227E+04 0.  0.
        3    1    3    3  502    0 -0.58505902258E+03  0.36071179943E+03  0.70678151515E+03  0.98587381673E+03  0.10100000352E+00 0.  1.
       -3    1    3    3    0  502  0.58505902258E+03 -0.36071179943E+03 -0.24908494476E+04  0.25839384751E+04  0.10100000352E+00 0. -1.
</event>
<event>
 5   0  0.7726743E-07  0.3098979E+04  0.7818609E-02  0.8216018E-01
        1   -1    0    0  501    0  0.00000000000E+00  0.00000000000E+00  0.21152236467E+04  0.21152236467E+04  0.50400001928E-02 0.  1.
       -1   -1    0    0    0  501  0.00000000000E+00  0.00000000000E+00 -0.11350655770E+04  0.11350655770E+04  0.50400001928E-02 0. -1.
    10030    2    1    2    0    0  0.00000000000E+00  0.00000000000E+00  0.98015806968E+03  0.32502892236E+04  0.30989788957E+04 0.  0.
        1    1    3    3  502    0  0.65826184865E+03  0.39476424269E+02 -0.98054183114E+03  0.11816637983E+04  0.50400001928E-02 0. -1.
       -1    1    3    3    0  502 -0.65826184865E+03 -0.39476424269E+02  0.19606999008E+04  0.20686254254E+04  0.50400001928E-02 0.  1.
</event>
<event>
 5   0  0.2078009E-06  0.3098957E+04  0.7818609E-02  0.8216024E-01
       -2   -1    0    0    0  501  0.00000000000E+00  0.00000000000E+00  0.15287349403E+04  0.15287349403E+04  0.25500000920E-02 0. -1.
        2   -1    0    0  501    0  0.00000000000E+00  0.00000000000E+00 -0.15705033121E+04  0.15705033121E+04  0.25500000920E-02 0.  1.
    10030    2    1    2    0    0  0.00000000000E+00  0.00000000000E+00 -0.41768371718E+02  0.30992382524E+04  0.30989567839E+04 0.  0.
        3    1    3    3  502    0 -0.92921974485E+03 -0.73544274825E+03  0.97748395434E+03  0.15361641388E+04  0.10100000352E+00 0. -1.
       -3    1    3    3    0  502  0.92921974485E+03  0.73544274825E+03 -0.10192523261E+04  0.15630741136E+04  0.10100000352E+00 0.  1.
</event>
<event>
 5   0  0.6979625E-07  0.3178498E+04  0.7818609E-02  0.8194519E-01
       -3   -1    0    0    0  501  0.00000000000E+00  0.00000000000E+00  0.12389046916E+04  0.12389046958E+04  0.10100000352E+00 0.  1.
        3   -1    0    0  501    0  0.00000000000E+00  0.00000000000E+00 -0.20386657646E+04  0.20386657671E+04  0.10100000352E+00 0. -1.
    10030    2    1    2    0    0  0.00000000000E+00  0.00000000000E+00 -0.79976107291E+03  0.32775704628E+04  0.31784981304E+04 0.  0.
        1    1    3    3  502    0  0.22477230076E+03 -0.71741666630E+03 -0.18437032481E+04  0.19910928977E+04  0.50400001928E-02 0. -1.
       -1    1    3    3    0  502 -0.22477230076E+03  0.71741666630E+03  0.10439421752E+04  0.12864775651E+04  0.50400001928E-02 0.  1.
</event>
<event>
 5   0  0.2078009E-06  0.3080104E+04  0.7818609E-02  0.8221220E-01
        2   -1    0    0  501    0  0.00000000000E+00  0.00000000000E+00  0.22592227140E+04  0.22592227140E+04  0.25500000920E-02 0.  1.
       -2   -1    0    0    0  501  0.00000000000E+00  0.00000000000E+00 -0.10498123460E+04  0.10498123460E+04  0.25500000920E-02 0. -1.
    10030    2    1    2    0    0  0.00000000000E+00  0.00000000000E+00  0.12094103679E+04  0.33090350600E+04  0.30801038279E+04 0.  0.
        3    1    3    3  502    0 -0.19713078912E+03 -0.11488376284E+04  0.16860296983E+04  0.20497279328E+04  0.10100000352E+00 0. -1.
       -3    1    3    3    0  502  0.19713078912E+03  0.11488376284E+04 -0.47661933040E+03  0.12593071273E+04  0.10100000352E+00 0.  1.
</event>
<event>
 5   0  0.2226334E-06  0.3070240E+04  0.7818609E-02  0.8223953E-01
        2   -1    0    0  501    0  0.00000000000E+00  0.00000000000E+00  0.16365995987E+04  0.16365995987E+04  0.25500000920E-02 0. -1.
       -2   -1    0    0    0  501  0.00000000000E+00  0.00000000000E+00 -0.14399331615E+04  0.14399331615E+04  0.25500000920E-02 0.  1.
    10030    2    1    2    0    0  0.00000000000E+00  0.00000000000E+00  0.19666643725E+03  0.30765327602E+04  0.30702404038E+04 0.  0.
        5    1    3    3  502    0  0.40684012685E+03  0.61785418143E+03  0.14461956392E+04  0.16244280825E+04  0.46999998093E+01 0. -1.
       -5    1    3    3    0  502 -0.40684012685E+03 -0.61785418143E+03 -0.12495292020E+04  0.14521046777E+04  0.46999998093E+01 0.  1.
</event>
<event>
 5   0  0.7656332E-07  0.3068278E+04  0.7818609E-02  0.8224498E-01
        1   -1    0    0  501    0  0.00000000000E+00  0.00000000000E+00  0.16984343815E+04  0.16984343815E+04  0.50400001928E-02 0. -1.
       -1   -1    0    0    0  501  0.00000000000E+00  0.00000000000E+00 -0.13857367157E+04  0.13857367157E+04  0.50400001928E-02 0.  1.
    10030    2    1    2    0    0  0.00000000000E+00  0.00000000000E+00  0.31269766584E+03  0.30841710973E+04  0.30682782675E+04 0.  0.
        2    1    3    3  502    0 -0.88258951030E+03  0.12430753308E+04 -0.15951873269E+02  0.15246163399E+04  0.25500000920E-02 0. -1.
       -2    1    3    3    0  502  0.88258951030E+03 -0.12430753308E+04  0.32864953910E+03  0.15595547574E+04  0.25500000920E-02 0.  1.
</event>
<event>
 5   0  0.7519202E-07  0.3099025E+04  0.7818609E-02  0.8216006E-01
        1   -1    0    0  501    0  0.00000000000E+00  0.00000000000E+00  0.15317911254E+04  0.15317911254E+04  0.50400001928E-02 0. -1.
       -1   -1    0    0    0  501  0.00000000000E+00  0.00000000000E+00 -0.15674386594E+04  0.15674386594E+04  0.50400001928E-02 0.  1.
    10030    2    1    2    0    0  0.00000000000E+00  0.00000000000E+00 -0.35647534067E+02  0.30992297848E+04  0.30990247680E+04 0.  0.
        4    1    3    3  502    0  0.12454198114E+03 -0.12313540603E+04 -0.95021773008E+03  0.15603393459E+04  0.12699999809E+01 0.  1.
       -4    1    3    3    0  502 -0.12454198114E+03  0.12313540603E+04  0.91457019601E+03  0.15388904390E+04  0.12699999809E+01 0. -1.
</event>
<event>
 5   0  0.2133385E-06  0.3143203E+04  0.7818609E-02  0.8203980E-01
        2   -1    0    0  501    0  0.00000000000E+00  0.00000000000E+00  0.15684058737E+04  0.15684058737E+04  0.25500000920E-02 0.  1.
       -2   -1    0    0    0  501  0.00000000000E+00  0.00000000000E+00 -0.15748031777E+04  0.15748031777E+04  0.25500000920E-02 0. -1.
    10030    2    1    2    0    0  0.00000000000E+00  0.00000000000E+00 -0.63973040388E+01  0.31432090514E+04  0.31432025412E+04 0.  0.
        2    1    3    3  502    0  0.13878793405E+04  0.73737442211E+03 -0.38706184068E+01  0.15716058933E+04  0.25500000920E-02 0.  1.
       -2    1    3    3    0  502 -0.13878793405E+04 -0.73737442211E+03 -0.25266856320E+01  0.15716031581E+04  0.25500000920E-02 0. -1.
</event>
<event>
 5   0  0.2078009E-06  0.3189967E+04  0.7818609E-02  0.8191472E-01
        2   -1    0    0  501    0  0.00000000000E+00  0.00000000000E+00  0.26246706698E+04  0.26246706698E+04  0.25500000920E-02 0.  1.
       -2   -1    0    0    0  501  0.00000000000E+00  0.00000000000E+00 -0.96925417070E+03  0.96925417071E+03  0.25500000920E-02 0. -1.
    10030    2    1    2    0    0  0.00000000000E+00  0.00000000000E+00  0.16554164991E+04  0.35939248405E+04  0.31899673938E+04 0.  0.
        3    1    3    3  502    0 -0.45260445295E+03 -0.17306779940E+03 -0.88431900610E+03  0.10083766007E+04  0.10100000352E+00 0. -1.
       -3    1    3    3    0  502  0.45260445295E+03  0.17306779940E+03  0.25397355052E+04  0.25855482399E+04  0.10100000352E+00 0.  1.
</event>
<event>
 5   0  0.7726743E-07  0.3093433E+04  0.7818609E-02  0.8217543E-01
       -1   -1    0    0    0  501  0.00000000000E+00  0.00000000000E+00  0.13502577381E+04  0.13502577381E+04  0.50400001928E-02 0. -1.
        1   -1    0    0  501    0  0.00000000000E+00  0.00000000000E+00 -0.17717590978E+04  0.17717590978E+04  0.50400001928E-02 0.  1.
    10030    2    1    2    0    0  0.00000000000E+00  0.00000000000E+00 -0.42150135967E+03  0.31220168359E+04  0.30934326771E+04 0.  0.
        1    1    3    3  502    0 -0.95361522344E+03  0.15066736348E+03  0.10088228745E+04  0.13963546258E+04  0.50400001928E-02 0. -1.
       -1    1    3    3    0  502  0.95361522344E+03 -0.15066736348E+03 -0.14303242341E+04  0.17256622102E+04  0.50400001928E-02 0.  1.
</event>
<event>
 5   0  0.2226334E-06  0.3102299E+04  0.7818609E-02  0.8215107E-01
        2   -1    0    0  501    0  0.00000000000E+00  0.00000000000E+00  0.16334991878E+04  0.16334991878E+04  0.25500000920E-02 0. -1.
       -2   -1    0    0    0  501  0.00000000000E+00  0.00000000000E+00 -0.14729508693E+04  0.14729508693E+04  0.25500000920E-02 0.  1.
    10030    2    1    2    0    0  0.00000000000E+00  0.00000000000E+00  0.16054831850E+03  0.31064500571E+04  0.31022985341E+04 0.  0.
        5    1    3    3  502    0 -0.34144367863E+02 -0.31837699406E+03 -0.14394894723E+04  0.14746802295E+04  0.46999998093E+01 0.  1.
       -5    1    3    3    0  502  0.34144367863E+02  0.31837699406E+03  0.16000377908E+04  0.16317698276E+04  0.46999998093E+01 0. -1.
</event>
<event>
 5   0  0.7519202E-07  0.3114836E+04  0.7818609E-02  0.8211678E-01
        1   -1    0    0  501    0  0.00000000000E+00  0.00000000000E+00  0.32536462175E+04  0.32536462175E+04  0.50400001928E-02 0. -1.
       -1   -1    0    0    0  501  0.00000000000E+00  0.00000000000E+00 -0.74548684197E+03  0.74548684199E+03  0.50400001928E-02 0.  1.
    10030    2    1    2    0    0  0.00000000000E+00  0.00000000000E+00  0.25081593755E+04  0.39991330595E+04  0.31148357540E+04 0.  0.
        4    1    3    3  502    0 -0.37911342073E+03  0.54451390127E+03  0.30631134328E+04  0.31341486706E+04  0.12699999809E+01 0. -1.
       -4    1    3    3    0  502  0.37911342073E+03 -0.54451390127E+03 -0.55495405726E+03  0.86498438889E+03  0.12699999809E+01 0.  1.
</event>
<event>
 5   0  0.7413481E-07  0.3066398E+04  0.7818609E-02  0.8225021E-01
       -1   -1    0    0    0  501  0.00000000000E+00  0.00000000000E+00  0.11576108172E+04  0.11576108173E+04  0.50400001928E-02 0. -1.
        1   -1    0    0  501    0  0.00000000000E+00  0.00000000000E+00 -0.20306474682E+04  0.20306474682E+04  0.50400001928E-02 0.  1.
    10030    2    1    2    0    0  0.00000000000E+00  0.00000000000E+00 -0.87303665099E+03  0.31882582855E+04  0.30663981967E+04 0.  0.
        5    1    3    3  502    0 -0.14564818370E+04  0.36572814022E+03 -0.75796627914E+03  0.16821508210E+04  0.46999998093E+01 0.  1.
       -5    1    3    3    0  502  0.14564818370E+04 -0.36572814022E+03 -0.11507037185E+03  0.15061074645E+04  0.46999998093E+01 0. -1.
</event>
<event>
 5   0  0.2133385E-06  0.3092446E+04  0.7818609E-02  0.8217814E-01
        2   -1    0    0  501    0  0.00000000000E+00  0.00000000000E+00  0.14337498700E+04  0.14337498701E+04  0.25500000920E-02 0.  1.
       -2   -1    0    0    0  501  0.00000000000E+00  0.00000000000E+00 -0.16675193984E+04  0.16675193984E+04  0.25500000920E-02 0. -1.
    10030    2    1    2    0    0  0.00000000000E+00  0.00000000000E+00 -0.23376952838E+03  0.31012692685E+04  0.30924461003E+04 0.  0.
        2    1    3    3  502    0 -0.15430913844E+04 -0.95435145773E+02 -0.93008579984E+02  0.15488348794E+04  0.25500000920E-02 0. -1.
       -2    1    3    3    0  502  0.15430913844E+04  0.95435145773E+02 -0.14076094839E+03  0.15524343891E+04  0.25500000920E-02 0.  1.
</event>
<event>
 5   0  0.7726743E-07  0.3068141E+04  0.7818609E-02  0.8224536E-01
       -1   -1    0    0    0  501  0.00000000000E+00  0.00000000000E+00  0.11864220394E+04  0.11864220394E+04  0.50400001928E-02 0.  1.
        1   -1    0    0  501    0  0.00000000000E+00  0.00000000000E+00 -0.19835877598E+04  0.19835877598E+04  0.50400001928E-02 0. -1.
    10030    2    1    2    0    0  0.00000000000E+00  0.00000000000E+00 -0.79716572041E+03  0.31700097991E+04  0.30681409584E+04 0.  0.
        1    1    3    3  502    0  0.12419714324E+04  0.89395988397E+03 -0.28675371623E+03  0.15568831063E+04  0.50400001928E-02 0.  1.
       -1    1    3    3    0  502 -0.12419714324E+04 -0.89395988397E+03 -0.51041200418E+03  0.16131266928E+04  0.50400001928E-02 0. -1.
</event>
<event>
 5   0  0.7656332E-07  0.3116195E+04  0.7818609E-02  0.8211307E-01
        1   -1    0    0  501    0  0.00000000000E+00  0.00000000000E+00  0.19167771429E+04  0.19167771430E+04  0.50400001928E-02 0. -1.
       -1   -1    0    0    0  501  0.00000000000E+00  0.00000000000E+00 -0.12665361605E+04  0.12665361605E+04  0.50400001928E-02 0.  1.
    10030    2    1    2    0    0  0.00000000000E+00  0.00000000000E+00  0.65024098246E+03  0.31833133035E+04  0.31161948355E+04 0.  0.
        2    1    3    3  502    0 -0.55144201390E+03 -0.94185573837E+03 -0.81080426477E+03  0.13596264496E+04  0.25500000920E-02 0.  1.
       -2    1    3    3    0  502  0.55144201390E+03  0.94185573837E+03  0.14610452472E+04  0.18236868539E+04  0.25500000920E-02 0. -1.
</event>
<event>
 5   0  0.2226334E-06  0.3101016E+04  0.7818609E-02  0.8215459E-01
       -2   -1    0    0    0  501  0.00000000000E+00  0.00000000000E+00  0.85498564890E+03  0.85498564890E+03  0.25500000920E-02 0. -1.
        2   -1    0    0  501    0  0.00000000000E+00  0.00000000000E+00 -0.28118301775E+04  0.28118301775E+04  0.25500000920E-02 0.  1.
    10030    2    1    2    0    0  0.00000000000E+00  0.00000000000E+00 -0.19568445286E+04  0.36668158264E+04  0.31010156071E+04 0.  0.
        5    1    3    3  502    0 -0.23603349992E+03 -0.10254511379E+04 -0.23249647383E+04  0.25520080277E+04  0.46999998093E+01 0.  1.
       -5    1    3    3    0  502  0.23603349992E+03  0.10254511379E+04  0.36812020970E+03  0.11148077987E+04  0.46999998093E+01 0. -1.
</event>
<event>
 5   0  0.2094135E-06  0.3077372E+04  0.7818609E-02  0.8221975E-01
       -2   -1    0    0    0  501  0.00000000000E+00  0.00000000000E+00  0.13762131920E+04  0.13762131920E+04  0.25500000920E-02 0. -1.
        2   -1    0    0  501    0  0.00000000000E+00  0.00000000000E+00 -0.17203401327E+04  0.17203401327E+04  0.25500000920E-02 0.  1.
    10030    2    1    2    0    0  0.00000000000E+00  0.00000000000E+00 -0.34412694073E+03  0.30965533247E+04  0.30773721162E+04 0.  0.
        4    1    3    3  502    0 -0.43523471665E+03  0.13458369282E+04  0.43739057171E+03  0.14805466629E+04  0.12699999809E+01 0. -1.
       -4    1    3    3    0  502  0.43523471665E+03 -0.13458369282E+04 -0.78151751244E+03  0.16160066618E+04  0.12699999809E+01 0.  1.
</event>
<event>
 5   0  0.7656332E-07  0.3099448E+04  0.7818609E-02  0.8215889E-01
       -1   -1    0    0    0  501  0.00000000000E+00  0.00000000000E+00  0.13469681457E+04  0.13469681457E+04  0.50400001928E-02 0.  1.
        1   -1    0    0  501    0  0.00000000000E+00  0.00000000000E+00 -0.17830006276E+04  0.17830006276E+04  0.50400001928E-02 0. -1.
    10030    2    1    2    0    0  0.00000000000E+00  0.00000000000E+00 -0.43603248191E+03  0.31299687733E+04  0.30994483697E+04 0.  0.
        2    1    3    3  502    0  0.56384562275E+03  0.19926429331E+03 -0.16617856645E+04  0.17661143054E+04  0.25500000920E-02 0. -1.
       -2    1    3    3    0  502 -0.56384562275E+03 -0.19926429331E+03  0.12257531826E+04  0.13638544679E+04  0.25500000920E-02 0.  1.
</event>
<event>
 5   0  0.7561815E-07  0.3092324E+04  0.7818609E-02  0.8217848E-01
       -1   -1    0    0    0  501  0.00000000000E+00  0.00000000000E+00  0.98895839035E+03  0.98895839036E+03  0.50400001928E-02 0. -1.
        1   -1    0    0  501    0  0.00000000000E+00  0.00000000000E+00 -0.24173081020E+04  0.24173081020E+04  0.50400001928E-02 0.  1.
    10030    2    1    2    0    0  0.00000000000E+00  0.00000000000E+00 -0.14283497117E+04  0.34062664924E+04  0.30923241289E+04 0.  0.
        3    1    3    3  502    0  0.10511069777E+04  0.53250408135E+03 -0.18169258348E+04  0.21655498088E+04  0.10100000352E+00 0.  1.
       -3    1    3    3    0  502 -0.10511069777E+04 -0.53250408135E+03  0.38857612309E+03  0.12407166836E+04  0.10100000352E+00 0. -1.
</event>
<event>
 5   0  0.7656332E-07  0.3073192E+04  0.7818609E-02  0.8223134E-01
       -1   -1    0    0    0  501  0.00000000000E+00  0.00000000000E+00  0.14372209970E+04  0.14372209970E+04  0.50400001928E-02 0. -1.
        1   -1    0    0  501    0  0.00000000000E+00  0.00000000000E+00 -0.16428416668E+04  0.16428416668E+04  0.50400001928E-02 0.  1.
    10030    2    1    2    0    0  0.00000000000E+00  0.00000000000E+00 -0.20562066982E+03  0.30800626638E+04  0.30731915256E+04 0.  0.
        2    1    3    3  502    0  0.48181819031E+03  0.31695919020E+03 -0.15302540695E+04  0.16353254765E+04  0.25500000920E-02 0.  1.
       -2    1    3    3    0  502 -0.48181819031E+03 -0.31695919020E+03  0.13246333997E+04  0.14447371873E+04  0.25500000920E-02 0. -1.
</event>
<event>
 5   0  0.2078009E-06  0.3152307E+04  0.7818609E-02  0.8201528E-01
       -2   -1    0    0    0  501  0.00000000000E+00  0.00000000000E+00  0.13136718954E+04  0.13136718954E+04  0.25500000920E-02 0. -1.
        2   -1    0    0  501    0  0.00000000000E+00  0.00000000000E+00 -0.18910803354E+04  0.18910803354E+04  0.25500000920E-02 0.  1.
    10030    2    1    2    0    0  0.00000000000E+00  0.00000000000E+00 -0.57740843993E+03  0.32047522308E+04  0.31523065134E+04 0.  0.
        3    1    3    3  502    0 -0.13545587567E+04  0.79470014556E+03 -0.15275837142E+03  0.15778824027E+04  0.10100000352E+00 0. -1.
       -3    1    3    3    0  502  0.13545587567E+04 -0.79470014556E+03 -0.42465006851E+03  0.16268698281E+04  0.10100000352E+00 0.  1.
</event>
<event>
 5   0  0.6979625E-07  0.3090934E+04  0.7818609E-02  0.8218230E-01
        3   -1    0    0  501    0  0.00000000000E+00  0.00000000000E+00  0.95154358342E+03  0.95154358878E+03  0.10100000352E+00 0.  1.
       -3   -1    0    0    0  501  0.00000000000E+00  0.00000000000E+00 -0.25100992027E+04  0.25100992048E+04  0.10100000352E+00 0. -1.
    10030    2    1    2    0    0  0.00000000000E+00  0.00000000000E+00 -0.15585556193E+04  0.34616427935E+04  0.30909343590E+04 0.  0.
        2    1    3    3  502    0  0.39717635955E+03 -0.53535373482E+03  0.78226383038E+03  0.10277593990E+04  0.25500000920E-02 0.  1.
       -2    1    3    3    0  502 -0.39717635955E+03  0.53535373482E+03 -0.23408194497E+04  0.24338833945E+04  0.25500000920E-02 0. -1.
</event>
<event>
 5   0  0.7519202E-07  0.3099087E+04  0.7818609E-02  0.8215988E-01
        1   -1    0    0  501    0  0.00000000000E+00  0.00000000000E+00  0.25141627515E+04  0.25141627515E+04  0.50400001928E-02 0.  1.
       -1   -1    0    0    0  501  0.00000000000E+00  0.00000000000E+00 -0.95502390863E+03  0.95502390864E+03  0.50400001928E-02 0. -1.
    10030    2    1    2    0    0  0.00000000000E+00  0.00000000000E+00  0.15591388428E+04  0.34691866601E+04  0.30990873094E+04 0.  0.
        4    1    3    3  502    0 -0.19053175810E+03  0.85522398110E+03  0.22102300015E+04  0.23775678079E+04  0.12699999809E+01 0.  1.
       -4    1    3    3    0  502  0.19053175810E+03 -0.85522398110E+03 -0.65109115868E+03  0.10916188522E+04  0.12699999809E+01 0. -1.
</event>
<event>
 5   0  0.7561815E-07  0.3098315E+04  0.7818609E-02  0.8216201E-01
        1   -1    0    0  501    0  0.00000000000E+00  0.00000000000E+00  0.12283922508E+04  0.12283922509E+04  0.50400001928E-02 0.  1.
       -1   -1    0    0    0  501  0.00000000000E+00  0.00000000000E+00 -0.19536824024E+04  0.19536824024E+04  0.50400001928E-02 0. -1.
    10030    2    1    2    0    0  0.00000000000E+00  0.00000000000E+00 -0.72529015151E+03  0.31820746532E+04  0.30983145894E+04 0.  0.
        3    1    3    3  502    0  0.19074495753E+03  0.90218383630E+03 -0.16411144000E+04  0.18824387898E+04  0.10100000352E+00 0. -1.
       -3    1    3    3    0  502 -0.19074495753E+03 -0.90218383630E+03  0.91582424845E+03  0.12996358634E+04  0.10100000352E+00 0.  1.
</event>
<event>
 5   0  0.2067926E-06  0.3075501E+04  0.7818609E-02  0.8222494E-01
       -2   -1    0    0    0  501  0.00000000000E+00  0.00000000000E+00  0.13328130241E+04  0.13328130241E+04  0.25500000920E-02 0. -1.
        2   -1    0    0  501    0  0.00000000000E+00  0.00000000000E+00 -0.17741996709E+04  0.17741996709E+04  0.25500000920E-02 0.  1.
    10030    2    1    2    0    0  0.00000000000E+00  0.00000000000E+00 -0.44138664681E+03  0.31070126950E+04  0.30755008885E+04 0.  0.
        1    1    3    3  502    0 -0.28618269376E+03 -0.24845552408E+03 -0.17262805545E+04  0.17673922130E+04  0.50400001928E-02 0.  1.
       -1    1    3    3    0  502  0.28618269376E+03  0.24845552408E+03  0.12848939077E+04  0.13396204820E+04  0.50400001928E-02 0. -1.
</event>
<event>
 5   0  0.7726743E-07  0.3103913E+04  0.7818609E-02  0.8214665E-01
       -1   -1    0    0    0  501  0.00000000000E+00  0.00000000000E+00  0.89715868525E+03  0.89715868526E+03  0.50400001928E-02 0. -1.
        1   -1    0    0  501    0  0.00000000000E+00  0.00000000000E+00 -0.26846637939E+04  0.26846637939E+04  0.50400001928E-02 0.  1.
    10030    2    1    2    0    0  0.00000000000E+00  0.00000000000E+00 -0.17875051086E+04  0.35818224791E+04  0.31039132975E+04 0.  0.
        1    1    3    3  502    0 -0.43897800152E+03  0.87193402300E+03 -0.22859964508E+04  0.24857092347E+04  0.50400001928E-02 0.  1.
       -1    1    3    3    0  502  0.43897800152E+03 -0.87193402300E+03  0.49849134223E+03  0.10961132444E+04  0.50400001928E-02 0. -1.
</event>
<event>
 5   0  0.2078009E-06  0.3101749E+04  0.7818609E-02  0.8215258E-01
       -2   -1    0    0    0  501  0.00000000000E+00  0.00000000000E+00  0.18319093645E+04  0.18319093645E+04  0.25500000920E-02 0. -1.
        2   -1    0    0  501    0  0.00000000000E+00  0.00000000000E+00 -0.13129534949E+04  0.13129534949E+04  0.25500000920E-02 0.  1.
    10030    2    1    2    0    0  0.00000000000E+00  0.00000000000E+00  0.51895586966E+03  0.31448628594E+04  0.31017490566E+04 0.  0.
        3    1    3    3  502    0 -0.48325454071E+03  0.10204593820E+04 -0.81847426513E+03  0.13945509795E+04  0.10100000352E+00 0.  1.
       -3    1    3    3    0  502  0.48325454071E+03 -0.10204593820E+04  0.13374301348E+04  0.17503118800E+04  0.10100000352E+00 0. -1.
</event>
<event>
 5   0  0.2078009E-06  0.3091310E+04  0.7818609E-02  0.8218127E-01
        2   -1    0    0  501    0  0.00000000000E+00  0.00000000000E+00  0.22089433298E+04  0.22089433298E+04  0.25500000920E-02 0.  1.
       -2   -1    0    0    0  501  0.00000000000E+00  0.00000000000E+00 -0.10815351289E+04  0.10815351289E+04  0.25500000920E-02 0. -1.
    10030    2    1    2    0    0  0.00000000000E+00  0.00000000000E+00  0.11274082009E+04  0.32904784587E+04  0.30913102781E+04 0.  0.
        3    1    3    3  502    0  0.13179784025E+03 -0.15351661478E+04  0.43358223789E+03  0.16006559091E+04  0.10100000352E+00 0.  1.
       -3    1    3    3    0  502 -0.13179784025E+03  0.15351661478E+04  0.69382596296E+03  0.16898225496E+04  0.10100000352E+00 0. -1.
</event>
<event>
 5   0  0.2094135E-06  0.3096537E+04  0.7818609E-02  0.8216689E-01
       -2   -1    0    0    0  501  0.00000000000E+00  0.00000000000E+00  0.14188639266E+04  0.14188639266E+04  0.25500000920E-02 0. -1.
        2   -1    0    0  501    0  0.00000000000E+00  0.00000000000E+00 -0.16894753850E+04  0.16894753850E+04  0.25500000920E-02 0.  1.
    10030    2    1    2    0    0  0.00000000000E+00  0.00000000000E+00 -0.27061145832E+03  0.31083393116E+04  0.30965372135E+04 0.  0.
        4    1    3    3  502    0 -0.14404595466E+04 -0.29061176477E+03  0.35415414621E+03  0.15115573676E+04  0.12699999809E+01 0. -1.
       -4    1    3    3    0  502  0.14404595466E+04  0.29061176477E+03 -0.62476560454E+03  0.15967819440E+04  0.12699999809E+01 0.  1.
</event>
<event>
 5   0  0.7561815E-07  0.3101738E+04  0.7818609E-02  0.8215261E-01
       -1   -1    0    0    0  501  0.00000000000E+00  0.00000000000E+00  0.13180687850E+04  0.13180687850E+04  0.50400001928E-02 0.  1.
        1   -1    0    0  501    0  0.00000000000E+00  0.00000000000E+00 -0.18247866025E+04  0.18247866025E+04  0.50400001928E-02 0. -1.
    10030    2    1    2    0    0  0.00000000000E+00  0.00000000000E+00 -0.50671781747E+03  0.31428553875E+04  0.31017377452E+04 0.  0.
        3    1    3    3  502    0 -0.19036101495E+03  0.15390399621E+04 -0.27128320364E+03  0.15743176007E+04  0.10100000352E+00 0.  1.
       -3    1    3    3    0  502  0.19036101495E+03 -0.15390399621E+04 -0.23543461383E+03  0.15685377868E+04  0.10100000352E+00 0. -1.
</event>
<event>
 5   0  0.2094135E-06  0.3102487E+04  0.7818609E-02  0.8215056E-01
        2   -1    0    0  501    0  0.00000000000E+00  0.00000000000E+00  0.16298712648E+04  0.16298712648E+04  0.25500000920E-02 0. -1.
       -2   -1    0    0    0  501  0.00000000000E+00  0.00000000000E+00 -0.14764085840E+04  0.14764085840E+04  0.25500000920E-02 0.  1.
    10030    2    1    2    0    0  0.00000000000E+00  0.00000000000E+00  0.15346268074E+03  0.31062798488E+04  0.31024866970E+04 0.  0.
        4    1    3    3  502    0  0.30702928077E+03  0.15105586171E+04  0.25101310708E+03  0.15617501426E+04  0.12699999809E+01 0. -1.
       -4    1    3    3    0  502 -0.30702928077E+03 -0.15105586171E+04 -0.97550426332E+02  0.15445297063E+04  0.12699999809E+01 0.  1.
</event>
<event>
 5   0  0.7413481E-07  0.3094761E+04  0.7818609E-02  0.8217177E-01
        1   -1    0    0  501    0  0.00000000000E+00  0.00000000000E+00  0.14238501340E+04  0.14238501340E+04  0.50400001928E-02 0.  1.
       -1   -1    0    0    0  501  0.00000000000E+00  0.00000000000E+00 -0.16816282206E+04  0.16816282206E+04  0.50400001928E-02 0. -1.
    10030    2    1    2    0    0  0.00000000000E+00  0.00000000000E+00 -0.25777808657E+03  0.31054783546E+04  0.30947611005E+04 0.  0.
        5    1    3    3  502    0 -0.12629182500E+04  0.60862035729E+03 -0.78612533327E+03  0.16072947381E+04  0.46999998093E+01 0. -1.
       -5    1    3    3    0  502  0.12629182500E+04 -0.60862035729E+03  0.52834724670E+03  0.14981836165E+04  0.46999998093E+01 0.  1.
</event>
<event>
 5   0  0.2067926E-06  0.3087912E+04  0.7818609E-02  0.8219063E-01
        2   -1    0    0  501    0  0.00000000000E+00  0.00000000000E+00  0.78994797751E+03  0.78994797751E+03  0.25500000920E-02 0. -1.
       -2   -1    0    0    0  501  0.00000000000E+00  0.00000000000E+00 -0.30176680623E+04  0.30176680623E+04  0.25500000920E-02 0.  1.
    10030    2    1    2    0    0  0.00000000000E+00  0.00000000000E+00 -0.22277200848E+04  0.38076160398E+04  0.30879124227E+04 0.  0.
        1    1    3    3  502    0 -0.88434846501E+03 -0.12529617686E+04 -0.89391876644E+03  0.17751270834E+04  0.50400001928E-02 0.  1.
       -1    1    3    3    0  502  0.88434846501E+03  0.12529617686E+04 -0.13338013183E+04  0.20324889564E+04  0.50400001928E-02 0. -1.
</event>
<event>
 5   0  0.7656332E-07  0.3091661E+04  0.7818609E-02  0.8218030E-01
        1   -1    0    0  501    0  0.00000000000E+00  0.00000000000E+00  0.18537651457E+04  0.18537651457E+04  0.50400001928E-02 0.  1.
       -1   -1    0    0    0  501  0.00000000000E+00  0.00000000000E+00 -0.12890479947E+04  0.12890479947E+04  0.50400001928E-02 0. -1.
    10030    2    1    2    0    0  0.00000000000E+00  0.00000000000E+00  0.56471715100E+03  0.31428131405E+04  0.30916611999E+04 0.  0.
        2    1    3    3  502    0 -0.43419057726E+02 -0.77511707534E+03 -0.10765081235E+04  0.13272382737E+04  0.25500000920E-02 0. -1.
       -2    1    3    3    0  502  0.43419057726E+02  0.77511707534E+03  0.16412252745E+04  0.18155748668E+04  0.25500000920E-02 0.  1.
</event>
<event>
 5   0  0.2226334E-06  0.3101180E+04  0.7818609E-02  0.8215414E-01
       -2   -1    0    0    0  501  0.00000000000E+00  0.00000000000E+00  0.15746622311E+04  0.15746622311E+04  0.25500000920E-02 0.  1.
        2   -1    0    0  501    0  0.00000000000E+00  0.00000000000E+00 -0.15268856947E+04  0.15268856947E+04  0.25500000920E-02 0. -1.
    10030    2    1    2    0    0  0.00000000000E+00  0.00000000000E+00  0.47776536396E+02  0.31015479258E+04  0.31011799268E+04 0.  0.
        5    1    3    3  502    0 -0.36702632217E+03  0.14836681799E+04  0.28531468717E+03  0.15548010001E+04  0.46999998093E+01 0. -1.
       -5    1    3    3    0  502  0.36702632217E+03 -0.14836681799E+04 -0.23753815078E+03  0.15467469257E+04  0.46999998093E+01 0.  1.
</event>
<event>
 5   0  0.7561815E-07  0.3132633E+04  0.7818609E-02  0.8206839E-01
        1   -1    0    0  501    0  0.00000000000E+00  0.00000000000E+00  0.19205468558E+04  0.19205468558E+04  0.50400001928E-02 0. -1.
       -1   -1    0    0    0  501  0.00000000000E+00  0.00000000000E+00 -0.12774216625E+04  0.12774216625E+04  0.50400001928E-02 0.  1.
    10030    2    1    2    0    0  0.00000000000E+00  0.00000000000E+00  0.64312519334E+03  0.31979685183E+04  0.31326334975E+04 0.  0.
        3    1    3    3  502    0 -0.99937758463E+03 -0.49302331639E+03 -0.80208466583E+03  0.13730139724E+04  0.10100000352E+00 0.  1.
       -3    1    3    3    0  502  0.99937758463E+03  0.49302331639E+03  0.14452098592E+04  0.18249545458E+04  0.10100000352E+00 0. -1.
</event>
<event>
 5   0  0.7561815E-07  0.3008540E+04  0.7818609E-02  0.8241296E-01
        1   -1    0    0  501    0  0.00000000000E+00  0.00000000000E+00  0.21940899565E+04  0.21940899566E+04  0.50400001928E-02 0. -1.
       -1   -1    0    0    0  501  0.00000000000E+00  0.00000000000E+00 -0.10313287893E+04  0.10313287894E+04  0.50400001928E-02 0.  1.
    10030    2    1    2    0    0  0.00000000000E+00  0.00000000000E+00  0.11627611672E+04  0.32254187459E+04  0.30085399373E+04 0.  0.
        3    1    3    3  502    0  0.12201987458E+03  0.12431461960E+04 -0.31720982204E+03  0.12887681699E+04  0.10100000352E+00 0.  1.
       -3    1    3    3    0  502 -0.12201987458E+03 -0.12431461960E+04  0.14799709892E+04  0.19366505760E+04  0.10100000352E+00 0. -1.
</event>
<event>
 5   0  0.6979625E-07  0.3089343E+04  0.7818609E-02  0.8218669E-01
        3   -1    0    0  501    0  0.00000000000E+00  0.00000000000E+00  0.11831604008E+04  0.11831604051E+04  0.10100000352E+00 0.  1.
       -3   -1    0    0    0  501  0.00000000000E+00  0.00000000000E+00 -0.20166418203E+04  0.20166418229E+04  0.10100000352E+00 0. -1.
    10030    2    1    2    0    0  0.00000000000E+00  0.00000000000E+00 -0.83348141957E+03  0.31998022280E+04  0.30893434612E+04 0.  0.
        5    1    3    3  502    0 -0.10433285792E+04  0.11261067891E+04 -0.23933420735E+03  0.15536904381E+04  0.46999998093E+01 0. -1.
       -5    1    3    3    0  502  0.10433285792E+04 -0.11261067891E+04 -0.59414721222E+03  0.16461117898E+04  0.46999998093E+01 0.  1.
</event>
<event>
 5   0  0.7561815E-07  0.3053180E+04  0.7818609E-02  0.8228706E-01
        1   -1    0    0  501    0  0.00000000000E+00  0.00000000000E+00  0.12636315404E+04  0.12636315404E+04  0.50400001928E-02 0. -1.
       -1   -1    0    0    0  501  0.00000000000E+00  0.00000000000E+00 -0.18442690326E+04  0.18442690326E+04  0.50400001928E-02 0.  1.
    10030    2    1    2    0    0  0.00000000000E+00  0.00000000000E+00 -0.58063749219E+03  0.31079005729E+04  0.30531796662E+04 0.  0.
        3    1    3    3  502    0  0.15501747688E+03  0.89529436426E+03 -0.15390463831E+04  0.17872454214E+04  0.10100000352E+00 0.  1.
       -3    1    3    3    0  502 -0.15501747688E+03 -0.89529436426E+03  0.95840889092E+03  0.13206551515E+04  0.10100000352E+00 0. -1.
</event>
<event>
 5   0  0.7656332E-07  0.3082362E+04  0.7818609E-02  0.8220595E-01
        1   -1    0    0  501    0  0.00000000000E+00  0.00000000000E+00  0.17623678469E+04  0.17623678469E+04  0.50400001928E-02 0. -1.
       -1   -1    0    0    0  501  0.00000000000E+00  0.00000000000E+00 -0.13477544139E+04  0.13477544140E+04  0.50400001928E-02 0.  1.
    10030    2    1    2    0    0  0.00000000000E+00  0.00000000000E+00  0.41461343291E+03  0.31101222608E+04  0.30823621102E+04 0.  0.
        2    1    3    3  502    0 -0.14667066449E+04 -0.23067803785E+03 -0.20969283018E+03  0.14994705140E+04  0.25500000920E-02 0. -1.
       -2    1    3    3    0  502  0.14667066449E+04  0.23067803785E+03  0.62430626309E+03  0.16106517468E+04  0.25500000920E-02 0.  1.
</event>
<event>
 5   0  0.7413481E-07  0.3117570E+04  0.7818609E-02  0.8210932E-01
       -1   -1    0    0    0  501  0.00000000000E+00  0.00000000000E+00  0.10209164722E+04  0.10209164722E+04  0.50400001928E-02 0. -1.
        1   -1    0    0  501    0  0.00000000000E+00  0.00000000000E+00 -0.23800293382E+04  0.23800293382E+04  0.50400001928E-02 0.  1.
    10030    2    1    2    0    0  0.00000000000E+00  0.00000000000E+00 -0.13591128660E+04  0.34009458104E+04  0.31175703076E+04 0.  0.
        5    1    3    3  502    0  0.53990058998E+03  0.10769046506E+04  0.39958911625E+03  0.12692162249E+04  0.46999998093E+01 0. -1.
       -5    1    3    3    0  502 -0.53990058998E+03 -0.10769046506E+04 -0.17587019822E+04  0.21317295856E+04  0.46999998093E+01 0.  1.
</event>
<event>
 5   0  0.2226334E-06  0.3100636E+04  0.7818609E-02  0.8215563E-01
       -2   -1    0    0    0  501  0.00000000000E+00  0.00000000000E+00  0.21223249326E+04  0.21223249326E+04  0.25500000920E-02 0.  1.
        2   -1    0    0  501    0  0.00000000000E+00  0.00000000000E+00 -0.11324776724E+04  0.11324776724E+04  0.25500000920E-02 0. -1.
    10030    2    1    2    0    0  0.00000000000E+00  0.00000000000E+00  0.98984726028E+03  0.32548026050E+04  0.31006358056E+04 0.  0.
        5    1    3    3  502    0  0.13842691015E+04  0.47377854918E+02 -0.23613596553E+03  0.14050722013E+04  0.46999998093E+01 0. -1.
       -5    1    3    3    0  502 -0.13842691015E+04 -0.47377854918E+02  0.12259832258E+04  0.18497304037E+04  0.46999998093E+01 0.  1.
</event>
<event>
 5   0  0.7413481E-07  0.3106581E+04  0.7818609E-02  0.8213934E-01
       -1   -1    0    0    0  501  0.00000000000E+00  0.00000000000E+00  0.10584643285E+04  0.10584643285E+04  0.50400001928E-02 0.  1.
        1   -1    0    0  501    0  0.00000000000E+00  0.00000000000E+00 -0.22794455742E+04  0.22794455742E+04  0.50400001928E-02 0. -1.
    10030    2    1    2    0    0  0.00000000000E+00  0.00000000000E+00 -0.12209812457E+04  0.33379099027E+04  0.31065812908E+04 0.  0.
        5    1    3    3  502    0  0.96034449339E+03 -0.24823395707E+03  0.67384591735E+03  0.11991547247E+04  0.46999998093E+01 0.  1.
       -5    1    3    3    0  502 -0.96034449339E+03  0.24823395707E+03 -0.18948271631E+04  0.21387551780E+04  0.46999998093E+01 0. -1.
</event>
<event>
 5   0  0.2067926E-06  0.3078986E+04  0.7818609E-02  0.8221529E-01
       -2   -1    0    0    0  501  0.00000000000E+00  0.00000000000E+00  0.10007269165E+04  0.10007269165E+04  0.25500000920E-02 0. -1.
        2   -1    0    0  501    0  0.00000000000E+00  0.00000000000E+00 -0.23683173626E+04  0.23683173626E+04  0.25500000920E-02 0.  1.
    10030    2    1    2    0    0  0.00000000000E+00  0.00000000000E+00 -0.13675904461E+04  0.33690442791E+04  0.30789861523E+04 0.  0.
        1    1    3    3  502    0 -0.59710483779E+03 -0.46243090845E+03  0.78409813265E+03  0.10886626723E+04  0.50400001928E-02 0. -1.
       -1    1    3    3    0  502  0.59710483779E+03  0.46243090845E+03 -0.21516885788E+04  0.22803816068E+04  0.50400001928E-02 0.  1.
</event>
<event>
 5   0  0.7726743E-07  0.3097740E+04  0.7818609E-02  0.8216358E-01
        1   -1    0    0  501    0  0.00000000000E+00  0.00000000000E+00  0.30082267813E+04  0.30082267813E+04  0.50400001928E-02 0.  1.
       -1   -1    0    0    0  501  0.00000000000E+00  0.00000000000E+00 -0.79747942584E+03  0.79747942585E+03  0.50400001928E-02 0. -1.
    10030    2    1    2    0    0  0.00000000000E+00  0.00000000000E+00  0.22107473554E+04  0.38057062071E+04  0.30977404451E+04 0.  0.
        1    1    3    3  502    0 -0.14516902191E+04 -0.51411662446E+03  0.90246480524E+03  0.17849826667E+04  0.50400001928E-02 0. -1.
       -1    1    3    3    0  502  0.14516902191E+04  0.51411662446E+03  0.13082825502E+04  0.20207235404E+04  0.50400001928E-02 0.  1.
</event>
<event>
 5   0  0.2094135E-06  0.3035523E+04  0.7818609E-02  0.8233659E-01
       -2   -1    0    0    0  501  0.00000000000E+00  0.00000000000E+00  0.14134418155E+04  0.14134418155E+04  0.25500000920E-02 0. -1.
        2   -1    0    0  501    0  0.00000000000E+00  0.00000000000E+00 -0.16297805842E+04  0.16297805842E+04  0.25500000920E-02 0.  1.
    10030    2    1    2    0    0  0.00000000000E+00  0.00000000000E+00 -0.21633876868E+03  0.30432223997E+04  0.30355230375E+04 0.  0.
        4    1    3    3  502    0 -0.27380012321E+03 -0.14907044788E+04 -0.18857295768E+03  0.15273269865E+04  0.12699999809E+01 0. -1.
       -4    1    3    3    0  502  0.27380012321E+03  0.14907044788E+04 -0.27765811009E+02  0.15158954131E+04  0.12699999809E+01 0.  1.
</event>
<event>
 5   0  0.2078009E-06  0.3104415E+04  0.7818609E-02  0.8214527E-01
        2   -1    0    0  501    0  0.00000000000E+00  0.00000000000E+00  0.19008674565E+04  0.19008674565E+04  0.25500000920E-02 0. -1.
       -2   -1    0    0    0  501  0.00000000000E+00  0.00000000000E+00 -0.12674990564E+04  0.12674990564E+04  0.25500000920E-02 0.  1.
    10030    2    1    2    0    0  0.00000000000E+00  0.00000000000E+00  0.63336840014E+03  0.31683665129E+04  0.31044147323E+04 0.  0.
        3    1    3    3  502    0 -0.25061770416E+03 -0.10774742082E+04  0.14279617442E+04  0.18063318234E+04  0.10100000352E+00 0. -1.
       -3    1    3    3    0  502  0.25061770416E+03  0.10774742082E+04 -0.79459334409E+03  0.13620346896E+04  0.10100000352E+00 0.  1.
</event>
<event>
 5   0  0.7561815E-07  0.3098530E+04  0.7818609E-02  0.8216141E-01
       -1   -1    0    0    0  501  0.00000000000E+00  0.00000000000E+00  0.80551782319E+03  0.80551782321E+03  0.50400001928E-02 0.  1.
        1   -1    0    0  501    0  0.00000000000E+00  0.00000000000E+00 -0.29797264416E+04  0.29797264416E+04  0.50400001928E-02 0. -1.
    10030    2    1    2    0    0  0.00000000000E+00  0.00000000000E+00 -0.21742086185E+04  0.37852442649E+04  0.30985304627E+04 0.  0.
        3    1    3    3  502    0 -0.10883183400E+04 -0.10997562853E+04 -0.11842373806E+04  0.19484144529E+04  0.10100000352E+00 0.  1.
       -3    1    3    3    0  502  0.10883183400E+04  0.10997562853E+04 -0.98997123786E+03  0.18368298120E+04  0.10100000352E+00 0. -1.
</event>
<event>
 5   0  0.7413481E-07  0.3101819E+04  0.7818609E-02  0.8215239E-01
       -1   -1    0    0    0  501  0.00000000000E+00  0.00000000000E+00  0.14379487226E+04  0.14379487226E+04  0.50400001928E-02 0.  1.
        1   -1    0    0  501    0  0.00000000000E+00  0.00000000000E+00 -0.16727438658E+04  0.16727438658E+04  0.50400001928E-02 0. -1.
    10030    2    1    2    0    0  0.00000000000E+00  0.00000000000E+00 -0.23479514324E+03  0.31106925884E+04  0.31018187601E+04 0.  0.
        5    1    3    3  502    0  0.92580708763E+03 -0.88770644783E+03  0.75696614963E+03  0.14893493018E+04  0.46999998093E+01 0.  1.
       -5    1    3    3    0  502 -0.92580708763E+03  0.88770644783E+03 -0.99176129287E+03  0.16213432866E+04  0.46999998093E+01 0. -1.
</event>
<event>
 5   0  0.7519202E-07  0.3117077E+04  0.7818609E-02  0.8211067E-01
        1   -1    0    0  501    0  0.00000000000E+00  0.00000000000E+00  0.14485745066E+04  0.14485745066E+04  0.50400001928E-02 0.  1.
       -1   -1    0    0    0  501  0.00000000000E+00  0.00000000000E+00 -0.16768503676E+04  0.16768503676E+04  0.50400001928E-02 0. -1.
    10030    2    1    2    0    0  0.00000000000E+00  0.00000000000E+00 -0.22827586097E+03  0.31254248742E+04  0.31170772810E+04 0.  0.
        4    1    3    3  502    0 -0.14190190708E+04  0.53231959000E+03  0.25023836852E+03  0.15360989952E+04  0.12699999809E+01 0.  1.
       -4    1    3    3    0  502  0.14190190708E+04 -0.53231959000E+03 -0.47851422949E+03  0.15893258790E+04  0.12699999809E+01 0. -1.
</event>
<event>
 5   0  0.2078009E-06  0.3102154E+04  0.7818609E-02  0.8215147E-01
       -2   -1    0    0    0  501  0.00000000000E+00  0.00000000000E+00  0.13132839587E+04  0.13132839587E+04  0.25500000920E-02 0.  1.
        2   -1    0    0  501    0  0.00000000000E+00  0.00000000000E+00 -0.18319264733E+04  0.18319264733E+04  0.25500000920E-02 0. -1.
    10030    2    1    2    0    0  0.00000000000E+00  0.00000000000E+00 -0.51864251464E+03  0.31452104320E+04  0.31021538653E+04 0.  0.
        3    1    3    3  502    0 -0.91400235289E+03 -0.10614485271E+03  0.10066780589E+04  0.13638430098E+04  0.10100000352E+00 0.  1.
       -3    1    3    3    0  502  0.91400235289E+03  0.10614485271E+03 -0.15253205735E+04  0.17813674223E+04  0.10100000352E+00 0. -1.
</event>
<event>
 5   0  0.2133385E-06  0.3093311E+04  0.7818609E-02  0.8217576E-01
       -2   -1    0    0    0  501  0.00000000000E+00  0.00000000000E+00  0.10734850856E+04  0.10734850856E+04  0.25500000920E-02 0. -1.
        2   -1    0    0  501    0  0.00000000000E+00  0.00000000000E+00 -0.22283898824E+04  0.22283898824E+04  0.25500000920E-02 0.  1.
    10030    2    1    2    0    0  0.00000000000E+00  0.00000000000E+00 -0.11549047968E+04  0.33018749679E+04  0.30933110439E+04 0.  0.
        2    1    3    3  502    0 -0.23241162731E+03  0.11566514395E+04  0.49012417995E+03  0.12775286410E+04  0.25500000920E-02 0. -1.
       -2    1    3    3    0  502  0.23241162731E+03 -0.11566514395E+04 -0.16450289767E+04  0.20243463269E+04  0.25500000920E-02 0.  1.
</event>
<event>
 5   0  0.2078009E-06  0.3096413E+04  0.7818609E-02  0.8216723E-01
       -2   -1    0    0    0  501  0.00000000000E+00  0.00000000000E+00  0.18996453603E+04  0.18996453603E+04  0.25500000920E-02 0.  1.
        2   -1    0    0  501    0  0.00000000000E+00  0.00000000000E+00 -0.12617845555E+04  0.12617845555E+04  0.25500000920E-02 0. -1.
    10030    2    1    2    0    0  0.00000000000E+00  0.00000000000E+00  0.63786080477E+03  0.31614299158E+04  0.30964128773E+04 0.  0.
        3    1    3    3  502    0 -0.80931678983E+03  0.16519192002E+03 -0.10180155325E+04  0.13109682191E+04  0.10100000352E+00 0. -1.
       -3    1    3    3    0  502  0.80931678983E+03 -0.16519192002E+03  0.16558763373E+04  0.18504616968E+04  0.10100000352E+00 0.  1.
</event>
<event>
 5   0  0.2133385E-06  0.3095883E+04  0.7818609E-02  0.8216869E-01
        2   -1    0    0  501    0  0.00000000000E+00  0.00000000000E+00  0.14378446751E+04  0.14378446751E+04  0.25500000920E-02 0. -1.
       -2   -1    0    0    0  501  0.00000000000E+00  0.00000000000E+00 -0.16664680686E+04  0.16664680686E+04  0.25500000920E-02 0.  1.
    10030    2    1    2    0    0  0.00000000000E+00  0.00000000000E+00 -0.22862339349E+03  0.31043127437E+04  0.30958825809E+04 0.  0.
        2    1    3    3  502    0  0.14257366402E+04 -0.37099221499E+03 -0.59074976496E+03  0.15872446174E+04  0.25500000920E-02 0. -1.
       -2    1    3    3    0  502 -0.14257366402E+04  0.37099221499E+03  0.36212637146E+03  0.15170681262E+04  0.25500000920E-02 0.  1.
</event>
<event>
 5   0  0.2078009E-06  0.3112266E+04  0.7818609E-02  0.8212380E-01
        2   -1    0    0  501    0  0.00000000000E+00  0.00000000000E+00  0.14050483748E+04  0.14050483748E+04  0.25500000920E-02 0.  1.
       -2   -1    0    0    0  501  0.00000000000E+00  0.00000000000E+00 -0.17234632866E+04  0.17234632866E+04  0.25500000920E-02 0. -1.
    10030    2    1    2    0    0  0.00000000000E+00  0.00000000000E+00 -0.31841491171E+03  0.31285116614E+04  0.31122655991E+04 0.  0.
        3    1    3    3  502    0  0.20702860766E+03 -0.15138249258E+04  0.13732823814E+03  0.15340749022E+04  0.10100000352E+00 0.  1.
       -3    1    3    3    0  502 -0.20702860766E+03  0.15138249258E+04 -0.45574314985E+03  0.15944367592E+04  0.10100000352E+00 0. -1.
</event>
<event>
 5   0  0.2226334E-06  0.3146257E+04  0.7818609E-02  0.8203157E-01
        2   -1    0    0  501    0  0.00000000000E+00  0.00000000000E+00  0.20225600983E+04  0.20225600983E+04  0.25500000920E-02 0.  1.
       -2   -1    0    0    0  501  0.00000000000E+00  0.00000000000E+00 -0.12235643812E+04  0.12235643812E+04  0.25500000920E-02 0. -1.
    10030    2    1    2    0    0  0.00000000000E+00  0.00000000000E+00  0.79899571708E+03  0.32461244794E+04  0.31462565026E+04 0.  0.
        5    1    3    3  502    0  0.46394572242E+03 -0.75144388430E+03 -0.94366869559E+03  0.12924574429E+04  0.46999998093E+01 0. -1.
       -5    1    3    3    0  502 -0.46394572242E+03  0.75144388430E+03  0.17426644127E+04  0.19536670366E+04  0.46999998093E+01 0.  1.
</event>
<event>
 5   0  0.2094135E-06  0.3082188E+04  0.7818609E-02  0.8220643E-01
       -2   -1    0    0    0  501  0.00000000000E+00  0.00000000000E+00  0.19546479978E+04  0.19546479978E+04  0.25500000920E-02 0. -1.
        2   -1    0    0  501    0  0.00000000000E+00  0.00000000000E+00 -0.12150375151E+04  0.12150375151E+04  0.25500000920E-02 0.  1.
    10030    2    1    2    0    0  0.00000000000E+00  0.00000000000E+00  0.73961048269E+03  0.31696855129E+04  0.30821879542E+04 0.  0.
        4    1    3    3  502    0  0.11769565034E+04 -0.49203549883E+03  0.12590152335E+04  0.17923299122E+04  0.12699999809E+01 0. -1.
       -4    1    3    3    0  502 -0.11769565034E+04  0.49203549883E+03 -0.51940475084E+03  0.13773556008E+04  0.12699999809E+01 0.  1.
</event>
<event>
 5   0  0.2094135E-06  0.3110095E+04  0.7818609E-02  0.8212973E-01
       -2   -1    0    0    0  501  0.00000000000E+00  0.00000000000E+00  0.12667678155E+04  0.12667678155E+04  0.25500000920E-02 0.  1.
        2   -1    0    0  501    0  0.00000000000E+00  0.00000000000E+00 -0.19089309339E+04  0.19089309339E+04  0.25500000920E-02 0. -1.
    10030    2    1    2    0    0  0.00000000000E+00  0.00000000000E+00 -0.64216311839E+03  0.31756987493E+04  0.31100947053E+04 0.  0.
        4    1    3    3  502    0 -0.62491085404E+03  0.11713616292E+04 -0.11478328721E+04  0.17550280787E+04  0.12699999809E+01 0. -1.
       -4    1    3    3    0  502  0.62491085404E+03 -0.11713616292E+04  0.50566975369E+03  0.14206706707E+04  0.12699999809E+01 0.  1.
</event>
<event>
 5   0  0.7726743E-07  0.3054812E+04  0.7818609E-02  0.8228250E-01
        1   -1    0    0  501    0  0.00000000000E+00  0.00000000000E+00  0.17169945613E+04  0.17169945613E+04  0.50400001928E-02 0.  1.
       -1   -1    0    0    0  501  0.00000000000E+00  0.00000000000E+00 -0.13587512977E+04  0.13587512977E+04  0.50400001928E-02 0. -1.
    10030    2    1    2    0    0  0.00000000000E+00  0.00000000000E+00  0.35824326359E+03  0.30757458590E+04  0.30548116723E+04 0.  0.
        1    1    3    3  502    0  0.40062656914E+03  0.53431811008E+03  0.15622058657E+04  0.16989657611E+04  0.50400001928E-02 0.  1.
       -1    1    3    3    0  502 -0.40062656914E+03 -0.53431811008E+03 -0.12039626021E+04  0.13767800979E+04  0.50400001928E-02 0. -1.
</event>
<event>
 5   0  0.2133385E-06  0.2839830E+04  0.7818609E-02  0.8291008E-01
       -2   -1    0    0    0  501  0.00000000000E+00  0.00000000000E+00  0.30425545032E+04  0.30425545032E+04  0.25500000920E-02 0. -1.
        2   -1    0    0  501    0  0.00000000000E+00  0.00000000000E+00 -0.66265339576E+03  0.66265339576E+03  0.25500000920E-02 0.  1.
    10030    2    1    2    0    0  0.00000000000E+00  0.00000000000E+00  0.23799011075E+04  0.37052078990E+04  0.28398303283E+04 0.  0.
        2    1    3    3  502    0 -0.66142631477E+03 -0.10974479206E+04  0.19881655281E+04  0.23653073533E+04  0.25500000920E-02 0. -1.
       -2    1    3    3    0  502  0.66142631477E+03  0.10974479206E+04  0.39173557941E+03  0.13399005458E+04  0.25500000920E-02 0.  1.
</event>
<event>
 5   0  0.7413481E-07  0.3046322E+04  0.7818609E-02  0.8230626E-01
       -1   -1    0    0    0  501  0.00000000000E+00  0.00000000000E+00  0.12325711413E+04  0.12325711413E+04  0.50400001928E-02 0.  1.
        1   -1    0    0  501    0  0.00000000000E+00  0.00000000000E+00 -0.18822604590E+04  0.18822604590E+04  0.50400001928E-02 0. -1.
    10030    2    1    2    0    0  0.00000000000E+00  0.00000000000E+00 -0.64968931774E+03  0.31148316003E+04  0.30463223218E+04 0.  0.
        5    1    3    3  502    0  0.11372548255E+04  0.44218279605E+02  0.71019221914E+03  0.13415285582E+04  0.46999998093E+01 0.  1.
       -5    1    3    3    0  502 -0.11372548255E+04 -0.44218279605E+02 -0.13598815369E+04  0.17733030420E+04  0.46999998093E+01 0. -1.
</event>
<event>
 5   0  0.7519202E-07  0.3101839E+04  0.7818609E-02  0.8215233E-01
       -1   -1    0    0    0  501  0.00000000000E+00  0.00000000000E+00  0.14261956078E+04  0.14261956078E+04  0.50400001928E-02 0. -1.
        1   -1    0    0  501    0  0.00000000000E+00  0.00000000000E+00 -0.16865507178E+04  0.16865507178E+04  0.50400001928E-02 0.  1.
    10030    2    1    2    0    0  0.00000000000E+00  0.00000000000E+00 -0.26035510995E+03  0.31127463256E+04  0.31018389552E+04 0.  0.
        4    1    3    3  502    0 -0.82621772224E+01 -0.10662219287E+04 -0.12603937535E+04  0.16509062638E+04  0.12699999809E+01 0.  1.
       -4    1    3    3    0  502  0.82621772224E+01  0.10662219287E+04  0.10000386436E+04  0.14618400618E+04  0.12699999809E+01 0. -1.
</event>
<event>
 5   0  0.7413481E-07  0.3111436E+04  0.7818609E-02  0.8212606E-01
        1   -1    0    0  501    0  0.00000000000E+00  0.00000000000E+00  0.24289062073E+04  0.24289062073E+04  0.50400001928E-02 0.  1.
       -1   -1    0    0    0  501  0.00000000000E+00  0.00000000000E+00 -0.99643972872E+03  0.99643972873E+03  0.50400001928E-02 0. -1.
    10030    2    1    2    0    0  0.00000000000E+00  0.00000000000E+00  0.14324664786E+04  0.34253459361E+04  0.31114360944E+04 0.  0.
        5    1    3    3  502    0  0.71896936865E+03 -0.26419805232E+03  0.22069195364E+04  0.23360722365E+04  0.46999998093E+01 0.  1.
       -5    1    3    3    0  502 -0.71896936865E+03  0.26419805232E+03 -0.77445305779E+03  0.10892736996E+04  0.46999998093E+01 0. -1.
</event>
<event>
 5   0  0.2067926E-06  0.3130472E+04  0.7818609E-02  0.8207424E-01
       -2   -1    0    0    0  501  0.00000000000E+00  0.00000000000E+00  0.92133368371E+03  0.92133368371E+03  0.25500000920E-02 0.  1.
        2   -1    0    0  501    0  0.00000000000E+00  0.00000000000E+00 -0.26591500381E+04  0.26591500381E+04  0.25500000920E-02 0. -1.
    10030    2    1    2    0    0  0.00000000000E+00  0.00000000000E+00 -0.17378163544E+04  0.35804837218E+04  0.31304724884E+04 0.  0.
        1    1    3    3  502    0  0.62384277349E+03 -0.71355207069E+03  0.55579907610E+03  0.10987488233E+04  0.50400001928E-02 0.  1.
       -1    1    3    3    0  502 -0.62384277349E+03  0.71355207069E+03 -0.22936154305E+04  0.24817348986E+04  0.50400001928E-02 0. -1.
</event>
<event>
 5   0  0.2078009E-06  0.3096489E+04  0.7818609E-02  0.8216702E-01
        2   -1    0    0  501    0  0.00000000000E+00  0.00000000000E+00  0.16224005235E+04  0.16224005235E+04  0.25500000920E-02 0. -1.
       -2   -1    0    0    0  501  0.00000000000E+00  0.00000000000E+00 -0.14774777142E+04  0.14774777142E+04  0.25500000920E-02 0.  1.
    10030    2    1    2    0    0  0.00000000000E+00  0.00000000000E+00  0.14492280924E+03  0.30998782377E+04  0.30964887321E+04 0.  0.
        3    1    3    3  502    0  0.11881851274E+04  0.98231399057E+03  0.21522161867E+03  0.15566133201E+04  0.10100000352E+00 0.  1.
       -3    1    3    3    0  502 -0.11881851274E+04 -0.98231399057E+03 -0.70298809421E+02  0.15432649176E+04  0.10100000352E+00 0. -1.
</event>
<event>
 5   0  0.2226334E-06  0.3097662E+04  0.7818609E-02  0.8216380E-01
       -2   -1    0    0    0  501  0.00000000000E+00  0.00000000000E+00  0.23616347830E+04  0.23616347830E+04  0.25500000920E-02 0.  1.
        2   -1    0    0  501    0  0.00000000000E+00  0.00000000000E+00 -0.10157700204E+04  0.10157700204E+04  0.25500000920E-02 0. -1.
    10030    2    1    2    0    0  0.00000000000E+00  0.00000000000E+00  0.13458647626E+04  0.33774048034E+04  0.30976622228E+04 0.  0.
        5    1    3    3  502    0 -0.14798115178E+04 -0.43106703240E+03  0.83898450713E+03  0.17548726472E+04  0.46999998093E+01 0.  1.
       -5    1    3    3    0  502  0.14798115178E+04  0.43106703240E+03  0.50688025545E+03  0.16225321562E+04  0.46999998093E+01 0. -1.
</event>
<event>
 5   0  0.7413481E-07  0.3104859E+04  0.7818609E-02  0.8214406E-01
       -1   -1    0    0    0  501  0.00000000000E+00  0.00000000000E+00  0.15456453660E+04  0.15456453660E+04  0.50400001928E-02 0.  1.
        1   -1    0    0  501    0  0.00000000000E+00  0.00000000000E+00 -0.15592437719E+04  0.15592437719E+04  0.50400001928E-02 0. -1.
    10030    2    1    2    0    0  0.00000000000E+00  0.00000000000E+00 -0.13598405958E+02  0.31048891379E+04  0.31048593595E+04 0.  0.
        5    1    3    3  502    0  0.13193147545E+04  0.78944125333E+02  0.80757475622E+03  0.15488778755E+04  0.46999998093E+01 0.  1.
       -5    1    3    3    0  502 -0.13193147545E+04 -0.78944125333E+02 -0.82117316218E+03  0.15560112624E+04  0.46999998093E+01 0. -1.
</event>
<event>
 5   0  0.2078009E-06  0.3082770E+04  0.7818609E-02  0.8220483E-01
       -2   -1    0    0    0  501  0.00000000000E+00  0.00000000000E+00  0.11998117029E+04  0.11998117029E+04  0.25500000920E-02 0.  1.
        2   -1    0    0  501    0  0.00000000000E+00  0.00000000000E+00 -0.19801998470E+04  0.19801998470E+04  0.25500000920E-02 0. -1.
    10030    2    1    2    0    0  0.00000000000E+00  0.00000000000E+00 -0.78038814416E+03  0.31800115499E+04  0.30827695019E+04 0.  0.
        3    1    3    3  502    0  0.87630189792E+03  0.68496106796E+03  0.71060870219E+03  0.13198641668E+04  0.10100000352E+00 0.  1.
       -3    1    3    3    0  502 -0.87630189792E+03 -0.68496106796E+03 -0.14909968464E+04  0.18601473831E+04  0.10100000352E+00 0. -1.
</event>
<event>
 5   0  0.2094135E-06  0.3034635E+04  0.7818609E-02  0.8233909E-01
       -2   -1    0    0    0  501  0.00000000000E+00  0.00000000000E+00  0.10487418658E+04  0.10487418658E+04  0.25500000920E-02 0. -1.
        2   -1    0    0  501    0  0.00000000000E+00  0.00000000000E+00 -0.21952519237E+04  0.21952519237E+04  0.25500000920E-02 0.  1.
    10030    2    1    2    0    0  0.00000000000E+00  0.00000000000E+00 -0.11465100579E+04  0.32439937896E+04  0.30346351336E+04 0.  0.
        4    1    3    3  502    0 -0.73750312781E+03  0.34558302336E+03 -0.19417758706E+04  0.21056670283E+04  0.12699999809E+01 0.  1.
       -4    1    3    3    0  502  0.73750312781E+03 -0.34558302336E+03  0.79526581273E+03  0.11383267612E+04  0.12699999809E+01 0. -1.
</event>
<event>
 5   0  0.2226334E-06  0.3020816E+04  0.7818609E-02  0.8237812E-01
        2   -1    0    0  501    0  0.00000000000E+00  0.00000000000E+00  0.16365873624E+04  0.16365873624E+04  0.25500000920E-02 0. -1.
       -2   -1    0    0    0  501  0.00000000000E+00  0.00000000000E+00 -0.13939567963E+04  0.13939567963E+04  0.25500000920E-02 0.  1.
    10030    2    1    2    0    0  0.00000000000E+00  0.00000000000E+00  0.24263056616E+03  0.30305441587E+04  0.30208158345E+04 0.  0.
        5    1    3    3  502    0  0.84998224661E+03 -0.42027111369E+03 -0.10581461736E+04  0.14208423710E+04  0.46999998093E+01 0.  1.
       -5    1    3    3    0  502 -0.84998224661E+03  0.42027111369E+03  0.13007767398E+04  0.16097017877E+04  0.46999998093E+01 0. -1.
</event>
<event>
 5   0  0.7413481E-07  0.3080305E+04  0.7818609E-02  0.8221164E-01
        1   -1    0    0  501    0  0.00000000000E+00  0.00000000000E+00  0.26864372231E+04  0.26864372231E+04  0.50400001928E-02 0. -1.
       -1   -1    0    0    0  501  0.00000000000E+00  0.00000000000E+00 -0.88297981824E+03  0.88297981826E+03  0.50400001928E-02 0.  1.
    10030    2    1    2    0    0  0.00000000000E+00  0.00000000000E+00  0.18034574049E+04  0.35694170414E+04  0.30803050830E+04 0.  0.
        5    1    3    3  502    0  0.12630008149E+04 -0.31371118220E+03 -0.52750178187E+02  0.13024555407E+04  0.46999998093E+01 0.  1.
       -5    1    3    3    0  502 -0.12630008149E+04  0.31371118220E+03  0.18562075831E+04  0.22669615007E+04  0.46999998093E+01 0. -1.
</event>
<event>
 5   0  0.2078009E-06  0.3106164E+04  0.7818609E-02  0.8214048E-01
        2   -1    0    0  501    0  0.00000000000E+00  0.00000000000E+00  0.20830830075E+04  0.20830830075E+04  0.25500000920E-02 0. -1.
       -2   -1    0    0    0  501  0.00000000000E+00  0.00000000000E+00 -0.11579299701E+04  0.11579299701E+04  0.25500000920E-02 0.  1.
    10030    2    1    2    0    0  0.00000000000E+00  0.00000000000E+00  0.92515303736E+03  0.32410129776E+04  0.31061643514E+04 0.  0.
        3    1    3    3  502    0  0.78765535924E+03 -0.12187573352E+03  0.18534152682E+04  0.20175239344E+04  0.10100000352E+00 0. -1.
       -3    1    3    3    0  502 -0.78765535924E+03  0.12187573352E+03 -0.92826223082E+03  0.12234890432E+04  0.10100000352E+00 0.  1.
</event>
<event>
 5   0  0.2067926E-06  0.3077531E+04  0.7818609E-02  0.8221932E-01
        2   -1    0    0  501    0  0.00000000000E+00  0.00000000000E+00  0.16688565341E+04  0.16688565341E+04  0.25500000920E-02 0. -1.
       -2   -1    0    0    0  501  0.00000000000E+00  0.00000000000E+00 -0.14188150811E+04  0.14188150811E+04  0.25500000920E-02 0.  1.
    10030    2    1    2    0    0  0.00000000000E+00  0.00000000000E+00  0.25004145306E+03  0.30876716152E+04  0.30775307107E+04 0.  0.
        1    1    3    3  502    0 -0.62982253531E+03  0.13823218293E+04  0.37140834730E+03  0.15637884212E+04  0.50400001928E-02 0.  1.
       -1    1    3    3    0  502  0.62982253531E+03 -0.13823218293E+04 -0.12136689424E+03  0.15238831940E+04  0.50400001928E-02 0. -1.
</event>
<event>
 5   0  0.2094135E-06  0.3106500E+04  0.7818609E-02  0.8213956E-01
        2   -1    0    0  501    0  0.00000000000E+00  0.00000000000E+00  0.28105919713E+04  0.28105919713E+04  0.25500000920E-02 0.  1.
       -2   -1    0    0    0  501  0.00000000000E+00  0.00000000000E+00 -0.85839027555E+03  0.85839027556E+03  0.25500000920E-02 0. -1.
    10030    2    1    2    0    0  0.00000000000E+00  0.00000000000E+00  0.19522016957E+04  0.36689822469E+04  0.31064995199E+04 0.  0.
        4    1    3    3  502    0 -0.95533324340E+03  0.29819489517E+03  0.23790374379E+04  0.25809693034E+04  0.12699999809E+01 0.  1.
       -4    1    3    3    0  502  0.95533324340E+03 -0.29819489517E+03 -0.42683574212E+03  0.10880129434E+04  0.12699999809E+01 0. -1.
</event>
<event>
 5   0  0.2067926E-06  0.3085057E+04  0.7818609E-02  0.8219851E-01
        2   -1    0    0  501    0  0.00000000000E+00  0.00000000000E+00  0.18946919383E+04  0.18946919383E+04  0.25500000920E-02 0. -1.
       -2   -1    0    0    0  501  0.00000000000E+00  0.00000000000E+00 -0.12558210687E+04  0.12558210687E+04  0.25500000920E-02 0.  1.
    10030    2    1    2    0    0  0.00000000000E+00  0.00000000000E+00  0.63887086960E+03  0.31505130070E+04  0.30850569232E+04 0.  0.
        1    1    3    3  502    0  0.13129829423E+04  0.52708073629E+03  0.94701116971E+03  0.17025182716E+04  0.50400001928E-02 0. -1.
       -1    1    3    3    0  502 -0.13129829423E+04 -0.52708073629E+03 -0.30814030011E+03  0.14479947355E+04  0.50400001928E-02 0.  1.
</event>
<event>
 5   0  0.2078009E-06  0.3102810E+04  0.7818609E-02  0.8214967E-01
        2   -1    0    0  501    0  0.00000000000E+00  0.00000000000E+00  0.17156661145E+04  0.17156661145E+04  0.25500000920E-02 0.  1.
       -2   -1    0    0    0  501  0.00000000000E+00  0.00000000000E+00 -0.14028701207E+04  0.14028701207E+04  0.25500000920E-02 0. -1.
    10030    2    1    2    0    0  0.00000000000E+00  0.00000000000E+00  0.31279599375E+03  0.31185362352E+04  0.31028095199E+04 0.  0.
        3    1    3    3  502    0 -0.34057577317E+03 -0.15726745997E+01  0.16776290437E+04  0.17118509132E+04  0.10100000352E+00 0.  1.
       -3    1    3    3    0  502  0.34057577317E+03  0.15726745997E+01 -0.13648330500E+04  0.14066853220E+04  0.10100000352E+00 0. -1.
</event>
<event>
 5   0  0.2133385E-06  0.3040994E+04  0.7818609E-02  0.8232121E-01
        2   -1    0    0  501    0  0.00000000000E+00  0.00000000000E+00  0.13488575927E+04  0.13488575927E+04  0.25500000920E-02 0.  1.
       -2   -1    0    0    0  501  0.00000000000E+00  0.00000000000E+00 -0.17139776771E+04  0.17139776771E+04  0.25500000920E-02 0. -1.
    10030    2    1    2    0    0  0.00000000000E+00  0.00000000000E+00 -0.36512008436E+03  0.30628352698E+04  0.30409944449E+04 0.  0.
        2    1    3    3  502    0 -0.16132001374E+03  0.83389016391E+03 -0.14527739893E+04  0.16828396288E+04  0.25500000920E-02 0. -1.
       -2    1    3    3    0  502  0.16132001374E+03 -0.83389016391E+03  0.10876539049E+04  0.13799956410E+04  0.25500000920E-02 0.  1.
</event>
<event>
 5   0  0.2067926E-06  0.3105743E+04  0.7818609E-02  0.8214164E-01
       -2   -1    0    0    0  501  0.00000000000E+00  0.00000000000E+00  0.15086185695E+04  0.15086185695E+04  0.25500000920E-02 0. -1.
        2   -1    0    0  501    0  0.00000000000E+00  0.00000000000E+00 -0.15984227614E+04  0.15984227614E+04  0.25500000920E-02 0.  1.
    10030    2    1    2    0    0  0.00000000000E+00  0.00000000000E+00 -0.89804191933E+02  0.31070413309E+04  0.31057432346E+04 0.  0.
        1    1    3    3  502    0  0.13161645920E+04 -0.76387212247E+03 -0.35425683720E+03  0.15624620826E+04  0.50400001928E-02 0.  1.
       -1    1    3    3    0  502 -0.13161645920E+04  0.76387212247E+03  0.26445264527E+03  0.15445792483E+04  0.50400001928E-02 0. -1.
</event>
<event>
 5   0  0.2133385E-06  0.3100145E+04  0.7818609E-02  0.8215698E-01
       -2   -1    0    0    0  501  0.00000000000E+00  0.00000000000E+00  0.18441095643E+04  0.18441095643E+04  0.25500000920E-02 0. -1.
        2   -1    0    0  501    0  0.00000000000E+00  0.00000000000E+00 -0.13029188997E+04  0.13029188997E+04  0.25500000920E-02 0.  1.
    10030    2    1    2    0    0  0.00000000000E+00  0.00000000000E+00  0.54119066465E+03  0.31470284640E+04  0.31001452898E+04 0.  0.
        2    1    3    3  502    0 -0.10079659052E+04 -0.54291958280E+03 -0.79018053693E+03  0.13910938935E+04  0.25500000920E-02 0.  1.
       -2    1    3    3    0  502  0.10079659052E+04  0.54291958280E+03  0.13313712016E+04  0.17559345705E+04  0.25500000920E-02 0. -1.
</event>
<event>
 5   0  0.7726743E-07  0.3096810E+04  0.7818609E-02  0.8216614E-01
       -1   -1    0    0    0  501  0.00000000000E+00  0.00000000000E+00  0.13912718617E+04  0.13912718617E+04  0.50400001928E-02 0. -1.
        1   -1    0    0  501    0  0.00000000000E+00  0.00000000000E+00 -0.17232855570E+04  0.17232855570E+04  0.50400001928E-02 0.  1.
    10030    2    1    2    0    0  0.00000000000E+00  0.00000000000E+00 -0.33201369532E+03  0.31145574187E+04  0.30968104270E+04 0.  0.
        1    1    3    3  502    0 -0.12567698123E+03 -0.69798074346E+03  0.12183210921E+04  0.14097085178E+04  0.50400001928E-02 0. -1.
       -1    1    3    3    0  502  0.12567698123E+03  0.69798074346E+03 -0.15503347874E+04  0.17048489009E+04  0.50400001928E-02 0.  1.
</event>
<event>
 5   0  0.7656332E-07  0.3107008E+04  0.7818609E-02  0.8213817E-01
        1   -1    0    0  501    0  0.00000000000E+00  0.00000000000E+00  0.24458953702E+04  0.24458953702E+04  0.50400001928E-02 0. -1.
       -1   -1    0    0    0  501  0.00000000000E+00  0.00000000000E+00 -0.98670385276E+03  0.98670385277E+03  0.50400001928E-02 0.  1.
    10030    2    1    2    0    0  0.00000000000E+00  0.00000000000E+00  0.14591915175E+04  0.34325992230E+04  0.31070078116E+04 0.  0.
        2    1    3    3  502    0  0.39105160973E+03 -0.14985426600E+04  0.86410361085E+03  0.17734786482E+04  0.25500000920E-02 0.  1.
       -2    1    3    3    0  502 -0.39105160973E+03  0.14985426600E+04  0.59508790663E+03  0.16591205748E+04  0.25500000920E-02 0. -1.
</event>
<event>
 5   0  0.7519202E-07  0.3097355E+04  0.7818609E-02  0.8216464E-01
       -1   -1    0    0    0  501  0.00000000000E+00  0.00000000000E+00  0.12419794984E+04  0.12419794984E+04  0.50400001928E-02 0. -1.
        1   -1    0    0  501    0  0.00000000000E+00  0.00000000000E+00 -0.19311125698E+04  0.19311125698E+04  0.50400001928E-02 0.  1.
    10030    2    1    2    0    0  0.00000000000E+00  0.00000000000E+00 -0.68913307144E+03  0.31730920682E+04  0.30973551432E+04 0.  0.
        4    1    3    3  502    0  0.26647292755E+03  0.11717860077E+04 -0.13453416178E+04  0.18038946617E+04  0.12699999809E+01 0.  1.
       -4    1    3    3    0  502 -0.26647292755E+03 -0.11717860077E+04  0.65620854634E+03  0.13691974066E+04  0.12699999809E+01 0. -1.
</event>
<event>
 5   0  0.7413481E-07  0.2978340E+04  0.7818609E-02  0.8249943E-01
       -1   -1    0    0    0  501  0.00000000000E+00  0.00000000000E+00  0.91609566790E+03  0.91609566791E+03  0.50400001928E-02 0. -1.
        1   -1    0    0  501    0  0.00000000000E+00  0.00000000000E+00 -0.24207372812E+04  0.24207372812E+04  0.50400001928E-02 0.  1.
    10030    2    1    2    0    0  0.00000000000E+00  0.00000000000E+00 -0.15046416133E+04  0.33368329492E+04  0.29783397634E+04 0.  0.
        5    1    3    3  502    0  0.14525300603E+04 -0.30746515138E+03 -0.88117005544E+03  0.17265170581E+04  0.46999998093E+01 0. -1.
       -5    1    3    3    0  502 -0.14525300603E+04  0.30746515138E+03 -0.62347155789E+03  0.16103158910E+04  0.46999998093E+01 0.  1.
</event>
<event>
 5   0  0.2078009E-06  0.3082150E+04  0.7818609E-02  0.8220654E-01
       -2   -1    0    0    0  501  0.00000000000E+00  0.00000000000E+00  0.10700986334E+04  0.10700986334E+04  0.25500000920E-02 0.  1.
        2   -1    0    0  501    0  0.00000000000E+00  0.00000000000E+00 -0.22193397243E+04  0.22193397243E+04  0.25500000920E-02 0. -1.
    10030    2    1    2    0    0  0.00000000000E+00  0.00000000000E+00 -0.11492410909E+04  0.32894383577E+04  0.30821501624E+04 0.  0.
        3    1    3    3  502    0 -0.48111787147E+03 -0.60579952428E+03 -0.19970928929E+04  0.21416926723E+04  0.10100000352E+00 0. -1.
       -3    1    3    3    0  502  0.48111787147E+03  0.60579952428E+03  0.84785180195E+03  0.11477456853E+04  0.10100000352E+00 0.  1.
</event>
<event>
 5   0  0.2078009E-06  0.3102074E+04  0.7818609E-02  0.8215169E-01
       -2   -1    0    0    0  501  0.00000000000E+00  0.00000000000E+00  0.98389459628E+03  0.98389459629E+03  0.25500000920E-02 0.  1.
        2   -1    0    0  501    0  0.00000000000E+00  0.00000000000E+00 -0.24450954507E+04  0.24450954507E+04  0.25500000920E-02 0. -1.
    10030    2    1    2    0    0  0.00000000000E+00  0.00000000000E+00 -0.14612008544E+04  0.34289900470E+04  0.31020742746E+04 0.  0.
        3    1    3    3  502    0 -0.14081122195E+04 -0.53418146891E+03 -0.32058360984E+03  0.15397739203E+04  0.10100000352E+00 0.  1.
       -3    1    3    3    0  502  0.14081122195E+04  0.53418146891E+03 -0.11406172446E+04  0.18892161267E+04  0.10100000352E+00 0. -1.
</event>
<event>
 5   0  0.7561815E-07  0.3046906E+04  0.7818609E-02  0.8230462E-01
       -1   -1    0    0    0  501  0.00000000000E+00  0.00000000000E+00  0.11653068226E+04  0.11653068226E+04  0.50400001928E-02 0. -1.
        1   -1    0    0  501    0  0.00000000000E+00  0.00000000000E+00 -0.19916723271E+04  0.19916723271E+04  0.50400001928E-02 0.  1.
    10030    2    1    2    0    0  0.00000000000E+00  0.00000000000E+00 -0.82636550450E+03  0.31569791498E+04  0.30469062022E+04 0.  0.
        3    1    3    3  502    0  0.69560528440E+03  0.10871294923E+03 -0.18129980291E+04  0.19449028461E+04  0.10100000352E+00 0.  1.
       -3    1    3    3    0  502 -0.69560528440E+03 -0.10871294923E+03  0.98663252464E+03  0.12120763037E+04  0.10100000352E+00 0. -1.
</event>
<event>
 5   0  0.7519202E-07  0.3078954E+04  0.7818609E-02  0.8221538E-01
        1   -1    0    0  501    0  0.00000000000E+00  0.00000000000E+00  0.21393271875E+04  0.21393271875E+04  0.50400001928E-02 0. -1.
       -1   -1    0    0    0  501  0.00000000000E+00  0.00000000000E+00 -0.11078202343E+04  0.11078202343E+04  0.50400001928E-02 0.  1.
    10030    2    1    2    0    0  0.00000000000E+00  0.00000000000E+00  0.10315069532E+04  0.32471474218E+04  0.30789543330E+04 0.  0.
        4    1    3    3  502    0 -0.15087841571E+03 -0.93347726887E+03 -0.76545268583E+03  0.12165786185E+04  0.12699999809E+01 0.  1.
       -4    1    3    3    0  502  0.15087841571E+03  0.93347726887E+03  0.17969596390E+04  0.20305688033E+04  0.12699999809E+01 0. -1.
</event>
<event>
 5   0  0.7413481E-07  0.3055765E+04  0.7818609E-02  0.8227984E-01
       -1   -1    0    0    0  501  0.00000000000E+00  0.00000000000E+00  0.16843401175E+04  0.16843401175E+04  0.50400001928E-02 0. -1.
        1   -1    0    0  501    0  0.00000000000E+00  0.00000000000E+00 -0.13859580500E+04  0.13859580500E+04  0.50400001928E-02 0.  1.
    10030    2    1    2    0    0  0.00000000000E+00  0.00000000000E+00  0.29838206756E+03  0.30702981675E+04  0.30557648763E+04 0.  0.
        5    1    3    3  502    0 -0.12244949791E+04  0.84659968020E+03 -0.19636862527E+03  0.15015664153E+04  0.46999998093E+01 0.  1.
       -5    1    3    3    0  502  0.12244949791E+04 -0.84659968020E+03  0.49475069283E+03  0.15687317522E+04  0.46999998093E+01 0. -1.
</event>
<event>
 5   0  0.2094135E-06  0.3125172E+04  0.7818609E-02  0.8208863E-01
        2   -1    0    0  501    0  0.00000000000E+00  0.00000000000E+00  0.96641338225E+03  0.96641338225E+03  0.25500000920E-02 0. -1.
       -2   -1    0    0    0  501  0.00000000000E+00  0.00000000000E+00 -0.25265334171E+04  0.25265334171E+04  0.25500000920E-02 0.  1.
    10030    2    1    2    0    0  0.00000000000E+00  0.00000000000E+00 -0.15601200348E+04  0.34929467993E+04  0.31251724464E+04 0.  0.
        4    1    3    3  502    0 -0.10495939194E+03  0.13703190880E+04  0.51004398213E+02  0.13752795855E+04  0.12699999809E+01 0. -1.
       -4    1    3    3    0  502  0.10495939194E+03 -0.13703190880E+04 -0.16111244330E+04  0.21176672138E+04  0.12699999809E+01 0.  1.
</event>
<event>
 5   0  0.2094135E-06  0.3085355E+04  0.7818609E-02  0.8219769E-01
       -2   -1    0    0    0  501  0.00000000000E+00  0.00000000000E+00  0.98273066415E+03  0.98273066415E+03  0.25500000920E-02 0.  1.
        2   -1    0    0  501    0  0.00000000000E+00  0.00000000000E+00 -0.24216748251E+04  0.24216748251E+04  0.25500000920E-02 0. -1.
    10030    2    1    2    0    0  0.00000000000E+00  0.00000000000E+00 -0.14389441609E+04  0.34044054892E+04  0.30853551557E+04 0.  0.
        4    1    3    3  502    0  0.37689357788E+03  0.59940573015E+03  0.79284767687E+03  0.10629887347E+04  0.12699999809E+01 0.  1.
       -4    1    3    3    0  502 -0.37689357788E+03 -0.59940573015E+03 -0.22317918378E+04  0.23414167546E+04  0.12699999809E+01 0. -1.
</event>
<event>
 5   0  0.2078009E-06  0.3120475E+04  0.7818609E-02  0.8210141E-01
       -2   -1    0    0    0  501  0.00000000000E+00  0.00000000000E+00  0.11668143850E+04  0.11668143850E+04  0.25500000920E-02 0. -1.
        2   -1    0    0  501    0  0.00000000000E+00  0.00000000000E+00 -0.20863142661E+04  0.20863142661E+04  0.25500000920E-02 0.  1.
    10030    2    1    2    0    0  0.00000000000E+00  0.00000000000E+00 -0.91949988105E+03  0.32531286511E+04  0.31204752826E+04 0.  0.
        3    1    3    3  502    0 -0.69152879130E+03  0.13976002396E+04 -0.51533627361E+03  0.16422758550E+04  0.10100000352E+00 0.  1.
       -3    1    3    3    0  502  0.69152879130E+03 -0.13976002396E+04 -0.40416360744E+03  0.16108527961E+04  0.10100000352E+00 0. -1.
</event>
<event>
 5   0  0.7726743E-07  0.3094336E+04  0.7818609E-02  0.8217294E-01
        1   -1    0    0  501    0  0.00000000000E+00  0.00000000000E+00  0.17744639129E+04  0.17744639129E+04  0.50400001928E-02 0.  1.
       -1   -1    0    0    0  501  0.00000000000E+00  0.00000000000E+00 -0.13489874380E+04  0.13489874381E+04  0.50400001928E-02 0. -1.
    10030    2    1    2    0    0  0.00000000000E+00  0.00000000000E+00  0.42547647486E+03  0.31234513510E+04  0.30943364573E+04 0.  0.
        1    1    3    3  502    0 -0.54554600928E+03 -0.10675643277E+04 -0.77442849571E+03  0.14272538446E+04  0.50400001928E-02 0. -1.
       -1    1    3    3    0  502  0.54554600928E+03  0.10675643277E+04  0.11999049706E+04  0.16961975063E+04  0.50400001928E-02 0.  1.
</event>
<event>
 5   0  0.2094135E-06  0.3103531E+04  0.7818609E-02  0.8214769E-01
        2   -1    0    0  501    0  0.00000000000E+00  0.00000000000E+00  0.18494258494E+04  0.18494258494E+04  0.25500000920E-02 0. -1.
       -2   -1    0    0    0  501  0.00000000000E+00  0.00000000000E+00 -0.13020131085E+04  0.13020131085E+04  0.25500000920E-02 0.  1.
    10030    2    1    2    0    0  0.00000000000E+00  0.00000000000E+00  0.54741274100E+03  0.31514389579E+04  0.31035313429E+04 0.  0.
        4    1    3    3  502    0  0.17704386421E+03  0.77239697003E+02 -0.12897573918E+04  0.13041419567E+04  0.12699999809E+01 0.  1.
       -4    1    3    3    0  502 -0.17704386421E+03 -0.77239697003E+02  0.18371701328E+04  0.18472970012E+04  0.12699999809E+01 0. -1.
</event>
<event>
 5   0  0.7519202E-07  0.2870637E+04  0.7818609E-02  0.8281668E-01
        1   -1    0    0  501    0  0.00000000000E+00  0.00000000000E+00  0.10213945988E+04  0.10213945988E+04  0.50400001928E-02 0. -1.
       -1   -1    0    0    0  501  0.00000000000E+00  0.00000000000E+00 -0.20169866794E+04  0.20169866794E+04  0.50400001928E-02 0.  1.
    10030    2    1    2    0    0  0.00000000000E+00  0.00000000000E+00 -0.99559208057E+03  0.30383812782E+04  0.28706370723E+04 0.  0.
        4    1    3    3  502    0 -0.29440577861E+03  0.12813669579E+04  0.11166524680E+03  0.13194873184E+04  0.12699999809E+01 0. -1.
       -4    1    3    3    0  502  0.29440577861E+03 -0.12813669579E+04 -0.11072573274E+04  0.17188939598E+04  0.12699999809E+01 0.  1.
</event>
<event>
 5   0  0.2067926E-06  0.3084837E+04  0.7818609E-02  0.8219912E-01
        2   -1    0    0  501    0  0.00000000000E+00  0.00000000000E+00  0.17925146046E+04  0.17925146046E+04  0.25500000920E-02 0. -1.
       -2   -1    0    0    0  501  0.00000000000E+00  0.00000000000E+00 -0.13272164599E+04  0.13272164600E+04  0.25500000920E-02 0.  1.
    10030    2    1    2    0    0  0.00000000000E+00  0.00000000000E+00  0.46529814466E+03  0.31197310646E+04  0.30848370381E+04 0.  0.
        1    1    3    3  502    0 -0.15173889567E+04  0.14481741687E+03  0.47114187144E+03  0.15954359884E+04  0.50400001928E-02 0. -1.
       -1    1    3    3    0  502  0.15173889567E+04 -0.14481741687E+03 -0.58437267869E+01  0.15242950762E+04  0.50400001928E-02 0.  1.
</event>
<event>
 5   0  0.2226334E-06  0.3089336E+04  0.7818609E-02  0.8218671E-01
        2   -1    0    0  501    0  0.00000000000E+00  0.00000000000E+00  0.16247611883E+04  0.16247611883E+04  0.25500000920E-02 0. -1.
       -2   -1    0    0    0  501  0.00000000000E+00  0.00000000000E+00 -0.14685235024E+04  0.14685235024E+04  0.25500000920E-02 0.  1.
    10030    2    1    2    0    0  0.00000000000E+00  0.00000000000E+00  0.15623768582E+03  0.30932846907E+04  0.30893364924E+04 0.  0.
        5    1    3    3  502    0 -0.63574732421E+03  0.57343304991E+03 -0.12092061032E+04  0.14816212786E+04  0.46999998093E+01 0.  1.
       -5    1    3    3    0  502  0.63574732421E+03 -0.57343304991E+03  0.13654437890E+04  0.16116634121E+04  0.46999998093E+01 0. -1.
</event>
<event>
 5   0  0.7726743E-07  0.3057136E+04  0.7818609E-02  0.8227601E-01
        1   -1    0    0  501    0  0.00000000000E+00  0.00000000000E+00  0.19176888829E+04  0.19176888829E+04  0.50400001928E-02 0.  1.
       -1   -1    0    0    0  501  0.00000000000E+00  0.00000000000E+00 -0.12184041185E+04  0.12184041185E+04  0.50400001928E-02 0. -1.
    10030    2    1    2    0    0  0.00000000000E+00  0.00000000000E+00  0.69928476438E+03  0.31360930013E+04  0.30571359360E+04 0.  0.
        1    1    3    3  502    0  0.72908863690E+03  0.39877513224E+03  0.16657143064E+04  0.18615036925E+04  0.50400001928E-02 0.  1.
       -1    1    3    3    0  502 -0.72908863690E+03 -0.39877513224E+03 -0.96642954203E+03  0.12745893089E+04  0.50400001928E-02 0. -1.
</event>
<event>
 5   0  0.7726743E-07  0.3055699E+04  0.7818609E-02  0.8228002E-01
       -1   -1    0    0    0  501  0.00000000000E+00  0.00000000000E+00  0.11380907038E+04  0.11380907039E+04  0.50400001928E-02 0. -1.
        1   -1    0    0  501    0  0.00000000000E+00  0.00000000000E+00 -0.20510884241E+04  0.20510884242E+04  0.50400001928E-02 0.  1.
    10030    2    1    2    0    0  0.00000000000E+00  0.00000000000E+00 -0.91299772030E+03  0.31891791280E+04  0.30556993755E+04 0.  0.
        1    1    3    3  502    0  0.77595029739E+03 -0.37452113513E+03 -0.17733428492E+04  0.19715754628E+04  0.50400001928E-02 0.  1.
       -1    1    3    3    0  502 -0.77595029739E+03  0.37452113513E+03  0.86034512890E+03  0.12176036652E+04  0.50400001928E-02 0. -1.
</event>
<event>
 5   0  0.7519202E-07  0.3115867E+04  0.7818609E-02  0.8211397E-01
       -1   -1    0    0    0  501  0.00000000000E+00  0.00000000000E+00  0.11062844053E+04  0.11062844054E+04  0.50400001928E-02 0.  1.
        1   -1    0    0  501    0  0.00000000000E+00  0.00000000000E+00 -0.21939716740E+04  0.21939716740E+04  0.50400001928E-02 0. -1.
    10030    2    1    2    0    0  0.00000000000E+00  0.00000000000E+00 -0.10876872687E+04  0.33002560794E+04  0.31158669091E+04 0.  0.
        4    1    3    3  502    0 -0.97287162349E+03 -0.49463201571E+03 -0.17213970405E+04  0.20382221200E+04  0.12699999809E+01 0. -1.
       -4    1    3    3    0  502  0.97287162349E+03  0.49463201571E+03  0.63370977180E+03  0.12620339593E+04  0.12699999809E+01 0.  1.
</event>
<event>
 5   0  0.2094135E-06  0.3169521E+04  0.7818609E-02  0.8196913E-01
       -2   -1    0    0    0  501  0.00000000000E+00  0.00000000000E+00  0.10474279800E+04  0.10474279800E+04  0.25500000920E-02 0.  1.
        2   -1    0    0  501    0  0.00000000000E+00  0.00000000000E+00 -0.23977450804E+04  0.23977450804E+04  0.25500000920E-02 0. -1.
    10030    2    1    2    0    0  0.00000000000E+00  0.00000000000E+00 -0.13503171004E+04  0.34451730604E+04  0.31695206490E+04 0.  0.
        4    1    3    3  502    0 -0.89045898090E+03  0.11558288904E+04 -0.28116991775E+01  0.14590637886E+04  0.12699999809E+01 0.  1.
       -4    1    3    3    0  502  0.89045898090E+03 -0.11558288904E+04 -0.13475054012E+04  0.19861092718E+04  0.12699999809E+01 0. -1.
</event>
<event>
 5   0  0.7726743E-07  0.3105363E+04  0.7818609E-02  0.8214268E-01
        1   -1    0    0  501    0  0.00000000000E+00  0.00000000000E+00  0.18667893076E+04  0.18667893076E+04  0.50400001928E-02 0. -1.
       -1   -1    0    0    0  501  0.00000000000E+00  0.00000000000E+00 -0.12914259893E+04  0.12914259893E+04  0.50400001928E-02 0.  1.
    10030    2    1    2    0    0  0.00000000000E+00  0.00000000000E+00  0.57536331829E+03  0.31582152969E+04  0.31053632499E+04 0.  0.
        1    1    3    3  502    0 -0.15485591701E+04  0.46100464410E+02  0.18267975423E+03  0.15599784129E+04  0.50400001928E-02 0. -1.
       -1    1    3    3    0  502  0.15485591701E+04 -0.46100464410E+02  0.39268356405E+03  0.15982368840E+04  0.50400001928E-02 0.  1.
</event>
<event>
 5   0  0.2067926E-06  0.3093477E+04  0.7818609E-02  0.8217530E-01
        2   -1    0    0  501    0  0.00000000000E+00  0.00000000000E+00  0.18849340465E+04  0.18849340465E+04  0.25500000920E-02 0. -1.
       -2   -1    0    0    0  501  0.00000000000E+00  0.00000000000E+00 -0.12692221445E+04  0.12692221445E+04  0.25500000920E-02 0.  1.
    10030    2    1    2    0    0  0.00000000000E+00  0.00000000000E+00  0.61571190203E+03  0.31541561910E+04  0.30934770293E+04 0.  0.
        1    1    3    3  502    0  0.10986916635E+04 -0.41315788214E+03 -0.71916393912E+03  0.13765971010E+04  0.50400001928E-02 0.  1.
       -1    1    3    3    0  502 -0.10986916635E+04  0.41315788214E+03  0.13348758412E+04  0.17775590900E+04  0.50400001928E-02 0. -1.
</event>
<event>
 5   0  0.7413481E-07  0.3062573E+04  0.7818609E-02  0.8226085E-01
        1   -1    0    0  501    0  0.00000000000E+00  0.00000000000E+00  0.22957811101E+04  0.22957811101E+04  0.50400001928E-02 0. -1.
       -1   -1    0    0    0  501  0.00000000000E+00  0.00000000000E+00 -0.10213684741E+04  0.10213684741E+04  0.50400001928E-02 0.  1.
    10030    2    1    2    0    0  0.00000000000E+00  0.00000000000E+00  0.12744126360E+04  0.33171495842E+04  0.30625730680E+04 0.  0.
        5    1    3    3  502    0  0.77006791924E+03 -0.52463054889E+03 -0.67894640267E+03  0.11529232935E+04  0.46999998093E+01 0.  1.
       -5    1    3    3    0  502 -0.77006791924E+03  0.52463054889E+03  0.19533590387E+04  0.21642262906E+04  0.46999998093E+01 0. -1.
</event>
<event>
 5   0  0.2078009E-06  0.2971101E+04  0.7818609E-02  0.8252032E-01
        2   -1    0    0  501    0  0.00000000000E+00  0.00000000000E+00  0.12160985165E+04  0.12160985165E+04  0.25500000920E-02 0.  1.
       -2   -1    0    0    0  501  0.00000000000E+00  0.00000000000E+00 -0.18147046158E+04  0.18147046158E+04  0.25500000920E-02 0. -1.
    10030    2    1    2    0    0  0.00000000000E+00  0.00000000000E+00 -0.59860609924E+03  0.30308031323E+04  0.29711005309E+04 0.  0.
        3    1    3    3  502    0  0.40072743300E+03  0.76696191269E+03 -0.15310629802E+04  0.17586832889E+04  0.10100000352E+00 0. -1.
       -3    1    3    3    0  502 -0.40072743300E+03 -0.76696191269E+03  0.93245688094E+03  0.12721198434E+04  0.10100000352E+00 0.  1.
</event>
<event>
 5   0  0.7726743E-07  0.3091354E+04  0.7818609E-02  0.8218115E-01
       -1   -1    0    0    0  501  0.00000000000E+00  0.00000000000E+00  0.18292421269E+04  0.18292421269E+04  0.50400001928E-02 0.  1.
        1   -1    0    0  501    0  0.00000000000E+00  0.00000000000E+00 -0.13060697601E+04  0.13060697601E+04  0.50400001928E-02 0. -1.
    10030    2    1    2    0    0  0.00000000000E+00  0.00000000000E+00  0.52317236678E+03  0.31353118870E+04  0.30913542831E+04 0.  0.
        1    1    3    3  502    0 -0.15320532545E+04  0.11552041270E+03  0.43306334019E+03  0.15962693999E+04  0.50400001928E-02 0.  1.
       -1    1    3    3    0  502  0.15320532545E+04 -0.11552041270E+03  0.90109026591E+02  0.15390424871E+04  0.50400001928E-02 0. -1.
</event>
<event>
 5   0  0.7413481E-07  0.3121537E+04  0.7818609E-02  0.8209852E-01
       -1   -1    0    0    0  501  0.00000000000E+00  0.00000000000E+00  0.88616353811E+03  0.88616353813E+03  0.50400001928E-02 0.  1.
        1   -1    0    0  501    0  0.00000000000E+00  0.00000000000E+00 -0.27489271416E+04  0.27489271417E+04  0.50400001928E-02 0. -1.
    10030    2    1    2    0    0  0.00000000000E+00  0.00000000000E+00 -0.18627636035E+04  0.36350906798E+04  0.31215374429E+04 0.  0.
        5    1    3    3  502    0 -0.39324909962E+02  0.49829165209E+03  0.79042840431E+03  0.93522199046E+03  0.46999998093E+01 0.  1.
       -5    1    3    3    0  502  0.39324909962E+02 -0.49829165209E+03 -0.26531920078E+04  0.26998686893E+04  0.46999998093E+01 0. -1.
</event>
<event>
 5   0  0.2226334E-06  0.3006310E+04  0.7818609E-02  0.8241931E-01
        2   -1    0    0  501    0  0.00000000000E+00  0.00000000000E+00  0.13149615265E+04  0.13149615265E+04  0.25500000920E-02 0. -1.
       -2   -1    0    0    0  501  0.00000000000E+00  0.00000000000E+00 -0.17182816153E+04  0.17182816153E+04  0.25500000920E-02 0.  1.
    10030    2    1    2    0    0  0.00000000000E+00  0.00000000000E+00 -0.40332008881E+03  0.30332431419E+04  0.30063095090E+04 0.  0.
        5    1    3    3  502    0  0.38000699734E+03  0.41201720872E+03  0.12055714873E+04  0.13295067503E+04  0.46999998093E+01 0. -1.
       -5    1    3    3    0  502 -0.38000699734E+03 -0.41201720872E+03 -0.16088915761E+04  0.17037363915E+04  0.46999998093E+01 0.  1.
</event>
<event>
 5   0  0.7726743E-07  0.3090623E+04  0.7818609E-02  0.8218316E-01
        1   -1    0    0  501    0  0.00000000000E+00  0.00000000000E+00  0.20081601397E+04  0.20081601397E+04  0.50400001928E-02 0.  1.
       -1   -1    0    0    0  501  0.00000000000E+00  0.00000000000E+00 -0.11891423241E+04  0.11891423241E+04  0.50400001928E-02 0. -1.
    10030    2    1    2    0    0  0.00000000000E+00  0.00000000000E+00  0.81901781559E+03  0.31973024638E+04  0.30906233777E+04 0.  0.
        1    1    3    3  502    0 -0.12199735190E+04 -0.84864788977E+03  0.84774573410E+03  0.17109095410E+04  0.50400001928E-02 0.  1.
       -1    1    3    3    0  502  0.12199735190E+04  0.84864788977E+03 -0.28727918510E+02  0.14863929228E+04  0.50400001928E-02 0. -1.
</event>
<event>
 5   0  0.7413481E-07  0.3029001E+04  0.7818609E-02  0.8235498E-01
       -1   -1    0    0    0  501  0.00000000000E+00  0.00000000000E+00  0.16227815140E+04  0.16227815140E+04  0.50400001928E-02 0. -1.
        1   -1    0    0  501    0  0.00000000000E+00  0.00000000000E+00 -0.14134441904E+04  0.14134441904E+04  0.50400001928E-02 0.  1.
    10030    2    1    2    0    0  0.00000000000E+00  0.00000000000E+00  0.20933732360E+03  0.30362257044E+04  0.30290005633E+04 0.  0.
        5    1    3    3  502    0 -0.57309532488E+03 -0.81291291120E+03  0.12495065199E+04  0.15970454865E+04  0.46999998093E+01 0. -1.
       -5    1    3    3    0  502  0.57309532488E+03  0.81291291120E+03 -0.10401691963E+04  0.14391802179E+04  0.46999998093E+01 0.  1.
</event>
<event>
 5   0  0.7561815E-07  0.3091078E+04  0.7818609E-02  0.8218191E-01
        1   -1    0    0  501    0  0.00000000000E+00  0.00000000000E+00  0.13116676088E+04  0.13116676088E+04  0.50400001928E-02 0.  1.
       -1   -1    0    0    0  501  0.00000000000E+00  0.00000000000E+00 -0.18211099615E+04  0.18211099615E+04  0.50400001928E-02 0. -1.
    10030    2    1    2    0    0  0.00000000000E+00  0.00000000000E+00 -0.50944235269E+03  0.31327775702E+04  0.30910780957E+04 0.  0.
        3    1    3    3  502    0  0.62278081694E+03 -0.12741068260E+04  0.36796677322E+03  0.14651292457E+04  0.10100000352E+00 0.  1.
       -3    1    3    3    0  502 -0.62278081694E+03  0.12741068260E+04 -0.87740912592E+03  0.16676483246E+04  0.10100000352E+00 0. -1.
</event>
<event>
 5   0  0.2094135E-06  0.3094031E+04  0.7818609E-02  0.8217378E-01
       -2   -1    0    0    0  501  0.00000000000E+00  0.00000000000E+00  0.21481542365E+04  0.21481542365E+04  0.25500000920E-02 0.  1.
        2   -1    0    0  501    0  0.00000000000E+00  0.00000000000E+00 -0.11140993309E+04  0.11140993309E+04  0.25500000920E-02 0. -1.
    10030    2    1    2    0    0  0.00000000000E+00  0.00000000000E+00  0.10340549056E+04  0.32622535674E+04  0.30940311554E+04 0.  0.
        4    1    3    3  502    0  0.12054319008E+04  0.98484468912E+02 -0.50003814252E+03  0.13087417678E+04  0.12699999809E+01 0. -1.
       -4    1    3    3    0  502 -0.12054319008E+04 -0.98484468912E+02  0.15340930481E+04  0.19535117996E+04  0.12699999809E+01 0.  1.
</event>
<event>
 5   0  0.7656332E-07  0.3119528E+04  0.7818609E-02  0.8210399E-01
        1   -1    0    0  501    0  0.00000000000E+00  0.00000000000E+00  0.18803172760E+04  0.18803172760E+04  0.50400001928E-02 0.  1.
       -1   -1    0    0    0  501  0.00000000000E+00  0.00000000000E+00 -0.12938580394E+04  0.12938580394E+04  0.50400001928E-02 0. -1.
    10030    2    1    2    0    0  0.00000000000E+00  0.00000000000E+00  0.58645923656E+03  0.31741753154E+04  0.31195279285E+04 0.  0.
        2    1    3    3  502    0 -0.34510786315E+02  0.71163543878E+03 -0.11186098898E+04  0.13262368105E+04  0.25500000920E-02 0. -1.
       -2    1    3    3    0  502  0.34510786315E+02 -0.71163543878E+03  0.17050691263E+04  0.18479385049E+04  0.25500000920E-02 0.  1.
</event>
<event>
 5   0  0.6979625E-07  0.3102240E+04  0.7818609E-02  0.8215123E-01
        3   -1    0    0  501    0  0.00000000000E+00  0.00000000000E+00  0.88430375581E+03  0.88430376157E+03  0.10100000352E+00 0. -1.
       -3   -1    0    0    0  501  0.00000000000E+00  0.00000000000E+00 -0.27207549383E+04  0.27207549401E+04  0.10100000352E+00 0.  1.
    10030    2    1    2    0    0  0.00000000000E+00  0.00000000000E+00 -0.18364511825E+04  0.36050587017E+04  0.31022403674E+04 0.  0.
        3    1    3    3  502    0  0.59822464960E+03  0.14087646696E+04 -0.62542883447E+03  0.16533758988E+04  0.10100000352E+00 0. -1.
       -3    1    3    3    0  502 -0.59822464960E+03 -0.14087646696E+04 -0.12110223480E+04  0.19516828029E+04  0.10100000352E+00 0.  1.
</event>
<event>
 5   0  0.2067926E-06  0.3094671E+04  0.7818609E-02  0.8217202E-01
       -2   -1    0    0    0  501  0.00000000000E+00  0.00000000000E+00  0.16666889405E+04  0.16666889405E+04  0.25500000920E-02 0. -1.
        2   -1    0    0  501    0  0.00000000000E+00  0.00000000000E+00 -0.14365289178E+04  0.14365289178E+04  0.25500000920E-02 0.  1.
    10030    2    1    2    0    0  0.00000000000E+00  0.00000000000E+00  0.23016002274E+03  0.31032178583E+04  0.30946708128E+04 0.  0.
        1    1    3    3  502    0 -0.10120301487E+04  0.89877326395E+03  0.86698322926E+03  0.16073762228E+04  0.50400001928E-02 0.  1.
       -1    1    3    3    0  502  0.10120301487E+04 -0.89877326395E+03 -0.63682320653E+03  0.14958416354E+04  0.50400001928E-02 0. -1.
</event>
<event>
 5   0  0.2094135E-06  0.3076598E+04  0.7818609E-02  0.8222190E-01
       -2   -1    0    0    0  501  0.00000000000E+00  0.00000000000E+00  0.19334295848E+04  0.19334295848E+04  0.25500000920E-02 0.  1.
        2   -1    0    0  501    0  0.00000000000E+00  0.00000000000E+00 -0.12239205610E+04  0.12239205610E+04  0.25500000920E-02 0. -1.
    10030    2    1    2    0    0  0.00000000000E+00  0.00000000000E+00  0.70950902384E+03  0.31573501458E+04  0.30765982657E+04 0.  0.
        4    1    3    3  502    0  0.76130094968E+02 -0.22583701813E+02 -0.12218152166E+04  0.12243936669E+04  0.12699999809E+01 0. -1.
       -4    1    3    3    0  502 -0.76130094968E+02  0.22583701813E+02  0.19313242405E+04  0.19329564790E+04  0.12699999809E+01 0.  1.
</event>
<event>
 5   0  0.2094135E-06  0.3065045E+04  0.7818609E-02  0.8225397E-01
       -2   -1    0    0    0  501  0.00000000000E+00  0.00000000000E+00  0.15545764100E+04  0.15545764100E+04  0.25500000920E-02 0.  1.
        2   -1    0    0  501    0  0.00000000000E+00  0.00000000000E+00 -0.15107810998E+04  0.15107810998E+04  0.25500000920E-02 0. -1.
    10030    2    1    2    0    0  0.00000000000E+00  0.00000000000E+00  0.43795310222E+02  0.30653575098E+04  0.30650446381E+04 0.  0.
        4    1    3    3  502    0 -0.80129572963E+03 -0.74208515948E+03  0.10971156800E+04  0.15480405868E+04  0.12699999809E+01 0.  1.
       -4    1    3    3    0  502  0.80129572963E+03  0.74208515948E+03 -0.10533203698E+04  0.15173169229E+04  0.12699999809E+01 0. -1.
</event>
<event>
 5   0  0.2133385E-06  0.3234524E+04  0.7818609E-02  0.8179759E-01
        2   -1    0    0  501    0  0.00000000000E+00  0.00000000000E+00  0.13275932697E+04  0.13275932697E+04  0.25500000920E-02 0.  1.
       -2   -1    0    0    0  501  0.00000000000E+00  0.00000000000E+00 -0.19701338522E+04  0.19701338522E+04  0.25500000920E-02 0. -1.
    10030    2    1    2    0    0  0.00000000000E+00  0.00000000000E+00 -0.64254058249E+03  0.32977271219E+04  0.32345240408E+04 0.  0.
        2    1    3    3  502    0 -0.14397639870E+04  0.59052229167E+03 -0.77021484554E+03  0.17363374740E+04  0.25500000920E-02 0. -1.
       -2    1    3    3    0  502  0.14397639870E+04 -0.59052229167E+03  0.12767426305E+03  0.15613896479E+04  0.25500000920E-02 0.  1.
</event>
<event>
 5   0  0.2078009E-06  0.3096608E+04  0.7818609E-02  0.8216669E-01
        2   -1    0    0  501    0  0.00000000000E+00  0.00000000000E+00  0.25376659405E+04  0.25376659405E+04  0.25500000920E-02 0. -1.
       -2   -1    0    0    0  501  0.00000000000E+00  0.00000000000E+00 -0.94466530809E+03  0.94466530809E+03  0.25500000920E-02 0.  1.
    10030    2    1    2    0    0  0.00000000000E+00  0.00000000000E+00  0.15930006324E+04  0.34823312486E+04  0.30966078070E+04 0.  0.
        3    1    3    3  502    0  0.78872447836E+03 -0.11865282240E+04  0.11494686777E+03  0.14293873939E+04  0.10100000352E+00 0.  1.
       -3    1    3    3    0  502 -0.78872447836E+03  0.11865282240E+04  0.14780537646E+04  0.20529438547E+04  0.10100000352E+00 0. -1.
</event>
<event>
 5   0  0.7561815E-07  0.3103694E+04  0.7818609E-02  0.8214725E-01
        1   -1    0    0  501    0  0.00000000000E+00  0.00000000000E+00  0.18897027885E+04  0.18897027885E+04  0.50400001928E-02 0. -1.
       -1   -1    0    0    0  501  0.00000000000E+00  0.00000000000E+00 -0.12743957865E+04  0.12743957865E+04  0.50400001928E-02 0.  1.
    10030    2    1    2    0    0  0.00000000000E+00  0.00000000000E+00  0.61530700202E+03  0.31640985750E+04  0.31036941031E+04 0.  0.
        3    1    3    3  502    0  0.19306058444E+03 -0.46617966746E+03  0.18037409583E+04  0.18729862057E+04  0.10100000352E+00 0. -1.
       -3    1    3    3    0  502 -0.19306058444E+03  0.46617966746E+03 -0.11884339563E+04  0.12911123694E+04  0.10100000352E+00 0.  1.
</event>
<event>
 5   0  0.7519202E-07  0.2910233E+04  0.7818609E-02  0.8269839E-01
        1   -1    0    0  501    0  0.00000000000E+00  0.00000000000E+00  0.16984636925E+04  0.16984636925E+04  0.50400001928E-02 0.  1.
       -1   -1    0    0    0  501  0.00000000000E+00  0.00000000000E+00 -0.12466351446E+04  0.12466351446E+04  0.50400001928E-02 0. -1.
    10030    2    1    2    0    0  0.00000000000E+00  0.00000000000E+00  0.45182854786E+03  0.29450988371E+04  0.29102333453E+04 0.  0.
        4    1    3    3  502    0  0.20034217397E+03 -0.43518081871E+03  0.16163632805E+04  0.16858680847E+04  0.12699999809E+01 0.  1.
       -4    1    3    3    0  502 -0.20034217397E+03  0.43518081871E+03 -0.11645347326E+04  0.12592307525E+04  0.12699999809E+01 0. -1.
</event>
<event>
 5   0  0.2078009E-06  0.3105132E+04  0.7818609E-02  0.8214331E-01
        2   -1    0    0  501    0  0.00000000000E+00  0.00000000000E+00  0.16396076612E+04  0.16396076612E+04  0.25500000920E-02 0.  1.
       -2   -1    0    0    0  501  0.00000000000E+00  0.00000000000E+00 -0.14701453614E+04  0.14701453614E+04  0.25500000920E-02 0. -1.
    10030    2    1    2    0    0  0.00000000000E+00  0.00000000000E+00  0.16946229975E+03  0.31097530226E+04  0.31051322662E+04 0.  0.
        3    1    3    3  502    0 -0.90513083989E+03  0.39618132443E+03  0.12841109389E+04  0.16202352893E+04  0.10100000352E+00 0.  1.
       -3    1    3    3    0  502  0.90513083989E+03 -0.39618132443E+03 -0.11146486391E+04  0.14895177334E+04  0.10100000352E+00 0. -1.
</event>
<event>
 5   0  0.2133385E-06  0.3086027E+04  0.7818609E-02  0.8219583E-01
        2   -1    0    0  501    0  0.00000000000E+00  0.00000000000E+00  0.26598921047E+04  0.26598921047E+04  0.25500000920E-02 0.  1.
       -2   -1    0    0    0  501  0.00000000000E+00  0.00000000000E+00 -0.89510803558E+03  0.89510803558E+03  0.25500000920E-02 0. -1.
    10030    2    1    2    0    0  0.00000000000E+00  0.00000000000E+00  0.17647840692E+04  0.35550001403E+04  0.30860270878E+04 0.  0.
        2    1    3    3  502    0 -0.10804288711E+04 -0.97771044712E+03  0.29766652680E+03  0.14872288408E+04  0.25500000920E-02 0.  1.
       -2    1    3    3    0  502  0.10804288711E+04  0.97771044712E+03  0.14671175424E+04  0.20677712995E+04  0.25500000920E-02 0. -1.
</event>
<event>
 5   0  0.7726743E-07  0.3095953E+04  0.7818609E-02  0.8216849E-01
        1   -1    0    0  501    0  0.00000000000E+00  0.00000000000E+00  0.18066805556E+04  0.18066805556E+04  0.50400001928E-02 0. -1.
       -1   -1    0    0    0  501  0.00000000000E+00  0.00000000000E+00 -0.13263169203E+04  0.13263169203E+04  0.50400001928E-02 0.  1.
    10030    2    1    2    0    0  0.00000000000E+00  0.00000000000E+00  0.48036363525E+03  0.31329974759E+04  0.30959528358E+04 0.  0.
        1    1    3    3  502    0  0.15064344397E+04  0.30196482549E+03  0.43139647817E+03  0.15958165303E+04  0.50400001928E-02 0. -1.
       -1    1    3    3    0  502 -0.15064344397E+04 -0.30196482549E+03  0.48967157081E+02  0.15371809456E+04  0.50400001928E-02 0.  1.
</event>
<event>
 5   0  0.2067926E-06  0.3096534E+04  0.7818609E-02  0.8216690E-01
       -2   -1    0    0    0  501  0.00000000000E+00  0.00000000000E+00  0.16925714275E+04  0.16925714275E+04  0.25500000920E-02 0.  1.
        2   -1    0    0  501    0  0.00000000000E+00  0.00000000000E+00 -0.14162652659E+04  0.14162652659E+04  0.25500000920E-02 0. -1.
    10030    2    1    2    0    0  0.00000000000E+00  0.00000000000E+00  0.27630616167E+03  0.31088366934E+04  0.30965336251E+04 0.  0.
        1    1    3    3  502    0  0.66177551400E+03  0.17743135786E+03  0.15320863733E+04  0.16783078898E+04  0.50400001928E-02 0.  1.
       -1    1    3    3    0  502 -0.66177551400E+03 -0.17743135786E+03 -0.12557802117E+04  0.14305288035E+04  0.50400001928E-02 0. -1.
</event>
<event>
 5   0  0.7656332E-07  0.3111454E+04  0.7818609E-02  0.8212602E-01
        1   -1    0    0  501    0  0.00000000000E+00  0.00000000000E+00  0.15320119514E+04  0.15320119514E+04  0.50400001928E-02 0. -1.
       -1   -1    0    0    0  501  0.00000000000E+00  0.00000000000E+00 -0.15798088819E+04  0.15798088819E+04  0.50400001928E-02 0.  1.
    10030    2    1    2    0    0  0.00000000000E+00  0.00000000000E+00 -0.47796930478E+02  0.31118208333E+04  0.31114537361E+04 0.  0.
        2    1    3    3  502    0  0.15549034544E+04  0.11628810339E+02 -0.73159797035E+02  0.15566670606E+04  0.25500000920E-02 0.  1.
       -2    1    3    3    0  502 -0.15549034544E+04 -0.11628810339E+02  0.25362866557E+02  0.15551537727E+04  0.25500000920E-02 0. -1.
</event>
<event>
 5   0  0.2226334E-06  0.3074971E+04  0.7818609E-02  0.8222641E-01
       -2   -1    0    0    0  501  0.00000000000E+00  0.00000000000E+00  0.77242535371E+03  0.77242535371E+03  0.25500000920E-02 0.  1.
        2   -1    0    0  501    0  0.00000000000E+00  0.00000000000E+00 -0.30603109515E+04  0.30603109515E+04  0.25500000920E-02 0. -1.
    10030    2    1    2    0    0  0.00000000000E+00  0.00000000000E+00 -0.22878855978E+04  0.38327363052E+04  0.30749710692E+04 0.  0.
        5    1    3    3  502    0 -0.18428430511E+03  0.92214342420E+03  0.37216424191E+03  0.10113542964E+04  0.46999998093E+01 0.  1.
       -5    1    3    3    0  502  0.18428430511E+03 -0.92214342420E+03 -0.26600498397E+04  0.28213820088E+04  0.46999998093E+01 0. -1.
</event>
<event>
 5   0  0.7656332E-07  0.3124924E+04  0.7818609E-02  0.8208931E-01
       -1   -1    0    0    0  501  0.00000000000E+00  0.00000000000E+00  0.10038011901E+04  0.10038011901E+04  0.50400001928E-02 0.  1.
        1   -1    0    0  501    0  0.00000000000E+00  0.00000000000E+00 -0.24320423238E+04  0.24320423238E+04  0.50400001928E-02 0. -1.
    10030    2    1    2    0    0  0.00000000000E+00  0.00000000000E+00 -0.14282411337E+04  0.34358435139E+04  0.31249236657E+04 0.  0.
        2    1    3    3  502    0  0.42291628503E+03 -0.20531769933E+03 -0.23524347617E+04  0.23989503642E+04  0.25500000920E-02 0. -1.
       -2    1    3    3    0  502 -0.42291628503E+03  0.20531769933E+03  0.92419362804E+03  0.10368931497E+04  0.25500000920E-02 0.  1.
</event>
<event>
 5   0  0.7561815E-07  0.3034454E+04  0.7818609E-02  0.8233960E-01
       -1   -1    0    0    0  501  0.00000000000E+00  0.00000000000E+00  0.10192113712E+04  0.10192113712E+04  0.50400001928E-02 0.  1.
        1   -1    0    0  501    0  0.00000000000E+00  0.00000000000E+00 -0.22585878136E+04  0.22585878136E+04  0.50400001928E-02 0. -1.
    10030    2    1    2    0    0  0.00000000000E+00  0.00000000000E+00 -0.12393764424E+04  0.32777991848E+04  0.30344544040E+04 0.  0.
        3    1    3    3  502    0  0.71734317999E+03  0.23058880804E+03  0.80281928017E+03  0.11010318992E+04  0.10100000352E+00 0.  1.
       -3    1    3    3    0  502 -0.71734317999E+03 -0.23058880804E+03 -0.20421957226E+04  0.21767672856E+04  0.10100000352E+00 0. -1.
</event>
<event>
 5   0  0.7413481E-07  0.2997249E+04  0.7818609E-02  0.8244517E-01
        1   -1    0    0  501    0  0.00000000000E+00  0.00000000000E+00  0.21548903032E+04  0.21548903033E+04  0.50400001928E-02 0. -1.
       -1   -1    0    0    0  501  0.00000000000E+00  0.00000000000E+00 -0.10422226255E+04  0.10422226255E+04  0.50400001928E-02 0.  1.
    10030    2    1    2    0    0  0.00000000000E+00  0.00000000000E+00  0.11126676778E+04  0.31971129287E+04  0.29972490250E+04 0.  0.
        5    1    3    3  502    0 -0.98251633689E+03  0.33415231092E+03  0.17095637049E+04  0.19999065654E+04  0.46999998093E+01 0. -1.
       -5    1    3    3    0  502  0.98251633689E+03 -0.33415231092E+03 -0.59689602714E+03  0.11972063633E+04  0.46999998093E+01 0.  1.
</event>
<event>
 5   0  0.2067926E-06  0.3081747E+04  0.7818609E-02  0.8220765E-01
       -2   -1    0    0    0  501  0.00000000000E+00  0.00000000000E+00  0.20916283781E+04  0.20916283781E+04  0.25500000920E-02 0.  1.
        2   -1    0    0  501    0  0.00000000000E+00  0.00000000000E+00 -0.11351401720E+04  0.11351401720E+04  0.25500000920E-02 0. -1.
    10030    2    1    2    0    0  0.00000000000E+00  0.00000000000E+00  0.95648820611E+03  0.32267685501E+04  0.30817471648E+04 0.  0.
        1    1    3    3  502    0  0.37618638025E+03 -0.14412598544E+04  0.89119571711E+03  0.17357926048E+04  0.50400001928E-02 0. -1.
       -1    1    3    3    0  502 -0.37618638025E+03  0.14412598544E+04  0.65292489007E+02  0.14909759454E+04  0.50400001928E-02 0.  1.
</event>
<event>
 5   0  0.7561815E-07  0.3104976E+04  0.7818609E-02  0.8214373E-01
        1   -1    0    0  501    0  0.00000000000E+00  0.00000000000E+00  0.19584704238E+04  0.19584704238E+04  0.50400001928E-02 0. -1.
       -1   -1    0    0    0  501  0.00000000000E+00  0.00000000000E+00 -0.12306643581E+04  0.12306643581E+04  0.50400001928E-02 0.  1.
    10030    2    1    2    0    0  0.00000000000E+00  0.00000000000E+00  0.72780606564E+03  0.31891347819E+04  0.31049764875E+04 0.  0.
        3    1    3    3  502    0 -0.12365412780E+04 -0.91019333898E+03  0.59976494609E+03  0.16483944453E+04  0.10100000352E+00 0.  1.
       -3    1    3    3    0  502  0.12365412780E+04  0.91019333898E+03  0.12804111956E+03  0.15407403366E+04  0.10100000352E+00 0. -1.
</event>
<event>
 5   0  0.2133385E-06  0.3061051E+04  0.7818609E-02  0.8226509E-01
       -2   -1    0    0    0  501  0.00000000000E+00  0.00000000000E+00  0.14654947042E+04  0.14654947042E+04  0.25500000920E-02 0. -1.
        2   -1    0    0  501    0  0.00000000000E+00  0.00000000000E+00 -0.15984418013E+04  0.15984418013E+04  0.25500000920E-02 0.  1.
    10030    2    1    2    0    0  0.00000000000E+00  0.00000000000E+00 -0.13294709709E+03  0.30639365055E+04  0.30610507965E+04 0.  0.
        2    1    3    3  502    0 -0.20826332654E+03 -0.13163991251E+04 -0.81966397247E+03  0.15646498962E+04  0.25500000920E-02 0.  1.
       -2    1    3    3    0  502  0.20826332654E+03  0.13163991251E+04  0.68671687538E+03  0.14992866093E+04  0.25500000920E-02 0. -1.
</event>
<event>
 5   0  0.7519202E-07  0.3094083E+04  0.7818609E-02  0.8217364E-01
       -1   -1    0    0    0  501  0.00000000000E+00  0.00000000000E+00  0.18229969463E+04  0.18229969463E+04  0.50400001928E-02 0. -1.
        1   -1    0    0  501    0  0.00000000000E+00  0.00000000000E+00 -0.13128588623E+04  0.13128588623E+04  0.50400001928E-02 0.  1.
    10030    2    1    2    0    0  0.00000000000E+00  0.00000000000E+00  0.51013808394E+03  0.31358558086E+04  0.30940831902E+04 0.  0.
        4    1    3    3  502    0 -0.12720341219E+04  0.83379142630E+03  0.54183270461E+03  0.16145783482E+04  0.12699999809E+01 0.  1.
       -4    1    3    3    0  502  0.12720341219E+04 -0.83379142630E+03 -0.31694620665E+02  0.15212774604E+04  0.12699999809E+01 0. -1.
</event>
<event>
 5   0  0.7413481E-07  0.3104271E+04  0.7818609E-02  0.8214567E-01
       -1   -1    0    0    0  501  0.00000000000E+00  0.00000000000E+00  0.16412338153E+04  0.16412338154E+04  0.50400001928E-02 0.  1.
        1   -1    0    0  501    0  0.00000000000E+00  0.00000000000E+00 -0.14678736711E+04  0.14678736711E+04  0.50400001928E-02 0. -1.
    10030    2    1    2    0    0  0.00000000000E+00  0.00000000000E+00  0.17336014424E+03  0.31091074865E+04  0.31042705460E+04 0.  0.
        5    1    3    3  502    0 -0.14153841716E+04 -0.47732109006E+03 -0.33582322026E+03  0.15309954610E+04  0.46999998093E+01 0. -1.
       -5    1    3    3    0  502  0.14153841716E+04  0.47732109006E+03  0.50918336449E+03  0.15781120255E+04  0.46999998093E+01 0.  1.
</event>
<event>
 5   0  0.2226334E-06  0.3043860E+04  0.7818609E-02  0.8231316E-01
       -2   -1    0    0    0  501  0.00000000000E+00  0.00000000000E+00  0.19320421482E+04  0.19320421482E+04  0.25500000920E-02 0.  1.
        2   -1    0    0  501    0  0.00000000000E+00  0.00000000000E+00 -0.11988715942E+04  0.11988715942E+04  0.25500000920E-02 0. -1.
    10030    2    1    2    0    0  0.00000000000E+00  0.00000000000E+00  0.73317055397E+03  0.31309137424E+04  0.30438596881E+04 0.  0.
        5    1    3    3  502    0 -0.23115813536E+03  0.52391391383E+03 -0.10838239077E+04  0.12258124757E+04  0.46999998093E+01 0. -1.
       -5    1    3    3    0  502  0.23115813536E+03 -0.52391391383E+03  0.18169944617E+04  0.19051012667E+04  0.46999998093E+01 0.  1.
</event>
<event>
 5   0  0.7413481E-07  0.2855805E+04  0.7818609E-02  0.8286150E-01
        1   -1    0    0  501    0  0.00000000000E+00  0.00000000000E+00  0.12946559093E+04  0.12946559093E+04  0.50400001928E-02 0. -1.
       -1   -1    0    0    0  501  0.00000000000E+00  0.00000000000E+00 -0.15748624838E+04  0.15748624838E+04  0.50400001928E-02 0.  1.
    10030    2    1    2    0    0  0.00000000000E+00  0.00000000000E+00 -0.28020657453E+03  0.28695183932E+04  0.28558046299E+04 0.  0.
        5    1    3    3  502    0  0.12244367849E+04  0.37828691626E+03  0.49263207065E+03  0.13729730071E+04  0.46999998093E+01 0. -1.
       -5    1    3    3    0  502 -0.12244367849E+04 -0.37828691626E+03 -0.77283864518E+03  0.14965453861E+04  0.46999998093E+01 0.  1.
</event>
<event>
 5   0  0.7656332E-07  0.3109561E+04  0.7818609E-02  0.8213119E-01
        1   -1    0    0  501    0  0.00000000000E+00  0.00000000000E+00  0.19457197623E+04  0.19457197623E+04  0.50400001928E-02 0.  1.
       -1   -1    0    0    0  501  0.00000000000E+00  0.00000000000E+00 -0.12423899340E+04  0.12423899340E+04  0.50400001928E-02 0. -1.
    10030    2    1    2    0    0  0.00000000000E+00  0.00000000000E+00  0.70332982829E+03  0.31881096963E+04  0.31095611568E+04 0.  0.
        2    1    3    3  502    0 -0.10221780117E+04  0.11064735913E+04 -0.43041606161E+02  0.15069785253E+04  0.25500000920E-02 0.  1.
       -2    1    3    3    0  502  0.10221780117E+04 -0.11064735913E+04  0.74637143445E+03  0.16811311710E+04  0.25500000920E-02 0. -1.
</event>
<event>
 5   0  0.2067926E-06  0.3029807E+04  0.7818609E-02  0.8235270E-01
        2   -1    0    0  501    0  0.00000000000E+00  0.00000000000E+00  0.23422073548E+04  0.23422073548E+04  0.25500000920E-02 0. -1.
       -2   -1    0    0    0  501  0.00000000000E+00  0.00000000000E+00 -0.97981632648E+03  0.97981632648E+03  0.25500000920E-02 0.  1.
    10030    2    1    2    0    0  0.00000000000E+00  0.00000000000E+00  0.13623910283E+04  0.33220236813E+04  0.30298072587E+04 0.  0.
        1    1    3    3  502    0  0.10415800975E+04 -0.89085307352E+03 -0.26352582984E+02  0.13708401645E+04  0.50400001928E-02 0.  1.
       -1    1    3    3    0  502 -0.10415800975E+04  0.89085307352E+03  0.13887436113E+04  0.19511835167E+04  0.50400001928E-02 0. -1.
</event>
<event>
 5   0  0.7519202E-07  0.3072039E+04  0.7818609E-02  0.8223454E-01
        1   -1    0    0  501    0  0.00000000000E+00  0.00000000000E+00  0.15853200456E+04  0.15853200456E+04  0.50400001928E-02 0.  1.
       -1   -1    0    0    0  501  0.00000000000E+00  0.00000000000E+00 -0.14882524695E+04  0.14882524695E+04  0.50400001928E-02 0. -1.
    10030    2    1    2    0    0  0.00000000000E+00  0.00000000000E+00  0.97067576026E+02  0.30735725151E+04  0.30720393701E+04 0.  0.
        4    1    3    3  502    0 -0.82929261619E+03 -0.12014624202E+04 -0.42932018130E+03  0.15216949831E+04  0.12699999809E+01 0. -1.
       -4    1    3    3    0  502  0.82929261619E+03  0.12014624202E+04  0.52638775732E+03  0.15518775320E+04  0.12699999809E+01 0.  1.
</event>
<event>
 5   0  0.2067926E-06  0.3098842E+04  0.7818609E-02  0.8216056E-01
       -2   -1    0    0    0  501  0.00000000000E+00  0.00000000000E+00  0.11223743296E+04  0.11223743296E+04  0.25500000920E-02 0.  1.
        2   -1    0    0  501    0  0.00000000000E+00  0.00000000000E+00 -0.21389529082E+04  0.21389529082E+04  0.25500000920E-02 0. -1.
    10030    2    1    2    0    0  0.00000000000E+00  0.00000000000E+00 -0.10165785786E+04  0.32613272378E+04  0.30988422589E+04 0.  0.
        1    1    3    3  502    0  0.38629367956E+03  0.73427075705E+03  0.86888395055E+03  0.12013890590E+04  0.50400001928E-02 0.  1.
       -1    1    3    3    0  502 -0.38629367956E+03 -0.73427075705E+03 -0.18854625292E+04  0.20599381788E+04  0.50400001928E-02 0. -1.
</event>
<event>
 5   0  0.2067926E-06  0.3089026E+04  0.7818609E-02  0.8218756E-01
        2   -1    0    0  501    0  0.00000000000E+00  0.00000000000E+00  0.14091285806E+04  0.14091285806E+04  0.25500000920E-02 0. -1.
       -2   -1    0    0    0  501  0.00000000000E+00  0.00000000000E+00 -0.16929051827E+04  0.16929051827E+04  0.25500000920E-02 0.  1.
    10030    2    1    2    0    0  0.00000000000E+00  0.00000000000E+00 -0.28377660207E+03  0.31020337633E+04  0.30890264338E+04 0.  0.
        1    1    3    3  502    0  0.14943255404E+04  0.36647526251E+03 -0.27739403383E+03  0.15634130576E+04  0.50400001928E-02 0. -1.
       -1    1    3    3    0  502 -0.14943255404E+04 -0.36647526251E+03 -0.63825682469E+01  0.15386207057E+04  0.50400001928E-02 0.  1.
</event>
<event>
 5   0  0.7519202E-07  0.3144552E+04  0.7818609E-02  0.8203616E-01
        1   -1    0    0  501    0  0.00000000000E+00  0.00000000000E+00  0.98056084526E+03  0.98056084527E+03  0.50400001928E-02 0.  1.
       -1   -1    0    0    0  501  0.00000000000E+00  0.00000000000E+00 -0.25210597126E+04  0.25210597126E+04  0.50400001928E-02 0. -1.
    10030    2    1    2    0    0  0.00000000000E+00  0.00000000000E+00 -0.15404988673E+04  0.35016205578E+04  0.31445523960E+04 0.  0.
        4    1    3    3  502    0  0.78094862077E+03 -0.12893658206E+04 -0.12678784027E+04  0.19697365876E+04  0.12699999809E+01 0. -1.
       -4    1    3    3    0  502 -0.78094862077E+03  0.12893658206E+04 -0.27262046465E+03  0.15318839703E+04  0.12699999809E+01 0.  1.
</event>
<event>
 5   0  0.7561815E-07  0.3107826E+04  0.7818609E-02  0.8213593E-01
       -1   -1    0    0    0  501  0.00000000000E+00  0.00000000000E+00  0.14203633764E+04  0.14203633765E+04  0.50400001928E-02 0.  1.
        1   -1    0    0  501    0  0.00000000000E+00  0.00000000000E+00 -0.17000197381E+04  0.17000197381E+04  0.50400001928E-02 0. -1.
    10030    2    1    2    0    0  0.00000000000E+00  0.00000000000E+00 -0.27965636162E+03  0.31203831145E+04  0.31078261053E+04 0.  0.
        3    1    3    3  502    0  0.11775640566E+04  0.98010405056E+03 -0.40046266905E+03  0.15835502571E+04  0.10100000352E+00 0. -1.
       -3    1    3    3    0  502 -0.11775640566E+04 -0.98010405056E+03  0.12080630744E+03  0.15368328574E+04  0.10100000352E+00 0.  1.
</event>
<event>
 5   0  0.2094135E-06  0.3100480E+04  0.7818609E-02  0.8215606E-01
       -2   -1    0    0    0  501  0.00000000000E+00  0.00000000000E+00  0.10713173865E+04  0.10713173865E+04  0.25500000920E-02 0.  1.
        2   -1    0    0  501    0  0.00000000000E+00  0.00000000000E+00 -0.22432601972E+04  0.22432601972E+04  0.25500000920E-02 0. -1.
    10030    2    1    2    0    0  0.00000000000E+00  0.00000000000E+00 -0.11719428107E+04  0.33145775837E+04  0.31004797382E+04 0.  0.
        4    1    3    3  502    0 -0.33714101235E+02 -0.15114047398E+04 -0.95283130069E+03  0.17870002878E+04  0.12699999809E+01 0.  1.
       -4    1    3    3    0  502  0.33714101235E+02  0.15114047398E+04 -0.21911150999E+03  0.15275772959E+04  0.12699999809E+01 0. -1.
</event>
<event>
 5   0  0.7519202E-07  0.3098184E+04  0.7818609E-02  0.8216237E-01
       -1   -1    0    0    0  501  0.00000000000E+00  0.00000000000E+00  0.93090184285E+03  0.93090184287E+03  0.50400001928E-02 0. -1.
        1   -1    0    0  501    0  0.00000000000E+00  0.00000000000E+00 -0.25778070555E+04  0.25778070555E+04  0.50400001928E-02 0.  1.
    10030    2    1    2    0    0  0.00000000000E+00  0.00000000000E+00 -0.16469052126E+04  0.35087088984E+04  0.30981835572E+04 0.  0.
        4    1    3    3  502    0  0.84112428739E+02 -0.86196512284E+03  0.63111128441E+03  0.10716164612E+04  0.12699999809E+01 0. -1.
       -4    1    3    3    0  502 -0.84112428739E+02  0.86196512284E+03 -0.22780164970E+04  0.24370924372E+04  0.12699999809E+01 0.  1.
</event>
<event>
 5   0  0.7726743E-07  0.3158942E+04  0.7818609E-02  0.8199745E-01
       -1   -1    0    0    0  501  0.00000000000E+00  0.00000000000E+00  0.11910842121E+04  0.11910842121E+04  0.50400001928E-02 0. -1.
        1   -1    0    0  501    0  0.00000000000E+00  0.00000000000E+00 -0.20945028743E+04  0.20945028743E+04  0.50400001928E-02 0.  1.
    10030    2    1    2    0    0  0.00000000000E+00  0.00000000000E+00 -0.90341866223E+03  0.32855870864E+04  0.31589424216E+04 0.  0.
        1    1    3    3  502    0  0.13710595977E+04  0.31466211500E+03 -0.11987759932E+04  0.18482100933E+04  0.50400001928E-02 0.  1.
       -1    1    3    3    0  502 -0.13710595977E+04 -0.31466211500E+03  0.29535733100E+03  0.14373769931E+04  0.50400001928E-02 0. -1.
</event>
<event>
 5   0  0.7413481E-07  0.3110892E+04  0.7818609E-02  0.8212755E-01
        1   -1    0    0  501    0  0.00000000000E+00  0.00000000000E+00  0.20493687802E+04  0.20493687802E+04  0.50400001928E-02 0. -1.
       -1   -1    0    0    0  501  0.00000000000E+00  0.00000000000E+00 -0.11805645136E+04  0.11805645136E+04  0.50400001928E-02 0.  1.
    10030    2    1    2    0    0  0.00000000000E+00  0.00000000000E+00  0.86880426654E+03  0.32299332938E+04  0.31108918703E+04 0.  0.
        5    1    3    3  502    0 -0.29435706490E+03 -0.11866704558E+04  0.14327353233E+04  0.18835035039E+04  0.46999998093E+01 0. -1.
       -5    1    3    3    0  502  0.29435706490E+03  0.11866704558E+04 -0.56393105678E+03  0.13464297899E+04  0.46999998093E+01 0.  1.
</event>
<event>
 5   0  0.2094135E-06  0.3073839E+04  0.7818609E-02  0.8222954E-01
       -2   -1    0    0    0  501  0.00000000000E+00  0.00000000000E+00  0.14731201596E+04  0.14731201596E+04  0.25500000920E-02 0. -1.
        2   -1    0    0  501    0  0.00000000000E+00  0.00000000000E+00 -0.16034823847E+04  0.16034823847E+04  0.25500000920E-02 0.  1.
    10030    2    1    2    0    0  0.00000000000E+00  0.00000000000E+00 -0.13036222506E+03  0.30766025443E+04  0.30738394404E+04 0.  0.
        4    1    3    3  502    0 -0.12911929403E+04 -0.34317194177E+03  0.69522177044E+03  0.15060813769E+04  0.12699999809E+01 0. -1.
       -4    1    3    3    0  502  0.12911929403E+04  0.34317194177E+03 -0.82558399549E+03  0.15705211674E+04  0.12699999809E+01 0.  1.
</event>
<event>
 5   0  0.2133385E-06  0.3015775E+04  0.7818609E-02  0.8239241E-01
        2   -1    0    0  501    0  0.00000000000E+00  0.00000000000E+00  0.18786423088E+04  0.18786423088E+04  0.25500000920E-02 0. -1.
       -2   -1    0    0    0  501  0.00000000000E+00  0.00000000000E+00 -0.12103021527E+04  0.12103021527E+04  0.25500000920E-02 0.  1.
    10030    2    1    2    0    0  0.00000000000E+00  0.00000000000E+00  0.66834015612E+03  0.30889444614E+04  0.30157750781E+04 0.  0.
        2    1    3    3  502    0  0.10674532435E+04  0.10418523918E+04  0.56046480792E+03  0.15934345403E+04  0.25500000920E-02 0. -1.
       -2    1    3    3    0  502 -0.10674532435E+04 -0.10418523918E+04  0.10787534820E+03  0.14955099211E+04  0.25500000920E-02 0.  1.
</event>
<event>
 5   0  0.7413481E-07  0.3104085E+04  0.7818609E-02  0.8214618E-01
       -1   -1    0    0    0  501  0.00000000000E+00  0.00000000000E+00  0.11472381979E+04  0.11472381979E+04  0.50400001928E-02 0.  1.
        1   -1    0    0  501    0  0.00000000000E+00  0.00000000000E+00 -0.20996824873E+04  0.20996824873E+04  0.50400001928E-02 0. -1.
    10030    2    1    2    0    0  0.00000000000E+00  0.00000000000E+00 -0.95244428943E+03  0.32469206852E+04  0.31040850200E+04 0.  0.
        5    1    3    3  502    0  0.67890405685E+03  0.10124492045E+04  0.52863325844E+03  0.13286983563E+04  0.46999998093E+01 0.  1.
       -5    1    3    3    0  502 -0.67890405685E+03 -0.10124492045E+04 -0.14810775479E+04  0.19182223289E+04  0.46999998093E+01 0. -1.
</event>
<event>
 5   0  0.7726743E-07  0.3081004E+04  0.7818609E-02  0.8220971E-01
        1   -1    0    0  501    0  0.00000000000E+00  0.00000000000E+00  0.23936648383E+04  0.23936648383E+04  0.50400001928E-02 0. -1.
       -1   -1    0    0    0  501  0.00000000000E+00  0.00000000000E+00 -0.99142800523E+03  0.99142800524E+03  0.50400001928E-02 0.  1.
    10030    2    1    2    0    0  0.00000000000E+00  0.00000000000E+00  0.14022368331E+04  0.33850928435E+04  0.30810039635E+04 0.  0.
        1    1    3    3  502    0 -0.20036352093E+03  0.12149230492E+04  0.17182082484E+04  0.21138645039E+04  0.50400001928E-02 0. -1.
       -1    1    3    3    0  502  0.20036352093E+03 -0.12149230492E+04 -0.31597141532E+03  0.12712283396E+04  0.50400001928E-02 0.  1.
</event>
<event>
 5   0  0.2078009E-06  0.3091424E+04  0.7818609E-02  0.8218095E-01
       -2   -1    0    0    0  501  0.00000000000E+00  0.00000000000E+00  0.15716138020E+04  0.15716138020E+04  0.25500000920E-02 0.  1.
        2   -1    0    0  501    0  0.00000000000E+00  0.00000000000E+00 -0.15202372877E+04  0.15202372877E+04  0.25500000920E-02 0. -1.
    10030    2    1    2    0    0  0.00000000000E+00  0.00000000000E+00  0.51376514332E+02  0.30918510897E+04  0.30914242049E+04 0.  0.
        3    1    3    3  502    0  0.52285628636E+03 -0.87012281423E+03  0.11914964565E+04  0.15652974874E+04  0.10100000352E+00 0.  1.
       -3    1    3    3    0  502 -0.52285628636E+03  0.87012281423E+03 -0.11401199421E+04  0.15265536023E+04  0.10100000352E+00 0. -1.
</event>
<event>
 5   0  0.2094135E-06  0.3115250E+04  0.7818609E-02  0.8211565E-01
        2   -1    0    0  501    0  0.00000000000E+00  0.00000000000E+00  0.22297352689E+04  0.22297352689E+04  0.25500000920E-02 0.  1.
       -2   -1    0    0    0  501  0.00000000000E+00  0.00000000000E+00 -0.10881092163E+04  0.10881092163E+04  0.25500000920E-02 0. -1.
    10030    2    1    2    0    0  0.00000000000E+00  0.00000000000E+00  0.11416260526E+04  0.33178444852E+04  0.31152499071E+04 0.  0.
        4    1    3    3  502    0 -0.68859639051E+03 -0.22994115410E+03 -0.89690777531E+03  0.11538990830E+04  0.12699999809E+01 0. -1.
       -4    1    3    3    0  502  0.68859639051E+03  0.22994115410E+03  0.20385338279E+04  0.21639454022E+04  0.12699999809E+01 0.  1.
</event>
<event>
 5   0  0.2094135E-06  0.3099634E+04  0.7818609E-02  0.8215838E-01
       -2   -1    0    0    0  501  0.00000000000E+00  0.00000000000E+00  0.96730613258E+03  0.96730613259E+03  0.25500000920E-02 0. -1.
        2   -1    0    0  501    0  0.00000000000E+00  0.00000000000E+00 -0.24831158000E+04  0.24831158000E+04  0.25500000920E-02 0.  1.
    10030    2    1    2    0    0  0.00000000000E+00  0.00000000000E+00 -0.15158096674E+04  0.34504219326E+04  0.30996342631E+04 0.  0.
        4    1    3    3  502    0  0.13567907417E+04  0.70551352698E+03 -0.47783437985E+03  0.16021728249E+04  0.12699999809E+01 0.  1.
       -4    1    3    3    0  502 -0.13567907417E+04 -0.70551352698E+03 -0.10379752876E+04  0.18482491077E+04  0.12699999809E+01 0. -1.
</event>
<event>
 5   0  0.7561815E-07  0.3094203E+04  0.7818609E-02  0.8217331E-01
       -1   -1    0    0    0  501  0.00000000000E+00  0.00000000000E+00  0.92639389864E+03  0.92639389866E+03  0.50400001928E-02 0. -1.
        1   -1    0    0  501    0  0.00000000000E+00  0.00000000000E+00 -0.25836996638E+04  0.25836996638E+04  0.50400001928E-02 0.  1.
    10030    2    1    2    0    0  0.00000000000E+00  0.00000000000E+00 -0.16573057651E+04  0.35100935625E+04  0.30942033576E+04 0.  0.
        3    1    3    3  502    0  0.51615585827E+03  0.61474831256E+03  0.67168296576E+03  0.10466567606E+04  0.10100000352E+00 0. -1.
       -3    1    3    3    0  502 -0.51615585827E+03 -0.61474831256E+03 -0.23289887309E+04  0.24634368019E+04  0.10100000352E+00 0.  1.
</event>
<event>
 5   0  0.7561815E-07  0.3079124E+04  0.7818609E-02  0.8221490E-01
        1   -1    0    0  501    0  0.00000000000E+00  0.00000000000E+00  0.22008892047E+04  0.22008892047E+04  0.50400001928E-02 0. -1.
       -1   -1    0    0    0  501  0.00000000000E+00  0.00000000000E+00 -0.10769518807E+04  0.10769518807E+04  0.50400001928E-02 0.  1.
    10030    2    1    2    0    0  0.00000000000E+00  0.00000000000E+00  0.11239373240E+04  0.32778410854E+04  0.30791244004E+04 0.  0.
        3    1    3    3  502    0  0.41159274420E+03 -0.78223280154E+03  0.19038572524E+04  0.20990400641E+04  0.10100000352E+00 0. -1.
       -3    1    3    3    0  502 -0.41159274420E+03  0.78223280154E+03 -0.77991992848E+03  0.11788010213E+04  0.10100000352E+00 0.  1.
</event>
<event>
 5   0  0.7726743E-07  0.3049183E+04  0.7818609E-02  0.8229824E-01
        1   -1    0    0  501    0  0.00000000000E+00  0.00000000000E+00  0.19245184590E+04  0.19245184590E+04  0.50400001928E-02 0. -1.
       -1   -1    0    0    0  501  0.00000000000E+00  0.00000000000E+00 -0.12077717607E+04  0.12077717607E+04  0.50400001928E-02 0.  1.
    10030    2    1    2    0    0  0.00000000000E+00  0.00000000000E+00  0.71674669834E+03  0.31322902197E+04  0.30491828726E+04 0.  0.
        1    1    3    3  502    0  0.21617445885E+03 -0.33628582412E+03 -0.11529705126E+04  0.12203116631E+04  0.50400001928E-02 0.  1.
       -1    1    3    3    0  502 -0.21617445885E+03  0.33628582412E+03  0.18697172109E+04  0.19119785566E+04  0.50400001928E-02 0. -1.
</event>
<event>
 5   0  0.7656332E-07  0.3106538E+04  0.7818609E-02  0.8213946E-01
        1   -1    0    0  501    0  0.00000000000E+00  0.00000000000E+00  0.23951890979E+04  0.23951890979E+04  0.50400001928E-02 0. -1.
       -1   -1    0    0    0  501  0.00000000000E+00  0.00000000000E+00 -0.10072876632E+04  0.10072876633E+04  0.50400001928E-02 0.  1.
    10030    2    1    2    0    0  0.00000000000E+00  0.00000000000E+00  0.13879014346E+04  0.34024767611E+04  0.31065378990E+04 0.  0.
        2    1    3    3  502    0  0.83243032719E+03 -0.29583653611E+03 -0.70532466119E+03  0.11304611375E+04  0.25500000920E-02 0.  1.
       -2    1    3    3    0  502 -0.83243032719E+03  0.29583653611E+03  0.20932260958E+04  0.22720156236E+04  0.25500000920E-02 0. -1.
</event>
<event>
 5   0  0.2078009E-06  0.3139831E+04  0.7818609E-02  0.8204891E-01
       -2   -1    0    0    0  501  0.00000000000E+00  0.00000000000E+00  0.10342286771E+04  0.10342286771E+04  0.25500000920E-02 0. -1.
        2   -1    0    0  501    0  0.00000000000E+00  0.00000000000E+00 -0.23830648947E+04  0.23830648947E+04  0.25500000920E-02 0.  1.
    10030    2    1    2    0    0  0.00000000000E+00  0.00000000000E+00 -0.13488362176E+04  0.34172935718E+04  0.31398306028E+04 0.  0.
        3    1    3    3  502    0 -0.45675324345E+03  0.70976923039E+03 -0.21151150641E+04  0.22773027094E+04  0.10100000352E+00 0.  1.
       -3    1    3    3    0  502  0.45675324345E+03 -0.70976923039E+03  0.76627884641E+03  0.11399908625E+04  0.10100000352E+00 0. -1.
</event>
<event>
 5   0  0.2078009E-06  0.3089564E+04  0.7818609E-02  0.8218608E-01
       -2   -1    0    0    0  501  0.00000000000E+00  0.00000000000E+00  0.12345700730E+04  0.12345700730E+04  0.25500000920E-02 0. -1.
        2   -1    0    0  501    0  0.00000000000E+00  0.00000000000E+00 -0.19329407580E+04  0.19329407580E+04  0.25500000920E-02 0.  1.
    10030    2    1    2    0    0  0.00000000000E+00  0.00000000000E+00 -0.69837068506E+03  0.31675108310E+04  0.30895636020E+04 0.  0.
        3    1    3    3  502    0 -0.21265801030E+03  0.14762493816E+04  0.63225942510E+02  0.14928272492E+04  0.10100000352E+00 0. -1.
       -3    1    3    3    0  502  0.21265801030E+03 -0.14762493816E+04 -0.76159662757E+03  0.16746835818E+04  0.10100000352E+00 0.  1.
</event>
<event>
 5   0  0.7561815E-07  0.3094704E+04  0.7818609E-02  0.8217193E-01
        1   -1    0    0  501    0  0.00000000000E+00  0.00000000000E+00  0.20752466352E+04  0.20752466352E+04  0.50400001928E-02 0. -1.
       -1   -1    0    0    0  501  0.00000000000E+00  0.00000000000E+00 -0.11537418144E+04  0.11537418144E+04  0.50400001928E-02 0.  1.
    10030    2    1    2    0    0  0.00000000000E+00  0.00000000000E+00  0.92150482083E+03  0.32289884496E+04  0.30947043919E+04 0.  0.
        3    1    3    3  502    0 -0.17357213950E+02 -0.14694999509E+04  0.96608949969E+03  0.17587098425E+04  0.10100000352E+00 0. -1.
       -3    1    3    3    0  502  0.17357213950E+02  0.14694999509E+04 -0.44584678857E+02  0.14702786071E+04  0.10100000352E+00 0.  1.
</event>
<event>
 5   0  0.2133385E-06  0.3159949E+04  0.7818609E-02  0.8199475E-01
        2   -1    0    0  501    0  0.00000000000E+00  0.00000000000E+00  0.15754046090E+04  0.15754046090E+04  0.25500000920E-02 0.  1.
       -2   -1    0    0    0  501  0.00000000000E+00  0.00000000000E+00 -0.15845576019E+04  0.15845576019E+04  0.25500000920E-02 0. -1.
    10030    2    1    2    0    0  0.00000000000E+00  0.00000000000E+00 -0.91529928866E+01  0.31599622109E+04  0.31599489548E+04 0.  0.
        2    1    3    3  502    0  0.12679208693E+04 -0.87756214257E+03 -0.34893343205E+03  0.15809785530E+04  0.25500000920E-02 0.  1.
       -2    1    3    3    0  502 -0.12679208693E+04  0.87756214257E+03  0.33978043916E+03  0.15789836579E+04  0.25500000920E-02 0. -1.
</event>
<event>
 5   0  0.2067926E-06  0.3097205E+04  0.7818609E-02  0.8216505E-01
       -2   -1    0    0    0  501  0.00000000000E+00  0.00000000000E+00  0.10508528273E+04  0.10508528273E+04  0.25500000920E-02 0. -1.
        2   -1    0    0  501    0  0.00000000000E+00  0.00000000000E+00 -0.22821180154E+04  0.22821180154E+04  0.25500000920E-02 0.  1.
    10030    2    1    2    0    0  0.00000000000E+00  0.00000000000E+00 -0.12312651881E+04  0.33329708427E+04  0.30972053008E+04 0.  0.
        1    1    3    3  502    0 -0.30009565073E+03  0.14385201314E+03 -0.22431828867E+04  0.22677346107E+04  0.50400001928E-02 0.  1.
       -1    1    3    3    0  502  0.30009565073E+03 -0.14385201314E+03  0.10119176986E+04  0.10652362320E+04  0.50400001928E-02 0. -1.
</event>
<event>
 5   0  0.2094135E-06  0.3090074E+04  0.7818609E-02  0.8218467E-01
        2   -1    0    0  501    0  0.00000000000E+00  0.00000000000E+00  0.31182433504E+04  0.31182433504E+04  0.25500000920E-02 0. -1.
       -2   -1    0    0    0  501  0.00000000000E+00  0.00000000000E+00 -0.76553995197E+03  0.76553995198E+03  0.25500000920E-02 0.  1.
    10030    2    1    2    0    0  0.00000000000E+00  0.00000000000E+00  0.23527033984E+04  0.38837833024E+04  0.30900743452E+04 0.  0.
        4    1    3    3  502    0  0.93896215391E+03  0.63725370186E+03 -0.14148970125E+03  0.11435747267E+04  0.12699999809E+01 0.  1.
       -4    1    3    3    0  502 -0.93896215391E+03 -0.63725370186E+03  0.24941930997E+04  0.27402085757E+04  0.12699999809E+01 0. -1.
</event>
<event>
 5   0  0.7413481E-07  0.3104662E+04  0.7818609E-02  0.8214460E-01
        1   -1    0    0  501    0  0.00000000000E+00  0.00000000000E+00  0.18616366090E+04  0.18616366090E+04  0.50400001928E-02 0.  1.
       -1   -1    0    0    0  501  0.00000000000E+00  0.00000000000E+00 -0.12944153269E+04  0.12944153269E+04  0.50400001928E-02 0. -1.
    10030    2    1    2    0    0  0.00000000000E+00  0.00000000000E+00  0.56722128217E+03  0.31560519359E+04  0.31046616304E+04 0.  0.
        5    1    3    3  502    0  0.14608020710E+04  0.10882086558E+03  0.80584984715E+03  0.16718853841E+04  0.46999998093E+01 0.  1.
       -5    1    3    3    0  502 -0.14608020710E+04 -0.10882086558E+03 -0.23862856499E+03  0.14841665518E+04  0.46999998093E+01 0. -1.
</event>
<event>
 5   0  0.2067926E-06  0.3083873E+04  0.7818609E-02  0.8220178E-01
       -2   -1    0    0    0  501  0.00000000000E+00  0.00000000000E+00  0.16547340372E+04  0.16547340372E+04  0.25500000920E-02 0. -1.
        2   -1    0    0  501    0  0.00000000000E+00  0.00000000000E+00 -0.14368280593E+04  0.14368280593E+04  0.25500000920E-02 0.  1.
    10030    2    1    2    0    0  0.00000000000E+00  0.00000000000E+00  0.21790597789E+03  0.30915620965E+04  0.30838730813E+04 0.  0.
        1    1    3    3  502    0  0.27726114013E+02 -0.15025121408E+04  0.45514982862E+03  0.15701824216E+04  0.50400001928E-02 0. -1.
       -1    1    3    3    0  502 -0.27726114013E+02  0.15025121408E+04 -0.23724385073E+03  0.15213796749E+04  0.50400001928E-02 0.  1.
</event>
<event>
 5   0  0.2078009E-06  0.3097768E+04  0.7818609E-02  0.8216351E-01
        2   -1    0    0  501    0  0.00000000000E+00  0.00000000000E+00  0.14315131305E+04  0.14315131305E+04  0.25500000920E-02 0.  1.
       -2   -1    0    0    0  501  0.00000000000E+00  0.00000000000E+00 -0.16758787168E+04  0.16758787168E+04  0.25500000920E-02 0. -1.
    10030    2    1    2    0    0  0.00000000000E+00  0.00000000000E+00 -0.24436558631E+03  0.31073918473E+04  0.30977684796E+04 0.  0.
        3    1    3    3  502    0 -0.31744801198E+03  0.87419602758E+03  0.11202327781E+04  0.14559922466E+04  0.10100000352E+00 0.  1.
       -3    1    3    3    0  502  0.31744801198E+03 -0.87419602758E+03 -0.13645983644E+04  0.16513996007E+04  0.10100000352E+00 0. -1.
</event>
<event>
 5   0  0.7519202E-07  0.3099455E+04  0.7818609E-02  0.8215888E-01
       -1   -1    0    0    0  501  0.00000000000E+00  0.00000000000E+00  0.14113210636E+04  0.14113210636E+04  0.50400001928E-02 0. -1.
        1   -1    0    0  501    0  0.00000000000E+00  0.00000000000E+00 -0.17017071232E+04  0.17017071232E+04  0.50400001928E-02 0.  1.
    10030    2    1    2    0    0  0.00000000000E+00  0.00000000000E+00 -0.29038605964E+03  0.31130281868E+04  0.30994548598E+04 0.  0.
        4    1    3    3  502    0 -0.14168056913E+04  0.14995164298E+02  0.48532221956E+03  0.14976990658E+04  0.12699999809E+01 0. -1.
       -4    1    3    3    0  502  0.14168056913E+04 -0.14995164298E+02 -0.77570827920E+03  0.16153291210E+04  0.12699999809E+01 0.  1.
</event>
<event>
 5   0  0.2226334E-06  0.3091103E+04  0.7818609E-02  0.8218184E-01
        2   -1    0    0  501    0  0.00000000000E+00  0.00000000000E+00  0.75160821356E+03  0.75160821356E+03  0.25500000920E-02 0.  1.
       -2   -1    0    0    0  501  0.00000000000E+00  0.00000000000E+00 -0.31781573197E+04  0.31781573197E+04  0.25500000920E-02 0. -1.
    10030    2    1    2    0    0  0.00000000000E+00  0.00000000000E+00 -0.24265491062E+04  0.39297655333E+04  0.30911028100E+04 0.  0.
        5    1    3    3  502    0  0.99011292866E+03 -0.62073511226E+03  0.72622360273E+02  0.11708679636E+04  0.46999998093E+01 0.  1.
       -5    1    3    3    0  502 -0.99011292866E+03  0.62073511226E+03 -0.24991714664E+04  0.27588975696E+04  0.46999998093E+01 0. -1.
</event>
<event>
 5   0  0.2133385E-06  0.3084104E+04  0.7818609E-02  0.8220114E-01
       -2   -1    0    0    0  501  0.00000000000E+00  0.00000000000E+00  0.15371493978E+04  0.15371493978E+04  0.25500000920E-02 0.  1.
        2   -1    0    0  501    0  0.00000000000E+00  0.00000000000E+00 -0.15469701052E+04  0.15469701052E+04  0.25500000920E-02 0. -1.
    10030    2    1    2    0    0  0.00000000000E+00  0.00000000000E+00 -0.98207074456E+01  0.30841195030E+04  0.30841038670E+04 0.  0.
        2    1    3    3  502    0  0.22669106083E+03 -0.15095901920E+04  0.21343172682E+03  0.15413644887E+04  0.25500000920E-02 0. -1.
       -2    1    3    3    0  502 -0.22669106083E+03  0.15095901920E+04 -0.22325243427E+03  0.15427550144E+04  0.25500000920E-02 0.  1.
</event>
<event>
 5   0  0.2133385E-06  0.3094766E+04  0.7818609E-02  0.8217176E-01
       -2   -1    0    0    0  501  0.00000000000E+00  0.00000000000E+00  0.10186950522E+04  0.10186950522E+04  0.25500000920E-02 0.  1.
        2   -1    0    0  501    0  0.00000000000E+00  0.00000000000E+00 -0.23504523593E+04  0.23504523593E+04  0.25500000920E-02 0. -1.
    10030    2    1    2    0    0  0.00000000000E+00  0.00000000000E+00 -0.13317573071E+04  0.33691474115E+04  0.30947660260E+04 0.  0.
        2    1    3    3  502    0 -0.11028526095E+04  0.90842470789E+03 -0.19179112814E+02  0.14289461734E+04  0.25500000920E-02 0. -1.
       -2    1    3    3    0  502  0.11028526095E+04 -0.90842470789E+03 -0.13125781943E+04  0.19402012381E+04  0.25500000920E-02 0.  1.
</event>
<event>
 5   0  0.7561815E-07  0.3088237E+04  0.7818609E-02  0.8218974E-01
       -1   -1    0    0    0  501  0.00000000000E+00  0.00000000000E+00  0.15681532017E+04  0.15681532017E+04  0.50400001928E-02 0. -1.
        1   -1    0    0  501    0  0.00000000000E+00  0.00000000000E+00 -0.15204524501E+04  0.15204524501E+04  0.50400001928E-02 0.  1.
    10030    2    1    2    0    0  0.00000000000E+00  0.00000000000E+00  0.47700751588E+02  0.30886056518E+04  0.30882372821E+04 0.  0.
        3    1    3    3  502    0  0.11864509661E+04  0.20598121120E+03 -0.94280938540E+03  0.15293736305E+04  0.10100000352E+00 0.  1.
       -3    1    3    3    0  502 -0.11864509661E+04 -0.20598121120E+03  0.99051013699E+03  0.15592320212E+04  0.10100000352E+00 0. -1.
</event>
<event>
 5   0  0.7656332E-07  0.3071009E+04  0.7818609E-02  0.8223739E-01
       -1   -1    0    0    0  501  0.00000000000E+00  0.00000000000E+00  0.26135962415E+04  0.26135962415E+04  0.50400001928E-02 0. -1.
        1   -1    0    0  501    0  0.00000000000E+00  0.00000000000E+00 -0.90211898157E+03  0.90211898159E+03  0.50400001928E-02 0.  1.
    10030    2    1    2    0    0  0.00000000000E+00  0.00000000000E+00  0.17114772600E+04  0.35157152231E+04  0.30710094625E+04 0.  0.
        2    1    3    3  502    0 -0.19657251131E+03 -0.56985835744E+03  0.24724711552E+04  0.25448954621E+04  0.25500000920E-02 0. -1.
       -2    1    3    3    0  502  0.19657251131E+03  0.56985835744E+03 -0.76099389525E+03  0.97081976101E+03  0.25500000920E-02 0.  1.
</event>
<event>
 5   0  0.2067926E-06  0.3081004E+04  0.7818609E-02  0.8220971E-01
       -2   -1    0    0    0  501  0.00000000000E+00  0.00000000000E+00  0.26888512942E+04  0.26888512942E+04  0.25500000920E-02 0. -1.
        2   -1    0    0  501    0  0.00000000000E+00  0.00000000000E+00 -0.88258726551E+03  0.88258726552E+03  0.25500000920E-02 0.  1.
    10030    2    1    2    0    0  0.00000000000E+00  0.00000000000E+00  0.18062640287E+04  0.35714385597E+04  0.30810036748E+04 0.  0.
        1    1    3    3  502    0 -0.90805181848E+03 -0.10621956074E+04  0.16546602141E+04  0.21658065559E+04  0.50400001928E-02 0. -1.
       -1    1    3    3    0  502  0.90805181848E+03  0.10621956074E+04  0.15160381459E+03  0.14056320038E+04  0.50400001928E-02 0.  1.
</event>
<event>
 5   0  0.7656332E-07  0.3082988E+04  0.7818609E-02  0.8220422E-01
        1   -1    0    0  501    0  0.00000000000E+00  0.00000000000E+00  0.17014874557E+04  0.17014874558E+04  0.50400001928E-02 0.  1.
       -1   -1    0    0    0  501  0.00000000000E+00  0.00000000000E+00 -0.13965445201E+04  0.13965445201E+04  0.50400001928E-02 0. -1.
    10030    2    1    2    0    0  0.00000000000E+00  0.00000000000E+00  0.30494293566E+03  0.30980319758E+04  0.30829875007E+04 0.  0.
        2    1    3    3  502    0  0.25197857582E+03 -0.10323822574E+04 -0.96962284646E+03  0.14385669232E+04  0.25500000920E-02 0. -1.
       -2    1    3    3    0  502 -0.25197857582E+03  0.10323822574E+04  0.12745657821E+04  0.16594650527E+04  0.25500000920E-02 0.  1.
</event>
<event>
 5   0  0.7413481E-07  0.3108867E+04  0.7818609E-02  0.8213309E-01
        1   -1    0    0  501    0  0.00000000000E+00  0.00000000000E+00  0.26712739607E+04  0.26712739607E+04  0.50400001928E-02 0. -1.
       -1   -1    0    0    0  501  0.00000000000E+00  0.00000000000E+00 -0.90453581663E+03  0.90453581664E+03  0.50400001928E-02 0.  1.
    10030    2    1    2    0    0  0.00000000000E+00  0.00000000000E+00  0.17667381441E+04  0.35758097774E+04  0.31088666575E+04 0.  0.
        5    1    3    3  502    0 -0.76777378439E+03 -0.26329265434E+03 -0.64143036780E+03  0.10345311076E+04  0.46999998093E+01 0.  1.
       -5    1    3    3    0  502  0.76777378439E+03  0.26329265434E+03  0.24081685119E+04  0.25412786698E+04  0.46999998093E+01 0. -1.
</event>
<event>
 5   0  0.2226334E-06  0.3124325E+04  0.7818609E-02  0.8209094E-01
       -2   -1    0    0    0  501  0.00000000000E+00  0.00000000000E+00  0.12242497509E+04  0.12242497509E+04  0.25500000920E-02 0.  1.
        2   -1    0    0  501    0  0.00000000000E+00  0.00000000000E+00 -0.19933452517E+04  0.19933452517E+04  0.25500000920E-02 0. -1.
    10030    2    1    2    0    0  0.00000000000E+00  0.00000000000E+00 -0.76909550076E+03  0.32175950026E+04  0.31243254811E+04 0.  0.
        5    1    3    3  502    0  0.14655009005E+04 -0.47082108106E+03 -0.65889277214E+03  0.16743736604E+04  0.46999998093E+01 0. -1.
       -5    1    3    3    0  502 -0.14655009005E+04  0.47082108106E+03 -0.11020272862E+03  0.15432213422E+04  0.46999998093E+01 0.  1.
</event>
<event>
 5   0  0.7656332E-07  0.3136321E+04  0.7818609E-02  0.8205840E-01
       -1   -1    0    0    0  501  0.00000000000E+00  0.00000000000E+00  0.16406648137E+04  0.16406648137E+04  0.50400001928E-02 0.  1.
        1   -1    0    0  501    0  0.00000000000E+00  0.00000000000E+00 -0.14988606147E+04  0.14988606147E+04  0.50400001928E-02 0. -1.
    10030    2    1    2    0    0  0.00000000000E+00  0.00000000000E+00  0.14180419899E+03  0.31395254284E+04  0.31363213299E+04 0.  0.
        2    1    3    3  502    0 -0.73657246921E+03 -0.98761449866E+03  0.10420511847E+04  0.16136269928E+04  0.25500000920E-02 0.  1.
       -2    1    3    3    0  502  0.73657246921E+03  0.98761449866E+03 -0.90024698574E+03  0.15258984356E+04  0.25500000920E-02 0. -1.
</event>
<event>
 5   0  0.7561815E-07  0.3092408E+04  0.7818609E-02  0.8217824E-01
        1   -1    0    0  501    0  0.00000000000E+00  0.00000000000E+00  0.26570338071E+04  0.26570338071E+04  0.50400001928E-02 0.  1.
       -1   -1    0    0    0  501  0.00000000000E+00  0.00000000000E+00 -0.89978053299E+03  0.89978053301E+03  0.50400001928E-02 0. -1.
    10030    2    1    2    0    0  0.00000000000E+00  0.00000000000E+00  0.17572532741E+04  0.35568143401E+04  0.30924083140E+04 0.  0.
        3    1    3    3  502    0 -0.32199232515E+02  0.54221947252E+03  0.25436863213E+04  0.26010341902E+04  0.10100000352E+00 0.  1.
       -3    1    3    3    0  502  0.32199232515E+02 -0.54221947252E+03 -0.78643304725E+03  0.95578014991E+03  0.10100000352E+00 0. -1.
</event>
<event>
 5   0  0.7413481E-07  0.3100545E+04  0.7818609E-02  0.8215588E-01
       -1   -1    0    0    0  501  0.00000000000E+00  0.00000000000E+00  0.14609240378E+04  0.14609240379E+04  0.50400001928E-02 0.  1.
        1   -1    0    0  501    0  0.00000000000E+00  0.00000000000E+00 -0.16450857904E+04  0.16450857904E+04  0.50400001928E-02 0. -1.
    10030    2    1    2    0    0  0.00000000000E+00  0.00000000000E+00 -0.18416175254E+03  0.31060098283E+04  0.31005453556E+04 0.  0.
        5    1    3    3  502    0  0.94600376607E+03 -0.27612206222E+03 -0.12909175405E+04  0.16240864217E+04  0.46999998093E+01 0. -1.
       -5    1    3    3    0  502 -0.94600376607E+03  0.27612206222E+03  0.11067557880E+04  0.14819234066E+04  0.46999998093E+01 0.  1.
</event>
<event>
 5   0  0.2133385E-06  0.3145186E+04  0.7818609E-02  0.8203445E-01
       -2   -1    0    0    0  501  0.00000000000E+00  0.00000000000E+00  0.19494052371E+04  0.19494052371E+04  0.25500000920E-02 0.  1.
        2   -1    0    0  501    0  0.00000000000E+00  0.00000000000E+00 -0.12686166868E+04  0.12686166868E+04  0.25500000920E-02 0. -1.
    10030    2    1    2    0    0  0.00000000000E+00  0.00000000000E+00  0.68078855026E+03  0.32180219238E+04  0.31451855354E+04 0.  0.
        2    1    3    3  502    0 -0.18365963895E+03 -0.12288497643E+04  0.13266917936E+04  0.18176671096E+04  0.25500000920E-02 0.  1.
       -2    1    3    3    0  502  0.18365963895E+03  0.12288497643E+04 -0.64590324329E+03  0.14003548143E+04  0.25500000920E-02 0. -1.
</event>
<event>
 5   0  0.2067926E-06  0.3088511E+04  0.7818609E-02  0.8218898E-01
        2   -1    0    0  501    0  0.00000000000E+00  0.00000000000E+00  0.24800798619E+04  0.24800798619E+04  0.25500000920E-02 0. -1.
       -2   -1    0    0    0  501  0.00000000000E+00  0.00000000000E+00 -0.96155165272E+03  0.96155165272E+03  0.25500000920E-02 0.  1.
    10030    2    1    2    0    0  0.00000000000E+00  0.00000000000E+00  0.15185282092E+04  0.34416315146E+04  0.30885108969E+04 0.  0.
        1    1    3    3  502    0 -0.29973134113E+03 -0.35184737492E+02 -0.92837127252E+03  0.97619161145E+03  0.50400001928E-02 0.  1.
       -1    1    3    3    0  502  0.29973134113E+03  0.35184737492E+02  0.24468994817E+04  0.24654399032E+04  0.50400001928E-02 0. -1.
</event>
<event>
 5   0  0.7561815E-07  0.3069234E+04  0.7818609E-02  0.8224232E-01
        1   -1    0    0  501    0  0.00000000000E+00  0.00000000000E+00  0.20991707711E+04  0.20991707711E+04  0.50400001928E-02 0.  1.
       -1   -1    0    0    0  501  0.00000000000E+00  0.00000000000E+00 -0.11218952092E+04  0.11218952092E+04  0.50400001928E-02 0. -1.
    10030    2    1    2    0    0  0.00000000000E+00  0.00000000000E+00  0.97727556187E+03  0.32210659803E+04  0.30692341921E+04 0.  0.
        3    1    3    3  502    0 -0.10586521411E+04 -0.83221261980E+03  0.12610693283E+04  0.18448897153E+04  0.10100000352E+00 0.  1.
       -3    1    3    3    0  502  0.10586521411E+04  0.83221261980E+03 -0.28379376646E+03  0.13761762651E+04  0.10100000352E+00 0. -1.
</event>
<event>
 5   0  0.2067926E-06  0.3110946E+04  0.7818609E-02  0.8212740E-01
        2   -1    0    0  501    0  0.00000000000E+00  0.00000000000E+00  0.21041830106E+04  0.21041830106E+04  0.25500000920E-02 0. -1.
       -2   -1    0    0    0  501  0.00000000000E+00  0.00000000000E+00 -0.11498510015E+04  0.11498510015E+04  0.25500000920E-02 0.  1.
    10030    2    1    2    0    0  0.00000000000E+00  0.00000000000E+00  0.95433200904E+03  0.32540340121E+04  0.31109464425E+04 0.  0.
        1    1    3    3  502    0 -0.15307145478E+04 -0.67811572892E+02  0.19686376356E+03  0.15448109198E+04  0.50400001928E-02 0. -1.
       -1    1    3    3    0  502  0.15307145478E+04  0.67811572892E+02  0.75746824548E+03  0.17092230923E+04  0.50400001928E-02 0.  1.
</event>
<event>
 5   0  0.2067926E-06  0.3117712E+04  0.7818609E-02  0.8210894E-01
       -2   -1    0    0    0  501  0.00000000000E+00  0.00000000000E+00  0.11271468378E+04  0.11271468378E+04  0.25500000920E-02 0.  1.
        2   -1    0    0  501    0  0.00000000000E+00  0.00000000000E+00 -0.21559140047E+04  0.21559140047E+04  0.25500000920E-02 0. -1.
    10030    2    1    2    0    0  0.00000000000E+00  0.00000000000E+00 -0.10287671669E+04  0.32830608425E+04  0.31177117589E+04 0.  0.
        1    1    3    3  502    0 -0.14571900061E+03 -0.15081384726E+04 -0.12845512732E+03  0.15205973824E+04  0.50400001928E-02 0.  1.
       -1    1    3    3    0  502  0.14571900061E+03  0.15081384726E+04 -0.90031203958E+03  0.17624634601E+04  0.50400001928E-02 0. -1.
</event>
<event>
 5   0  0.2226334E-06  0.3094244E+04  0.7818609E-02  0.8217319E-01
       -2   -1    0    0    0  501  0.00000000000E+00  0.00000000000E+00  0.30294132097E+04  0.30294132097E+04  0.25500000920E-02 0. -1.
        2   -1    0    0  501    0  0.00000000000E+00  0.00000000000E+00 -0.79011570877E+03  0.79011570877E+03  0.25500000920E-02 0.  1.
    10030    2    1    2    0    0  0.00000000000E+00  0.00000000000E+00  0.22392975010E+04  0.38195289185E+04  0.30942443119E+04 0.  0.
        5    1    3    3  502    0 -0.12309805903E+04 -0.11096370066E+03 -0.29030511930E+02  0.12363215670E+04  0.46999998093E+01 0. -1.
       -5    1    3    3    0  502  0.12309805903E+04  0.11096370066E+03  0.22683280129E+04  0.25832073514E+04  0.46999998093E+01 0.  1.
</event>
<event>
 5   0  0.2067926E-06  0.3091300E+04  0.7818609E-02  0.8218130E-01
       -2   -1    0    0    0  501  0.00000000000E+00  0.00000000000E+00  0.11249396817E+04  0.11249396817E+04  0.25500000920E-02 0. -1.
        2   -1    0    0  501    0  0.00000000000E+00  0.00000000000E+00 -0.21236994273E+04  0.21236994273E+04  0.25500000920E-02 0.  1.
    10030    2    1    2    0    0  0.00000000000E+00  0.00000000000E+00 -0.99875974557E+03  0.32486391091E+04  0.30912998935E+04 0.  0.
        1    1    3    3  502    0 -0.10794850196E+04 -0.56777801761E+03 -0.14971094256E+04  0.19310609563E+04  0.50400001928E-02 0.  1.
       -1    1    3    3    0  502  0.10794850196E+04  0.56777801761E+03  0.49834968003E+03  0.13175781527E+04  0.50400001928E-02 0. -1.
</event>
<event>
 5   0  0.7726743E-07  0.2991923E+04  0.7818609E-02  0.8246041E-01
       -1   -1    0    0    0  501  0.00000000000E+00  0.00000000000E+00  0.98007984138E+03  0.98007984140E+03  0.50400001928E-02 0. -1.
        1   -1    0    0  501    0  0.00000000000E+00  0.00000000000E+00 -0.22833859112E+04  0.22833859112E+04  0.50400001928E-02 0.  1.
    10030    2    1    2    0    0  0.00000000000E+00  0.00000000000E+00 -0.13033060698E+04  0.32634657526E+04  0.29919227943E+04 0.  0.
        1    1    3    3  502    0  0.66006363601E+03 -0.96262789399E+03 -0.16722931510E+04  0.20393383361E+04  0.50400001928E-02 0.  1.
       -1    1    3    3    0  502 -0.66006363601E+03  0.96262789399E+03  0.36898708120E+03  0.12241274166E+04  0.50400001928E-02 0. -1.
</event>
<event>
 5   0  0.7726743E-07  0.3080681E+04  0.7818609E-02  0.8221060E-01
       -1   -1    0    0    0  501  0.00000000000E+00  0.00000000000E+00  0.11177010784E+04  0.11177010784E+04  0.50400001928E-02 0. -1.
        1   -1    0    0  501    0  0.00000000000E+00  0.00000000000E+00 -0.21227931403E+04  0.21227931403E+04  0.50400001928E-02 0.  1.
    10030    2    1    2    0    0  0.00000000000E+00  0.00000000000E+00 -0.10050920619E+04  0.32404942187E+04  0.30806805626E+04 0.  0.
        1    1    3    3  502    0 -0.10064023929E+04  0.53498041008E+03 -0.15924431474E+04  0.19582964519E+04  0.50400001928E-02 0.  1.
       -1    1    3    3    0  502  0.10064023929E+04 -0.53498041008E+03  0.58735108555E+03  0.12821977669E+04  0.50400001928E-02 0. -1.
</event>
<event>
 5   0  0.7726743E-07  0.3089673E+04  0.7818609E-02  0.8218578E-01
        1   -1    0    0  501    0  0.00000000000E+00  0.00000000000E+00  0.23019929819E+04  0.23019929819E+04  0.50400001928E-02 0. -1.
       -1   -1    0    0    0  501  0.00000000000E+00  0.00000000000E+00 -0.10367191731E+04  0.10367191731E+04  0.50400001928E-02 0.  1.
    10030    2    1    2    0    0  0.00000000000E+00  0.00000000000E+00  0.12652738088E+04  0.33387121550E+04  0.30896732907E+04 0.  0.
        1    1    3    3  502    0  0.13916976602E+04  0.58923895563E+02  0.13544816279E+04  0.19429140185E+04  0.50400001928E-02 0. -1.
       -1    1    3    3    0  502 -0.13916976602E+04 -0.58923895563E+02 -0.89207819096E+02  0.13957981365E+04  0.50400001928E-02 0.  1.
</event>
<event>
 5   0  0.2226334E-06  0.3119904E+04  0.7818609E-02  0.8210297E-01
        2   -1    0    0  501    0  0.00000000000E+00  0.00000000000E+00  0.80663751881E+03  0.80663751882E+03  0.25500000920E-02 0.  1.
       -2   -1    0    0    0  501  0.00000000000E+00  0.00000000000E+00 -0.30167833387E+04  0.30167833387E+04  0.25500000920E-02 0. -1.
    10030    2    1    2    0    0  0.00000000000E+00  0.00000000000E+00 -0.22101458199E+04  0.38234208576E+04  0.31199042467E+04 0.  0.
        5    1    3    3  502    0  0.92479428936E+02 -0.14043997125E+04 -0.28067260159E+03  0.14351620802E+04  0.46999998093E+01 0.  1.
       -5    1    3    3    0  502 -0.92479428936E+02  0.14043997125E+04 -0.19294732183E+04  0.23882587773E+04  0.46999998093E+01 0. -1.
</event>
<event>
 5   0  0.2067926E-06  0.3215222E+04  0.7818609E-02  0.8184809E-01
        2   -1    0    0  501    0  0.00000000000E+00  0.00000000000E+00  0.17898487089E+04  0.17898487089E+04  0.25500000920E-02 0.  1.
       -2   -1    0    0    0  501  0.00000000000E+00  0.00000000000E+00 -0.14439284934E+04  0.14439284934E+04  0.25500000920E-02 0. -1.
    10030    2    1    2    0    0  0.00000000000E+00  0.00000000000E+00  0.34592021552E+03  0.32337772023E+04  0.32152222627E+04 0.  0.
        1    1    3    3  502    0 -0.21236995046E+03 -0.77762808362E+03 -0.12259682867E+04  0.14672439035E+04  0.50400001928E-02 0. -1.
       -1    1    3    3    0  502  0.21236995046E+03  0.77762808362E+03  0.15718885022E+04  0.17665332988E+04  0.50400001928E-02 0.  1.
</event>
<event>
 5   0  0.7413481E-07  0.3129339E+04  0.7818609E-02  0.8207732E-01
       -1   -1    0    0    0  501  0.00000000000E+00  0.00000000000E+00  0.12830731858E+04  0.12830731858E+04  0.50400001928E-02 0.  1.
        1   -1    0    0  501    0  0.00000000000E+00  0.00000000000E+00 -0.19080682757E+04  0.19080682757E+04  0.50400001928E-02 0. -1.
    10030    2    1    2    0    0  0.00000000000E+00  0.00000000000E+00 -0.62499508997E+03  0.31911414615E+04  0.31293393815E+04 0.  0.
        5    1    3    3  502    0 -0.11486369390E+03  0.53379786068E+03 -0.18077557319E+04  0.18884217486E+04  0.46999998093E+01 0. -1.
       -5    1    3    3    0  502  0.11486369390E+03 -0.53379786068E+03  0.11827606420E+04  0.13027197129E+04  0.46999998093E+01 0.  1.
</event>
<event>
 5   0  0.7413481E-07  0.3098908E+04  0.7818609E-02  0.8216038E-01
       -1   -1    0    0    0  501  0.00000000000E+00  0.00000000000E+00  0.12636762276E+04  0.12636762276E+04  0.50400001928E-02 0.  1.
        1   -1    0    0  501    0  0.00000000000E+00  0.00000000000E+00 -0.18998592309E+04  0.18998592309E+04  0.50400001928E-02 0. -1.
    10030    2    1    2    0    0  0.00000000000E+00  0.00000000000E+00 -0.63618300326E+03  0.31635354585E+04  0.30989075145E+04 0.  0.
        5    1    3    3  502    0 -0.80338561193E+02  0.57494896919E+03 -0.17846322498E+04  0.18766872299E+04  0.46999998093E+01 0. -1.
       -5    1    3    3    0  502  0.80338561193E+02 -0.57494896919E+03  0.11484492466E+04  0.12868482286E+04  0.46999998093E+01 0.  1.
</event>
<event>
 5   0  0.2067926E-06  0.3116330E+04  0.7818609E-02  0.8211270E-01
       -2   -1    0    0    0  501  0.00000000000E+00  0.00000000000E+00  0.20953863302E+04  0.20953863302E+04  0.25500000920E-02 0. -1.
        2   -1    0    0  501    0  0.00000000000E+00  0.00000000000E+00 -0.11586783746E+04  0.11586783746E+04  0.25500000920E-02 0.  1.
    10030    2    1    2    0    0  0.00000000000E+00  0.00000000000E+00  0.93670795557E+03  0.32540647048E+04  0.31163304236E+04 0.  0.
        1    1    3    3  502    0 -0.12443864831E+04  0.74900422350E+03  0.10575385040E+04  0.17966337227E+04  0.50400001928E-02 0.  1.
       -1    1    3    3    0  502  0.12443864831E+04 -0.74900422350E+03 -0.12083054841E+03  0.14574309821E+04  0.50400001928E-02 0. -1.
</event>
<event>
 5   0  0.7561815E-07  0.3086347E+04  0.7818609E-02  0.8219495E-01
       -1   -1    0    0    0  501  0.00000000000E+00  0.00000000000E+00  0.23098457330E+04  0.23098457330E+04  0.50400001928E-02 0.  1.
        1   -1    0    0  501    0  0.00000000000E+00  0.00000000000E+00 -0.10309712776E+04  0.10309712776E+04  0.50400001928E-02 0. -1.
    10030    2    1    2    0    0  0.00000000000E+00  0.00000000000E+00  0.12788744554E+04  0.33408170106E+04  0.30863471006E+04 0.  0.
        3    1    3    3  502    0  0.49101636950E+03  0.12638927936E+04  0.14369779252E+04  0.19757094008E+04  0.10100000352E+00 0.  1.
       -3    1    3    3    0  502 -0.49101636950E+03 -0.12638927936E+04 -0.15810346973E+03  0.13651076098E+04  0.10100000352E+00 0. -1.
</event>
<event>
 5   0  0.7656332E-07  0.3177741E+04  0.7818609E-02  0.8194721E-01
       -1   -1    0    0    0  501  0.00000000000E+00  0.00000000000E+00  0.19704467250E+04  0.19704467250E+04  0.50400001928E-02 0.  1.
        1   -1    0    0  501    0  0.00000000000E+00  0.00000000000E+00 -0.12811863151E+04  0.12811863151E+04  0.50400001928E-02 0. -1.
    10030    2    1    2    0    0  0.00000000000E+00  0.00000000000E+00  0.68926040994E+03  0.32516330401E+04  0.31777409452E+04 0.  0.
        2    1    3    3  502    0 -0.11520196833E+04  0.82318577061E+02  0.14611411903E+04  0.18624873897E+04  0.25500000920E-02 0.  1.
       -2    1    3    3    0  502  0.11520196833E+04 -0.82318577061E+02 -0.77188078035E+03  0.13891456504E+04  0.25500000920E-02 0. -1.
</event>
<event>
 5   0  0.7519202E-07  0.3121979E+04  0.7818609E-02  0.8209732E-01
       -1   -1    0    0    0  501  0.00000000000E+00  0.00000000000E+00  0.19031241935E+04  0.19031241935E+04  0.50400001928E-02 0. -1.
        1   -1    0    0  501    0  0.00000000000E+00  0.00000000000E+00 -0.12803617773E+04  0.12803617773E+04  0.50400001928E-02 0.  1.
    10030    2    1    2    0    0  0.00000000000E+00  0.00000000000E+00  0.62276241613E+03  0.31834859708E+04  0.31219785232E+04 0.  0.
        4    1    3    3  502    0 -0.12222381694E+04 -0.95540916338E+03  0.13472533015E+03  0.15571850692E+04  0.12699999809E+01 0.  1.
       -4    1    3    3    0  502  0.12222381694E+04  0.95540916338E+03  0.48803708598E+03  0.16263009016E+04  0.12699999809E+01 0. -1.
</event>
<event>
 5   0  0.7519202E-07  0.3349620E+04  0.7818609E-02  0.8150383E-01
       -1   -1    0    0    0  501  0.00000000000E+00  0.00000000000E+00  0.17191164908E+04  0.17191164908E+04  0.50400001928E-02 0.  1.
        1   -1    0    0  501    0  0.00000000000E+00  0.00000000000E+00 -0.16316451526E+04  0.16316451526E+04  0.50400001928E-02 0. -1.
    10030    2    1    2    0    0  0.00000000000E+00  0.00000000000E+00  0.87471338182E+02  0.33507616434E+04  0.33496197331E+04 0.  0.
        4    1    3    3  502    0  0.25510805808E+03  0.77930565720E+03 -0.14171008469E+04  0.16372458129E+04  0.12699999809E+01 0. -1.
       -4    1    3    3    0  502 -0.25510805808E+03 -0.77930565720E+03  0.15045721851E+04  0.17135158306E+04  0.12699999809E+01 0.  1.
</event>
<event>
 5   0  0.7726743E-07  0.3095829E+04  0.7818609E-02  0.8216884E-01
       -1   -1    0    0    0  501  0.00000000000E+00  0.00000000000E+00  0.13483110557E+04  0.13483110557E+04  0.50400001928E-02 0. -1.
        1   -1    0    0  501    0  0.00000000000E+00  0.00000000000E+00 -0.17770670547E+04  0.17770670547E+04  0.50400001928E-02 0.  1.
    10030    2    1    2    0    0  0.00000000000E+00  0.00000000000E+00 -0.42875599897E+03  0.31253781104E+04  0.30958289078E+04 0.  0.
        1    1    3    3  502    0  0.12259434405E+04  0.85959572136E+03 -0.61080536252E+03  0.16170730702E+04  0.50400001928E-02 0.  1.
       -1    1    3    3    0  502 -0.12259434405E+04 -0.85959572136E+03  0.18204936355E+03  0.15083050402E+04  0.50400001928E-02 0. -1.
</event>
<event>
 5   0  0.7561815E-07  0.3101212E+04  0.7818609E-02  0.8215405E-01
       -1   -1    0    0    0  501  0.00000000000E+00  0.00000000000E+00  0.29654236226E+04  0.29654236226E+04  0.50400001928E-02 0. -1.
        1   -1    0    0  501    0  0.00000000000E+00  0.00000000000E+00 -0.81080479282E+03  0.81080479284E+03  0.50400001928E-02 0.  1.
    10030    2    1    2    0    0  0.00000000000E+00  0.00000000000E+00  0.21546188298E+04  0.37762284154E+04  0.31012124635E+04 0.  0.
        3    1    3    3  502    0  0.88595284348E+03 -0.12289422301E+04  0.67498640683E+03  0.16585590449E+04  0.10100000352E+00 0. -1.
       -3    1    3    3    0  502 -0.88595284348E+03  0.12289422301E+04  0.14796324229E+04  0.21176693705E+04  0.10100000352E+00 0.  1.
</event>
<event>
 5   0  0.7519202E-07  0.3097854E+04  0.7818609E-02  0.8216327E-01
       -1   -1    0    0    0  501  0.00000000000E+00  0.00000000000E+00  0.13933364256E+04  0.13933364256E+04  0.50400001928E-02 0. -1.
        1   -1    0    0  501    0  0.00000000000E+00  0.00000000000E+00 -0.17218915576E+04  0.17218915576E+04  0.50400001928E-02 0.  1.
    10030    2    1    2    0    0  0.00000000000E+00  0.00000000000E+00 -0.32855513197E+03  0.31152279832E+04  0.30978535977E+04 0.  0.
        4    1    3    3  502    0 -0.62848352194E+03  0.96644001144E+03  0.87601693394E+03  0.14478967900E+04  0.12699999809E+01 0. -1.
       -4    1    3    3    0  502  0.62848352194E+03 -0.96644001144E+03 -0.12045720659E+04  0.16673311932E+04  0.12699999809E+01 0.  1.
</event>
<event>
 5   0  0.2078009E-06  0.3093916E+04  0.7818609E-02  0.8217410E-01
       -2   -1    0    0    0  501  0.00000000000E+00  0.00000000000E+00  0.15060987477E+04  0.15060987477E+04  0.25500000920E-02 0.  1.
        2   -1    0    0  501    0  0.00000000000E+00  0.00000000000E+00 -0.15889260629E+04  0.15889260629E+04  0.25500000920E-02 0. -1.
    10030    2    1    2    0    0  0.00000000000E+00  0.00000000000E+00 -0.82827315268E+02  0.30950248106E+04  0.30939163230E+04 0.  0.
        3    1    3    3  502    0  0.13187417845E+04 -0.37561490652E+03 -0.75784976069E+03  0.15666852658E+04  0.10100000352E+00 0. -1.
       -3    1    3    3    0  502 -0.13187417845E+04  0.37561490652E+03  0.67502244542E+03  0.15283395448E+04  0.10100000352E+00 0.  1.
</event>
<event>
 5   0  0.7656332E-07  0.3018360E+04  0.7818609E-02  0.8238507E-01
        1   -1    0    0  501    0  0.00000000000E+00  0.00000000000E+00  0.16530932748E+04  0.16530932748E+04  0.50400001928E-02 0. -1.
       -1   -1    0    0    0  501  0.00000000000E+00  0.00000000000E+00 -0.13777952802E+04  0.13777952802E+04  0.50400001928E-02 0.  1.
    10030    2    1    2    0    0  0.00000000000E+00  0.00000000000E+00  0.27529799456E+03  0.30308885550E+04  0.30183598936E+04 0.  0.
        2    1    3    3  502    0  0.29405571327E+03  0.48361990750E+03 -0.12671817308E+04  0.13878423960E+04  0.25500000920E-02 0.  1.
       -2    1    3    3    0  502 -0.29405571327E+03 -0.48361990750E+03  0.15424797253E+04  0.16430461590E+04  0.25500000920E-02 0. -1.
</event>
<event>
 5   0  0.7561815E-07  0.3047172E+04  0.7818609E-02  0.8230387E-01
        1   -1    0    0  501    0  0.00000000000E+00  0.00000000000E+00  0.17392330663E+04  0.17392330663E+04  0.50400001928E-02 0. -1.
       -1   -1    0    0    0  501  0.00000000000E+00  0.00000000000E+00 -0.13346769095E+04  0.13346769095E+04  0.50400001928E-02 0.  1.
    10030    2    1    2    0    0  0.00000000000E+00  0.00000000000E+00  0.40455615685E+03  0.30739099758E+04  0.30471719439E+04 0.  0.
        3    1    3    3  502    0 -0.69565048045E+03 -0.12781778252E+04  0.65750945637E+03  0.15968678215E+04  0.10100000352E+00 0. -1.
       -3    1    3    3    0  502  0.69565048045E+03  0.12781778252E+04 -0.25295329952E+03  0.14770421544E+04  0.10100000352E+00 0.  1.
</event>
<event>
 5   0  0.7656332E-07  0.3089540E+04  0.7818609E-02  0.8218614E-01
        1   -1    0    0  501    0  0.00000000000E+00  0.00000000000E+00  0.13732163955E+04  0.13732163955E+04  0.50400001928E-02 0. -1.
       -1   -1    0    0    0  501  0.00000000000E+00  0.00000000000E+00 -0.17377553660E+04  0.17377553660E+04  0.50400001928E-02 0.  1.
    10030    2    1    2    0    0  0.00000000000E+00  0.00000000000E+00 -0.36453897055E+03  0.31109717615E+04  0.30895398751E+04 0.  0.
        2    1    3    3  502    0 -0.89888638344E+02 -0.53616429029E+03 -0.16382466649E+04  0.17260950868E+04  0.25500000920E-02 0.  1.
       -2    1    3    3    0  502  0.89888638344E+02  0.53616429029E+03  0.12737076944E+04  0.13848766747E+04  0.25500000920E-02 0. -1.
</event>
<event>
 5   0  0.2067926E-06  0.3088369E+04  0.7818609E-02  0.8218937E-01
        2   -1    0    0  501    0  0.00000000000E+00  0.00000000000E+00  0.14868174671E+04  0.14868174671E+04  0.25500000920E-02 0.  1.
       -2   -1    0    0    0  501  0.00000000000E+00  0.00000000000E+00 -0.16037649224E+04  0.16037649224E+04  0.25500000920E-02 0. -1.
    10030    2    1    2    0    0  0.00000000000E+00  0.00000000000E+00 -0.11694745527E+03  0.30905823895E+04  0.30883689545E+04 0.  0.
        1    1    3    3  502    0  0.10972042979E+04  0.57729910468E+02 -0.11442931674E+04  0.15863785383E+04  0.50400001928E-02 0. -1.
       -1    1    3    3    0  502 -0.10972042979E+04 -0.57729910468E+02  0.10273457121E+04  0.15042038512E+04  0.50400001928E-02 0.  1.
</event>
<event>
 5   0  0.7726743E-07  0.3096065E+04  0.7818609E-02  0.8216819E-01
        1   -1    0    0  501    0  0.00000000000E+00  0.00000000000E+00  0.14472390610E+04  0.14472390610E+04  0.50400001928E-02 0.  1.
       -1   -1    0    0    0  501  0.00000000000E+00  0.00000000000E+00 -0.16558453038E+04  0.16558453038E+04  0.50400001928E-02 0. -1.
    10030    2    1    2    0    0  0.00000000000E+00  0.00000000000E+00 -0.20860624275E+03  0.31030843648E+04  0.30960646005E+04 0.  0.
        1    1    3    3  502    0 -0.10850272532E+04 -0.25703290449E+03  0.97193502920E+03  0.14791915884E+04  0.50400001928E-02 0.  1.
       -1    1    3    3    0  502  0.10850272532E+04  0.25703290449E+03 -0.11805412720E+04  0.16238927763E+04  0.50400001928E-02 0. -1.
</event>
<event>
 5   0  0.2133385E-06  0.3136871E+04  0.7818609E-02  0.8205691E-01
       -2   -1    0    0    0  501  0.00000000000E+00  0.00000000000E+00  0.16945478234E+04  0.16945478234E+04  0.25500000920E-02 0.  1.
        2   -1    0    0  501    0  0.00000000000E+00  0.00000000000E+00 -0.14517086677E+04  0.14517086677E+04  0.25500000920E-02 0. -1.
    10030    2    1    2    0    0  0.00000000000E+00  0.00000000000E+00  0.24283915567E+03  0.31462564911E+04  0.31368709014E+04 0.  0.
        2    1    3    3  502    0 -0.10418986109E+04 -0.11296579007E+04  0.43590208446E+03  0.15974011129E+04  0.25500000920E-02 0. -1.
       -2    1    3    3    0  502  0.10418986109E+04  0.11296579007E+04 -0.19306292878E+03  0.15488553782E+04  0.25500000920E-02 0.  1.
</event>
<event>
 5   0  0.6979625E-07  0.3083772E+04  0.7818609E-02  0.8220206E-01
       -3   -1    0    0    0  501  0.00000000000E+00  0.00000000000E+00  0.23825225314E+04  0.23825225335E+04  0.10100000352E+00 0.  1.
        3   -1    0    0  501    0  0.00000000000E+00  0.00000000000E+00 -0.99785489267E+03  0.99785489778E+03  0.10100000352E+00 0. -1.
    10030    2    1    2    0    0  0.00000000000E+00  0.00000000000E+00  0.13846676387E+04  0.33803774313E+04  0.30837715720E+04 0.  0.
        2    1    3    3  502    0  0.83613610781E+03  0.73747892172E+03  0.18598652891E+04  0.21684320705E+04  0.25500000920E-02 0.  1.
       -2    1    3    3    0  502 -0.83613610781E+03 -0.73747892172E+03 -0.47519765035E+03  0.12119453608E+04  0.25500000920E-02 0. -1.
</event>
<event>
 5   0  0.7726743E-07  0.3116727E+04  0.7818609E-02  0.8211162E-01
        1   -1    0    0  501    0  0.00000000000E+00  0.00000000000E+00  0.20041830004E+04  0.20041830004E+04  0.50400001928E-02 0. -1.
       -1   -1    0    0    0  501  0.00000000000E+00  0.00000000000E+00 -0.12117140113E+04  0.12117140113E+04  0.50400001928E-02 0.  1.
    10030    2    1    2    0    0  0.00000000000E+00  0.00000000000E+00  0.79246898915E+03  0.32158970117E+04  0.31167268875E+04 0.  0.
        1    1    3    3  502    0 -0.96987246698E+03 -0.24071536752E+03 -0.83759809645E+03  0.13039045447E+04  0.50400001928E-02 0.  1.
       -1    1    3    3    0  502  0.96987246698E+03  0.24071536752E+03  0.16300670856E+04  0.19119924670E+04  0.50400001928E-02 0. -1.
</event>
<event>
 5   0  0.7561815E-07  0.3121920E+04  0.7818609E-02  0.8209748E-01
        1   -1    0    0  501    0  0.00000000000E+00  0.00000000000E+00  0.16049852655E+04  0.16049852655E+04  0.50400001928E-02 0.  1.
       -1   -1    0    0    0  501  0.00000000000E+00  0.00000000000E+00 -0.15181425484E+04  0.15181425484E+04  0.50400001928E-02 0. -1.
    10030    2    1    2    0    0  0.00000000000E+00  0.00000000000E+00  0.86842717058E+02  0.31231278139E+04  0.31219201919E+04 0.  0.
        3    1    3    3  502    0 -0.10731872814E+04  0.21206670192E+03  0.11573569945E+04  0.15925383669E+04  0.10100000352E+00 0.  1.
       -3    1    3    3    0  502  0.10731872814E+04 -0.21206670192E+03 -0.10705142774E+04  0.15305894470E+04  0.10100000352E+00 0. -1.
</event>
<event>
 5   0  0.2078009E-06  0.3061191E+04  0.7818609E-02  0.8226470E-01
       -2   -1    0    0    0  501  0.00000000000E+00  0.00000000000E+00  0.10884468626E+04  0.10884468626E+04  0.25500000920E-02 0. -1.
        2   -1    0    0  501    0  0.00000000000E+00  0.00000000000E+00 -0.21523540318E+04  0.21523540318E+04  0.25500000920E-02 0.  1.
    10030    2    1    2    0    0  0.00000000000E+00  0.00000000000E+00 -0.10639071692E+04  0.32408008944E+04  0.30611912669E+04 0.  0.
        3    1    3    3  502    0  0.78524765185E+03  0.22960666983E+03  0.83754142535E+03  0.11708154197E+04  0.10100000352E+00 0. -1.
       -3    1    3    3    0  502 -0.78524765185E+03 -0.22960666983E+03 -0.19014485946E+04  0.20699854747E+04  0.10100000352E+00 0.  1.
</event>
<event>
 5   0  0.2094135E-06  0.3114237E+04  0.7818609E-02  0.8211842E-01
        2   -1    0    0  501    0  0.00000000000E+00  0.00000000000E+00  0.19168246277E+04  0.19168246277E+04  0.25500000920E-02 0.  1.
       -2   -1    0    0    0  501  0.00000000000E+00  0.00000000000E+00 -0.12649136999E+04  0.12649137000E+04  0.25500000920E-02 0. -1.
    10030    2    1    2    0    0  0.00000000000E+00  0.00000000000E+00  0.65191092771E+03  0.31817383276E+04  0.31142368130E+04 0.  0.
        4    1    3    3  502    0  0.31979776643E+03 -0.15221411470E+04  0.40125393492E+03  0.16062971755E+04  0.12699999809E+01 0. -1.
       -4    1    3    3    0  502 -0.31979776643E+03  0.15221411470E+04  0.25065699279E+03  0.15754411521E+04  0.12699999809E+01 0.  1.
</event>
<event>
 5   0  0.7726743E-07  0.3092587E+04  0.7818609E-02  0.8217775E-01
        1   -1    0    0  501    0  0.00000000000E+00  0.00000000000E+00  0.20479583217E+04  0.20479583217E+04  0.50400001928E-02 0. -1.
       -1   -1    0    0    0  501  0.00000000000E+00  0.00000000000E+00 -0.11675155172E+04  0.11675155172E+04  0.50400001928E-02 0.  1.
    10030    2    1    2    0    0  0.00000000000E+00  0.00000000000E+00  0.88044280447E+03  0.32154738389E+04  0.30925866967E+04 0.  0.
        1    1    3    3  502    0  0.10579032913E+04  0.47790543073E+03  0.15023157828E+04  0.18985535772E+04  0.50400001928E-02 0. -1.
       -1    1    3    3    0  502 -0.10579032913E+04 -0.47790543073E+03 -0.62187297829E+03  0.13169202617E+04  0.50400001928E-02 0.  1.
</event>
<event>
 5   0  0.7413481E-07  0.3087870E+04  0.7818609E-02  0.8219075E-01
        1   -1    0    0  501    0  0.00000000000E+00  0.00000000000E+00  0.18064633553E+04  0.18064633553E+04  0.50400001928E-02 0.  1.
       -1   -1    0    0    0  501  0.00000000000E+00  0.00000000000E+00 -0.13195590698E+04  0.13195590698E+04  0.50400001928E-02 0. -1.
    10030    2    1    2    0    0  0.00000000000E+00  0.00000000000E+00  0.48690428546E+03  0.31260224251E+04  0.30878698838E+04 0.  0.
        5    1    3    3  502    0  0.22044711160E+02  0.15435980113E+04  0.26680718782E+03  0.15666489573E+04  0.46999998093E+01 0.  1.
       -5    1    3    3    0  502 -0.22044711160E+02 -0.15435980113E+04  0.22009709764E+03  0.15593734679E+04  0.46999998093E+01 0. -1.
</event>
<event>
 5   0  0.2078009E-06  0.3009756E+04  0.7818609E-02  0.8240950E-01
        2   -1    0    0  501    0  0.00000000000E+00  0.00000000000E+00  0.18482677267E+04  0.18482677267E+04  0.25500000920E-02 0.  1.
       -2   -1    0    0    0  501  0.00000000000E+00  0.00000000000E+00 -0.12252869909E+04  0.12252869909E+04  0.25500000920E-02 0. -1.
    10030    2    1    2    0    0  0.00000000000E+00  0.00000000000E+00  0.62298073571E+03  0.30735547176E+04  0.30097564029E+04 0.  0.
        3    1    3    3  502    0 -0.89996466796E+03 -0.30720153652E+03 -0.87957282905E+03  0.12953600115E+04  0.10100000352E+00 0. -1.
       -3    1    3    3    0  502  0.89996466796E+03  0.30720153652E+03  0.15025535648E+04  0.17781947061E+04  0.10100000352E+00 0.  1.
</event>
<event>
 5   0  0.7519202E-07  0.3039212E+04  0.7818609E-02  0.8232622E-01
       -1   -1    0    0    0  501  0.00000000000E+00  0.00000000000E+00  0.12032892321E+04  0.12032892321E+04  0.50400001928E-02 0.  1.
        1   -1    0    0  501    0  0.00000000000E+00  0.00000000000E+00 -0.19190746172E+04  0.19190746172E+04  0.50400001928E-02 0. -1.
    10030    2    1    2    0    0  0.00000000000E+00  0.00000000000E+00 -0.71578538510E+03  0.31223638492E+04  0.30392116230E+04 0.  0.
        4    1    3    3  502    0 -0.10020352782E+04  0.20469958950E+03  0.79679006848E+03  0.12964770136E+04  0.12699999809E+01 0.  1.
       -4    1    3    3    0  502  0.10020352782E+04 -0.20469958950E+03 -0.15125754536E+04  0.18258868356E+04  0.12699999809E+01 0. -1.
</event>
<event>
 5   0  0.2078009E-06  0.3107968E+04  0.7818609E-02  0.8213555E-01
        2   -1    0    0  501    0  0.00000000000E+00  0.00000000000E+00  0.14440410335E+04  0.14440410335E+04  0.25500000920E-02 0.  1.
       -2   -1    0    0    0  501  0.00000000000E+00  0.00000000000E+00 -0.16722970874E+04  0.16722970874E+04  0.25500000920E-02 0. -1.
    10030    2    1    2    0    0  0.00000000000E+00  0.00000000000E+00 -0.22825605395E+03  0.31163381209E+04  0.31079675767E+04 0.  0.
        3    1    3    3  502    0 -0.13549851987E+04 -0.16743083289E+03  0.63006198355E+03  0.15036608946E+04  0.10100000352E+00 0.  1.
       -3    1    3    3    0  502  0.13549851987E+04  0.16743083289E+03 -0.85831803751E+03  0.16126772263E+04  0.10100000352E+00 0. -1.
</event>
<event>
 5   0  0.7413481E-07  0.3008535E+04  0.7818609E-02  0.8241298E-01
       -1   -1    0    0    0  501  0.00000000000E+00  0.00000000000E+00  0.14640204424E+04  0.14640204424E+04  0.50400001928E-02 0. -1.
        1   -1    0    0  501    0  0.00000000000E+00  0.00000000000E+00 -0.15456214831E+04  0.15456214832E+04  0.50400001928E-02 0.  1.
    10030    2    1    2    0    0  0.00000000000E+00  0.00000000000E+00 -0.81601040762E+02  0.30096419255E+04  0.30085354893E+04 0.  0.
        5    1    3    3  502    0 -0.13975874983E+04 -0.55604221984E+03 -0.21673032960E+02  0.15043023553E+04  0.46999998093E+01 0. -1.
       -5    1    3    3    0  502  0.13975874983E+04  0.55604221984E+03 -0.59928007802E+02  0.15053395703E+04  0.46999998093E+01 0.  1.
</event>
<event>
 5   0  0.7656332E-07  0.3076186E+04  0.7818609E-02  0.8222304E-01
       -1   -1    0    0    0  501  0.00000000000E+00  0.00000000000E+00  0.13155028884E+04  0.13155028884E+04  0.50400001928E-02 0. -1.
        1   -1    0    0  501    0  0.00000000000E+00  0.00000000000E+00 -0.17983459926E+04  0.17983459926E+04  0.50400001928E-02 0.  1.
    10030    2    1    2    0    0  0.00000000000E+00  0.00000000000E+00 -0.48284310418E+03  0.31138488809E+04  0.30761855259E+04 0.  0.
        2    1    3    3  502    0  0.21572867386E+03 -0.52514579606E+03 -0.16884031819E+04  0.17812979180E+04  0.25500000920E-02 0.  1.
       -2    1    3    3    0  502 -0.21572867386E+03  0.52514579606E+03  0.12055600777E+04  0.13325509630E+04  0.25500000920E-02 0. -1.
</event>
<event>
 5   0  0.2226334E-06  0.3089686E+04  0.7818609E-02  0.8218574E-01
       -2   -1    0    0    0  501  0.00000000000E+00  0.00000000000E+00  0.10731750713E+04  0.10731750713E+04  0.25500000920E-02 0. -1.
        2   -1    0    0  501    0  0.00000000000E+00  0.00000000000E+00 -0.22238123960E+04  0.22238123960E+04  0.25500000920E-02 0.  1.
    10030    2    1    2    0    0  0.00000000000E+00  0.00000000000E+00 -0.11506373246E+04  0.32969874673E+04  0.30896860855E+04 0.  0.
        5    1    3    3  502    0 -0.70249866761E+03 -0.11828696558E+04  0.17456339999E+03  0.13867874644E+04  0.46999998093E+01 0. -1.
       -5    1    3    3    0  502  0.70249866761E+03  0.11828696558E+04 -0.13252007246E+04  0.19102000029E+04  0.46999998093E+01 0.  1.
</event>
<event>
 5   0  0.7726743E-07  0.3112205E+04  0.7818609E-02  0.8212396E-01
        1   -1    0    0  501    0  0.00000000000E+00  0.00000000000E+00  0.22882187674E+04  0.22882187674E+04  0.50400001928E-02 0. -1.
       -1   -1    0    0    0  501  0.00000000000E+00  0.00000000000E+00 -0.10582268240E+04  0.10582268240E+04  0.50400001928E-02 0.  1.
    10030    2    1    2    0    0  0.00000000000E+00  0.00000000000E+00  0.12299919434E+04  0.33464455914E+04  0.31122046712E+04 0.  0.
        1    1    3    3  502    0  0.11379267106E+04  0.15587444921E+03  0.17439120745E+04  0.20881578883E+04  0.50400001928E-02 0. -1.
       -1    1    3    3    0  502 -0.11379267106E+04 -0.15587444921E+03 -0.51392013113E+03  0.12582877031E+04  0.50400001928E-02 0.  1.
</event>
<event>
 5   0  0.7726743E-07  0.3130921E+04  0.7818609E-02  0.8207303E-01
        1   -1    0    0  501    0  0.00000000000E+00  0.00000000000E+00  0.24064366620E+04  0.24064366620E+04  0.50400001928E-02 0.  1.
       -1   -1    0    0    0  501  0.00000000000E+00  0.00000000000E+00 -0.10183800478E+04  0.10183800479E+04  0.50400001928E-02 0. -1.
    10030    2    1    2    0    0  0.00000000000E+00  0.00000000000E+00  0.13880566142E+04  0.34248167099E+04  0.31309213232E+04 0.  0.
        1    1    3    3  502    0  0.70823760984E+03  0.73902756400E+03  0.19896532035E+04  0.22375169547E+04  0.50400001928E-02 0.  1.
       -1    1    3    3    0  502 -0.70823760984E+03 -0.73902756400E+03 -0.60159658933E+03  0.11872997552E+04  0.50400001928E-02 0. -1.
</event>
<event>
 5   0  0.2078009E-06  0.3086988E+04  0.7818609E-02  0.8219318E-01
       -2   -1    0    0    0  501  0.00000000000E+00  0.00000000000E+00  0.10369502847E+04  0.10369502847E+04  0.25500000920E-02 0.  1.
        2   -1    0    0  501    0  0.00000000000E+00  0.00000000000E+00 -0.22974815252E+04  0.22974815252E+04  0.25500000920E-02 0. -1.
    10030    2    1    2    0    0  0.00000000000E+00  0.00000000000E+00 -0.12605312405E+04  0.33344318099E+04  0.30869882550E+04 0.  0.
        3    1    3    3  502    0  0.82647272173E+03  0.11254418132E+04  0.80259022501E+02  0.13986128684E+04  0.10100000352E+00 0.  1.
       -3    1    3    3    0  502 -0.82647272173E+03 -0.11254418132E+04 -0.13407902630E+04  0.19358189415E+04  0.10100000352E+00 0. -1.
</event>
<event>
 5   0  0.7519202E-07  0.3105586E+04  0.7818609E-02  0.8214206E-01
       -1   -1    0    0    0  501  0.00000000000E+00  0.00000000000E+00  0.22089952096E+04  0.22089952096E+04  0.50400001928E-02 0.  1.
        1   -1    0    0  501    0  0.00000000000E+00  0.00000000000E+00 -0.10915218611E+04  0.10915218611E+04  0.50400001928E-02 0. -1.
    10030    2    1    2    0    0  0.00000000000E+00  0.00000000000E+00  0.11174733485E+04  0.33005170707E+04  0.31055862972E+04 0.  0.
        4    1    3    3  502    0 -0.10057132057E+04  0.11242077224E+04  0.16700488859E+03  0.15176278533E+04  0.12699999809E+01 0. -1.
       -4    1    3    3    0  502  0.10057132057E+04 -0.11242077224E+04  0.95046845995E+03  0.17828892174E+04  0.12699999809E+01 0.  1.
</event>
<event>
 5   0  0.7726743E-07  0.3124210E+04  0.7818609E-02  0.8209125E-01
       -1   -1    0    0    0  501  0.00000000000E+00  0.00000000000E+00  0.18613263952E+04  0.18613263952E+04  0.50400001928E-02 0.  1.
        1   -1    0    0  501    0  0.00000000000E+00  0.00000000000E+00 -0.13109855448E+04  0.13109855448E+04  0.50400001928E-02 0. -1.
    10030    2    1    2    0    0  0.00000000000E+00  0.00000000000E+00  0.55034085038E+03  0.31723119400E+04  0.31242099791E+04 0.  0.
        1    1    3    3  502    0 -0.74842458783E+03  0.75169657233E+03  0.14395539534E+04  0.17881562251E+04  0.50400001928E-02 0.  1.
       -1    1    3    3    0  502  0.74842458783E+03 -0.75169657233E+03 -0.88921310305E+03  0.13841557149E+04  0.50400001928E-02 0. -1.
</event>
<event>
 5   0  0.2226334E-06  0.3084777E+04  0.7818609E-02  0.8219928E-01
        2   -1    0    0  501    0  0.00000000000E+00  0.00000000000E+00  0.20541487242E+04  0.20541487242E+04  0.25500000920E-02 0. -1.
       -2   -1    0    0    0  501  0.00000000000E+00  0.00000000000E+00 -0.11581253001E+04  0.11581253001E+04  0.25500000920E-02 0.  1.
    10030    2    1    2    0    0  0.00000000000E+00  0.00000000000E+00  0.89602342414E+03  0.32122740244E+04  0.30847765609E+04 0.  0.
        5    1    3    3  502    0  0.62426101085E+03 -0.11176676392E+04  0.13438330182E+04  0.18560150948E+04  0.46999998093E+01 0. -1.
       -5    1    3    3    0  502 -0.62426101085E+03  0.11176676392E+04 -0.44780959407E+03  0.13562589295E+04  0.46999998093E+01 0.  1.
</event>
<event>
 5   0  0.7413481E-07  0.3100979E+04  0.7818609E-02  0.8215469E-01
       -1   -1    0    0    0  501  0.00000000000E+00  0.00000000000E+00  0.89551193523E+03  0.89551193524E+03  0.50400001928E-02 0. -1.
        1   -1    0    0  501    0  0.00000000000E+00  0.00000000000E+00 -0.26845181642E+04  0.26845181642E+04  0.50400001928E-02 0.  1.
    10030    2    1    2    0    0  0.00000000000E+00  0.00000000000E+00 -0.17890062289E+04  0.35800300994E+04  0.31009792365E+04 0.  0.
        5    1    3    3  502    0  0.38614258842E+03  0.27034775770E+03 -0.25997822691E+04  0.26421740945E+04  0.46999998093E+01 0.  1.
       -5    1    3    3    0  502 -0.38614258842E+03 -0.27034775770E+03  0.81077604017E+03  0.93785600494E+03  0.46999998093E+01 0. -1.
</event>
<event>
 5   0  0.2078009E-06  0.3042022E+04  0.7818609E-02  0.8231832E-01
       -2   -1    0    0    0  501  0.00000000000E+00  0.00000000000E+00  0.96271020536E+03  0.96271020536E+03  0.25500000920E-02 0.  1.
        2   -1    0    0  501    0  0.00000000000E+00  0.00000000000E+00 -0.24030846672E+04  0.24030846672E+04  0.25500000920E-02 0. -1.
    10030    2    1    2    0    0  0.00000000000E+00  0.00000000000E+00 -0.14403744618E+04  0.33657948725E+04  0.30420217839E+04 0.  0.
        3    1    3    3  502    0 -0.14881725917E+04 -0.18903498978E+03 -0.99808102898E+03  0.18018206461E+04  0.10100000352E+00 0. -1.
       -3    1    3    3    0  502  0.14881725917E+04  0.18903498978E+03 -0.44229343284E+03  0.15639742265E+04  0.10100000352E+00 0.  1.
</event>
<event>
 5   0  0.7656332E-07  0.3097260E+04  0.7818609E-02  0.8216490E-01
        1   -1    0    0  501    0  0.00000000000E+00  0.00000000000E+00  0.16020431137E+04  0.16020431137E+04  0.50400001928E-02 0.  1.
       -1   -1    0    0    0  501  0.00000000000E+00  0.00000000000E+00 -0.14969974179E+04  0.14969974179E+04  0.50400001928E-02 0. -1.
    10030    2    1    2    0    0  0.00000000000E+00  0.00000000000E+00  0.10504569581E+03  0.30990405316E+04  0.30972596950E+04 0.  0.
        2    1    3    3  502    0 -0.13553544415E+03  0.74608486647E+03 -0.12985282791E+04  0.15037247674E+04  0.25500000920E-02 0. -1.
       -2    1    3    3    0  502  0.13553544415E+03 -0.74608486647E+03  0.14035739749E+04  0.15953157642E+04  0.25500000920E-02 0.  1.
</event>
<event>
 5   0  0.7519202E-07  0.3115957E+04  0.7818609E-02  0.8211372E-01
       -1   -1    0    0    0  501  0.00000000000E+00  0.00000000000E+00  0.86026563106E+03  0.86026563107E+03  0.50400001928E-02 0. -1.
        1   -1    0    0  501    0  0.00000000000E+00  0.00000000000E+00 -0.28215664048E+04  0.28215664048E+04  0.50400001928E-02 0.  1.
    10030    2    1    2    0    0  0.00000000000E+00  0.00000000000E+00 -0.19613007738E+04  0.36818320359E+04  0.31159567416E+04 0.  0.
        4    1    3    3  502    0  0.60572638056E+02  0.62399835394E+03  0.70464071724E+03  0.94316655130E+03  0.12699999809E+01 0. -1.
       -4    1    3    3    0  502 -0.60572638056E+02 -0.62399835394E+03 -0.26659414910E+04  0.27386654846E+04  0.12699999809E+01 0.  1.
</event>
<event>
 5   0  0.7726743E-07  0.3107103E+04  0.7818609E-02  0.8213791E-01
        1   -1    0    0  501    0  0.00000000000E+00  0.00000000000E+00  0.10408501561E+04  0.10408501561E+04  0.50400001928E-02 0. -1.
       -1   -1    0    0    0  501  0.00000000000E+00  0.00000000000E+00 -0.23187996818E+04  0.23187996818E+04  0.50400001928E-02 0.  1.
    10030    2    1    2    0    0  0.00000000000E+00  0.00000000000E+00 -0.12779495257E+04  0.33596498379E+04  0.31071034812E+04 0.  0.
        1    1    3    3  502    0 -0.12237816792E+04  0.92611733800E+03 -0.37814608298E+03  0.15806104461E+04  0.50400001928E-02 0. -1.
       -1    1    3    3    0  502  0.12237816792E+04 -0.92611733800E+03 -0.89980344274E+03  0.17790393918E+04  0.50400001928E-02 0.  1.
</event>
<event>
 5   0  0.7519202E-07  0.3138157E+04  0.7818609E-02  0.8205343E-01
       -1   -1    0    0    0  501  0.00000000000E+00  0.00000000000E+00  0.16765220810E+04  0.16765220810E+04  0.50400001928E-02 0. -1.
        1   -1    0    0  501    0  0.00000000000E+00  0.00000000000E+00 -0.14685210482E+04  0.14685210482E+04  0.50400001928E-02 0.  1.
    10030    2    1    2    0    0  0.00000000000E+00  0.00000000000E+00  0.20800103280E+03  0.31450431292E+04  0.31381573981E+04 0.  0.
        4    1    3    3  502    0  0.12403944009E+04 -0.91945012395E+03 -0.17596804331E+03  0.15540055230E+04  0.12699999809E+01 0.  1.
       -4    1    3    3    0  502 -0.12403944009E+04  0.91945012395E+03  0.38396907611E+03  0.15910376063E+04  0.12699999809E+01 0. -1.
</event>
<event>
 5   0  0.2133385E-06  0.3108414E+04  0.7818609E-02  0.8213432E-01
        2   -1    0    0  501    0  0.00000000000E+00  0.00000000000E+00  0.18712922541E+04  0.18712922541E+04  0.25500000920E-02 0. -1.
       -2   -1    0    0    0  501  0.00000000000E+00  0.00000000000E+00 -0.12908513100E+04  0.12908513100E+04  0.25500000920E-02 0.  1.
    10030    2    1    2    0    0  0.00000000000E+00  0.00000000000E+00  0.58044094415E+03  0.31621435641E+04  0.31084144238E+04 0.  0.
        2    1    3    3  502    0  0.44235501284E+03  0.51199140253E+03  0.17136007393E+04  0.18423465058E+04  0.25500000920E-02 0. -1.
       -2    1    3    3    0  502 -0.44235501284E+03 -0.51199140253E+03 -0.11331597952E+04  0.13197970583E+04  0.25500000920E-02 0.  1.
</event>
<event>
 5   0  0.2067926E-06  0.3103096E+04  0.7818609E-02  0.8214889E-01
       -2   -1    0    0    0  501  0.00000000000E+00  0.00000000000E+00  0.11819004926E+04  0.11819004926E+04  0.25500000920E-02 0. -1.
        2   -1    0    0  501    0  0.00000000000E+00  0.00000000000E+00 -0.20368048210E+04  0.20368048210E+04  0.25500000920E-02 0.  1.
    10030    2    1    2    0    0  0.00000000000E+00  0.00000000000E+00 -0.85490432838E+03  0.32187053136E+04  0.31030956294E+04 0.  0.
        1    1    3    3  502    0 -0.68757526692E+03  0.84305938318E+02 -0.18674961098E+04  0.19918355753E+04  0.50400001928E-02 0.  1.
       -1    1    3    3    0  502  0.68757526692E+03 -0.84305938318E+02  0.10125917814E+04  0.12268697383E+04  0.50400001928E-02 0. -1.
</event>
<event>
 5   0  0.2078009E-06  0.3090734E+04  0.7818609E-02  0.8218286E-01
       -2   -1    0    0    0  501  0.00000000000E+00  0.00000000000E+00  0.13448488134E+04  0.13448488134E+04  0.25500000920E-02 0.  1.
        2   -1    0    0  501    0  0.00000000000E+00  0.00000000000E+00 -0.17757821095E+04  0.17757821095E+04  0.25500000920E-02 0. -1.
    10030    2    1    2    0    0  0.00000000000E+00  0.00000000000E+00 -0.43093329604E+03  0.31206309229E+04  0.30907335458E+04 0.  0.
        3    1    3    3  502    0  0.65957612456E+03 -0.86927169141E+03 -0.13203483847E+04  0.17128904824E+04  0.10100000352E+00 0. -1.
       -3    1    3    3    0  502 -0.65957612456E+03  0.86927169141E+03  0.88941508868E+03  0.14077404405E+04  0.10100000352E+00 0.  1.
</event>
<event>
 5   0  0.2067926E-06  0.3122770E+04  0.7818609E-02  0.8209517E-01
        2   -1    0    0  501    0  0.00000000000E+00  0.00000000000E+00  0.21702931242E+04  0.21702931242E+04  0.25500000920E-02 0. -1.
       -2   -1    0    0    0  501  0.00000000000E+00  0.00000000000E+00 -0.11233149604E+04  0.11233149604E+04  0.25500000920E-02 0.  1.
    10030    2    1    2    0    0  0.00000000000E+00  0.00000000000E+00  0.10469781638E+04  0.32936080845E+04  0.31227697544E+04 0.  0.
        1    1    3    3  502    0 -0.12077583121E+04  0.40399192698E+03  0.14762541978E+04  0.19496707605E+04  0.50400001928E-02 0. -1.
       -1    1    3    3    0  502  0.12077583121E+04 -0.40399192698E+03 -0.42927603403E+03  0.13439373241E+04  0.50400001928E-02 0.  1.
</event>
<event>
 5   0  0.2094135E-06  0.3111086E+04  0.7818609E-02  0.8212702E-01
        2   -1    0    0  501    0  0.00000000000E+00  0.00000000000E+00  0.30290621824E+04  0.30290621824E+04  0.25500000920E-02 0. -1.
       -2   -1    0    0    0  501  0.00000000000E+00  0.00000000000E+00 -0.79883285124E+03  0.79883285125E+03  0.25500000920E-02 0.  1.
    10030    2    1    2    0    0  0.00000000000E+00  0.00000000000E+00  0.22302293312E+04  0.38278950337E+04  0.31110862282E+04 0.  0.
        4    1    3    3  502    0 -0.50080148976E+03 -0.92283934948E+03  0.25272838140E+04  0.27367133001E+04  0.12699999809E+01 0. -1.
       -4    1    3    3    0  502  0.50080148976E+03  0.92283934948E+03 -0.29705448285E+03  0.10911817336E+04  0.12699999809E+01 0.  1.
</event>
<event>
 5   0  0.7561815E-07  0.3092008E+04  0.7818609E-02  0.8217935E-01
        1   -1    0    0  501    0  0.00000000000E+00  0.00000000000E+00  0.13031492966E+04  0.13031492966E+04  0.50400001928E-02 0.  1.
       -1   -1    0    0    0  501  0.00000000000E+00  0.00000000000E+00 -0.18341166975E+04  0.18341166975E+04  0.50400001928E-02 0. -1.
    10030    2    1    2    0    0  0.00000000000E+00  0.00000000000E+00 -0.53096740085E+03  0.31372659941E+04  0.30920076871E+04 0.  0.
        3    1    3    3  502    0  0.85776356421E+03 -0.10054239121E+04  0.54843767463E+03  0.14308806618E+04  0.10100000352E+00 0. -1.
       -3    1    3    3    0  502 -0.85776356421E+03  0.10054239121E+04 -0.10794050755E+04  0.17063853323E+04  0.10100000352E+00 0.  1.
</event>
<event>
 5   0  0.7726743E-07  0.3099290E+04  0.7818609E-02  0.8215933E-01
        1   -1    0    0  501    0  0.00000000000E+00  0.00000000000E+00  0.13157135400E+04  0.13157135400E+04  0.50400001928E-02 0.  1.
       -1   -1    0    0    0  501  0.00000000000E+00  0.00000000000E+00 -0.18251685376E+04  0.18251685376E+04  0.50400001928E-02 0. -1.
    10030    2    1    2    0    0  0.00000000000E+00  0.00000000000E+00 -0.50945499767E+03  0.31408820776E+04  0.30992895687E+04 0.  0.
        1    1    3    3  502    0  0.13916692323E+04 -0.65915890227E+02 -0.94229455445E+03  0.16819652744E+04  0.50400001928E-02 0.  1.
       -1    1    3    3    0  502 -0.13916692323E+04  0.65915890227E+02  0.43283955679E+03  0.14589168032E+04  0.50400001928E-02 0. -1.
</event>
<event>
 5   0  0.6979625E-07  0.2939104E+04  0.7818609E-02  0.8261337E-01
       -3   -1    0    0    0  501  0.00000000000E+00  0.00000000000E+00  0.26928446872E+04  0.26928446891E+04  0.10100000352E+00 0.  1.
        3   -1    0    0  501    0  0.00000000000E+00  0.00000000000E+00 -0.80197073334E+03  0.80197073970E+03  0.10100000352E+00 0. -1.
    10030    2    1    2    0    0  0.00000000000E+00  0.00000000000E+00  0.18908739539E+04  0.34948154288E+04  0.29391037022E+04 0.  0.
        2    1    3    3  502    0  0.31601315673E+03  0.10494951029E+04  0.21094428573E+04  0.23771944503E+04  0.25500000920E-02 0.  1.
       -2    1    3    3    0  502 -0.31601315673E+03 -0.10494951029E+04 -0.21856890341E+03  0.11176209786E+04  0.25500000920E-02 0. -1.
</event>
<event>
 5   0  0.7726743E-07  0.3085233E+04  0.7818609E-02  0.8219802E-01
       -1   -1    0    0    0  501  0.00000000000E+00  0.00000000000E+00  0.21084861605E+04  0.21084861605E+04  0.50400001928E-02 0. -1.
        1   -1    0    0  501    0  0.00000000000E+00  0.00000000000E+00 -0.11286136519E+04  0.11286136519E+04  0.50400001928E-02 0.  1.
    10030    2    1    2    0    0  0.00000000000E+00  0.00000000000E+00  0.97987250857E+03  0.32370998124E+04  0.30852333887E+04 0.  0.
        1    1    3    3  502    0  0.86703072358E+03 -0.11342437464E+04 -0.12313286253E+03  0.14329734309E+04  0.50400001928E-02 0. -1.
       -1    1    3    3    0  502 -0.86703072358E+03  0.11342437464E+04  0.11030053711E+04  0.18041263815E+04  0.50400001928E-02 0.  1.
</event>
<event>
 5   0  0.7519202E-07  0.3135588E+04  0.7818609E-02  0.8206038E-01
       -1   -1    0    0    0  501  0.00000000000E+00  0.00000000000E+00  0.21634245024E+04  0.21634245024E+04  0.50400001928E-02 0. -1.
        1   -1    0    0  501    0  0.00000000000E+00  0.00000000000E+00 -0.11361518636E+04  0.11361518636E+04  0.50400001928E-02 0.  1.
    10030    2    1    2    0    0  0.00000000000E+00  0.00000000000E+00  0.10272726388E+04  0.32995763661E+04  0.31355884808E+04 0.  0.
        4    1    3    3  502    0 -0.51317634503E+03  0.14656703238E+04  0.28687210835E+03  0.15791886140E+04  0.12699999809E+01 0.  1.
       -4    1    3    3    0  502  0.51317634503E+03 -0.14656703238E+04  0.74040053049E+03  0.17203877521E+04  0.12699999809E+01 0. -1.
</event>
<event>
 5   0  0.7561815E-07  0.3108836E+04  0.7818609E-02  0.8213317E-01
       -1   -1    0    0    0  501  0.00000000000E+00  0.00000000000E+00  0.25098818382E+04  0.25098818382E+04  0.50400001928E-02 0. -1.
        1   -1    0    0  501    0  0.00000000000E+00  0.00000000000E+00 -0.96268090486E+03  0.96268090488E+03  0.50400001928E-02 0.  1.
    10030    2    1    2    0    0  0.00000000000E+00  0.00000000000E+00  0.15472009334E+04  0.34725627431E+04  0.31088360003E+04 0.  0.
        3    1    3    3  502    0 -0.89654382015E+03  0.38211803644E+03 -0.57903272224E+03  0.11336154193E+04  0.10100000352E+00 0.  1.
       -3    1    3    3    0  502  0.89654382015E+03 -0.38211803644E+03  0.21262336556E+04  0.23389473238E+04  0.10100000352E+00 0. -1.
</event>
<event>
 5   0  0.2094135E-06  0.3077842E+04  0.7818609E-02  0.8221845E-01
        2   -1    0    0  501    0  0.00000000000E+00  0.00000000000E+00  0.16994247604E+04  0.16994247604E+04  0.25500000920E-02 0. -1.
       -2   -1    0    0    0  501  0.00000000000E+00  0.00000000000E+00 -0.13935766099E+04  0.13935766099E+04  0.25500000920E-02 0.  1.
    10030    2    1    2    0    0  0.00000000000E+00  0.00000000000E+00  0.30584815048E+03  0.30930013703E+04  0.30778424887E+04 0.  0.
        4    1    3    3  502    0  0.33923204078E+03  0.83474743278E+03  0.14066242349E+04  0.16704714919E+04  0.12699999809E+01 0. -1.
       -4    1    3    3    0  502 -0.33923204078E+03 -0.83474743278E+03 -0.11007760844E+04  0.14225298784E+04  0.12699999809E+01 0.  1.
</event>
<event>
 5   0  0.7656332E-07  0.3100898E+04  0.7818609E-02  0.8215492E-01
        1   -1    0    0  501    0  0.00000000000E+00  0.00000000000E+00  0.16682978907E+04  0.16682978907E+04  0.50400001928E-02 0. -1.
       -1   -1    0    0    0  501  0.00000000000E+00  0.00000000000E+00 -0.14409247728E+04  0.14409247728E+04  0.50400001928E-02 0.  1.
    10030    2    1    2    0    0  0.00000000000E+00  0.00000000000E+00  0.22737311792E+03  0.31092226635E+04  0.31008977791E+04 0.  0.
        2    1    3    3  502    0  0.62833424730E+03  0.13650565823E+04 -0.26905587087E+03  0.15266219115E+04  0.25500000920E-02 0. -1.
       -2    1    3    3    0  502 -0.62833424730E+03 -0.13650565823E+04  0.49642898879E+03  0.15826007519E+04  0.25500000920E-02 0.  1.
</event>
<event>
 5   0  0.7561815E-07  0.3097509E+04  0.7818609E-02  0.8216422E-01
       -1   -1    0    0    0  501  0.00000000000E+00  0.00000000000E+00  0.14528919347E+04  0.14528919348E+04  0.50400001928E-02 0. -1.
        1   -1    0    0  501    0  0.00000000000E+00  0.00000000000E+00 -0.16509416678E+04  0.16509416678E+04  0.50400001928E-02 0.  1.
    10030    2    1    2    0    0  0.00000000000E+00  0.00000000000E+00 -0.19804973309E+03  0.31038336026E+04  0.30975085691E+04 0.  0.
        3    1    3    3  502    0 -0.14220936157E+04 -0.21103144297E+03 -0.67618303994E+03  0.15887441693E+04  0.10100000352E+00 0.  1.
       -3    1    3    3    0  502  0.14220936157E+04  0.21103144297E+03  0.47813330685E+03  0.15150894333E+04  0.10100000352E+00 0. -1.
</event>
<event>
 5   0  0.2226334E-06  0.3101929E+04  0.7818609E-02  0.8215209E-01
        2   -1    0    0  501    0  0.00000000000E+00  0.00000000000E+00  0.14825384007E+04  0.14825384007E+04  0.25500000920E-02 0. -1.
       -2   -1    0    0    0  501  0.00000000000E+00  0.00000000000E+00 -0.16225483037E+04  0.16225483037E+04  0.25500000920E-02 0.  1.
    10030    2    1    2    0    0  0.00000000000E+00  0.00000000000E+00 -0.14000990301E+03  0.31050867044E+04  0.31019285403E+04 0.  0.
        5    1    3    3  502    0  0.10114652782E+04 -0.69301496034E+03  0.88077065335E+03  0.15096724076E+04  0.46999998093E+01 0. -1.
       -5    1    3    3    0  502 -0.10114652782E+04  0.69301496034E+03 -0.10207805564E+04  0.15954142968E+04  0.46999998093E+01 0.  1.
</event>
<event>
 5   0  0.7656332E-07  0.3103698E+04  0.7818609E-02  0.8214724E-01
       -1   -1    0    0    0  501  0.00000000000E+00  0.00000000000E+00  0.11234947296E+04  0.11234947296E+04  0.50400001928E-02 0.  1.
        1   -1    0    0  501    0  0.00000000000E+00  0.00000000000E+00 -0.21435217255E+04  0.21435217255E+04  0.50400001928E-02 0. -1.
    10030    2    1    2    0    0  0.00000000000E+00  0.00000000000E+00 -0.10200269959E+04  0.32670164552E+04  0.31036980275E+04 0.  0.
        2    1    3    3  502    0 -0.66627911801E+02  0.13905121920E+04  0.21183555107E+03  0.14081327123E+04  0.25500000920E-02 0.  1.
       -2    1    3    3    0  502  0.66627911801E+02 -0.13905121920E+04 -0.12318625469E+04  0.18588837428E+04  0.25500000920E-02 0. -1.
</event>
<event>
 5   0  0.7413481E-07  0.3100248E+04  0.7818609E-02  0.8215670E-01
       -1   -1    0    0    0  501  0.00000000000E+00  0.00000000000E+00  0.10749247437E+04  0.10749247437E+04  0.50400001928E-02 0.  1.
        1   -1    0    0  501    0  0.00000000000E+00  0.00000000000E+00 -0.22353984967E+04  0.22353984967E+04  0.50400001928E-02 0. -1.
    10030    2    1    2    0    0  0.00000000000E+00  0.00000000000E+00 -0.11604737530E+04  0.33103232404E+04  0.31002484778E+04 0.  0.
        5    1    3    3  502    0 -0.15040430088E+04 -0.29485796339E+03 -0.33262580111E+03  0.15683585701E+04  0.46999998093E+01 0.  1.
       -5    1    3    3    0  502  0.15040430088E+04  0.29485796339E+03 -0.82784795191E+03  0.17419646703E+04  0.46999998093E+01 0. -1.
</event>
<event>
 5   0  0.7413481E-07  0.3322659E+04  0.7818609E-02  0.8157154E-01
        1   -1    0    0  501    0  0.00000000000E+00  0.00000000000E+00  0.18305389951E+04  0.18305389951E+04  0.50400001928E-02 0. -1.
       -1   -1    0    0    0  501  0.00000000000E+00  0.00000000000E+00 -0.15077608316E+04  0.15077608316E+04  0.50400001928E-02 0.  1.
    10030    2    1    2    0    0  0.00000000000E+00  0.00000000000E+00  0.32277816355E+03  0.33382998268E+04  0.33226585727E+04 0.  0.
        5    1    3    3  502    0 -0.96103857302E+03 -0.68861822410E+03  0.13340177115E+04  0.17825306566E+04  0.46999998093E+01 0. -1.
       -5    1    3    3    0  502  0.96103857302E+03  0.68861822410E+03 -0.10112395479E+04  0.15557691701E+04  0.46999998093E+01 0.  1.
</event>
<event>
 5   0  0.2133385E-06  0.3093979E+04  0.7818609E-02  0.8217392E-01
        2   -1    0    0  501    0  0.00000000000E+00  0.00000000000E+00  0.18588815149E+04  0.18588815149E+04  0.25500000920E-02 0.  1.
       -2   -1    0    0    0  501  0.00000000000E+00  0.00000000000E+00 -0.12874278015E+04  0.12874278015E+04  0.25500000920E-02 0. -1.
    10030    2    1    2    0    0  0.00000000000E+00  0.00000000000E+00  0.57145371338E+03  0.31463093165E+04  0.30939785016E+04 0.  0.
        2    1    3    3  502    0 -0.12432381816E+04  0.10465463554E+03 -0.64439184265E+03  0.14042202875E+04  0.25500000920E-02 0. -1.
       -2    1    3    3    0  502  0.12432381816E+04 -0.10465463554E+03  0.12158455560E+04  0.17420890290E+04  0.25500000920E-02 0.  1.
</event>
<event>
 5   0  0.2133385E-06  0.3095879E+04  0.7818609E-02  0.8216870E-01
        2   -1    0    0  501    0  0.00000000000E+00  0.00000000000E+00  0.13300078936E+04  0.13300078936E+04  0.25500000920E-02 0.  1.
       -2   -1    0    0    0  501  0.00000000000E+00  0.00000000000E+00 -0.18015809142E+04  0.18015809142E+04  0.25500000920E-02 0. -1.
    10030    2    1    2    0    0  0.00000000000E+00  0.00000000000E+00 -0.47157302063E+03  0.31315888077E+04  0.30958790911E+04 0.  0.
        2    1    3    3  502    0  0.41630688130E+02  0.73697584242E+03  0.11405141418E+04  0.13585429747E+04  0.25500000920E-02 0.  1.
       -2    1    3    3    0  502 -0.41630688130E+02 -0.73697584242E+03 -0.16120871625E+04  0.17730458330E+04  0.25500000920E-02 0. -1.
</event>
<event>
 5   0  0.2078009E-06  0.3091368E+04  0.7818609E-02  0.8218111E-01
        2   -1    0    0  501    0  0.00000000000E+00  0.00000000000E+00  0.17400103709E+04  0.17400103709E+04  0.25500000920E-02 0.  1.
       -2   -1    0    0    0  501  0.00000000000E+00  0.00000000000E+00 -0.13730602157E+04  0.13730602157E+04  0.25500000920E-02 0. -1.
    10030    2    1    2    0    0  0.00000000000E+00  0.00000000000E+00  0.36695015515E+03  0.31130705866E+04  0.30913679918E+04 0.  0.
        3    1    3    3  502    0  0.39404129162E+03 -0.90276806392E+03 -0.10160549937E+04  0.14151418576E+04  0.10100000352E+00 0. -1.
       -3    1    3    3    0  502 -0.39404129162E+03  0.90276806392E+03  0.13830051488E+04  0.16979287290E+04  0.10100000352E+00 0.  1.
</event>
<event>
 5   0  0.2094135E-06  0.3058930E+04  0.7818609E-02  0.8227100E-01
       -2   -1    0    0    0  501  0.00000000000E+00  0.00000000000E+00  0.12806199871E+04  0.12806199871E+04  0.25500000920E-02 0. -1.
        2   -1    0    0  501    0  0.00000000000E+00  0.00000000000E+00 -0.18266646902E+04  0.18266646902E+04  0.25500000920E-02 0.  1.
    10030    2    1    2    0    0  0.00000000000E+00  0.00000000000E+00 -0.54604470315E+03  0.31072846773E+04  0.30589300822E+04 0.  0.
        4    1    3    3  502    0  0.48767701512E+03  0.46224950675E+03  0.11226538661E+04  0.13083794532E+04  0.12699999809E+01 0. -1.
       -4    1    3    3    0  502 -0.48767701512E+03 -0.46224950675E+03 -0.16686985692E+04  0.17989052241E+04  0.12699999809E+01 0.  1.
</event>
<event>
 5   0  0.7726743E-07  0.3131784E+04  0.7818609E-02  0.8207069E-01
       -1   -1    0    0    0  501  0.00000000000E+00  0.00000000000E+00  0.16525389081E+04  0.16525389081E+04  0.50400001928E-02 0. -1.
        1   -1    0    0  501    0  0.00000000000E+00  0.00000000000E+00 -0.14837884860E+04  0.14837884860E+04  0.50400001928E-02 0.  1.
    10030    2    1    2    0    0  0.00000000000E+00  0.00000000000E+00  0.16875042212E+03  0.31363273940E+04  0.31317842866E+04 0.  0.
        1    1    3    3  502    0 -0.49433168732E+03  0.87680879481E+03 -0.11168900823E+04  0.15035294928E+04  0.50400001928E-02 0.  1.
       -1    1    3    3    0  502  0.49433168732E+03 -0.87680879481E+03  0.12856405044E+04  0.16327979013E+04  0.50400001928E-02 0. -1.
</event>
<event>
 5   0  0.2094135E-06  0.3100429E+04  0.7818609E-02  0.8215620E-01
        2   -1    0    0  501    0  0.00000000000E+00  0.00000000000E+00  0.27679456742E+04  0.27679456742E+04  0.25500000920E-02 0.  1.
       -2   -1    0    0    0  501  0.00000000000E+00  0.00000000000E+00 -0.86821220789E+03  0.86821220789E+03  0.25500000920E-02 0. -1.
    10030    2    1    2    0    0  0.00000000000E+00  0.00000000000E+00  0.18997334663E+04  0.36361578821E+04  0.31004285027E+04 0.  0.
        4    1    3    3  502    0 -0.96701792856E+03  0.56472335967E+03  0.22070683320E+04  0.24749117928E+04  0.12699999809E+01 0. -1.
       -4    1    3    3    0  502  0.96701792856E+03 -0.56472335967E+03 -0.30733486577E+03  0.11612460892E+04  0.12699999809E+01 0.  1.
</event>
<event>
 5   0  0.7519202E-07  0.3099701E+04  0.7818609E-02  0.8215820E-01
        1   -1    0    0  501    0  0.00000000000E+00  0.00000000000E+00  0.14101125527E+04  0.14101125527E+04  0.50400001928E-02 0. -1.
       -1   -1    0    0    0  501  0.00000000000E+00  0.00000000000E+00 -0.17034365297E+04  0.17034365297E+04  0.50400001928E-02 0.  1.
    10030    2    1    2    0    0  0.00000000000E+00  0.00000000000E+00 -0.29332397708E+03  0.31135490824E+04  0.30997014264E+04 0.  0.
        4    1    3    3  502    0  0.46200750355E+03 -0.12323493646E+04 -0.96879247820E+03  0.16342265352E+04  0.12699999809E+01 0.  1.
       -4    1    3    3    0  502 -0.46200750355E+03  0.12323493646E+04  0.67546850112E+03  0.14793225472E+04  0.12699999809E+01 0. -1.
</event>
<event>
 5   0  0.2067926E-06  0.3035434E+04  0.7818609E-02  0.8233684E-01
       -2   -1    0    0    0  501  0.00000000000E+00  0.00000000000E+00  0.13507743297E+04  0.13507743297E+04  0.25500000920E-02 0. -1.
        2   -1    0    0  501    0  0.00000000000E+00  0.00000000000E+00 -0.17052918198E+04  0.17052918198E+04  0.25500000920E-02 0.  1.
    10030    2    1    2    0    0  0.00000000000E+00  0.00000000000E+00 -0.35451749011E+03  0.30560661494E+04  0.30354336855E+04 0.  0.
        1    1    3    3  502    0  0.11488470691E+04 -0.88500314387E+03 -0.62794447332E+03  0.15803146568E+04  0.50400001928E-02 0.  1.
       -1    1    3    3    0  502 -0.11488470691E+04  0.88500314387E+03  0.27342698322E+03  0.14757514926E+04  0.50400001928E-02 0. -1.
</event>
<event>
 5   0  0.7561815E-07  0.3105528E+04  0.7818609E-02  0.8214222E-01
        1   -1    0    0  501    0  0.00000000000E+00  0.00000000000E+00  0.24732185225E+04  0.24732185225E+04  0.50400001928E-02 0.  1.
       -1   -1    0    0    0  501  0.00000000000E+00  0.00000000000E+00 -0.97487382426E+03  0.97487382427E+03  0.50400001928E-02 0. -1.
    10030    2    1    2    0    0  0.00000000000E+00  0.00000000000E+00  0.14983446982E+04  0.34480923468E+04  0.31055279740E+04 0.  0.
        3    1    3    3  502    0  0.13229068027E+04  0.80796394157E+03  0.64870420680E+03  0.16803884365E+04  0.10100000352E+00 0.  1.
       -3    1    3    3    0  502 -0.13229068027E+04 -0.80796394157E+03  0.84964049143E+03  0.17677039102E+04  0.10100000352E+00 0. -1.
</event>
<event>
 5   0  0.2078009E-06  0.3080203E+04  0.7818609E-02  0.8221192E-01
       -2   -1    0    0    0  501  0.00000000000E+00  0.00000000000E+00  0.14235063757E+04  0.14235063757E+04  0.25500000920E-02 0. -1.
        2   -1    0    0  501    0  0.00000000000E+00  0.00000000000E+00 -0.16662462076E+04  0.16662462076E+04  0.25500000920E-02 0.  1.
    10030    2    1    2    0    0  0.00000000000E+00  0.00000000000E+00 -0.24273983188E+03  0.30897525833E+04  0.30802026557E+04 0.  0.
        3    1    3    3  502    0  0.13732384673E+04 -0.47965630795E+03  0.38622073131E+03  0.15049985134E+04  0.10100000352E+00 0. -1.
       -3    1    3    3    0  502 -0.13732384673E+04  0.47965630795E+03 -0.62896056318E+03  0.15847540699E+04  0.10100000352E+00 0.  1.
</event>
<event>
 5   0  0.7413481E-07  0.3100937E+04  0.7818609E-02  0.8215481E-01
       -1   -1    0    0    0  501  0.00000000000E+00  0.00000000000E+00  0.14603206779E+04  0.14603206779E+04  0.50400001928E-02 0.  1.
        1   -1    0    0  501    0  0.00000000000E+00  0.00000000000E+00 -0.16461808275E+04  0.16461808275E+04  0.50400001928E-02 0. -1.
    10030    2    1    2    0    0  0.00000000000E+00  0.00000000000E+00 -0.18586014960E+03  0.31065015054E+04  0.31009365695E+04 0.  0.
        5    1    3    3  502    0 -0.99462066504E+03  0.11629003083E+04 -0.34302266911E+03  0.15682136449E+04  0.46999998093E+01 0. -1.
       -5    1    3    3    0  502  0.99462066504E+03 -0.11629003083E+04  0.15716251951E+03  0.15382878606E+04  0.46999998093E+01 0.  1.
</event>
<event>
 5   0  0.2067926E-06  0.3076934E+04  0.7818609E-02  0.8222097E-01
       -2   -1    0    0    0  501  0.00000000000E+00  0.00000000000E+00  0.14050363068E+04  0.14050363068E+04  0.25500000920E-02 0.  1.
        2   -1    0    0  501    0  0.00000000000E+00  0.00000000000E+00 -0.16845695082E+04  0.16845695082E+04  0.25500000920E-02 0. -1.
    10030    2    1    2    0    0  0.00000000000E+00  0.00000000000E+00 -0.27953320142E+03  0.30896058150E+04  0.30769343967E+04 0.  0.
        1    1    3    3  502    0  0.91393988198E+03  0.39895964460E+03 -0.13160971374E+04  0.16512318375E+04  0.50400001928E-02 0. -1.
       -1    1    3    3    0  502 -0.91393988198E+03 -0.39895964460E+03  0.10365639360E+04  0.14383739776E+04  0.50400001928E-02 0.  1.
</event>
<event>
 5   0  0.2078009E-06  0.3057723E+04  0.7818609E-02  0.8227437E-01
       -2   -1    0    0    0  501  0.00000000000E+00  0.00000000000E+00  0.88874803629E+03  0.88874803629E+03  0.25500000920E-02 0. -1.
        2   -1    0    0  501    0  0.00000000000E+00  0.00000000000E+00 -0.26300109090E+04  0.26300109090E+04  0.25500000920E-02 0.  1.
    10030    2    1    2    0    0  0.00000000000E+00  0.00000000000E+00 -0.17412628728E+04  0.35187589453E+04  0.30577227022E+04 0.  0.
        3    1    3    3  502    0 -0.10830575734E+04 -0.85633393644E+03 -0.11505541897E+03  0.13854816050E+04  0.10100000352E+00 0. -1.
       -3    1    3    3    0  502  0.10830575734E+04  0.85633393644E+03 -0.16262074538E+04  0.21332773404E+04  0.10100000352E+00 0.  1.
</event>
<event>
 5   0  0.6979625E-07  0.3109438E+04  0.7818609E-02  0.8213152E-01
        3   -1    0    0  501    0  0.00000000000E+00  0.00000000000E+00  0.15529302001E+04  0.15529302034E+04  0.10100000352E+00 0. -1.
       -3   -1    0    0    0  501  0.00000000000E+00  0.00000000000E+00 -0.15565101772E+04  0.15565101805E+04  0.10100000352E+00 0.  1.
    10030    2    1    2    0    0  0.00000000000E+00  0.00000000000E+00 -0.35799771732E+01  0.31094403839E+04  0.31094383230E+04 0.  0.
        2    1    3    3  502    0 -0.13562369591E+03 -0.10424439909E+04 -0.11472462947E+04  0.15560389847E+04  0.25500000920E-02 0.  1.
       -2    1    3    3    0  502  0.13562369591E+03  0.10424439909E+04  0.11436663176E+04  0.15534013992E+04  0.25500000920E-02 0. -1.
</event>
<event>
 5   0  0.7519202E-07  0.3119228E+04  0.7818609E-02  0.8210481E-01
       -1   -1    0    0    0  501  0.00000000000E+00  0.00000000000E+00  0.19873219015E+04  0.19873219015E+04  0.50400001928E-02 0. -1.
        1   -1    0    0  501    0  0.00000000000E+00  0.00000000000E+00 -0.12239564638E+04  0.12239564638E+04  0.50400001928E-02 0.  1.
    10030    2    1    2    0    0  0.00000000000E+00  0.00000000000E+00  0.76336543772E+03  0.32112783653E+04  0.31192277807E+04 0.  0.
        4    1    3    3  502    0 -0.62329054716E+03 -0.12632475983E+04  0.10708463401E+04  0.17694629405E+04  0.12699999809E+01 0.  1.
       -4    1    3    3    0  502  0.62329054716E+03  0.12632475983E+04 -0.30748090236E+03  0.14418154248E+04  0.12699999809E+01 0. -1.
</event>
<event>
 5   0  0.7656332E-07  0.3101666E+04  0.7818609E-02  0.8215281E-01
       -1   -1    0    0    0  501  0.00000000000E+00  0.00000000000E+00  0.19371517091E+04  0.19371517091E+04  0.50400001928E-02 0. -1.
        1   -1    0    0  501    0  0.00000000000E+00  0.00000000000E+00 -0.12415566525E+04  0.12415566525E+04  0.50400001928E-02 0.  1.
    10030    2    1    2    0    0  0.00000000000E+00  0.00000000000E+00  0.69559505661E+03  0.31787083617E+04  0.31016663853E+04 0.  0.
        2    1    3    3  502    0 -0.59493740395E+03 -0.68978792835E+03  0.16340931127E+04  0.18708335580E+04  0.25500000920E-02 0. -1.
       -2    1    3    3    0  502  0.59493740395E+03  0.68978792835E+03 -0.93849805611E+03  0.13078748037E+04  0.25500000920E-02 0.  1.
</event>
<event>
 5   0  0.2094135E-06  0.3084350E+04  0.7818609E-02  0.8220046E-01
        2   -1    0    0  501    0  0.00000000000E+00  0.00000000000E+00  0.23328456432E+04  0.23328456432E+04  0.25500000920E-02 0.  1.
       -2   -1    0    0    0  501  0.00000000000E+00  0.00000000000E+00 -0.10194862728E+04  0.10194862728E+04  0.25500000920E-02 0. -1.
    10030    2    1    2    0    0  0.00000000000E+00  0.00000000000E+00  0.13133593704E+04  0.33523319160E+04  0.30843502458E+04 0.  0.
        4    1    3    3  502    0 -0.26736301140E+02 -0.14531321297E+04  0.96122661136E+02  0.14565538078E+04  0.12699999809E+01 0. -1.
       -4    1    3    3    0  502  0.26736301140E+02  0.14531321297E+04  0.12172367093E+04  0.18957781082E+04  0.12699999809E+01 0.  1.
</event>
<event>
 5   0  0.2067926E-06  0.3085493E+04  0.7818609E-02  0.8219730E-01
        2   -1    0    0  501    0  0.00000000000E+00  0.00000000000E+00  0.17770715728E+04  0.17770715728E+04  0.25500000920E-02 0. -1.
       -2   -1    0    0    0  501  0.00000000000E+00  0.00000000000E+00 -0.13393197884E+04  0.13393197884E+04  0.25500000920E-02 0.  1.
    10030    2    1    2    0    0  0.00000000000E+00  0.00000000000E+00  0.43775178446E+03  0.31163913612E+04  0.30854932331E+04 0.  0.
        1    1    3    3  502    0 -0.11147608714E+04 -0.31940361589E+03 -0.80883836799E+03  0.14138352011E+04  0.50400001928E-02 0.  1.
       -1    1    3    3    0  502  0.11147608714E+04  0.31940361589E+03  0.12465901524E+04  0.17025561601E+04  0.50400001928E-02 0. -1.
</event>
<event>
 5   0  0.7726743E-07  0.3089229E+04  0.7818609E-02  0.8218700E-01
       -1   -1    0    0    0  501  0.00000000000E+00  0.00000000000E+00  0.12771053262E+04  0.12771053262E+04  0.50400001928E-02 0. -1.
        1   -1    0    0  501    0  0.00000000000E+00  0.00000000000E+00 -0.18681572745E+04  0.18681572745E+04  0.50400001928E-02 0.  1.
    10030    2    1    2    0    0  0.00000000000E+00  0.00000000000E+00 -0.59105194835E+03  0.31452626007E+04  0.30892287746E+04 0.  0.
        1    1    3    3  502    0  0.10362460832E+04 -0.95224082730E+03 -0.94367731641E+03  0.16944307055E+04  0.50400001928E-02 0. -1.
       -1    1    3    3    0  502 -0.10362460832E+04  0.95224082730E+03  0.35262536806E+03  0.14508318953E+04  0.50400001928E-02 0.  1.
</event>
<event>
 5   0  0.2226334E-06  0.3101377E+04  0.7818609E-02  0.8215360E-01
       -2   -1    0    0    0  501  0.00000000000E+00  0.00000000000E+00  0.10206596814E+04  0.10206596814E+04  0.25500000920E-02 0.  1.
        2   -1    0    0  501    0  0.00000000000E+00  0.00000000000E+00 -0.23559616313E+04  0.23559616313E+04  0.25500000920E-02 0. -1.
    10030    2    1    2    0    0  0.00000000000E+00  0.00000000000E+00 -0.13353019499E+04  0.33766213127E+04  0.31013771444E+04 0.  0.
        5    1    3    3  502    0 -0.73361507957E+03  0.13539648730E+04 -0.86603346125E+03  0.17667620124E+04  0.46999998093E+01 0. -1.
       -5    1    3    3    0  502  0.73361507957E+03 -0.13539648730E+04 -0.46926848869E+03  0.16098593003E+04  0.46999998093E+01 0.  1.
</event>
<event>
 5   0  0.7519202E-07  0.2958455E+04  0.7818609E-02  0.8255695E-01
        1   -1    0    0  501    0  0.00000000000E+00  0.00000000000E+00  0.22838801012E+04  0.22838801012E+04  0.50400001928E-02 0.  1.
       -1   -1    0    0    0  501  0.00000000000E+00  0.00000000000E+00 -0.95806850491E+03  0.95806850493E+03  0.50400001928E-02 0. -1.
    10030    2    1    2    0    0  0.00000000000E+00  0.00000000000E+00  0.13258115963E+04  0.32419486061E+04  0.29584547277E+04 0.  0.
        4    1    3    3  502    0 -0.13109692743E+04  0.68410103318E+03  0.70502482980E+03  0.16381990982E+04  0.12699999809E+01 0. -1.
       -4    1    3    3    0  502  0.13109692743E+04 -0.68410103318E+03  0.62078676647E+03  0.16037495079E+04  0.12699999809E+01 0.  1.
</event>
<event>
 5   0  0.7561815E-07  0.3108375E+04  0.7818609E-02  0.8213443E-01
       -1   -1    0    0    0  501  0.00000000000E+00  0.00000000000E+00  0.20096665275E+04  0.20096665275E+04  0.50400001928E-02 0.  1.
        1   -1    0    0  501    0  0.00000000000E+00  0.00000000000E+00 -0.12019399052E+04  0.12019399052E+04  0.50400001928E-02 0. -1.
    10030    2    1    2    0    0  0.00000000000E+00  0.00000000000E+00  0.80772662225E+03  0.32116064327E+04  0.31083747494E+04 0.  0.
        3    1    3    3  502    0  0.12475081316E+04  0.83561610303E+03  0.81839539349E+03  0.17100590166E+04  0.10100000352E+00 0. -1.
       -3    1    3    3    0  502 -0.12475081316E+04 -0.83561610303E+03 -0.10668771237E+02  0.15015474161E+04  0.10100000352E+00 0.  1.
</event>
<event>
 5   0  0.7656332E-07  0.3121499E+04  0.7818609E-02  0.8209862E-01
        1   -1    0    0  501    0  0.00000000000E+00  0.00000000000E+00  0.24101498539E+04  0.24101498539E+04  0.50400001928E-02 0.  1.
       -1   -1    0    0    0  501  0.00000000000E+00  0.00000000000E+00 -0.10106999254E+04  0.10106999254E+04  0.50400001928E-02 0. -1.
    10030    2    1    2    0    0  0.00000000000E+00  0.00000000000E+00  0.13994499285E+04  0.34208497793E+04  0.31214985360E+04 0.  0.
        2    1    3    3  502    0  0.15085923714E+04 -0.35568316124E+03  0.90053743070E+03  0.17925761123E+04  0.25500000920E-02 0.  1.
       -2    1    3    3    0  502 -0.15085923714E+04  0.35568316124E+03  0.49891249777E+03  0.16282736670E+04  0.25500000920E-02 0. -1.
</event>
<event>
 5   0  0.2094135E-06  0.3080291E+04  0.7818609E-02  0.8221168E-01
       -2   -1    0    0    0  501  0.00000000000E+00  0.00000000000E+00  0.15633539210E+04  0.15633539210E+04  0.25500000920E-02 0. -1.
        2   -1    0    0  501    0  0.00000000000E+00  0.00000000000E+00 -0.15172813966E+04  0.15172813966E+04  0.25500000920E-02 0.  1.
    10030    2    1    2    0    0  0.00000000000E+00  0.00000000000E+00  0.46072524373E+02  0.30806353175E+04  0.30802907788E+04 0.  0.
        4    1    3    3  502    0 -0.79579164379E+03 -0.34280855306E+03  0.12964595479E+04  0.15593623750E+04  0.12699999809E+01 0. -1.
       -4    1    3    3    0  502  0.79579164379E+03  0.34280855306E+03 -0.12503870235E+04  0.15212729426E+04  0.12699999809E+01 0.  1.
</event>
<event>
 5   0  0.7726743E-07  0.3101190E+04  0.7818609E-02  0.8215412E-01
       -1   -1    0    0    0  501  0.00000000000E+00  0.00000000000E+00  0.11221215995E+04  0.11221215995E+04  0.50400001928E-02 0.  1.
        1   -1    0    0  501    0  0.00000000000E+00  0.00000000000E+00 -0.21426769562E+04  0.21426769562E+04  0.50400001928E-02 0. -1.
    10030    2    1    2    0    0  0.00000000000E+00  0.00000000000E+00 -0.10205553568E+04  0.32647985557E+04  0.31011895094E+04 0.  0.
        1    1    3    3  502    0  0.46624603948E+02  0.54052267244E+03  0.10189419898E+04  0.11543748922E+04  0.50400001928E-02 0.  1.
       -1    1    3    3    0  502 -0.46624603948E+02 -0.54052267244E+03 -0.20394973465E+04  0.21104236636E+04  0.50400001928E-02 0. -1.
</event>
<event>
 5   0  0.7561815E-07  0.3036914E+04  0.7818609E-02  0.8233268E-01
        1   -1    0    0  501    0  0.00000000000E+00  0.00000000000E+00  0.10051301552E+04  0.10051301552E+04  0.50400001928E-02 0. -1.
       -1   -1    0    0    0  501  0.00000000000E+00  0.00000000000E+00 -0.22939440594E+04  0.22939440595E+04  0.50400001928E-02 0.  1.
    10030    2    1    2    0    0  0.00000000000E+00  0.00000000000E+00 -0.12888139043E+04  0.32990742146E+04  0.30369144529E+04 0.  0.
        3    1    3    3  502    0 -0.42914801265E+03 -0.42033301993E+03 -0.21593775303E+04  0.22413743982E+04  0.10100000352E+00 0.  1.
       -3    1    3    3    0  502  0.42914801265E+03  0.42033301993E+03  0.87056362606E+03  0.10576998164E+04  0.10100000352E+00 0. -1.
</event>
<event>
 5   0  0.2133385E-06  0.3081106E+04  0.7818609E-02  0.8220942E-01
        2   -1    0    0  501    0  0.00000000000E+00  0.00000000000E+00  0.25878361046E+04  0.25878361046E+04  0.25500000920E-02 0.  1.
       -2   -1    0    0    0  501  0.00000000000E+00  0.00000000000E+00 -0.91709968431E+03  0.91709968431E+03  0.25500000920E-02 0. -1.
    10030    2    1    2    0    0  0.00000000000E+00  0.00000000000E+00  0.16707364203E+04  0.35049357889E+04  0.30811060836E+04 0.  0.
        2    1    3    3  502    0  0.10551028460E+03  0.10141966895E+04  0.21490263273E+04  0.23786638057E+04  0.25500000920E-02 0.  1.
       -2    1    3    3    0  502 -0.10551028460E+03 -0.10141966895E+04 -0.47828990697E+03  0.11262719832E+04  0.25500000920E-02 0. -1.
</event>
<event>
 5   0  0.2094135E-06  0.3115355E+04  0.7818609E-02  0.8211536E-01
       -2   -1    0    0    0  501  0.00000000000E+00  0.00000000000E+00  0.10882488757E+04  0.10882488757E+04  0.25500000920E-02 0. -1.
        2   -1    0    0  501    0  0.00000000000E+00  0.00000000000E+00 -0.22295995119E+04  0.22295995119E+04  0.25500000920E-02 0.  1.
    10030    2    1    2    0    0  0.00000000000E+00  0.00000000000E+00 -0.11413506362E+04  0.33178483876E+04  0.31153549795E+04 0.  0.
        4    1    3    3  502    0  0.44337063106E+03 -0.12734583655E+04  0.25980763520E+03  0.13732353568E+04  0.12699999809E+01 0. -1.
       -4    1    3    3    0  502 -0.44337063106E+03  0.12734583655E+04 -0.14011582714E+04  0.19446130308E+04  0.12699999809E+01 0.  1.
</event>
<event>
 5   0  0.7413481E-07  0.3077706E+04  0.7818609E-02  0.8221883E-01
        1   -1    0    0  501    0  0.00000000000E+00  0.00000000000E+00  0.18345381686E+04  0.18345381687E+04  0.50400001928E-02 0.  1.
       -1   -1    0    0    0  501  0.00000000000E+00  0.00000000000E+00 -0.12908252119E+04  0.12908252119E+04  0.50400001928E-02 0. -1.
    10030    2    1    2    0    0  0.00000000000E+00  0.00000000000E+00  0.54371295674E+03  0.31253633806E+04  0.30777057171E+04 0.  0.
        5    1    3    3  502    0 -0.46414452753E+03  0.66787704780E+03  0.15984373093E+04  0.17934641940E+04  0.46999998093E+01 0.  1.
       -5    1    3    3    0  502  0.46414452753E+03 -0.66787704780E+03 -0.10547243525E+04  0.13318991866E+04  0.46999998093E+01 0. -1.
</event>
<event>
 5   0  0.2094135E-06  0.3101717E+04  0.7818609E-02  0.8215267E-01
        2   -1    0    0  501    0  0.00000000000E+00  0.00000000000E+00  0.96823542563E+03  0.96823542564E+03  0.25500000920E-02 0. -1.
       -2   -1    0    0    0  501  0.00000000000E+00  0.00000000000E+00 -0.24840675566E+04  0.24840675566E+04  0.25500000920E-02 0.  1.
    10030    2    1    2    0    0  0.00000000000E+00  0.00000000000E+00 -0.15158321310E+04  0.34523029823E+04  0.31017170780E+04 0.  0.
        4    1    3    3  502    0  0.86310588509E+02  0.13562256580E+04  0.73780780365E+02  0.13609712597E+04  0.12699999809E+01 0. -1.
       -4    1    3    3    0  502 -0.86310588509E+02 -0.13562256580E+04 -0.15896129114E+04  0.20913317226E+04  0.12699999809E+01 0.  1.
</event>
<event>
 5   0  0.7656332E-07  0.3110625E+04  0.7818609E-02  0.8212828E-01
        1   -1    0    0  501    0  0.00000000000E+00  0.00000000000E+00  0.20552618225E+04  0.20552618225E+04  0.50400001928E-02 0.  1.
       -1   -1    0    0    0  501  0.00000000000E+00  0.00000000000E+00 -0.11769775967E+04  0.11769775967E+04  0.50400001928E-02 0. -1.
    10030    2    1    2    0    0  0.00000000000E+00  0.00000000000E+00  0.87828422579E+03  0.32322394191E+04  0.31106250950E+04 0.  0.
        2    1    3    3  502    0  0.77177823420E+03  0.13059557800E+04  0.79583378030E+03  0.17130421910E+04  0.25500000920E-02 0.  1.
       -2    1    3    3    0  502 -0.77177823420E+03 -0.13059557800E+04  0.82450445487E+02  0.15191972282E+04  0.25500000920E-02 0. -1.
</event>
<event>
 5   0  0.2226334E-06  0.2728029E+04  0.7818609E-02  0.8325967E-01
        2   -1    0    0  501    0  0.00000000000E+00  0.00000000000E+00  0.19564623194E+04  0.19564623194E+04  0.25500000920E-02 0.  1.
       -2   -1    0    0    0  501  0.00000000000E+00  0.00000000000E+00 -0.95096953815E+03  0.95096953815E+03  0.25500000920E-02 0. -1.
    10030    2    1    2    0    0  0.00000000000E+00  0.00000000000E+00  0.10054927812E+04  0.29074318575E+04  0.27280293754E+04 0.  0.
        5    1    3    3  502    0  0.43376114137E+03  0.25296371713E+03 -0.84887204392E+03  0.98627846316E+03  0.46999998093E+01 0. -1.
       -5    1    3    3    0  502 -0.43376114137E+03 -0.25296371713E+03  0.18543648251E+04  0.19211533943E+04  0.46999998093E+01 0.  1.
</event>
<event>
 5   0  0.7519202E-07  0.3087744E+04  0.7818609E-02  0.8219109E-01
        1   -1    0    0  501    0  0.00000000000E+00  0.00000000000E+00  0.19448769232E+04  0.19448769232E+04  0.50400001928E-02 0. -1.
       -1   -1    0    0    0  501  0.00000000000E+00  0.00000000000E+00 -0.12255486784E+04  0.12255486784E+04  0.50400001928E-02 0.  1.
    10030    2    1    2    0    0  0.00000000000E+00  0.00000000000E+00  0.71932824482E+03  0.31704256016E+04  0.30877443825E+04 0.  0.
        4    1    3    3  502    0 -0.14702284490E+04 -0.35419181565E+03  0.40674669861E+02  0.15128382518E+04  0.12699999809E+01 0.  1.
       -4    1    3    3    0  502  0.14702284490E+04  0.35419181565E+03  0.67865357496E+03  0.16575873498E+04  0.12699999809E+01 0. -1.
</event>
<event>
 5   0  0.2078009E-06  0.3022978E+04  0.7818609E-02  0.8237200E-01
        2   -1    0    0  501    0  0.00000000000E+00  0.00000000000E+00  0.22043686872E+04  0.22043686872E+04  0.25500000920E-02 0.  1.
       -2   -1    0    0    0  501  0.00000000000E+00  0.00000000000E+00 -0.10363957975E+04  0.10363957975E+04  0.25500000920E-02 0. -1.
    10030    2    1    2    0    0  0.00000000000E+00  0.00000000000E+00  0.11679728897E+04  0.32407644847E+04  0.30229776338E+04 0.  0.
        3    1    3    3  502    0 -0.84938153323E+03  0.28710228409E+03  0.18885019960E+04  0.20905301982E+04  0.10100000352E+00 0.  1.
       -3    1    3    3    0  502  0.84938153323E+03 -0.28710228409E+03 -0.72052910633E+03  0.11502342865E+04  0.10100000352E+00 0. -1.
</event>
<event>
 5   0  0.6979625E-07  0.3105905E+04  0.7818609E-02  0.8214119E-01
       -4   -1    0    0    0  501  0.00000000000E+00  0.00000000000E+00  0.12582827072E+04  0.12582833481E+04  0.12699999809E+01 0.  1.
        4   -1    0    0  501    0  0.00000000000E+00  0.00000000000E+00 -0.19166275662E+04  0.19166279869E+04  0.12699999809E+01 0. -1.
    10030    2    1    2    0    0  0.00000000000E+00  0.00000000000E+00 -0.65834485897E+03  0.31749113350E+04  0.31059047043E+04 0.  0.
        4    1    3    3  502    0 -0.94543876989E+03  0.11482713302E+04  0.12715126683E+03  0.14928330693E+04  0.12699999809E+01 0.  1.
       -4    1    3    3    0  502  0.94543876989E+03 -0.11482713302E+04 -0.78549612581E+03  0.16820782657E+04  0.12699999809E+01 0. -1.
</event>
<event>
 5   0  0.2133385E-06  0.3097883E+04  0.7818609E-02  0.8216319E-01
       -2   -1    0    0    0  501  0.00000000000E+00  0.00000000000E+00  0.20444810962E+04  0.20444810962E+04  0.25500000920E-02 0. -1.
        2   -1    0    0  501    0  0.00000000000E+00  0.00000000000E+00 -0.11735100887E+04  0.11735100887E+04  0.25500000920E-02 0.  1.
    10030    2    1    2    0    0  0.00000000000E+00  0.00000000000E+00  0.87097100755E+03  0.32179911849E+04  0.30978826269E+04 0.  0.
        2    1    3    3  502    0 -0.14843814808E+04  0.32706713257E+03  0.12583775972E+03  0.15251873431E+04  0.25500000920E-02 0. -1.
       -2    1    3    3    0  502  0.14843814808E+04 -0.32706713257E+03  0.74513324783E+03  0.16928038418E+04  0.25500000920E-02 0.  1.
</event>
<event>
 5   0  0.6979625E-07  0.3096079E+04  0.7818609E-02  0.8216815E-01
        3   -1    0    0  501    0  0.00000000000E+00  0.00000000000E+00  0.26609219774E+04  0.26609219794E+04  0.10100000352E+00 0.  1.
       -3   -1    0    0    0  501  0.00000000000E+00  0.00000000000E+00 -0.90059984633E+03  0.90059985199E+03  0.10100000352E+00 0. -1.
    10030    2    1    2    0    0  0.00000000000E+00  0.00000000000E+00  0.17603221311E+04  0.35615218313E+04  0.30960787700E+04 0.  0.
        3    1    3    3  502    0 -0.22289206207E+03 -0.78435450073E+01  0.26423435188E+04  0.26517393677E+04  0.10100000352E+00 0.  1.
       -3    1    3    3    0  502  0.22289206207E+03  0.78435450073E+01 -0.88202138773E+03  0.90978246363E+03  0.10100000352E+00 0. -1.
</event>
<event>
 5   0  0.2094135E-06  0.3088022E+04  0.7818609E-02  0.8219033E-01
       -2   -1    0    0    0  501  0.00000000000E+00  0.00000000000E+00  0.14267382027E+04  0.14267382027E+04  0.25500000920E-02 0. -1.
        2   -1    0    0  501    0  0.00000000000E+00  0.00000000000E+00 -0.16709234819E+04  0.16709234819E+04  0.25500000920E-02 0.  1.
    10030    2    1    2    0    0  0.00000000000E+00  0.00000000000E+00 -0.24418527920E+03  0.30976616847E+04  0.30880222574E+04 0.  0.
        4    1    3    3  502    0 -0.58160709189E+03 -0.14296912395E+04 -0.80916939477E+02  0.15455850070E+04  0.12699999809E+01 0.  1.
       -4    1    3    3    0  502  0.58160709189E+03  0.14296912395E+04 -0.16326833972E+03  0.15520766777E+04  0.12699999809E+01 0. -1.
</event>
<event>
 5   0  0.2226334E-06  0.3188097E+04  0.7818609E-02  0.8191968E-01
       -2   -1    0    0    0  501  0.00000000000E+00  0.00000000000E+00  0.12154825534E+04  0.12154825534E+04  0.25500000920E-02 0.  1.
        2   -1    0    0  501    0  0.00000000000E+00  0.00000000000E+00 -0.20905204089E+04  0.20905204089E+04  0.25500000920E-02 0. -1.
    10030    2    1    2    0    0  0.00000000000E+00  0.00000000000E+00 -0.87503785553E+03  0.33060029623E+04  0.31880972912E+04 0.  0.
        5    1    3    3  502    0  0.35151518489E+03  0.34872051143E+03  0.11337072453E+04  0.12371269654E+04  0.46999998093E+01 0.  1.
       -5    1    3    3    0  502 -0.35151518489E+03 -0.34872051143E+03 -0.20087451009E+04  0.20688759969E+04  0.46999998093E+01 0. -1.
</event>
<event>
 5   0  0.7519202E-07  0.3113058E+04  0.7818609E-02  0.8212163E-01
       -1   -1    0    0    0  501  0.00000000000E+00  0.00000000000E+00  0.11528856708E+04  0.11528856708E+04  0.50400001928E-02 0.  1.
        1   -1    0    0  501    0  0.00000000000E+00  0.00000000000E+00 -0.21014941380E+04  0.21014941380E+04  0.50400001928E-02 0. -1.
    10030    2    1    2    0    0  0.00000000000E+00  0.00000000000E+00 -0.94860846725E+03  0.32543798088E+04  0.31130579686E+04 0.  0.
        4    1    3    3  502    0  0.14166252510E+04  0.64486352131E+03 -0.46360216226E+03  0.16240703928E+04  0.12699999809E+01 0. -1.
       -4    1    3    3    0  502 -0.14166252510E+04 -0.64486352131E+03 -0.48500630498E+03  0.16303094160E+04  0.12699999809E+01 0.  1.
</event>
<event>
 5   0  0.7656332E-07  0.3131456E+04  0.7818609E-02  0.8207158E-01
       -1   -1    0    0    0  501  0.00000000000E+00  0.00000000000E+00  0.86408044711E+03  0.86408044712E+03  0.50400001928E-02 0.  1.
        1   -1    0    0  501    0  0.00000000000E+00  0.00000000000E+00 -0.28371256592E+04  0.28371256592E+04  0.50400001928E-02 0. -1.
    10030    2    1    2    0    0  0.00000000000E+00  0.00000000000E+00 -0.19730452121E+04  0.37012061063E+04  0.31314564076E+04 0.  0.
        2    1    3    3  502    0  0.98515208224E+03  0.12154806909E+04 -0.10573098343E+04  0.18883384286E+04  0.25500000920E-02 0.  1.
       -2    1    3    3    0  502 -0.98515208224E+03 -0.12154806909E+04 -0.91573537772E+03  0.18128676777E+04  0.25500000920E-02 0. -1.
</event>
<event>
 5   0  0.2226334E-06  0.3080991E+04  0.7818609E-02  0.8220974E-01
       -2   -1    0    0    0  501  0.00000000000E+00  0.00000000000E+00  0.10746944359E+04  0.10746944359E+04  0.25500000920E-02 0. -1.
        2   -1    0    0  501    0  0.00000000000E+00  0.00000000000E+00 -0.22081876717E+04  0.22081876717E+04  0.25500000920E-02 0.  1.
    10030    2    1    2    0    0  0.00000000000E+00  0.00000000000E+00 -0.11334932358E+04  0.32828821076E+04  0.30809914016E+04 0.  0.
        5    1    3    3  502    0 -0.14409658788E+04  0.36798867051E+03 -0.13879876295E+03  0.14936818645E+04  0.46999998093E+01 0.  1.
       -5    1    3    3    0  502  0.14409658788E+04 -0.36798867051E+03 -0.99469447287E+03  0.17892002431E+04  0.46999998093E+01 0. -1.
</event>
<event>
 5   0  0.7561815E-07  0.3116615E+04  0.7818609E-02  0.8211193E-01
        1   -1    0    0  501    0  0.00000000000E+00  0.00000000000E+00  0.18401960073E+04  0.18401960073E+04  0.50400001928E-02 0.  1.
       -1   -1    0    0    0  501  0.00000000000E+00  0.00000000000E+00 -0.13195996520E+04  0.13195996520E+04  0.50400001928E-02 0. -1.
    10030    2    1    2    0    0  0.00000000000E+00  0.00000000000E+00  0.52059635531E+03  0.31597956593E+04  0.31166148372E+04 0.  0.
        3    1    3    3  502    0  0.99085258232E+03 -0.43384677429E+03  0.13975842273E+04  0.17672729122E+04  0.10100000352E+00 0.  1.
       -3    1    3    3    0  502 -0.99085258232E+03  0.43384677429E+03 -0.87698787199E+03  0.13925227471E+04  0.10100000352E+00 0. -1.
</event>
<event>
 5   0  0.2067926E-06  0.3102894E+04  0.7818609E-02  0.8214944E-01
       -2   -1    0    0    0  501  0.00000000000E+00  0.00000000000E+00  0.12320821404E+04  0.12320821404E+04  0.25500000920E-02 0.  1.
        2   -1    0    0  501    0  0.00000000000E+00  0.00000000000E+00 -0.19535931480E+04  0.19535931480E+04  0.25500000920E-02 0. -1.
    10030    2    1    2    0    0  0.00000000000E+00  0.00000000000E+00 -0.72151100763E+03  0.31856752884E+04  0.31028936348E+04 0.  0.
        1    1    3    3  502    0  0.35476970130E+03  0.79461176935E+01  0.11898567616E+04  0.12416455996E+04  0.50400001928E-02 0.  1.
       -1    1    3    3    0  502 -0.35476970130E+03 -0.79461176935E+01 -0.19113677693E+04  0.19440296888E+04  0.50400001928E-02 0. -1.
</event>
<event>
 5   0  0.7726743E-07  0.3194105E+04  0.7818609E-02  0.8190376E-01
        1   -1    0    0  501    0  0.00000000000E+00  0.00000000000E+00  0.20671234893E+04  0.20671234893E+04  0.50400001928E-02 0. -1.
       -1   -1    0    0    0  501  0.00000000000E+00  0.00000000000E+00 -0.12338774294E+04  0.12338774294E+04  0.50400001928E-02 0.  1.
    10030    2    1    2    0    0  0.00000000000E+00  0.00000000000E+00  0.83324605994E+03  0.33010009187E+04  0.31941052063E+04 0.  0.
        1    1    3    3  502    0  0.14934019057E+04 -0.49936661050E+03  0.14132345674E+03  0.15810087233E+04  0.50400001928E-02 0.  1.
       -1    1    3    3    0  502 -0.14934019057E+04  0.49936661050E+03  0.69192260320E+03  0.17199921955E+04  0.50400001928E-02 0. -1.
</event>
<event>
 5   0  0.2067926E-06  0.3113579E+04  0.7818609E-02  0.8212021E-01
       -2   -1    0    0    0  501  0.00000000000E+00  0.00000000000E+00  0.13965134887E+04  0.13965134887E+04  0.25500000920E-02 0. -1.
        2   -1    0    0  501    0  0.00000000000E+00  0.00000000000E+00 -0.17354597495E+04  0.17354597495E+04  0.25500000920E-02 0.  1.
    10030    2    1    2    0    0  0.00000000000E+00  0.00000000000E+00 -0.33894626080E+03  0.31319732382E+04  0.31135786158E+04 0.  0.
        1    1    3    3  502    0 -0.12081625372E+04  0.92406671710E+03  0.16420477422E+03  0.15298755576E+04  0.50400001928E-02 0. -1.
       -1    1    3    3    0  502  0.12081625372E+04 -0.92406671710E+03 -0.50315103502E+03  0.16020976805E+04  0.50400001928E-02 0.  1.
</event>
<event>
 5   0  0.2067926E-06  0.3090741E+04  0.7818609E-02  0.8218284E-01
        2   -1    0    0  501    0  0.00000000000E+00  0.00000000000E+00  0.12880297459E+04  0.12880297459E+04  0.25500000920E-02 0. -1.
       -2   -1    0    0    0  501  0.00000000000E+00  0.00000000000E+00 -0.18541266041E+04  0.18541266041E+04  0.25500000920E-02 0.  1.
    10030    2    1    2    0    0  0.00000000000E+00  0.00000000000E+00 -0.56609685819E+03  0.31421563500E+04  0.30907411530E+04 0.  0.
        1    1    3    3  502    0 -0.13871771247E+04 -0.32936292175E+03 -0.88914543941E+03  0.16802737640E+04  0.50400001928E-02 0.  1.
       -1    1    3    3    0  502  0.13871771247E+04  0.32936292175E+03  0.32304858122E+03  0.14618825860E+04  0.50400001928E-02 0. -1.
</event>
<event>
 5   0  0.2226334E-06  0.3235915E+04  0.7818609E-02  0.8179396E-01
        2   -1    0    0  501    0  0.00000000000E+00  0.00000000000E+00  0.28137478965E+04  0.28137478965E+04  0.25500000920E-02 0.  1.
       -2   -1    0    0    0  501  0.00000000000E+00  0.00000000000E+00 -0.93035588579E+03  0.93035588579E+03  0.25500000920E-02 0. -1.
    10030    2    1    2    0    0  0.00000000000E+00  0.00000000000E+00  0.18833920107E+04  0.37441037823E+04  0.32359152750E+04 0.  0.
        5    1    3    3  502    0 -0.50909612359E+03  0.76807394175E+02  0.27164279831E+04  0.27647931778E+04  0.46999998093E+01 0.  1.
       -5    1    3    3    0  502  0.50909612359E+03 -0.76807394175E+02 -0.83303597235E+03  0.97931060450E+03  0.46999998093E+01 0. -1.
</event>
<event>
 5   0  0.2078009E-06  0.3070547E+04  0.7818609E-02  0.8223868E-01
       -2   -1    0    0    0  501  0.00000000000E+00  0.00000000000E+00  0.13996710120E+04  0.13996710120E+04  0.25500000920E-02 0.  1.
        2   -1    0    0  501    0  0.00000000000E+00  0.00000000000E+00 -0.16840132242E+04  0.16840132242E+04  0.25500000920E-02 0. -1.
    10030    2    1    2    0    0  0.00000000000E+00  0.00000000000E+00 -0.28434221220E+03  0.30836842362E+04  0.30705468527E+04 0.  0.
        3    1    3    3  502    0 -0.85859529438E+03 -0.12403723099E+04 -0.42861967852E+03  0.15682551405E+04  0.10100000352E+00 0.  1.
       -3    1    3    3    0  502  0.85859529438E+03  0.12403723099E+04  0.14427746632E+03  0.15154290957E+04  0.10100000352E+00 0. -1.
</event>
<event>
 5   0  0.7656332E-07  0.3112435E+04  0.7818609E-02  0.8212333E-01
       -1   -1    0    0    0  501  0.00000000000E+00  0.00000000000E+00  0.12748995481E+04  0.12748995481E+04  0.50400001928E-02 0. -1.
        1   -1    0    0  501    0  0.00000000000E+00  0.00000000000E+00 -0.18996108800E+04  0.18996108800E+04  0.50400001928E-02 0.  1.
    10030    2    1    2    0    0  0.00000000000E+00  0.00000000000E+00 -0.62471133192E+03  0.31745104280E+04  0.31124350932E+04 0.  0.
        2    1    3    3  502    0 -0.46893086772E+03 -0.37939318997E+03 -0.17755324006E+04  0.18751934985E+04  0.25500000920E-02 0.  1.
       -2    1    3    3    0  502  0.46893086772E+03  0.37939318997E+03  0.11508210687E+04  0.12993169295E+04  0.25500000920E-02 0. -1.
</event>
<event>
 5   0  0.7561815E-07  0.3082950E+04  0.7818609E-02  0.8220433E-01
       -1   -1    0    0    0  501  0.00000000000E+00  0.00000000000E+00  0.24925294074E+04  0.24925294074E+04  0.50400001928E-02 0.  1.
        1   -1    0    0  501    0  0.00000000000E+00  0.00000000000E+00 -0.95330656980E+03  0.95330656981E+03  0.50400001928E-02 0. -1.
    10030    2    1    2    0    0  0.00000000000E+00  0.00000000000E+00  0.15392228376E+04  0.34458359772E+04  0.30829496652E+04 0.  0.
        3    1    3    3  502    0 -0.10759409459E+03 -0.13014526453E+04  0.16850330884E+04  0.21318283224E+04  0.10100000352E+00 0.  1.
       -3    1    3    3    0  502  0.10759409459E+03  0.13014526453E+04 -0.14581025082E+03  0.13140076547E+04  0.10100000352E+00 0. -1.
</event>
<event>
 5   0  0.7656332E-07  0.3099670E+04  0.7818609E-02  0.8215829E-01
       -1   -1    0    0    0  501  0.00000000000E+00  0.00000000000E+00  0.13350568298E+04  0.13350568298E+04  0.50400001928E-02 0.  1.
        1   -1    0    0  501    0  0.00000000000E+00  0.00000000000E+00 -0.17991655743E+04  0.17991655743E+04  0.50400001928E-02 0. -1.
    10030    2    1    2    0    0  0.00000000000E+00  0.00000000000E+00 -0.46410874450E+03  0.31342224041E+04  0.30996698455E+04 0.  0.
        2    1    3    3  502    0 -0.14169018006E+04  0.14986991960E+03  0.38459336702E+03  0.14757993641E+04  0.25500000920E-02 0.  1.
       -2    1    3    3    0  502  0.14169018006E+04 -0.14986991960E+03 -0.84870211152E+03  0.16584230399E+04  0.25500000920E-02 0. -1.
</event>
<event>
 5   0  0.7726743E-07  0.3094758E+04  0.7818609E-02  0.8217178E-01
       -1   -1    0    0    0  501  0.00000000000E+00  0.00000000000E+00  0.11922282519E+04  0.11922282519E+04  0.50400001928E-02 0.  1.
        1   -1    0    0  501    0  0.00000000000E+00  0.00000000000E+00 -0.20083243716E+04  0.20083243716E+04  0.50400001928E-02 0. -1.
    10030    2    1    2    0    0  0.00000000000E+00  0.00000000000E+00 -0.81609611967E+03  0.32005526235E+04  0.30947575380E+04 0.  0.
        1    1    3    3  502    0 -0.77814242704E+03 -0.89951739919E+03 -0.14317054344E+04  0.18612946138E+04  0.50400001928E-02 0. -1.
       -1    1    3    3    0  502  0.77814242704E+03  0.89951739919E+03  0.61560931475E+03  0.13392580097E+04  0.50400001928E-02 0.  1.
</event>
<event>
 5   0  0.2094135E-06  0.3107530E+04  0.7818609E-02  0.8213674E-01
        2   -1    0    0  501    0  0.00000000000E+00  0.00000000000E+00  0.28038804856E+04  0.28038804856E+04  0.25500000920E-02 0.  1.
       -2   -1    0    0    0  501  0.00000000000E+00  0.00000000000E+00 -0.86101573493E+03  0.86101573494E+03  0.25500000920E-02 0. -1.
    10030    2    1    2    0    0  0.00000000000E+00  0.00000000000E+00  0.19428647507E+04  0.36648962205E+04  0.31075297051E+04 0.  0.
        4    1    3    3  502    0 -0.40378615208E+03 -0.11427386757E+04 -0.17521166426E+03  0.12245797964E+04  0.12699999809E+01 0. -1.
       -4    1    3    3    0  502  0.40378615208E+03  0.11427386757E+04  0.21180764149E+04  0.24403164241E+04  0.12699999809E+01 0.  1.
</event>
<event>
 5   0  0.7561815E-07  0.3060405E+04  0.7818609E-02  0.8226689E-01
        1   -1    0    0  501    0  0.00000000000E+00  0.00000000000E+00  0.21568357929E+04  0.21568357929E+04  0.50400001928E-02 0.  1.
       -1   -1    0    0    0  501  0.00000000000E+00  0.00000000000E+00 -0.10856270429E+04  0.10856270429E+04  0.50400001928E-02 0. -1.
    10030    2    1    2    0    0  0.00000000000E+00  0.00000000000E+00  0.10712087500E+04  0.32424628358E+04  0.30604047209E+04 0.  0.
        3    1    3    3  502    0  0.10761904401E+04 -0.92638449092E+03  0.11397404841E+04  0.18208191754E+04  0.10100000352E+00 0.  1.
       -3    1    3    3    0  502 -0.10761904401E+04  0.92638449092E+03 -0.68531734096E+02  0.14216436604E+04  0.10100000352E+00 0. -1.
</event>
<event>
 5   0  0.2133385E-06  0.3094220E+04  0.7818609E-02  0.8217326E-01
        2   -1    0    0  501    0  0.00000000000E+00  0.00000000000E+00  0.13090808442E+04  0.13090808442E+04  0.25500000920E-02 0.  1.
       -2   -1    0    0    0  501  0.00000000000E+00  0.00000000000E+00 -0.18284202832E+04  0.18284202832E+04  0.25500000920E-02 0. -1.
    10030    2    1    2    0    0  0.00000000000E+00  0.00000000000E+00 -0.51933943903E+03  0.31375011274E+04  0.30942203980E+04 0.  0.
        2    1    3    3  502    0  0.12845489179E+04 -0.14894222842E+03  0.60150384442E+03  0.14262035565E+04  0.25500000920E-02 0.  1.
       -2    1    3    3    0  502 -0.12845489179E+04  0.14894222842E+03 -0.11208432834E+04  0.17112975708E+04  0.25500000920E-02 0. -1.
</event>
<event>
 5   0  0.7413481E-07  0.3076846E+04  0.7818609E-02  0.8222121E-01
        1   -1    0    0  501    0  0.00000000000E+00  0.00000000000E+00  0.23362355838E+04  0.23362355838E+04  0.50400001928E-02 0.  1.
       -1   -1    0    0    0  501  0.00000000000E+00  0.00000000000E+00 -0.10130592003E+04  0.10130592003E+04  0.50400001928E-02 0. -1.
    10030    2    1    2    0    0  0.00000000000E+00  0.00000000000E+00  0.13231763835E+04  0.33492947841E+04  0.30768457564E+04 0.  0.
        5    1    3    3  502    0  0.14563818096E+04 -0.12257234409E+02  0.12220774896E+03  0.14615591124E+04  0.46999998093E+01 0.  1.
       -5    1    3    3    0  502 -0.14563818096E+04  0.12257234409E+02  0.12009686346E+04  0.18877356717E+04  0.46999998093E+01 0. -1.
</event>
<event>
 5   0  0.2094135E-06  0.3107150E+04  0.7818609E-02  0.8213779E-01
       -2   -1    0    0    0  501  0.00000000000E+00  0.00000000000E+00  0.10815879398E+04  0.10815879398E+04  0.25500000920E-02 0. -1.
        2   -1    0    0  501    0  0.00000000000E+00  0.00000000000E+00 -0.22315287007E+04  0.22315287007E+04  0.25500000920E-02 0.  1.
    10030    2    1    2    0    0  0.00000000000E+00  0.00000000000E+00 -0.11499407610E+04  0.33131166405E+04  0.31071495168E+04 0.  0.
        4    1    3    3  502    0 -0.67465292112E+03  0.11762849026E+04  0.23343509039E+03  0.13759710355E+04  0.12699999809E+01 0.  1.
       -4    1    3    3    0  502  0.67465292112E+03 -0.11762849026E+04 -0.13833758514E+04  0.19371456050E+04  0.12699999809E+01 0. -1.
</event>
<event>
 5   0  0.2067926E-06  0.3013315E+04  0.7818609E-02  0.8239939E-01
       -2   -1    0    0    0  501  0.00000000000E+00  0.00000000000E+00  0.11744776904E+04  0.11744776904E+04  0.25500000920E-02 0.  1.
        2   -1    0    0  501    0  0.00000000000E+00  0.00000000000E+00 -0.19327889424E+04  0.19327889424E+04  0.25500000920E-02 0. -1.
    10030    2    1    2    0    0  0.00000000000E+00  0.00000000000E+00 -0.75831125199E+03  0.31072666327E+04  0.30133154452E+04 0.  0.
        1    1    3    3  502    0  0.93607549623E+03  0.81277208105E+03  0.50380173769E+03  0.13381524507E+04  0.50400001928E-02 0.  1.
       -1    1    3    3    0  502 -0.93607549623E+03 -0.81277208105E+03 -0.12621129897E+04  0.17691141820E+04  0.50400001928E-02 0. -1.
</event>
<event>
 5   0  0.2067926E-06  0.3053438E+04  0.7818609E-02  0.8228634E-01
       -2   -1    0    0    0  501  0.00000000000E+00  0.00000000000E+00  0.96866213764E+03  0.96866213764E+03  0.25500000920E-02 0. -1.
        2   -1    0    0  501    0  0.00000000000E+00  0.00000000000E+00 -0.24062792582E+04  0.24062792582E+04  0.25500000920E-02 0.  1.
    10030    2    1    2    0    0  0.00000000000E+00  0.00000000000E+00 -0.14376171206E+04  0.33749413959E+04  0.30534384618E+04 0.  0.
        1    1    3    3  502    0 -0.15171791427E+04  0.13139861370E+03 -0.83873893170E+03  0.17385572014E+04  0.50400001928E-02 0. -1.
       -1    1    3    3    0  502  0.15171791427E+04 -0.13139861370E+03 -0.59887818886E+03  0.16363841945E+04  0.50400001928E-02 0.  1.
</event>
<event>
 5   0  0.7519202E-07  0.3104412E+04  0.7818609E-02  0.8214528E-01
       -1   -1    0    0    0  501  0.00000000000E+00  0.00000000000E+00  0.15311083586E+04  0.15311083586E+04  0.50400001928E-02 0. -1.
        1   -1    0    0  501    0  0.00000000000E+00  0.00000000000E+00 -0.15735946309E+04  0.15735946309E+04  0.50400001928E-02 0.  1.
    10030    2    1    2    0    0  0.00000000000E+00  0.00000000000E+00 -0.42486272320E+02  0.31047029895E+04  0.31044122744E+04 0.  0.
        4    1    3    3  502    0 -0.39424664430E+03  0.36451615535E+03  0.14352722626E+04  0.15324198265E+04  0.12699999809E+01 0. -1.
       -4    1    3    3    0  502  0.39424664430E+03 -0.36451615535E+03 -0.14777585349E+04  0.15722831629E+04  0.12699999809E+01 0.  1.
</event>
<event>
 5   0  0.2094135E-06  0.3118421E+04  0.7818609E-02  0.8210700E-01
       -2   -1    0    0    0  501  0.00000000000E+00  0.00000000000E+00  0.99659952103E+03  0.99659952103E+03  0.25500000920E-02 0. -1.
        2   -1    0    0  501    0  0.00000000000E+00  0.00000000000E+00 -0.24394331829E+04  0.24394331829E+04  0.25500000920E-02 0.  1.
    10030    2    1    2    0    0  0.00000000000E+00  0.00000000000E+00 -0.14428336618E+04  0.34360327039E+04  0.31184213581E+04 0.  0.
        4    1    3    3  502    0  0.74723742151E+03 -0.26975445876E+02 -0.22289977141E+04  0.23510686636E+04  0.12699999809E+01 0.  1.
       -4    1    3    3    0  502 -0.74723742151E+03  0.26975445876E+02  0.78616405224E+03  0.10849640403E+04  0.12699999809E+01 0. -1.
</event>
<event>
 5   0  0.2094135E-06  0.3098822E+04  0.7818609E-02  0.8216061E-01
       -2   -1    0    0    0  501  0.00000000000E+00  0.00000000000E+00  0.17540443301E+04  0.17540443301E+04  0.25500000920E-02 0.  1.
        2   -1    0    0  501    0  0.00000000000E+00  0.00000000000E+00 -0.13686510875E+04  0.13686510875E+04  0.25500000920E-02 0. -1.
    10030    2    1    2    0    0  0.00000000000E+00  0.00000000000E+00  0.38539324258E+03  0.31226954177E+04  0.30988221504E+04 0.  0.
        4    1    3    3  502    0 -0.11518284044E+04  0.96314879623E+03 -0.19275349752E+03  0.15137766680E+04  0.12699999809E+01 0.  1.
       -4    1    3    3    0  502  0.11518284044E+04 -0.96314879623E+03  0.57814674010E+03  0.16089187496E+04  0.12699999809E+01 0. -1.
</event>
<event>
 5   0  0.7656332E-07  0.2895598E+04  0.7818609E-02  0.8274188E-01
       -1   -1    0    0    0  501  0.00000000000E+00  0.00000000000E+00  0.16242120875E+04  0.16242120875E+04  0.50400001928E-02 0.  1.
        1   -1    0    0  501    0  0.00000000000E+00  0.00000000000E+00 -0.12905466718E+04  0.12905466718E+04  0.50400001928E-02 0. -1.
    10030    2    1    2    0    0  0.00000000000E+00  0.00000000000E+00  0.33366541564E+03  0.29147587593E+04  0.28955976957E+04 0.  0.
        2    1    3    3  502    0 -0.68057487858E+03  0.12702181658E+04  0.26319785531E+02  0.14412942397E+04  0.25500000920E-02 0. -1.
       -2    1    3    3    0  502  0.68057487858E+03 -0.12702181658E+04  0.30734563011E+03  0.14734645196E+04  0.25500000920E-02 0.  1.
</event>
<event>
 5   0  0.2094135E-06  0.3129965E+04  0.7818609E-02  0.8207562E-01
        2   -1    0    0  501    0  0.00000000000E+00  0.00000000000E+00  0.23358326792E+04  0.23358326792E+04  0.25500000920E-02 0. -1.
       -2   -1    0    0    0  501  0.00000000000E+00  0.00000000000E+00 -0.10485214831E+04  0.10485214831E+04  0.25500000920E-02 0.  1.
    10030    2    1    2    0    0  0.00000000000E+00  0.00000000000E+00  0.12873111961E+04  0.33843541623E+04  0.31299653321E+04 0.  0.
        4    1    3    3  502    0 -0.96754299574E+03 -0.11746758587E+04  0.10382341374E+04  0.18422634336E+04  0.12699999809E+01 0.  1.
       -4    1    3    3    0  502  0.96754299574E+03  0.11746758587E+04  0.24907705875E+03  0.15420907288E+04  0.12699999809E+01 0. -1.
</event>
<event>
 5   0  0.7413481E-07  0.3108736E+04  0.7818609E-02  0.8213344E-01
       -1   -1    0    0    0  501  0.00000000000E+00  0.00000000000E+00  0.94548119583E+03  0.94548119585E+03  0.50400001928E-02 0. -1.
        1   -1    0    0  501    0  0.00000000000E+00  0.00000000000E+00 -0.25553758442E+04  0.25553758442E+04  0.50400001928E-02 0.  1.
    10030    2    1    2    0    0  0.00000000000E+00  0.00000000000E+00 -0.16098946484E+04  0.35008570401E+04  0.31087359547E+04 0.  0.
        5    1    3    3  502    0  0.75552981703E+03  0.10682762053E+04  0.13993204199E+03  0.13159188507E+04  0.46999998093E+01 0. -1.
       -5    1    3    3    0  502 -0.75552981703E+03 -0.10682762053E+04 -0.17498266904E+04  0.21849381894E+04  0.46999998093E+01 0.  1.
</event>
<event>
 5   0  0.7413481E-07  0.3187579E+04  0.7818609E-02  0.8192105E-01
        1   -1    0    0  501    0  0.00000000000E+00  0.00000000000E+00  0.19372921469E+04  0.19372921469E+04  0.50400001928E-02 0.  1.
       -1   -1    0    0    0  501  0.00000000000E+00  0.00000000000E+00 -0.13111936530E+04  0.13111936530E+04  0.50400001928E-02 0. -1.
    10030    2    1    2    0    0  0.00000000000E+00  0.00000000000E+00  0.62609849394E+03  0.32484857999E+04  0.31875791235E+04 0.  0.
        5    1    3    3  502    0  0.23790225455E+02 -0.80461807204E+03 -0.10887948423E+04  0.13540577962E+04  0.46999998093E+01 0. -1.
       -5    1    3    3    0  502 -0.23790225455E+02  0.80461807204E+03  0.17148933363E+04  0.18944280038E+04  0.46999998093E+01 0.  1.
</event>
<event>
 5   0  0.7413481E-07  0.3101355E+04  0.7818609E-02  0.8215366E-01
        1   -1    0    0  501    0  0.00000000000E+00  0.00000000000E+00  0.27749653151E+04  0.27749653151E+04  0.50400001928E-02 0. -1.
       -1   -1    0    0    0  501  0.00000000000E+00  0.00000000000E+00 -0.86653362387E+03  0.86653362389E+03  0.50400001928E-02 0.  1.
    10030    2    1    2    0    0  0.00000000000E+00  0.00000000000E+00  0.19084316913E+04  0.36414989390E+04  0.31013550269E+04 0.  0.
        5    1    3    3  502    0  0.25252904987E+03 -0.94630635318E+02  0.27472116247E+04  0.27604201997E+04  0.46999998093E+01 0. -1.
       -5    1    3    3    0  502 -0.25252904987E+03  0.94630635318E+02 -0.83877993342E+03  0.88107873932E+03  0.46999998093E+01 0.  1.
</event>
<event>
 5   0  0.7656332E-07  0.3097036E+04  0.7818609E-02  0.8216552E-01
        1   -1    0    0  501    0  0.00000000000E+00  0.00000000000E+00  0.23922779983E+04  0.23922779983E+04  0.50400001928E-02 0.  1.
       -1   -1    0    0    0  501  0.00000000000E+00  0.00000000000E+00 -0.10023531488E+04  0.10023531488E+04  0.50400001928E-02 0. -1.
    10030    2    1    2    0    0  0.00000000000E+00  0.00000000000E+00  0.13899248496E+04  0.33946311471E+04  0.30970356048E+04 0.  0.
        2    1    3    3  502    0  0.99860201901E+03  0.66728630111E+03  0.17663483031E+04  0.21359923521E+04  0.25500000920E-02 0.  1.
       -2    1    3    3    0  502 -0.99860201901E+03 -0.66728630111E+03 -0.37642345356E+03  0.12586387951E+04  0.25500000920E-02 0. -1.
</event>
<event>
 5   0  0.2078009E-06  0.3136998E+04  0.7818609E-02  0.8205657E-01
       -2   -1    0    0    0  501  0.00000000000E+00  0.00000000000E+00  0.12001899593E+04  0.12001899593E+04  0.25500000920E-02 0. -1.
        2   -1    0    0  501    0  0.00000000000E+00  0.00000000000E+00 -0.20498334766E+04  0.20498334766E+04  0.25500000920E-02 0.  1.
    10030    2    1    2    0    0  0.00000000000E+00  0.00000000000E+00 -0.84964351724E+03  0.32500234359E+04  0.31369982830E+04 0.  0.
        3    1    3    3  502    0  0.21075881155E+03  0.75872933103E+03  0.98055553641E+03  0.12576083033E+04  0.10100000352E+00 0. -1.
       -3    1    3    3    0  502 -0.21075881155E+03 -0.75872933103E+03 -0.18301990537E+04  0.19924151326E+04  0.10100000352E+00 0.  1.
</event>
<event>
 5   0  0.2226334E-06  0.3120333E+04  0.7818609E-02  0.8210180E-01
        2   -1    0    0  501    0  0.00000000000E+00  0.00000000000E+00  0.17026175769E+04  0.17026175769E+04  0.25500000920E-02 0.  1.
       -2   -1    0    0    0  501  0.00000000000E+00  0.00000000000E+00 -0.14296340925E+04  0.14296340925E+04  0.25500000920E-02 0. -1.
    10030    2    1    2    0    0  0.00000000000E+00  0.00000000000E+00  0.27298348438E+03  0.31322516695E+04  0.31203334018E+04 0.  0.
        5    1    3    3  502    0  0.24890855744E+02  0.38028237123E+03 -0.13821859909E+04  0.14337693120E+04  0.46999998093E+01 0. -1.
       -5    1    3    3    0  502 -0.24890855744E+02 -0.38028237123E+03  0.16551694753E+04  0.16984823574E+04  0.46999998093E+01 0.  1.
</event>
<event>
 5   0  0.2133385E-06  0.3094846E+04  0.7818609E-02  0.8217154E-01
        2   -1    0    0  501    0  0.00000000000E+00  0.00000000000E+00  0.19250884371E+04  0.19250884371E+04  0.25500000920E-02 0. -1.
       -2   -1    0    0    0  501  0.00000000000E+00  0.00000000000E+00 -0.12438479147E+04  0.12438479147E+04  0.25500000920E-02 0.  1.
    10030    2    1    2    0    0  0.00000000000E+00  0.00000000000E+00  0.68124052237E+03  0.31689363518E+04  0.30948455458E+04 0.  0.
        2    1    3    3  502    0 -0.90586974758E+03 -0.10828659245E+04 -0.30804284339E+03  0.14450221463E+04  0.25500000920E-02 0.  1.
       -2    1    3    3    0  502  0.90586974758E+03  0.10828659245E+04  0.98928336576E+03  0.17239142055E+04  0.25500000920E-02 0. -1.
</event>
<event>
 5   0  0.7656332E-07  0.3101239E+04  0.7818609E-02  0.8215398E-01
       -1   -1    0    0    0  501  0.00000000000E+00  0.00000000000E+00  0.11554588682E+04  0.11554588682E+04  0.50400001928E-02 0.  1.
        1   -1    0    0  501    0  0.00000000000E+00  0.00000000000E+00 -0.20809222905E+04  0.20809222905E+04  0.50400001928E-02 0. -1.
    10030    2    1    2    0    0  0.00000000000E+00  0.00000000000E+00 -0.92546342226E+03  0.32363811587E+04  0.31012385362E+04 0.  0.
        2    1    3    3  502    0  0.15026092158E+03 -0.76212928080E+03 -0.18632263047E+04  0.20186707626E+04  0.25500000920E-02 0. -1.
       -2    1    3    3    0  502 -0.15026092158E+03  0.76212928080E+03  0.93776288241E+03  0.12177103961E+04  0.25500000920E-02 0.  1.
</event>
<event>
 5   0  0.2067926E-06  0.3192320E+04  0.7818609E-02  0.8190848E-01
        2   -1    0    0  501    0  0.00000000000E+00  0.00000000000E+00  0.23470272721E+04  0.23470272721E+04  0.25500000920E-02 0.  1.
       -2   -1    0    0    0  501  0.00000000000E+00  0.00000000000E+00 -0.10855119307E+04  0.10855119307E+04  0.25500000920E-02 0. -1.
    10030    2    1    2    0    0  0.00000000000E+00  0.00000000000E+00  0.12615153414E+04  0.34325392028E+04  0.31923195990E+04 0.  0.
        1    1    3    3  502    0  0.64378855007E+03  0.14565633198E+04  0.51452276301E+03  0.16735513364E+04  0.50400001928E-02 0.  1.
       -1    1    3    3    0  502 -0.64378855007E+03 -0.14565633198E+04  0.74699257841E+03  0.17589878664E+04  0.50400001928E-02 0. -1.
</event>
<event>
 5   0  0.7656332E-07  0.3092041E+04  0.7818609E-02  0.8217926E-01
       -1   -1    0    0    0  501  0.00000000000E+00  0.00000000000E+00  0.17552819775E+04  0.17552819775E+04  0.50400001928E-02 0. -1.
        1   -1    0    0  501    0  0.00000000000E+00  0.00000000000E+00 -0.13617064904E+04  0.13617064904E+04  0.50400001928E-02 0.  1.
    10030    2    1    2    0    0  0.00000000000E+00  0.00000000000E+00  0.39357548710E+03  0.31169884680E+04  0.30920406604E+04 0.  0.
        2    1    3    3  502    0  0.13006620835E+04 -0.39191496410E+03  0.94088949964E+03  0.16524503760E+04  0.25500000920E-02 0. -1.
       -2    1    3    3    0  502 -0.13006620835E+04  0.39191496410E+03 -0.54731401254E+03  0.14645380920E+04  0.25500000920E-02 0.  1.
</event>
<event>
 5   0  0.7726743E-07  0.3107692E+04  0.7818609E-02  0.8213630E-01
       -1   -1    0    0    0  501  0.00000000000E+00  0.00000000000E+00  0.14115292606E+04  0.14115292606E+04  0.50400001928E-02 0.  1.
        1   -1    0    0  501    0  0.00000000000E+00  0.00000000000E+00 -0.17105118549E+04  0.17105118549E+04  0.50400001928E-02 0. -1.
    10030    2    1    2    0    0  0.00000000000E+00  0.00000000000E+00 -0.29898259434E+03  0.31220411155E+04  0.31076920915E+04 0.  0.
        1    1    3    3  502    0  0.41316877377E+03  0.84124213123E+03  0.10956023229E+04  0.14417840369E+04  0.50400001928E-02 0.  1.
       -1    1    3    3    0  502 -0.41316877377E+03 -0.84124213123E+03 -0.13945849172E+04  0.16802570787E+04  0.50400001928E-02 0. -1.
</event>
<event>
 5   0  0.7561815E-07  0.3064837E+04  0.7818609E-02  0.8225455E-01
        1   -1    0    0  501    0  0.00000000000E+00  0.00000000000E+00  0.16203409385E+04  0.16203409385E+04  0.50400001928E-02 0. -1.
       -1   -1    0    0    0  501  0.00000000000E+00  0.00000000000E+00 -0.14492667335E+04  0.14492667335E+04  0.50400001928E-02 0.  1.
    10030    2    1    2    0    0  0.00000000000E+00  0.00000000000E+00  0.17107420502E+03  0.30696076720E+04  0.30648368433E+04 0.  0.
        3    1    3    3  502    0  0.59769531497E+03 -0.11550910148E+04  0.89724995190E+03  0.15800419072E+04  0.10100000352E+00 0.  1.
       -3    1    3    3    0  502 -0.59769531497E+03  0.11550910148E+04 -0.72617574688E+03  0.14895657648E+04  0.10100000352E+00 0. -1.
</event>
<event>
 5   0  0.7656332E-07  0.3102701E+04  0.7818609E-02  0.8214997E-01
       -1   -1    0    0    0  501  0.00000000000E+00  0.00000000000E+00  0.14198837547E+04  0.14198837547E+04  0.50400001928E-02 0. -1.
        1   -1    0    0  501    0  0.00000000000E+00  0.00000000000E+00 -0.16949896569E+04  0.16949896569E+04  0.50400001928E-02 0.  1.
    10030    2    1    2    0    0  0.00000000000E+00  0.00000000000E+00 -0.27510590218E+03  0.31148734116E+04  0.31027009384E+04 0.  0.
        2    1    3    3  502    0  0.82782925102E+03 -0.88065041523E+03  0.83880653222E+03  0.14712045477E+04  0.25500000920E-02 0. -1.
       -2    1    3    3    0  502 -0.82782925102E+03  0.88065041523E+03 -0.11139124344E+04  0.16436688639E+04  0.25500000920E-02 0.  1.
</event>
<event>
 5   0  0.7561815E-07  0.3100758E+04  0.7818609E-02  0.8215530E-01
        1   -1    0    0  501    0  0.00000000000E+00  0.00000000000E+00  0.26340009673E+04  0.26340009673E+04  0.50400001928E-02 0.  1.
       -1   -1    0    0    0  501  0.00000000000E+00  0.00000000000E+00 -0.91255658418E+03  0.91255658419E+03  0.50400001928E-02 0. -1.
    10030    2    1    2    0    0  0.00000000000E+00  0.00000000000E+00  0.17214443831E+04  0.35465575515E+04  0.31007579238E+04 0.  0.
        3    1    3    3  502    0 -0.37811947105E+03  0.33965966498E+03 -0.81455391357E+03  0.96012557029E+03  0.10100000352E+00 0. -1.
       -3    1    3    3    0  502  0.37811947105E+03 -0.33965966498E+03  0.25359982967E+04  0.25864319812E+04  0.10100000352E+00 0.  1.
</event>
<event>
 5   0  0.7519202E-07  0.3095269E+04  0.7818609E-02  0.8217038E-01
        1   -1    0    0  501    0  0.00000000000E+00  0.00000000000E+00  0.18920610974E+04  0.18920610974E+04  0.50400001928E-02 0. -1.
       -1   -1    0    0    0  501  0.00000000000E+00  0.00000000000E+00 -0.12659063521E+04  0.12659063521E+04  0.50400001928E-02 0.  1.
    10030    2    1    2    0    0  0.00000000000E+00  0.00000000000E+00  0.62615474532E+03  0.31579674496E+04  0.30952687521E+04 0.  0.
        4    1    3    3  502    0  0.82991279666E+03  0.24524212713E+03  0.16221388077E+04  0.18385415076E+04  0.12699999809E+01 0. -1.
       -4    1    3    3    0  502 -0.82991279666E+03 -0.24524212713E+03 -0.99598406234E+03  0.13194259420E+04  0.12699999809E+01 0.  1.
</event>
<event>
 5   0  0.7656332E-07  0.3120400E+04  0.7818609E-02  0.8210161E-01
       -1   -1    0    0    0  501  0.00000000000E+00  0.00000000000E+00  0.14692148386E+04  0.14692148386E+04  0.50400001928E-02 0. -1.
        1   -1    0    0  501    0  0.00000000000E+00  0.00000000000E+00 -0.16568198471E+04  0.16568198471E+04  0.50400001928E-02 0.  1.
    10030    2    1    2    0    0  0.00000000000E+00  0.00000000000E+00 -0.18760500851E+03  0.31260346857E+04  0.31204001694E+04 0.  0.
        2    1    3    3  502    0 -0.60375837910E+03 -0.75689679368E+03  0.11318474570E+04  0.14894615143E+04  0.25500000920E-02 0. -1.
       -2    1    3    3    0  502  0.60375837910E+03  0.75689679368E+03 -0.13194524655E+04  0.16365731714E+04  0.25500000920E-02 0.  1.
</event>
<event>
 5   0  0.2133385E-06  0.3348100E+04  0.7818609E-02  0.8150763E-01
       -2   -1    0    0    0  501  0.00000000000E+00  0.00000000000E+00  0.18596243509E+04  0.18596243509E+04  0.25500000920E-02 0.  1.
        2   -1    0    0  501    0  0.00000000000E+00  0.00000000000E+00 -0.15069944843E+04  0.15069944843E+04  0.25500000920E-02 0. -1.
    10030    2    1    2    0    0  0.00000000000E+00  0.00000000000E+00  0.35262986653E+03  0.33666188352E+04  0.33481001417E+04 0.  0.
        2    1    3    3  502    0 -0.94238937809E+03  0.12458844249E+04  0.78140567206E+03  0.17466884566E+04  0.25500000920E-02 0.  1.
       -2    1    3    3    0  502  0.94238937809E+03 -0.12458844249E+04 -0.42877580554E+03  0.16199303786E+04  0.25500000920E-02 0. -1.
</event>
<event>
 5   0  0.7656332E-07  0.3103203E+04  0.7818609E-02  0.8214859E-01
        1   -1    0    0  501    0  0.00000000000E+00  0.00000000000E+00  0.14578166881E+04  0.14578166881E+04  0.50400001928E-02 0. -1.
       -1   -1    0    0    0  501  0.00000000000E+00  0.00000000000E+00 -0.16514201602E+04  0.16514201602E+04  0.50400001928E-02 0.  1.
    10030    2    1    2    0    0  0.00000000000E+00  0.00000000000E+00 -0.19360347210E+03  0.31092368483E+04  0.31032034214E+04 0.  0.
        2    1    3    3  502    0  0.72549808685E+03  0.80221893016E+03 -0.12114237132E+04  0.16240228135E+04  0.25500000920E-02 0.  1.
       -2    1    3    3    0  502 -0.72549808685E+03 -0.80221893016E+03  0.10178202411E+04  0.14852140348E+04  0.25500000920E-02 0. -1.
</event>
<event>
 5   0  0.7413481E-07  0.3024241E+04  0.7818609E-02  0.8236843E-01
       -1   -1    0    0    0  501  0.00000000000E+00  0.00000000000E+00  0.14432295639E+04  0.14432295639E+04  0.50400001928E-02 0. -1.
        1   -1    0    0  501    0  0.00000000000E+00  0.00000000000E+00 -0.15842993536E+04  0.15842993536E+04  0.50400001928E-02 0.  1.
    10030    2    1    2    0    0  0.00000000000E+00  0.00000000000E+00 -0.14106978971E+03  0.30275289176E+04  0.30242405098E+04 0.  0.
        5    1    3    3  502    0  0.13251574288E+04  0.29759969497E+03  0.59492679426E+03  0.14827568142E+04  0.46999998093E+01 0. -1.
       -5    1    3    3    0  502 -0.13251574288E+04 -0.29759969497E+03 -0.73599658397E+03  0.15447721033E+04  0.46999998093E+01 0.  1.
</event>
<event>
 5   0  0.6979625E-07  0.3187200E+04  0.7818609E-02  0.8192206E-01
        3   -1    0    0  501    0  0.00000000000E+00  0.00000000000E+00  0.19233667990E+04  0.19233668017E+04  0.10100000352E+00 0. -1.
       -3   -1    0    0    0  501  0.00000000000E+00  0.00000000000E+00 -0.13203724032E+04  0.13203724071E+04  0.10100000352E+00 0.  1.
    10030    2    1    2    0    0  0.00000000000E+00  0.00000000000E+00  0.60299439579E+03  0.32437392088E+04  0.31871996821E+04 0.  0.
        5    1    3    3  502    0 -0.66242569339E+03 -0.21569694543E+03  0.17601723647E+04  0.18930297977E+04  0.46999998093E+01 0. -1.
       -5    1    3    3    0  502  0.66242569339E+03  0.21569694543E+03 -0.11571779689E+04  0.13507094111E+04  0.46999998093E+01 0.  1.
</event>
<event>
 5   0  0.2078009E-06  0.3104137E+04  0.7818609E-02  0.8214603E-01
        2   -1    0    0  501    0  0.00000000000E+00  0.00000000000E+00  0.19682572003E+04  0.19682572003E+04  0.25500000920E-02 0.  1.
       -2   -1    0    0    0  501  0.00000000000E+00  0.00000000000E+00 -0.12238832843E+04  0.12238832843E+04  0.25500000920E-02 0. -1.
    10030    2    1    2    0    0  0.00000000000E+00  0.00000000000E+00  0.74437391603E+03  0.31921404847E+04  0.31041372951E+04 0.  0.
        3    1    3    3  502    0 -0.25274628583E+03 -0.15291860046E+04  0.28847548606E+03  0.15765495989E+04  0.10100000352E+00 0.  1.
       -3    1    3    3    0  502  0.25274628583E+03  0.15291860046E+04  0.45589842996E+03  0.16155908858E+04  0.10100000352E+00 0. -1.
</event>
<event>
 5   0  0.2078009E-06  0.3126709E+04  0.7818609E-02  0.8208446E-01
       -2   -1    0    0    0  501  0.00000000000E+00  0.00000000000E+00  0.11486352601E+04  0.11486352601E+04  0.25500000920E-02 0. -1.
        2   -1    0    0  501    0  0.00000000000E+00  0.00000000000E+00 -0.21278101097E+04  0.21278101097E+04  0.25500000920E-02 0.  1.
    10030    2    1    2    0    0  0.00000000000E+00  0.00000000000E+00 -0.97917484953E+03  0.32764453698E+04  0.31267092726E+04 0.  0.
        3    1    3    3  502    0 -0.80786970899E+02 -0.10147104322E+04 -0.17329662865E+04  0.20098099303E+04  0.10100000352E+00 0.  1.
       -3    1    3    3    0  502  0.80786970899E+02  0.10147104322E+04  0.75379143695E+03  0.12666354394E+04  0.10100000352E+00 0. -1.
</event>
<event>
 5   0  0.2094135E-06  0.3111181E+04  0.7818609E-02  0.8212676E-01
        2   -1    0    0  501    0  0.00000000000E+00  0.00000000000E+00  0.18328364763E+04  0.18328364763E+04  0.25500000920E-02 0.  1.
       -2   -1    0    0    0  501  0.00000000000E+00  0.00000000000E+00 -0.13202824823E+04  0.13202824823E+04  0.25500000920E-02 0. -1.
    10030    2    1    2    0    0  0.00000000000E+00  0.00000000000E+00  0.51255399396E+03  0.31531189586E+04  0.31111810572E+04 0.  0.
        4    1    3    3  502    0 -0.17657578254E+03  0.57661024853E+03 -0.11969984872E+04  0.13403228630E+04  0.12699999809E+01 0. -1.
       -4    1    3    3    0  502  0.17657578254E+03 -0.57661024853E+03  0.17095524812E+04  0.18127960957E+04  0.12699999809E+01 0.  1.
</event>
<event>
 5   0  0.2078009E-06  0.3103611E+04  0.7818609E-02  0.8214748E-01
        2   -1    0    0  501    0  0.00000000000E+00  0.00000000000E+00  0.24354227442E+04  0.24354227442E+04  0.25500000920E-02 0. -1.
       -2   -1    0    0    0  501  0.00000000000E+00  0.00000000000E+00 -0.98878106418E+03  0.98878106419E+03  0.25500000920E-02 0.  1.
    10030    2    1    2    0    0  0.00000000000E+00  0.00000000000E+00  0.14466416800E+04  0.34242038083E+04  0.31036107312E+04 0.  0.
        3    1    3    3  502    0 -0.81233771651E+03  0.98027277392E+03 -0.25561658268E+03  0.12985249803E+04  0.10100000352E+00 0.  1.
       -3    1    3    3    0  502  0.81233771651E+03 -0.98027277392E+03  0.17022582627E+04  0.21256788280E+04  0.10100000352E+00 0. -1.
</event>
<event>
 5   0  0.2067926E-06  0.3108644E+04  0.7818609E-02  0.8213370E-01
        2   -1    0    0  501    0  0.00000000000E+00  0.00000000000E+00  0.24933605808E+04  0.24933605808E+04  0.25500000920E-02 0.  1.
       -2   -1    0    0    0  501  0.00000000000E+00  0.00000000000E+00 -0.96894004166E+03  0.96894004167E+03  0.25500000920E-02 0. -1.
    10030    2    1    2    0    0  0.00000000000E+00  0.00000000000E+00  0.15244205392E+04  0.34623006225E+04  0.31086440163E+04 0.  0.
        1    1    3    3  502    0  0.78836319982E+03 -0.83715678524E+03 -0.40249718373E+03  0.12183398544E+04  0.50400001928E-02 0. -1.
       -1    1    3    3    0  502 -0.78836319982E+03  0.83715678524E+03  0.19269177229E+04  0.22439607681E+04  0.50400001928E-02 0.  1.
</event>
<event>
 5   0  0.2078009E-06  0.3119037E+04  0.7818609E-02  0.8210533E-01
        2   -1    0    0  501    0  0.00000000000E+00  0.00000000000E+00  0.16556276077E+04  0.16556276077E+04  0.25500000920E-02 0. -1.
       -2   -1    0    0    0  501  0.00000000000E+00  0.00000000000E+00 -0.14689882156E+04  0.14689882156E+04  0.25500000920E-02 0.  1.
    10030    2    1    2    0    0  0.00000000000E+00  0.00000000000E+00  0.18663939202E+03  0.31246158233E+04  0.31190366751E+04 0.  0.
        3    1    3    3  502    0  0.11845725106E+04  0.85368614397E+03  0.64211833967E+03  0.15950887241E+04  0.10100000352E+00 0. -1.
       -3    1    3    3    0  502 -0.11845725106E+04 -0.85368614397E+03 -0.45547894764E+03  0.15295270992E+04  0.10100000352E+00 0.  1.
</event>
<event>
 5   0  0.2226334E-06  0.3149835E+04  0.7818609E-02  0.8202193E-01
       -2   -1    0    0    0  501  0.00000000000E+00  0.00000000000E+00  0.13377441635E+04  0.13377441635E+04  0.25500000920E-02 0. -1.
        2   -1    0    0  501    0  0.00000000000E+00  0.00000000000E+00 -0.18541399122E+04  0.18541399122E+04  0.25500000920E-02 0.  1.
    10030    2    1    2    0    0  0.00000000000E+00  0.00000000000E+00 -0.51639574863E+03  0.31918840757E+04  0.31498348184E+04 0.  0.
        5    1    3    3  502    0 -0.14643651534E+04 -0.57631552980E+03 -0.19542036374E+03  0.15857856416E+04  0.46999998093E+01 0.  1.
       -5    1    3    3    0  502  0.14643651534E+04  0.57631552980E+03 -0.32097538488E+03  0.16060984341E+04  0.46999998093E+01 0. -1.
</event>
<event>
 5   0  0.7561815E-07  0.3107346E+04  0.7818609E-02  0.8213725E-01
        1   -1    0    0  501    0  0.00000000000E+00  0.00000000000E+00  0.22661513488E+04  0.22661513488E+04  0.50400001928E-02 0. -1.
       -1   -1    0    0    0  501  0.00000000000E+00  0.00000000000E+00 -0.10651979854E+04  0.10651979854E+04  0.50400001928E-02 0.  1.
    10030    2    1    2    0    0  0.00000000000E+00  0.00000000000E+00  0.12009533634E+04  0.33313493342E+04  0.31073460389E+04 0.  0.
        3    1    3    3  502    0 -0.12184234595E+04  0.34929250906E+03  0.15637698596E+04  0.20129424154E+04  0.10100000352E+00 0. -1.
       -3    1    3    3    0  502  0.12184234595E+04 -0.34929250906E+03 -0.36281649623E+03  0.13184069189E+04  0.10100000352E+00 0.  1.
</event>
<event>
 5   0  0.7726743E-07  0.3099247E+04  0.7818609E-02  0.8215945E-01
        1   -1    0    0  501    0  0.00000000000E+00  0.00000000000E+00  0.18785429541E+04  0.18785429541E+04  0.50400001928E-02 0.  1.
       -1   -1    0    0    0  501  0.00000000000E+00  0.00000000000E+00 -0.12782956630E+04  0.12782956630E+04  0.50400001928E-02 0. -1.
    10030    2    1    2    0    0  0.00000000000E+00  0.00000000000E+00  0.60024729110E+03  0.31568386171E+04  0.30992472060E+04 0.  0.
        1    1    3    3  502    0  0.23029601223E+03 -0.59593240014E+03 -0.11379046166E+04  0.13049898832E+04  0.50400001928E-02 0. -1.
       -1    1    3    3    0  502 -0.23029601223E+03  0.59593240014E+03  0.17381519077E+04  0.18518487338E+04  0.50400001928E-02 0.  1.
</event>
<event>
 5   0  0.7561815E-07  0.3102282E+04  0.7818609E-02  0.8215112E-01
        1   -1    0    0  501    0  0.00000000000E+00  0.00000000000E+00  0.17883429636E+04  0.17883429636E+04  0.50400001928E-02 0. -1.
       -1   -1    0    0    0  501  0.00000000000E+00  0.00000000000E+00 -0.13454009251E+04  0.13454009251E+04  0.50400001928E-02 0.  1.
    10030    2    1    2    0    0  0.00000000000E+00  0.00000000000E+00  0.44294203845E+03  0.31337438887E+04  0.31022819199E+04 0.  0.
        3    1    3    3  502    0  0.64245908425E+03  0.70009446938E+03  0.14599360116E+04  0.17419239677E+04  0.10100000352E+00 0. -1.
       -3    1    3    3    0  502 -0.64245908425E+03 -0.70009446938E+03 -0.10169939732E+04  0.13918199210E+04  0.10100000352E+00 0.  1.
</event>
<event>
 5   0  0.7726743E-07  0.3051531E+04  0.7818609E-02  0.8229167E-01
        1   -1    0    0  501    0  0.00000000000E+00  0.00000000000E+00  0.12791259077E+04  0.12791259077E+04  0.50400001928E-02 0.  1.
       -1   -1    0    0    0  501  0.00000000000E+00  0.00000000000E+00 -0.18199617913E+04  0.18199617913E+04  0.50400001928E-02 0. -1.
    10030    2    1    2    0    0  0.00000000000E+00  0.00000000000E+00 -0.54083588358E+03  0.30990876990E+04  0.30515309458E+04 0.  0.
        1    1    3    3  502    0 -0.78380215191E+03  0.93765683415E+03  0.65728068056E+03  0.13876469454E+04  0.50400001928E-02 0.  1.
       -1    1    3    3    0  502  0.78380215191E+03 -0.93765683415E+03 -0.11981165641E+04  0.17114407537E+04  0.50400001928E-02 0. -1.
</event>
<event>
 5   0  0.7519202E-07  0.3104491E+04  0.7818609E-02  0.8214507E-01
        1   -1    0    0  501    0  0.00000000000E+00  0.00000000000E+00  0.19442909338E+04  0.19442909338E+04  0.50400001928E-02 0.  1.
       -1   -1    0    0    0  501  0.00000000000E+00  0.00000000000E+00 -0.12392515132E+04  0.12392515132E+04  0.50400001928E-02 0. -1.
    10030    2    1    2    0    0  0.00000000000E+00  0.00000000000E+00  0.70503942066E+03  0.31835424470E+04  0.31044906068E+04 0.  0.
        4    1    3    3  502    0 -0.49979964432E+03  0.14668270227E+04  0.44471266203E+03  0.16121886253E+04  0.12699999809E+01 0.  1.
       -4    1    3    3    0  502  0.49979964432E+03 -0.14668270227E+04  0.26032675862E+03  0.15713538217E+04  0.12699999809E+01 0. -1.
</event>
<event>
 5   0  0.2094135E-06  0.3053017E+04  0.7818609E-02  0.8228751E-01
       -2   -1    0    0    0  501  0.00000000000E+00  0.00000000000E+00  0.16936096146E+04  0.16936096146E+04  0.25500000920E-02 0. -1.
        2   -1    0    0  501    0  0.00000000000E+00  0.00000000000E+00 -0.13758948194E+04  0.13758948194E+04  0.25500000920E-02 0.  1.
    10030    2    1    2    0    0  0.00000000000E+00  0.00000000000E+00  0.31771479524E+03  0.30695044340E+04  0.30530173238E+04 0.  0.
        4    1    3    3  502    0 -0.32634989711E+03  0.58358909899E+03 -0.12208311537E+04  0.13919449740E+04  0.12699999809E+01 0.  1.
       -4    1    3    3    0  502  0.32634989711E+03 -0.58358909899E+03  0.15385459490E+04  0.16775594600E+04  0.12699999809E+01 0. -1.
</event>
<event>
 5   0  0.2226334E-06  0.3114054E+04  0.7818609E-02  0.8211892E-01
        2   -1    0    0  501    0  0.00000000000E+00  0.00000000000E+00  0.23606208870E+04  0.23606208870E+04  0.25500000920E-02 0.  1.
       -2   -1    0    0    0  501  0.00000000000E+00  0.00000000000E+00 -0.10269895278E+04  0.10269895278E+04  0.25500000920E-02 0. -1.
    10030    2    1    2    0    0  0.00000000000E+00  0.00000000000E+00  0.13336313592E+04  0.33876104149E+04  0.31140539046E+04 0.  0.
        5    1    3    3  502    0  0.13667302726E+04 -0.36673128915E+02  0.14772529656E+04  0.20128574144E+04  0.46999998093E+01 0. -1.
       -5    1    3    3    0  502 -0.13667302726E+04  0.36673128915E+02 -0.14362160642E+03  0.13747530004E+04  0.46999998093E+01 0.  1.
</event>
<event>
 5   0  0.7726743E-07  0.3088954E+04  0.7818609E-02  0.8218776E-01
        1   -1    0    0  501    0  0.00000000000E+00  0.00000000000E+00  0.17533807403E+04  0.17533807403E+04  0.50400001928E-02 0.  1.
       -1   -1    0    0    0  501  0.00000000000E+00  0.00000000000E+00 -0.13604630307E+04  0.13604630307E+04  0.50400001928E-02 0. -1.
    10030    2    1    2    0    0  0.00000000000E+00  0.00000000000E+00  0.39291770958E+03  0.31138437710E+04  0.30889543058E+04 0.  0.
        1    1    3    3  502    0  0.63682389168E+03 -0.92773238183E+03 -0.86997726636E+03  0.14223545568E+04  0.50400001928E-02 0. -1.
       -1    1    3    3    0  502 -0.63682389168E+03  0.92773238183E+03  0.12628949759E+04  0.16914892142E+04  0.50400001928E-02 0.  1.
</event>
<event>
 5   0  0.2078009E-06  0.3005033E+04  0.7818609E-02  0.8242295E-01
       -2   -1    0    0    0  501  0.00000000000E+00  0.00000000000E+00  0.12731407171E+04  0.12731407171E+04  0.25500000920E-02 0.  1.
        2   -1    0    0  501    0  0.00000000000E+00  0.00000000000E+00 -0.17732179717E+04  0.17732179717E+04  0.25500000920E-02 0. -1.
    10030    2    1    2    0    0  0.00000000000E+00  0.00000000000E+00 -0.50007725464E+03  0.30463586888E+04  0.30050331113E+04 0.  0.
        3    1    3    3  502    0 -0.10482152268E+04 -0.69194863394E+03 -0.10860049074E+04  0.16604080049E+04  0.10100000352E+00 0. -1.
       -3    1    3    3    0  502  0.10482152268E+04  0.69194863394E+03  0.58592765277E+03  0.13859506839E+04  0.10100000352E+00 0.  1.
</event>
<event>
 5   0  0.2067926E-06  0.3225415E+04  0.7818609E-02  0.8182137E-01
        2   -1    0    0  501    0  0.00000000000E+00  0.00000000000E+00  0.20582580151E+04  0.20582580151E+04  0.25500000920E-02 0.  1.
       -2   -1    0    0    0  501  0.00000000000E+00  0.00000000000E+00 -0.12636052324E+04  0.12636052324E+04  0.25500000920E-02 0. -1.
    10030    2    1    2    0    0  0.00000000000E+00  0.00000000000E+00  0.79465278268E+03  0.33218632474E+04  0.32254150725E+04 0.  0.
        1    1    3    3  502    0  0.31896274368E+03  0.55457214303E+03 -0.11273253412E+04  0.12962059708E+04  0.50400001928E-02 0. -1.
       -1    1    3    3    0  502 -0.31896274368E+03 -0.55457214303E+03  0.19219781239E+04  0.20256572767E+04  0.50400001928E-02 0.  1.
</event>
<event>
 5   0  0.2133385E-06  0.3093206E+04  0.7818609E-02  0.8217605E-01
        2   -1    0    0  501    0  0.00000000000E+00  0.00000000000E+00  0.17671476553E+04  0.17671476553E+04  0.25500000920E-02 0. -1.
       -2   -1    0    0    0  501  0.00000000000E+00  0.00000000000E+00 -0.13535830564E+04  0.13535830564E+04  0.25500000920E-02 0.  1.
    10030    2    1    2    0    0  0.00000000000E+00  0.00000000000E+00  0.41356459883E+03  0.31207307117E+04  0.30932061841E+04 0.  0.
        2    1    3    3  502    0  0.13799547474E+04 -0.46949989590E+02  0.90976204246E+03  0.16535254399E+04  0.25500000920E-02 0. -1.
       -2    1    3    3    0  502 -0.13799547474E+04  0.46949989590E+02 -0.49619744363E+03  0.14672052718E+04  0.25500000920E-02 0.  1.
</event>
<event>
 5   0  0.7656332E-07  0.3107633E+04  0.7818609E-02  0.8213646E-01
        1   -1    0    0  501    0  0.00000000000E+00  0.00000000000E+00  0.13676639780E+04  0.13676639780E+04  0.50400001928E-02 0. -1.
       -1   -1    0    0    0  501  0.00000000000E+00  0.00000000000E+00 -0.17653063058E+04  0.17653063058E+04  0.50400001928E-02 0.  1.
    10030    2    1    2    0    0  0.00000000000E+00  0.00000000000E+00 -0.39764232783E+03  0.31329702839E+04  0.31076330830E+04 0.  0.
        2    1    3    3  502    0  0.10757146725E+04 -0.26155040828E+03  0.90037803322E+03  0.14269727662E+04  0.25500000920E-02 0. -1.
       -2    1    3    3    0  502 -0.10757146725E+04  0.26155040828E+03 -0.12980203611E+04  0.17059975177E+04  0.25500000920E-02 0.  1.
</event>
<event>
 5   0  0.7519202E-07  0.3099256E+04  0.7818609E-02  0.8215942E-01
       -1   -1    0    0    0  501  0.00000000000E+00  0.00000000000E+00  0.12161526564E+04  0.12161526564E+04  0.50400001928E-02 0. -1.
        1   -1    0    0  501    0  0.00000000000E+00  0.00000000000E+00 -0.19745435631E+04  0.19745435631E+04  0.50400001928E-02 0.  1.
    10030    2    1    2    0    0  0.00000000000E+00  0.00000000000E+00 -0.75839090666E+03  0.31906962195E+04  0.30992556522E+04 0.  0.
        4    1    3    3  502    0 -0.13871237928E+04 -0.39036050326E+03  0.20757764091E+03  0.14558790571E+04  0.12699999809E+01 0.  1.
       -4    1    3    3    0  502  0.13871237928E+04  0.39036050326E+03 -0.96596854757E+03  0.17348171624E+04  0.12699999809E+01 0. -1.
</event>
<event>
 5   0  0.2226334E-06  0.3101167E+04  0.7818609E-02  0.8215418E-01
       -2   -1    0    0    0  501  0.00000000000E+00  0.00000000000E+00  0.10949087428E+04  0.10949087428E+04  0.25500000920E-02 0. -1.
        2   -1    0    0  501    0  0.00000000000E+00  0.00000000000E+00 -0.21958993984E+04  0.21958993984E+04  0.25500000920E-02 0.  1.
    10030    2    1    2    0    0  0.00000000000E+00  0.00000000000E+00 -0.11009906556E+04  0.32908081412E+04  0.31011671672E+04 0.  0.
        5    1    3    3  502    0  0.10962348925E+04 -0.71664022136E+03  0.33031359619E+03  0.13507158503E+04  0.46999998093E+01 0. -1.
       -5    1    3    3    0  502 -0.10962348925E+04  0.71664022136E+03 -0.14313042518E+04  0.19400922910E+04  0.46999998093E+01 0.  1.
</event>
<event>
 5   0  0.6979625E-07  0.3121849E+04  0.7818609E-02  0.8209767E-01
       -4   -1    0    0    0  501  0.00000000000E+00  0.00000000000E+00  0.20099367964E+04  0.20099371976E+04  0.12699999809E+01 0.  1.
        4   -1    0    0  501    0  0.00000000000E+00  0.00000000000E+00 -0.12122186235E+04  0.12122192888E+04  0.12699999809E+01 0. -1.
    10030    2    1    2    0    0  0.00000000000E+00  0.00000000000E+00  0.79771817282E+03  0.32221564864E+04  0.31218485132E+04 0.  0.
        4    1    3    3  502    0 -0.19995071850E+03 -0.14085402709E+04 -0.26405263120E+03  0.14469593600E+04  0.12699999809E+01 0.  1.
       -4    1    3    3    0  502  0.19995071850E+03  0.14085402709E+04  0.10617708040E+04  0.17751971264E+04  0.12699999809E+01 0. -1.
</event>
<event>
 5   0  0.7413481E-07  0.3136895E+04  0.7818609E-02  0.8205685E-01
        1   -1    0    0  501    0  0.00000000000E+00  0.00000000000E+00  0.20829055598E+04  0.20829055598E+04  0.50400001928E-02 0.  1.
       -1   -1    0    0    0  501  0.00000000000E+00  0.00000000000E+00 -0.11810557204E+04  0.11810557204E+04  0.50400001928E-02 0. -1.
    10030    2    1    2    0    0  0.00000000000E+00  0.00000000000E+00  0.90184983943E+03  0.32639612802E+04  0.31368949784E+04 0.  0.
        5    1    3    3  502    0  0.11160904950E+04  0.57149706271E+03  0.14312893801E+04  0.19028605480E+04  0.46999998093E+01 0. -1.
       -5    1    3    3    0  502 -0.11160904950E+04 -0.57149706271E+03 -0.52943954064E+03  0.13611007321E+04  0.46999998093E+01 0.  1.
</event>
<event>
 5   0  0.7519202E-07  0.3181383E+04  0.7818609E-02  0.8193751E-01
       -1   -1    0    0    0  501  0.00000000000E+00  0.00000000000E+00  0.25385454922E+04  0.25385454923E+04  0.50400001928E-02 0. -1.
        1   -1    0    0  501    0  0.00000000000E+00  0.00000000000E+00 -0.99675175716E+03  0.99675175717E+03  0.50400001928E-02 0.  1.
    10030    2    1    2    0    0  0.00000000000E+00  0.00000000000E+00  0.15417937351E+04  0.35352972494E+04  0.31813831458E+04 0.  0.
        4    1    3    3  502    0 -0.16254997681E+03 -0.15769354563E+04  0.91642393501E+03  0.18311150619E+04  0.12699999809E+01 0. -1.
       -4    1    3    3    0  502  0.16254997681E+03  0.15769354563E+04  0.62536980008E+03  0.17041821875E+04  0.12699999809E+01 0.  1.
</event>
<event>
 5   0  0.7561815E-07  0.3097300E+04  0.7818609E-02  0.8216479E-01
       -1   -1    0    0    0  501  0.00000000000E+00  0.00000000000E+00  0.13483357557E+04  0.13483357557E+04  0.50400001928E-02 0. -1.
        1   -1    0    0  501    0  0.00000000000E+00  0.00000000000E+00 -0.17787239010E+04  0.17787239010E+04  0.50400001928E-02 0.  1.
    10030    2    1    2    0    0  0.00000000000E+00  0.00000000000E+00 -0.43038814523E+03  0.31270596567E+04  0.30973001374E+04 0.  0.
        3    1    3    3  502    0 -0.97174054376E+03 -0.68257501480E+03 -0.12187917078E+04  0.17016584770E+04  0.10100000352E+00 0.  1.
       -3    1    3    3    0  502  0.97174054376E+03  0.68257501480E+03  0.78840356260E+03  0.14254011796E+04  0.10100000352E+00 0. -1.
</event>
<event>
 5   0  0.7413481E-07  0.3126207E+04  0.7818609E-02  0.8208582E-01
        1   -1    0    0  501    0  0.00000000000E+00  0.00000000000E+00  0.20603017782E+04  0.20603017782E+04  0.50400001928E-02 0. -1.
       -1   -1    0    0    0  501  0.00000000000E+00  0.00000000000E+00 -0.11858907694E+04  0.11858907694E+04  0.50400001928E-02 0.  1.
    10030    2    1    2    0    0  0.00000000000E+00  0.00000000000E+00  0.87441100877E+03  0.32461925475E+04  0.31262071978E+04 0.  0.
        5    1    3    3  502    0 -0.10361108870E+04  0.83478747281E+03 -0.41456711248E+03  0.13936584502E+04  0.46999998093E+01 0.  1.
       -5    1    3    3    0  502  0.10361108870E+04 -0.83478747281E+03  0.12889781213E+04  0.18525340974E+04  0.46999998093E+01 0. -1.
</event>
<event>
 5   0  0.7726743E-07  0.3062178E+04  0.7818609E-02  0.8226195E-01
       -1   -1    0    0    0  501  0.00000000000E+00  0.00000000000E+00  0.15896079078E+04  0.15896079078E+04  0.50400001928E-02 0. -1.
        1   -1    0    0  501    0  0.00000000000E+00  0.00000000000E+00 -0.14747248205E+04  0.14747248205E+04  0.50400001928E-02 0.  1.
    10030    2    1    2    0    0  0.00000000000E+00  0.00000000000E+00  0.11488308732E+03  0.30643327283E+04  0.30621784641E+04 0.  0.
        1    1    3    3  502    0 -0.12581887179E+04  0.93888469747E+02 -0.81056728343E+03  0.14996243582E+04  0.50400001928E-02 0.  1.
       -1    1    3    3    0  502  0.12581887179E+04 -0.93888469747E+02  0.92545037075E+03  0.15647083701E+04  0.50400001928E-02 0. -1.
</event>
<event>
 5   0  0.6979625E-07  0.3055907E+04  0.7818609E-02  0.8227944E-01
        3   -1    0    0  501    0  0.00000000000E+00  0.00000000000E+00  0.91323834320E+03  0.91323834879E+03  0.10100000352E+00 0. -1.
       -3   -1    0    0    0  501  0.00000000000E+00  0.00000000000E+00 -0.25564425968E+04  0.25564425987E+04  0.10100000352E+00 0.  1.
    10030    2    1    2    0    0  0.00000000000E+00  0.00000000000E+00 -0.16432042535E+04  0.34696809475E+04  0.30559066836E+04 0.  0.
        5    1    3    3  502    0 -0.11851483132E+04  0.85564964113E+03 -0.13267045748E+04  0.19740516588E+04  0.46999998093E+01 0.  1.
       -5    1    3    3    0  502  0.11851483132E+04 -0.85564964113E+03 -0.31649967871E+03  0.14956292887E+04  0.46999998093E+01 0. -1.
</event>
<event>
 5   0  0.2067926E-06  0.3091464E+04  0.7818609E-02  0.8218084E-01
        2   -1    0    0  501    0  0.00000000000E+00  0.00000000000E+00  0.14189863971E+04  0.14189863971E+04  0.25500000920E-02 0.  1.
       -2   -1    0    0    0  501  0.00000000000E+00  0.00000000000E+00 -0.16837989912E+04  0.16837989912E+04  0.25500000920E-02 0. -1.
    10030    2    1    2    0    0  0.00000000000E+00  0.00000000000E+00 -0.26481259417E+03  0.31027853883E+04  0.30914642899E+04 0.  0.
        1    1    3    3  502    0  0.12780187341E+03  0.15205520347E+04 -0.38004057122E+03  0.15725274703E+04  0.50400001928E-02 0.  1.
       -1    1    3    3    0  502 -0.12780187341E+03 -0.15205520347E+04  0.11522797704E+03  0.15302579180E+04  0.50400001928E-02 0. -1.
</event>
<event>
 5   0  0.7726743E-07  0.3095640E+04  0.7818609E-02  0.8216935E-01
       -1   -1    0    0    0  501  0.00000000000E+00  0.00000000000E+00  0.24070263278E+04  0.24070263278E+04  0.50400001928E-02 0. -1.
        1   -1    0    0  501    0  0.00000000000E+00  0.00000000000E+00 -0.99531407778E+03  0.99531407779E+03  0.50400001928E-02 0.  1.
    10030    2    1    2    0    0  0.00000000000E+00  0.00000000000E+00  0.14117122500E+04  0.34023404056E+04  0.30956402825E+04 0.  0.
        1    1    3    3  502    0  0.10147535157E+04 -0.75381829806E+03  0.16875339309E+04  0.21084917577E+04  0.50400001928E-02 0. -1.
       -1    1    3    3    0  502 -0.10147535157E+04  0.75381829806E+03 -0.27582168089E+03  0.12938486479E+04  0.50400001928E-02 0.  1.
</event>
<event>
 5   0  0.2094135E-06  0.3124444E+04  0.7818609E-02  0.8209061E-01
       -2   -1    0    0    0  501  0.00000000000E+00  0.00000000000E+00  0.18555666013E+04  0.18555666013E+04  0.25500000920E-02 0.  1.
        2   -1    0    0  501    0  0.00000000000E+00  0.00000000000E+00 -0.13152521598E+04  0.13152521598E+04  0.25500000920E-02 0. -1.
    10030    2    1    2    0    0  0.00000000000E+00  0.00000000000E+00  0.54031444155E+03  0.31708187611E+04  0.31244442578E+04 0.  0.
        4    1    3    3  502    0  0.13292820620E+03 -0.59209066877E+03  0.17310705049E+04  0.18343521946E+04  0.12699999809E+01 0.  1.
       -4    1    3    3    0  502 -0.13292820620E+03  0.59209066877E+03 -0.11907560634E+04  0.13364665665E+04  0.12699999809E+01 0. -1.
</event>
<event>
 5   0  0.2226334E-06  0.3112227E+04  0.7818609E-02  0.8212390E-01
       -2   -1    0    0    0  501  0.00000000000E+00  0.00000000000E+00  0.99587432121E+03  0.99587432121E+03  0.25500000920E-02 0.  1.
        2   -1    0    0  501    0  0.00000000000E+00  0.00000000000E+00 -0.24315213049E+04  0.24315213049E+04  0.25500000920E-02 0. -1.
    10030    2    1    2    0    0  0.00000000000E+00  0.00000000000E+00 -0.14356469837E+04  0.34273956261E+04  0.31122272597E+04 0.  0.
        5    1    3    3  502    0  0.28933475781E+03 -0.68392311581E+03 -0.22237853896E+04  0.23445061270E+04  0.46999998093E+01 0. -1.
       -5    1    3    3    0  502 -0.28933475781E+03  0.68392311581E+03  0.78813840592E+03  0.10828894991E+04  0.46999998093E+01 0.  1.
</event>
<event>
 5   0  0.7656332E-07  0.3055211E+04  0.7818609E-02  0.8228138E-01
        1   -1    0    0  501    0  0.00000000000E+00  0.00000000000E+00  0.22501152598E+04  0.22501152598E+04  0.50400001928E-02 0. -1.
       -1   -1    0    0    0  501  0.00000000000E+00  0.00000000000E+00 -0.10370929629E+04  0.10370929629E+04  0.50400001928E-02 0.  1.
    10030    2    1    2    0    0  0.00000000000E+00  0.00000000000E+00  0.12130222968E+04  0.32872082227E+04  0.30552110904E+04 0.  0.
        2    1    3    3  502    0  0.13195229207E+04  0.26338285889E+03 -0.17164155991E+03  0.13564557102E+04  0.25500000920E-02 0.  1.
       -2    1    3    3    0  502 -0.13195229207E+04 -0.26338285889E+03  0.13846638568E+04  0.19307525126E+04  0.25500000920E-02 0. -1.
</event>
<event>
 5   0  0.7726743E-07  0.3103788E+04  0.7818609E-02  0.8214699E-01
       -1   -1    0    0    0  501  0.00000000000E+00  0.00000000000E+00  0.16298761098E+04  0.16298761098E+04  0.50400001928E-02 0.  1.
        1   -1    0    0  501    0  0.00000000000E+00  0.00000000000E+00 -0.14776430782E+04  0.14776430782E+04  0.50400001928E-02 0. -1.
    10030    2    1    2    0    0  0.00000000000E+00  0.00000000000E+00  0.15223303153E+03  0.31075191880E+04  0.31037881061E+04 0.  0.
        1    1    3    3  502    0 -0.15384744590E+04 -0.13870240143E+03 -0.73170523731E+02  0.15464462301E+04  0.50400001928E-02 0.  1.
       -1    1    3    3    0  502  0.15384744590E+04  0.13870240143E+03  0.22540355527E+03  0.15610729579E+04  0.50400001928E-02 0. -1.
</event>
<event>
 5   0  0.2133385E-06  0.2778649E+04  0.7818609E-02  0.8309928E-01
        2   -1    0    0  501    0  0.00000000000E+00  0.00000000000E+00  0.14035044695E+04  0.14035044695E+04  0.25500000920E-02 0.  1.
       -2   -1    0    0    0  501  0.00000000000E+00  0.00000000000E+00 -0.13752876437E+04  0.13752876437E+04  0.25500000920E-02 0. -1.
    10030    2    1    2    0    0  0.00000000000E+00  0.00000000000E+00  0.28216825770E+02  0.27787921131E+04  0.27786488477E+04 0.  0.
        2    1    3    3  502    0  0.22245779524E+02  0.32551034954E+03  0.13646485131E+04  0.14031099125E+04  0.25500000920E-02 0.  1.
       -2    1    3    3    0  502 -0.22245779524E+02 -0.32551034954E+03 -0.13364316873E+04  0.13756822006E+04  0.25500000920E-02 0. -1.
</event>
<event>
 5   0  0.7561815E-07  0.3092470E+04  0.7818609E-02  0.8217807E-01
       -1   -1    0    0    0  501  0.00000000000E+00  0.00000000000E+00  0.20996314620E+04  0.20996314620E+04  0.50400001928E-02 0. -1.
        1   -1    0    0  501    0  0.00000000000E+00  0.00000000000E+00 -0.11386963920E+04  0.11386963921E+04  0.50400001928E-02 0.  1.
    10030    2    1    2    0    0  0.00000000000E+00  0.00000000000E+00  0.96093506998E+03  0.32383278541E+04  0.30924700616E+04 0.  0.
        3    1    3    3  502    0 -0.83790575681E+03 -0.12237140972E+04  0.93845192262E+03  0.17550653179E+04  0.10100000352E+00 0. -1.
       -3    1    3    3    0  502  0.83790575681E+03  0.12237140972E+04  0.22483147362E+02  0.14832625361E+04  0.10100000352E+00 0.  1.
</event>
<event>
 5   0  0.7561815E-07  0.3095706E+04  0.7818609E-02  0.8216917E-01
        1   -1    0    0  501    0  0.00000000000E+00  0.00000000000E+00  0.10833109761E+04  0.10833109761E+04  0.50400001928E-02 0.  1.
       -1   -1    0    0    0  501  0.00000000000E+00  0.00000000000E+00 -0.22115978652E+04  0.22115978652E+04  0.50400001928E-02 0. -1.
    10030    2    1    2    0    0  0.00000000000E+00  0.00000000000E+00 -0.11282868892E+04  0.32949088413E+04  0.30957055688E+04 0.  0.
        3    1    3    3  502    0  0.93942354822E+03  0.73432618264E+03  0.48632929888E+03  0.12877374510E+04  0.10100000352E+00 0.  1.
       -3    1    3    3    0  502 -0.93942354822E+03 -0.73432618264E+03 -0.16146161880E+04  0.20071713904E+04  0.10100000352E+00 0. -1.
</event>
<event>
 5   0  0.2133385E-06  0.3099784E+04  0.7818609E-02  0.8215797E-01
       -2   -1    0    0    0  501  0.00000000000E+00  0.00000000000E+00  0.28021295136E+04  0.28021295136E+04  0.25500000920E-02 0. -1.
        2   -1    0    0  501    0  0.00000000000E+00  0.00000000000E+00 -0.85726424983E+03  0.85726424983E+03  0.25500000920E-02 0.  1.
    10030    2    1    2    0    0  0.00000000000E+00  0.00000000000E+00  0.19448652638E+04  0.36593937635E+04  0.30997841573E+04 0.  0.
        2    1    3    3  502    0  0.78388418429E+03 -0.61683917921E+03  0.23728441521E+04  0.25739763708E+04  0.25500000920E-02 0. -1.
       -2    1    3    3    0  502 -0.78388418429E+03  0.61683917921E+03 -0.42797888830E+03  0.10854173926E+04  0.25500000920E-02 0.  1.
</event>
<event>
 5   0  0.7413481E-07  0.3113677E+04  0.7818609E-02  0.8211994E-01
        1   -1    0    0  501    0  0.00000000000E+00  0.00000000000E+00  0.12028412165E+04  0.12028412165E+04  0.50400001928E-02 0.  1.
       -1   -1    0    0    0  501  0.00000000000E+00  0.00000000000E+00 -0.20150169671E+04  0.20150169671E+04  0.50400001928E-02 0. -1.
    10030    2    1    2    0    0  0.00000000000E+00  0.00000000000E+00 -0.81217575062E+03  0.32178581836E+04  0.31136765792E+04 0.  0.
        5    1    3    3  502    0  0.43064161071E+03 -0.19567591656E+03 -0.19389495807E+04  0.19958178343E+04  0.46999998093E+01 0. -1.
       -5    1    3    3    0  502 -0.43064161071E+03  0.19567591656E+03  0.11267738301E+04  0.12220403493E+04  0.46999998093E+01 0.  1.
</event>
<event>
 5   0  0.2078009E-06  0.3162710E+04  0.7818609E-02  0.8198735E-01
        2   -1    0    0  501    0  0.00000000000E+00  0.00000000000E+00  0.14107537510E+04  0.14107537510E+04  0.25500000920E-02 0.  1.
       -2   -1    0    0    0  501  0.00000000000E+00  0.00000000000E+00 -0.17725866186E+04  0.17725866186E+04  0.25500000920E-02 0. -1.
    10030    2    1    2    0    0  0.00000000000E+00  0.00000000000E+00 -0.36183286760E+03  0.31833403697E+04  0.31627097377E+04 0.  0.
        3    1    3    3  502    0 -0.11100994644E+04 -0.76303545115E+03  0.65282212186E+03  0.14969036888E+04  0.10100000352E+00 0.  1.
       -3    1    3    3    0  502  0.11100994644E+04  0.76303545115E+03 -0.10146549895E+04  0.16864366808E+04  0.10100000352E+00 0. -1.
</event>
<event>
 5   0  0.2078009E-06  0.3103830E+04  0.7818609E-02  0.8214688E-01
        2   -1    0    0  501    0  0.00000000000E+00  0.00000000000E+00  0.17224138972E+04  0.17224138972E+04  0.25500000920E-02 0.  1.
       -2   -1    0    0    0  501  0.00000000000E+00  0.00000000000E+00 -0.13982932617E+04  0.13982932617E+04  0.25500000920E-02 0. -1.
    10030    2    1    2    0    0  0.00000000000E+00  0.00000000000E+00  0.32412063556E+03  0.31207071589E+04  0.31038297288E+04 0.  0.
        3    1    3    3  502    0  0.45269841811E+03 -0.91919441080E+03  0.13339820783E+04  0.16820708719E+04  0.10100000352E+00 0.  1.
       -3    1    3    3    0  502 -0.45269841811E+03  0.91919441080E+03 -0.10098614428E+04  0.14386362870E+04  0.10100000352E+00 0. -1.
</event>
<event>
 5   0  0.2133385E-06  0.3081113E+04  0.7818609E-02  0.8220940E-01
       -2   -1    0    0    0  501  0.00000000000E+00  0.00000000000E+00  0.18912856715E+04  0.18912856715E+04  0.25500000920E-02 0.  1.
        2   -1    0    0  501    0  0.00000000000E+00  0.00000000000E+00 -0.12548686245E+04  0.12548686245E+04  0.25500000920E-02 0. -1.
    10030    2    1    2    0    0  0.00000000000E+00  0.00000000000E+00  0.63641704703E+03  0.31461542960E+04  0.30811134670E+04 0.  0.
        2    1    3    3  502    0  0.70229574496E+03 -0.98084707833E+03  0.12965757240E+04  0.17709852943E+04  0.25500000920E-02 0.  1.
       -2    1    3    3    0  502 -0.70229574496E+03  0.98084707833E+03 -0.66015867696E+03  0.13751690017E+04  0.25500000920E-02 0. -1.
</event>
<event>
 5   0  0.7519202E-07  0.3142899E+04  0.7818609E-02  0.8204062E-01
       -1   -1    0    0    0  501  0.00000000000E+00  0.00000000000E+00  0.12519418375E+04  0.12519418375E+04  0.50400001928E-02 0.  1.
        1   -1    0    0  501    0  0.00000000000E+00  0.00000000000E+00 -0.19724986724E+04  0.19724986724E+04  0.50400001928E-02 0. -1.
    10030    2    1    2    0    0  0.00000000000E+00  0.00000000000E+00 -0.72055683487E+03  0.32244405099E+04  0.31428990518E+04 0.  0.
        4    1    3    3  502    0 -0.39059084766E+02 -0.13219818025E+04  0.51044009995E+03  0.14176431874E+04  0.12699999809E+01 0.  1.
       -4    1    3    3    0  502  0.39059084766E+02  0.13219818025E+04 -0.12309969348E+04  0.18067973225E+04  0.12699999809E+01 0. -1.
</event>
<event>
 5   0  0.2067926E-06  0.3126865E+04  0.7818609E-02  0.8208404E-01
        2   -1    0    0  501    0  0.00000000000E+00  0.00000000000E+00  0.98909005436E+03  0.98909005436E+03  0.25500000920E-02 0.  1.
       -2   -1    0    0    0  501  0.00000000000E+00  0.00000000000E+00 -0.24712823895E+04  0.24712823895E+04  0.25500000920E-02 0. -1.
    10030    2    1    2    0    0  0.00000000000E+00  0.00000000000E+00 -0.14821923352E+04  0.34603724439E+04  0.31268647767E+04 0.  0.
        1    1    3    3  502    0 -0.90653565294E+03 -0.10087190721E+04 -0.16018745503E+04  0.20988861645E+04  0.50400001928E-02 0. -1.
       -1    1    3    3    0  502  0.90653565294E+03  0.10087190721E+04  0.11968221512E+03  0.13614862794E+04  0.50400001928E-02 0.  1.
</event>
<event>
 5   0  0.2133385E-06  0.3117527E+04  0.7818609E-02  0.8210944E-01
        2   -1    0    0  501    0  0.00000000000E+00  0.00000000000E+00  0.17853372732E+04  0.17853372732E+04  0.25500000920E-02 0. -1.
       -2   -1    0    0    0  501  0.00000000000E+00  0.00000000000E+00 -0.13609439810E+04  0.13609439810E+04  0.25500000920E-02 0.  1.
    10030    2    1    2    0    0  0.00000000000E+00  0.00000000000E+00  0.42439329218E+03  0.31462812542E+04  0.31175272355E+04 0.  0.
        2    1    3    3  502    0  0.42627244610E+03 -0.13935991838E+04  0.77039581627E+03  0.16484345898E+04  0.25500000920E-02 0. -1.
       -2    1    3    3    0  502 -0.42627244610E+03  0.13935991838E+04 -0.34600252409E+03  0.14978466644E+04  0.25500000920E-02 0.  1.
</event>
<event>
 5   0  0.2067926E-06  0.2855918E+04  0.7818609E-02  0.8286115E-01
       -2   -1    0    0    0  501  0.00000000000E+00  0.00000000000E+00  0.12833800918E+04  0.12833800918E+04  0.25500000920E-02 0. -1.
        2   -1    0    0  501    0  0.00000000000E+00  0.00000000000E+00 -0.15888249944E+04  0.15888249944E+04  0.25500000920E-02 0.  1.
    10030    2    1    2    0    0  0.00000000000E+00  0.00000000000E+00 -0.30544490261E+03  0.28722050862E+04  0.28559176229E+04 0.  0.
        1    1    3    3  502    0  0.53096220464E+03  0.32870429354E+03  0.11387737517E+04  0.12987582658E+04  0.50400001928E-02 0. -1.
       -1    1    3    3    0  502 -0.53096220464E+03 -0.32870429354E+03 -0.14442186543E+04  0.15734468204E+04  0.50400001928E-02 0.  1.
</event>
<event>
 5   0  0.2078009E-06  0.3103730E+04  0.7818609E-02  0.8214715E-01
        2   -1    0    0  501    0  0.00000000000E+00  0.00000000000E+00  0.15098797939E+04  0.15098797939E+04  0.25500000920E-02 0. -1.
       -2   -1    0    0    0  501  0.00000000000E+00  0.00000000000E+00 -0.15950176527E+04  0.15950176527E+04  0.25500000920E-02 0.  1.
    10030    2    1    2    0    0  0.00000000000E+00  0.00000000000E+00 -0.85137858741E+02  0.31048974466E+04  0.31037299655E+04 0.  0.
        3    1    3    3  502    0 -0.11962925944E+04  0.78585929462E+03 -0.64245615928E+03  0.15688979346E+04  0.10100000352E+00 0.  1.
       -3    1    3    3    0  502  0.11962925944E+04 -0.78585929462E+03  0.55731830054E+03  0.15359995120E+04  0.10100000352E+00 0. -1.
</event>
<event>
 5   0  0.7656332E-07  0.2718412E+04  0.7818609E-02  0.8329056E-01
        1   -1    0    0  501    0  0.00000000000E+00  0.00000000000E+00  0.14166843173E+04  0.14166843173E+04  0.50400001928E-02 0. -1.
       -1   -1    0    0    0  501  0.00000000000E+00  0.00000000000E+00 -0.13040595616E+04  0.13040595616E+04  0.50400001928E-02 0.  1.
    10030    2    1    2    0    0  0.00000000000E+00  0.00000000000E+00  0.11262475571E+03  0.27207438789E+04  0.27184118377E+04 0.  0.
        2    1    3    3  502    0  0.82461215773E+03  0.33914571353E+03  0.10830753410E+04  0.14028746274E+04  0.25500000920E-02 0. -1.
       -2    1    3    3    0  502 -0.82461215773E+03 -0.33914571353E+03 -0.97045058534E+03  0.13178692516E+04  0.25500000920E-02 0.  1.
</event>
<event>
 5   0  0.2067926E-06  0.3125552E+04  0.7818609E-02  0.8208760E-01
        2   -1    0    0  501    0  0.00000000000E+00  0.00000000000E+00  0.11615600444E+04  0.11615600444E+04  0.25500000920E-02 0.  1.
       -2   -1    0    0    0  501  0.00000000000E+00  0.00000000000E+00 -0.21025761878E+04  0.21025761878E+04  0.25500000920E-02 0. -1.
    10030    2    1    2    0    0  0.00000000000E+00  0.00000000000E+00 -0.94101614334E+03  0.32641362322E+04  0.31255517849E+04 0.  0.
        1    1    3    3  502    0  0.85867864211E+03  0.10013900249E+04  0.40459427050E+03  0.13797853152E+04  0.50400001928E-02 0.  1.
       -1    1    3    3    0  502 -0.85867864211E+03 -0.10013900249E+04 -0.13456104138E+04  0.18843509170E+04  0.50400001928E-02 0. -1.
</event>
<event>
 5   0  0.2094135E-06  0.3041326E+04  0.7818609E-02  0.8232028E-01
        2   -1    0    0  501    0  0.00000000000E+00  0.00000000000E+00  0.19551866673E+04  0.19551866673E+04  0.25500000920E-02 0.  1.
       -2   -1    0    0    0  501  0.00000000000E+00  0.00000000000E+00 -0.11827082466E+04  0.11827082466E+04  0.25500000920E-02 0. -1.
    10030    2    1    2    0    0  0.00000000000E+00  0.00000000000E+00  0.77247842064E+03  0.31378949139E+04  0.30413256288E+04 0.  0.
        4    1    3    3  502    0  0.53765414527E+03 -0.33993978645E+03  0.18113214632E+04  0.19197703233E+04  0.12699999809E+01 0.  1.
       -4    1    3    3    0  502 -0.53765414527E+03  0.33993978645E+03 -0.10388430425E+04  0.12181245906E+04  0.12699999809E+01 0. -1.
</event>
<event>
 5   0  0.7726743E-07  0.2970248E+04  0.7818609E-02  0.8252278E-01
       -1   -1    0    0    0  501  0.00000000000E+00  0.00000000000E+00  0.13339728449E+04  0.13339728449E+04  0.50400001928E-02 0.  1.
        1   -1    0    0  501    0  0.00000000000E+00  0.00000000000E+00 -0.16534024743E+04  0.16534024743E+04  0.50400001928E-02 0. -1.
    10030    2    1    2    0    0  0.00000000000E+00  0.00000000000E+00 -0.31942962946E+03  0.29873753192E+04  0.29702484761E+04 0.  0.
        1    1    3    3  502    0 -0.12552342499E+02 -0.12321704061E+04  0.67403590598E+03  0.14045376013E+04  0.50400001928E-02 0.  1.
       -1    1    3    3    0  502  0.12552342499E+02  0.12321704061E+04 -0.99346553544E+03  0.15828377179E+04  0.50400001928E-02 0. -1.
</event>
<event>
 5   0  0.7656332E-07  0.3138020E+04  0.7818609E-02  0.8205380E-01
       -1   -1    0    0    0  501  0.00000000000E+00  0.00000000000E+00  0.93533702447E+03  0.93533702448E+03  0.50400001928E-02 0.  1.
        1   -1    0    0  501    0  0.00000000000E+00  0.00000000000E+00 -0.26319847037E+04  0.26319847037E+04  0.50400001928E-02 0. -1.
    10030    2    1    2    0    0  0.00000000000E+00  0.00000000000E+00 -0.16966476793E+04  0.35673217282E+04  0.31380202302E+04 0.  0.
        2    1    3    3  502    0 -0.34236244412E+03 -0.11688559866E+04 -0.19727607182E+04  0.23184523311E+04  0.25500000920E-02 0. -1.
       -2    1    3    3    0  502  0.34236244412E+03  0.11688559866E+04  0.27611303891E+03  0.12488693971E+04  0.25500000920E-02 0.  1.
</event>
<event>
 5   0  0.7413481E-07  0.3122418E+04  0.7818609E-02  0.8209612E-01
       -1   -1    0    0    0  501  0.00000000000E+00  0.00000000000E+00  0.11160459723E+04  0.11160459723E+04  0.50400001928E-02 0.  1.
        1   -1    0    0  501    0  0.00000000000E+00  0.00000000000E+00 -0.21839369156E+04  0.21839369156E+04  0.50400001928E-02 0. -1.
    10030    2    1    2    0    0  0.00000000000E+00  0.00000000000E+00 -0.10678909433E+04  0.32999828879E+04  0.31224182925E+04 0.  0.
        5    1    3    3  502    0  0.60900488369E+02  0.15405527163E+04 -0.79355736245E+03  0.17340031484E+04  0.46999998093E+01 0.  1.
       -5    1    3    3    0  502 -0.60900488369E+02 -0.15405527163E+04 -0.27433358089E+03  0.15659797395E+04  0.46999998093E+01 0. -1.
</event>
<event>
 5   0  0.6979625E-07  0.3092679E+04  0.7818609E-02  0.8217750E-01
        3   -1    0    0  501    0  0.00000000000E+00  0.00000000000E+00  0.18408037627E+04  0.18408037655E+04  0.10100000352E+00 0. -1.
       -3   -1    0    0    0  501  0.00000000000E+00  0.00000000000E+00 -0.12989788847E+04  0.12989788886E+04  0.10100000352E+00 0.  1.
    10030    2    1    2    0    0  0.00000000000E+00  0.00000000000E+00  0.54182487803E+03  0.31397826541E+04  0.30926785990E+04 0.  0.
        5    1    3    3  502    0  0.87115189708E+03 -0.11195353975E+04  0.89581815003E+03  0.16777298299E+04  0.46999998093E+01 0. -1.
       -5    1    3    3    0  502 -0.87115189708E+03  0.11195353975E+04 -0.35399327201E+03  0.14620528242E+04  0.46999998093E+01 0.  1.
</event>
<event>
 5   0  0.7561815E-07  0.3096091E+04  0.7818609E-02  0.8216812E-01
       -1   -1    0    0    0  501  0.00000000000E+00  0.00000000000E+00  0.13813477430E+04  0.13813477431E+04  0.50400001928E-02 0.  1.
        1   -1    0    0  501    0  0.00000000000E+00  0.00000000000E+00 -0.17348595365E+04  0.17348595365E+04  0.50400001928E-02 0. -1.
    10030    2    1    2    0    0  0.00000000000E+00  0.00000000000E+00 -0.35351179345E+03  0.31162072796E+04  0.30960906352E+04 0.  0.
        3    1    3    3  502    0  0.61164685770E+03  0.33062490777E+03 -0.15688621373E+04  0.17160282994E+04  0.10100000352E+00 0. -1.
       -3    1    3    3    0  502 -0.61164685770E+03 -0.33062490777E+03  0.12153503438E+04  0.14001789802E+04  0.10100000352E+00 0.  1.
</event>
<event>
 5   0  0.2094135E-06  0.3113986E+04  0.7818609E-02  0.8211910E-01
       -2   -1    0    0    0  501  0.00000000000E+00  0.00000000000E+00  0.11370518915E+04  0.11370518915E+04  0.25500000920E-02 0. -1.
        2   -1    0    0  501    0  0.00000000000E+00  0.00000000000E+00 -0.21320284866E+04  0.21320284866E+04  0.25500000920E-02 0.  1.
    10030    2    1    2    0    0  0.00000000000E+00  0.00000000000E+00 -0.99497659513E+03  0.32690803781E+04  0.31139858852E+04 0.  0.
        4    1    3    3  502    0  0.44609230331E+02  0.24124760141E+03 -0.21116086449E+04  0.21258135080E+04  0.12699999809E+01 0.  1.
       -4    1    3    3    0  502 -0.44609230331E+02 -0.24124760141E+03  0.11166320498E+04  0.11432668701E+04  0.12699999809E+01 0. -1.
</event>
<event>
 5   0  0.7726743E-07  0.3097371E+04  0.7818609E-02  0.8216460E-01
       -1   -1    0    0    0  501  0.00000000000E+00  0.00000000000E+00  0.19760032331E+04  0.19760032331E+04  0.50400001928E-02 0.  1.
        1   -1    0    0  501    0  0.00000000000E+00  0.00000000000E+00 -0.12137767557E+04  0.12137767557E+04  0.50400001928E-02 0. -1.
    10030    2    1    2    0    0  0.00000000000E+00  0.00000000000E+00  0.76222647741E+03  0.31897799888E+04  0.30973710101E+04 0.  0.
        1    1    3    3  502    0  0.12857060507E+04  0.83598751411E+03  0.60321307444E+03  0.16479627380E+04  0.50400001928E-02 0.  1.
       -1    1    3    3    0  502 -0.12857060507E+04 -0.83598751411E+03  0.15901340297E+03  0.15418172508E+04  0.50400001928E-02 0. -1.
</event>
<event>
 5   0  0.2226334E-06  0.3068840E+04  0.7818609E-02  0.8224342E-01
       -2   -1    0    0    0  501  0.00000000000E+00  0.00000000000E+00  0.27263780456E+04  0.27263780456E+04  0.25500000920E-02 0. -1.
        2   -1    0    0  501    0  0.00000000000E+00  0.00000000000E+00 -0.86357983355E+03  0.86357983355E+03  0.25500000920E-02 0.  1.
    10030    2    1    2    0    0  0.00000000000E+00  0.00000000000E+00  0.18627982121E+04  0.35899578792E+04  0.30688402362E+04 0.  0.
        5    1    3    3  502    0  0.48314396832E+03 -0.10307489624E+02  0.26350241253E+04  0.26789752835E+04  0.46999998093E+01 0. -1.
       -5    1    3    3    0  502 -0.48314396832E+03  0.10307489624E+02 -0.77222591328E+03  0.91098259567E+03  0.46999998093E+01 0.  1.
</event>
<event>
 5   0  0.2226334E-06  0.3092462E+04  0.7818609E-02  0.8217810E-01
        2   -1    0    0  501    0  0.00000000000E+00  0.00000000000E+00  0.20668503135E+04  0.20668503135E+04  0.25500000920E-02 0. -1.
       -2   -1    0    0    0  501  0.00000000000E+00  0.00000000000E+00 -0.11567503215E+04  0.11567503215E+04  0.25500000920E-02 0.  1.
    10030    2    1    2    0    0  0.00000000000E+00  0.00000000000E+00  0.91009999198E+03  0.32236006351E+04  0.30924616504E+04 0.  0.
        5    1    3    3  502    0 -0.21055815685E+03 -0.17636064167E+03  0.20412103772E+04  0.20596115428E+04  0.46999998093E+01 0. -1.
       -5    1    3    3    0  502  0.21055815685E+03  0.17636064167E+03 -0.11311103852E+04  0.11639890923E+04  0.46999998093E+01 0.  1.
</event>
<event>
 5   0  0.2226334E-06  0.3136421E+04  0.7818609E-02  0.8205813E-01
        2   -1    0    0  501    0  0.00000000000E+00  0.00000000000E+00  0.31367479114E+04  0.31367479114E+04  0.25500000920E-02 0.  1.
       -2   -1    0    0    0  501  0.00000000000E+00  0.00000000000E+00 -0.78402372655E+03  0.78402372656E+03  0.25500000920E-02 0. -1.
    10030    2    1    2    0    0  0.00000000000E+00  0.00000000000E+00  0.23527241849E+04  0.39207716380E+04  0.31364213918E+04 0.  0.
        5    1    3    3  502    0  0.67448596814E+03 -0.12074494489E+04  0.21004033762E+04  0.25148721489E+04  0.46999998093E+01 0.  1.
       -5    1    3    3    0  502 -0.67448596814E+03  0.12074494489E+04  0.25232080867E+03  0.14058994890E+04  0.46999998093E+01 0. -1.
</event>
<event>
 5   0  0.2133385E-06  0.3102976E+04  0.7818609E-02  0.8214922E-01
       -2   -1    0    0    0  501  0.00000000000E+00  0.00000000000E+00  0.15469899792E+04  0.15469899792E+04  0.25500000920E-02 0. -1.
        2   -1    0    0  501    0  0.00000000000E+00  0.00000000000E+00 -0.15559989406E+04  0.15559989406E+04  0.25500000920E-02 0.  1.
    10030    2    1    2    0    0  0.00000000000E+00  0.00000000000E+00 -0.90089613876E+01  0.31029889199E+04  0.31029758419E+04 0.  0.
        2    1    3    3  502    0  0.12138812896E+04 -0.77695482377E+03  0.56990910437E+03  0.15498267550E+04  0.25500000920E-02 0. -1.
       -2    1    3    3    0  502 -0.12138812896E+04  0.77695482377E+03 -0.57891806576E+03  0.15531621648E+04  0.25500000920E-02 0.  1.
</event>
<event>
 5   0  0.7519202E-07  0.3099935E+04  0.7818609E-02  0.8215756E-01
       -1   -1    0    0    0  501  0.00000000000E+00  0.00000000000E+00  0.11938405465E+04  0.11938405465E+04  0.50400001928E-02 0. -1.
        1   -1    0    0  501    0  0.00000000000E+00  0.00000000000E+00 -0.20123282838E+04  0.20123282838E+04  0.50400001928E-02 0.  1.
    10030    2    1    2    0    0  0.00000000000E+00  0.00000000000E+00 -0.81848773727E+03  0.32061688303E+04  0.30999349013E+04 0.  0.
        4    1    3    3  502    0  0.22530503326E+03  0.10149282674E+03  0.11733356131E+04  0.11990751543E+04  0.12699999809E+01 0. -1.
       -4    1    3    3    0  502 -0.22530503326E+03 -0.10149282674E+03 -0.19918233504E+04  0.20070936759E+04  0.12699999809E+01 0.  1.
</event>
<event>
 5   0  0.2067926E-06  0.3104541E+04  0.7818609E-02  0.8214493E-01
        2   -1    0    0  501    0  0.00000000000E+00  0.00000000000E+00  0.26721523628E+04  0.26721523628E+04  0.25500000920E-02 0.  1.
       -2   -1    0    0    0  501  0.00000000000E+00  0.00000000000E+00 -0.90172366253E+03  0.90172366253E+03  0.25500000920E-02 0. -1.
    10030    2    1    2    0    0  0.00000000000E+00  0.00000000000E+00  0.17704287002E+04  0.35738760253E+04  0.31045405556E+04 0.  0.
        1    1    3    3  502    0  0.86271629691E+03 -0.99989111265E+03  0.18243105785E+04  0.22521480264E+04  0.50400001928E-02 0.  1.
       -1    1    3    3    0  502 -0.86271629691E+03  0.99989111265E+03 -0.53881878275E+02  0.13217279989E+04  0.50400001928E-02 0. -1.
</event>
<event>
 5   0  0.2226334E-06  0.3117694E+04  0.7818609E-02  0.8210899E-01
        2   -1    0    0  501    0  0.00000000000E+00  0.00000000000E+00  0.27915337017E+04  0.27915337017E+04  0.25500000920E-02 0.  1.
       -2   -1    0    0    0  501  0.00000000000E+00  0.00000000000E+00 -0.87049083032E+03  0.87049083032E+03  0.25500000920E-02 0. -1.
    10030    2    1    2    0    0  0.00000000000E+00  0.00000000000E+00  0.19210428713E+04  0.36620245320E+04  0.31176943339E+04 0.  0.
        5    1    3    3  502    0 -0.66311629417E+03 -0.16330744588E+02  0.26174868138E+04  0.27002313277E+04  0.46999998093E+01 0.  1.
       -5    1    3    3    0  502  0.66311629417E+03  0.16330744588E+02 -0.69644394245E+03  0.96179320427E+03  0.46999998093E+01 0. -1.
</event>
<event>
 5   0  0.2094135E-06  0.3093295E+04  0.7818609E-02  0.8217581E-01
       -2   -1    0    0    0  501  0.00000000000E+00  0.00000000000E+00  0.21600597107E+04  0.21600597107E+04  0.25500000920E-02 0. -1.
        2   -1    0    0  501    0  0.00000000000E+00  0.00000000000E+00 -0.11074313416E+04  0.11074313416E+04  0.25500000920E-02 0.  1.
    10030    2    1    2    0    0  0.00000000000E+00  0.00000000000E+00  0.10526283690E+04  0.32674910523E+04  0.30932945695E+04 0.  0.
        4    1    3    3  502    0  0.10042025250E+04  0.24733093508E+03  0.17410851442E+04  0.20250862685E+04  0.12699999809E+01 0. -1.
       -4    1    3    3    0  502 -0.10042025250E+04 -0.24733093508E+03 -0.68845677514E+03  0.12424047838E+04  0.12699999809E+01 0.  1.
</event>
<event>
 5   0  0.2078009E-06  0.3105800E+04  0.7818609E-02  0.8214148E-01
       -2   -1    0    0    0  501  0.00000000000E+00  0.00000000000E+00  0.16270846403E+04  0.16270846403E+04  0.25500000920E-02 0. -1.
        2   -1    0    0  501    0  0.00000000000E+00  0.00000000000E+00 -0.14820978579E+04  0.14820978579E+04  0.25500000920E-02 0.  1.
    10030    2    1    2    0    0  0.00000000000E+00  0.00000000000E+00  0.14498678237E+03  0.31091824982E+04  0.31058001610E+04 0.  0.
        3    1    3    3  502    0 -0.53916693353E+03 -0.14559650948E+04  0.10356443452E+03  0.15560401478E+04  0.10100000352E+00 0.  1.
       -3    1    3    3    0  502  0.53916693353E+03  0.14559650948E+04  0.41422347843E+02  0.15531423504E+04  0.10100000352E+00 0. -1.
</event>
<event>
 5   0  0.2226334E-06  0.3117345E+04  0.7818609E-02  0.8210994E-01
        2   -1    0    0  501    0  0.00000000000E+00  0.00000000000E+00  0.15058775406E+04  0.15058775406E+04  0.25500000920E-02 0. -1.
       -2   -1    0    0    0  501  0.00000000000E+00  0.00000000000E+00 -0.16133179424E+04  0.16133179424E+04  0.25500000920E-02 0.  1.
    10030    2    1    2    0    0  0.00000000000E+00  0.00000000000E+00 -0.10744040183E+03  0.31191954830E+04  0.31173445464E+04 0.  0.
        5    1    3    3  502    0  0.31277979474E+03  0.14561819197E+04 -0.51349295709E+03  0.15754345718E+04  0.46999998093E+01 0.  1.
       -5    1    3    3    0  502 -0.31277979474E+03 -0.14561819197E+04  0.40605255526E+03  0.15437609111E+04  0.46999998093E+01 0. -1.
</event>
<event>
 5   0  0.7519202E-07  0.3084496E+04  0.7818609E-02  0.8220006E-01
        1   -1    0    0  501    0  0.00000000000E+00  0.00000000000E+00  0.16943835617E+04  0.16943835617E+04  0.50400001928E-02 0.  1.
       -1   -1    0    0    0  501  0.00000000000E+00  0.00000000000E+00 -0.14037724214E+04  0.14037724214E+04  0.50400001928E-02 0. -1.
    10030    2    1    2    0    0  0.00000000000E+00  0.00000000000E+00  0.29061114031E+03  0.30981559832E+04  0.30844960141E+04 0.  0.
        4    1    3    3  502    0  0.52935170726E+03 -0.11576035842E+04 -0.72933664380E+03  0.14670353919E+04  0.12699999809E+01 0. -1.
       -4    1    3    3    0  502 -0.52935170726E+03  0.11576035842E+04  0.10199477841E+04  0.16311205913E+04  0.12699999809E+01 0.  1.
</event>
<event>
 5   0  0.7561815E-07  0.3102439E+04  0.7818609E-02  0.8215069E-01
       -1   -1    0    0    0  501  0.00000000000E+00  0.00000000000E+00  0.12373280096E+04  0.12373280096E+04  0.50400001928E-02 0.  1.
        1   -1    0    0  501    0  0.00000000000E+00  0.00000000000E+00 -0.19447403671E+04  0.19447403671E+04  0.50400001928E-02 0. -1.
    10030    2    1    2    0    0  0.00000000000E+00  0.00000000000E+00 -0.70741235755E+03  0.31820683767E+04  0.31024388649E+04 0.  0.
        3    1    3    3  502    0  0.98891318903E+03 -0.24482538893E+03  0.84610164472E+03  0.13243023710E+04  0.10100000352E+00 0.  1.
       -3    1    3    3    0  502 -0.98891318903E+03  0.24482538893E+03 -0.15535140023E+04  0.18577660057E+04  0.10100000352E+00 0. -1.
</event>
<event>
 5   0  0.7413481E-07  0.2910337E+04  0.7818609E-02  0.8269808E-01
        1   -1    0    0  501    0  0.00000000000E+00  0.00000000000E+00  0.22577227020E+04  0.22577227020E+04  0.50400001928E-02 0. -1.
       -1   -1    0    0    0  501  0.00000000000E+00  0.00000000000E+00 -0.93789890978E+03  0.93789890980E+03  0.50400001928E-02 0.  1.
    10030    2    1    2    0    0  0.00000000000E+00  0.00000000000E+00  0.13198237922E+04  0.31956216118E+04  0.29103372044E+04 0.  0.
        5    1    3    3  502    0 -0.35168442345E+03  0.56253322937E+03 -0.76217526513E+03  0.10104745383E+04  0.46999998093E+01 0.  1.
       -5    1    3    3    0  502  0.35168442345E+03 -0.56253322937E+03  0.20819990573E+04  0.21851470735E+04  0.46999998093E+01 0. -1.
</event>
<event>
 5   0  0.2067926E-06  0.3074275E+04  0.7818609E-02  0.8222834E-01
       -2   -1    0    0    0  501  0.00000000000E+00  0.00000000000E+00  0.10484625862E+04  0.10484625862E+04  0.25500000920E-02 0. -1.
        2   -1    0    0  501    0  0.00000000000E+00  0.00000000000E+00 -0.22535774789E+04  0.22535774789E+04  0.25500000920E-02 0.  1.
    10030    2    1    2    0    0  0.00000000000E+00  0.00000000000E+00 -0.12051148927E+04  0.33020400650E+04  0.30742749855E+04 0.  0.
        1    1    3    3  502    0 -0.68936932392E+03  0.57782446721E+03 -0.19413721810E+04  0.21396348111E+04  0.50400001928E-02 0.  1.
       -1    1    3    3    0  502  0.68936932392E+03 -0.57782446721E+03  0.73625728833E+03  0.11624052539E+04  0.50400001928E-02 0. -1.
</event>
<event>
 5   0  0.2226334E-06  0.3086138E+04  0.7818609E-02  0.8219552E-01
       -2   -1    0    0    0  501  0.00000000000E+00  0.00000000000E+00  0.10467150182E+04  0.10467150182E+04  0.25500000920E-02 0. -1.
        2   -1    0    0  501    0  0.00000000000E+00  0.00000000000E+00 -0.22747951383E+04  0.22747951384E+04  0.25500000920E-02 0.  1.
    10030    2    1    2    0    0  0.00000000000E+00  0.00000000000E+00 -0.12280801202E+04  0.33215101565E+04  0.30861381917E+04 0.  0.
        5    1    3    3  502    0  0.26932907140E+03 -0.14204283768E+04 -0.33568368602E+02  0.14461341044E+04  0.46999998093E+01 0. -1.
       -5    1    3    3    0  502 -0.26932907140E+03  0.14204283768E+04 -0.11945117516E+04  0.18753760522E+04  0.46999998093E+01 0.  1.
</event>
<event>
 5   0  0.7413481E-07  0.3094530E+04  0.7818609E-02  0.8217241E-01
        1   -1    0    0  501    0  0.00000000000E+00  0.00000000000E+00  0.18289455494E+04  0.18289455494E+04  0.50400001928E-02 0.  1.
       -1   -1    0    0    0  501  0.00000000000E+00  0.00000000000E+00 -0.13089671971E+04  0.13089671971E+04  0.50400001928E-02 0. -1.
    10030    2    1    2    0    0  0.00000000000E+00  0.00000000000E+00  0.51997835228E+03  0.31379127465E+04  0.30945304842E+04 0.  0.
        5    1    3    3  502    0  0.10664120058E+04 -0.31695922950E+03 -0.83040424822E+03  0.13882690751E+04  0.46999998093E+01 0. -1.
       -5    1    3    3    0  502 -0.10664120058E+04  0.31695922950E+03  0.13503826005E+04  0.17496436714E+04  0.46999998093E+01 0.  1.
</event>
<event>
 5   0  0.7726743E-07  0.3085586E+04  0.7818609E-02  0.8219705E-01
        1   -1    0    0  501    0  0.00000000000E+00  0.00000000000E+00  0.22366825478E+04  0.22366825478E+04  0.50400001928E-02 0. -1.
       -1   -1    0    0    0  501  0.00000000000E+00  0.00000000000E+00 -0.10641696960E+04  0.10641696960E+04  0.50400001928E-02 0.  1.
    10030    2    1    2    0    0  0.00000000000E+00  0.00000000000E+00  0.11725128519E+04  0.33008522438E+04  0.30855857058E+04 0.  0.
        1    1    3    3  502    0  0.11979624105E+04 -0.69963857485E+02  0.16235431123E+04  0.20188861077E+04  0.50400001928E-02 0. -1.
       -1    1    3    3    0  502 -0.11979624105E+04  0.69963857485E+02 -0.45103026048E+03  0.12819661361E+04  0.50400001928E-02 0.  1.
</event>
<event>
 5   0  0.2094135E-06  0.3108072E+04  0.7818609E-02  0.8213526E-01
        2   -1    0    0  501    0  0.00000000000E+00  0.00000000000E+00  0.25041919712E+04  0.25041919712E+04  0.25500000920E-02 0.  1.
       -2   -1    0    0    0  501  0.00000000000E+00  0.00000000000E+00 -0.96439410824E+03  0.96439410825E+03  0.25500000920E-02 0. -1.
    10030    2    1    2    0    0  0.00000000000E+00  0.00000000000E+00  0.15397978630E+04  0.34685860794E+04  0.31080720603E+04 0.  0.
        4    1    3    3  502    0 -0.90554317081E+03 -0.98884552334E+03  0.16466478202E+04  0.21235052531E+04  0.12699999809E+01 0.  1.
       -4    1    3    3    0  502  0.90554317081E+03  0.98884552334E+03 -0.10684995722E+03  0.13450808264E+04  0.12699999809E+01 0. -1.
</event>
<event>
 5   0  0.7726743E-07  0.3079355E+04  0.7818609E-02  0.8221427E-01
        1   -1    0    0  501    0  0.00000000000E+00  0.00000000000E+00  0.31644622015E+04  0.31644622015E+04  0.50400001928E-02 0.  1.
       -1   -1    0    0    0  501  0.00000000000E+00  0.00000000000E+00 -0.74913415198E+03  0.74913415200E+03  0.50400001928E-02 0. -1.
    10030    2    1    2    0    0  0.00000000000E+00  0.00000000000E+00  0.24153280495E+04  0.39135963535E+04  0.30793549375E+04 0.  0.
        1    1    3    3  502    0 -0.41019942705E+03  0.46891214448E+03 -0.58178361153E+03  0.85241676419E+03  0.50400001928E-02 0. -1.
       -1    1    3    3    0  502  0.41019942705E+03 -0.46891214448E+03  0.29971116610E+04  0.30611795893E+04  0.50400001928E-02 0.  1.
</event>
<event>
 5   0  0.2094135E-06  0.3116116E+04  0.7818609E-02  0.8211329E-01
       -2   -1    0    0    0  501  0.00000000000E+00  0.00000000000E+00  0.14772917036E+04  0.14772917036E+04  0.25500000920E-02 0.  1.
        2   -1    0    0  501    0  0.00000000000E+00  0.00000000000E+00 -0.16432394911E+04  0.16432394911E+04  0.25500000920E-02 0. -1.
    10030    2    1    2    0    0  0.00000000000E+00  0.00000000000E+00 -0.16594778752E+03  0.31205311946E+04  0.31161155737E+04 0.  0.
        4    1    3    3  502    0  0.27751400743E+03  0.10172297690E+04  0.10657226018E+04  0.14991786765E+04  0.12699999809E+01 0.  1.
       -4    1    3    3    0  502 -0.27751400743E+03 -0.10172297690E+04 -0.12316703893E+04  0.16213525181E+04  0.12699999809E+01 0. -1.
</event>
<event>
 5   0  0.2067926E-06  0.3122401E+04  0.7818609E-02  0.8209617E-01
       -2   -1    0    0    0  501  0.00000000000E+00  0.00000000000E+00  0.95754901413E+03  0.95754901413E+03  0.25500000920E-02 0. -1.
        2   -1    0    0  501    0  0.00000000000E+00  0.00000000000E+00 -0.25454016391E+04  0.25454016391E+04  0.25500000920E-02 0.  1.
    10030    2    1    2    0    0  0.00000000000E+00  0.00000000000E+00 -0.15878526250E+04  0.35029506533E+04  0.31224008904E+04 0.  0.
        1    1    3    3  502    0  0.14586094572E+04  0.33619627558E+03 -0.12915865086E+04  0.19770597344E+04  0.50400001928E-02 0.  1.
       -1    1    3    3    0  502 -0.14586094572E+04 -0.33619627558E+03 -0.29626611641E+03  0.15258909188E+04  0.50400001928E-02 0. -1.
</event>
<event>
 5   0  0.2226334E-06  0.3128695E+04  0.7818609E-02  0.8207907E-01
       -2   -1    0    0    0  501  0.00000000000E+00  0.00000000000E+00  0.12291945291E+04  0.12291945291E+04  0.25500000920E-02 0.  1.
        2   -1    0    0  501    0  0.00000000000E+00  0.00000000000E+00 -0.19908834861E+04  0.19908834861E+04  0.25500000920E-02 0. -1.
    10030    2    1    2    0    0  0.00000000000E+00  0.00000000000E+00 -0.76168895701E+03  0.32200780152E+04  0.31286949926E+04 0.  0.
        5    1    3    3  502    0  0.11665243945E+04 -0.57465217829E+03 -0.12758157031E+04  0.18217387538E+04  0.46999998093E+01 0. -1.
       -5    1    3    3    0  502 -0.11665243945E+04  0.57465217829E+03  0.51412674613E+03  0.13983392614E+04  0.46999998093E+01 0.  1.
</event>
<event>
 5   0  0.7726743E-07  0.3118099E+04  0.7818609E-02  0.8210788E-01
       -1   -1    0    0    0  501  0.00000000000E+00  0.00000000000E+00  0.15825997110E+04  0.15825997110E+04  0.50400001928E-02 0. -1.
        1   -1    0    0  501    0  0.00000000000E+00  0.00000000000E+00 -0.15358492524E+04  0.15358492524E+04  0.50400001928E-02 0.  1.
    10030    2    1    2    0    0  0.00000000000E+00  0.00000000000E+00  0.46750458581E+02  0.31184489634E+04  0.31180985122E+04 0.  0.
        1    1    3    3  502    0  0.64725520776E+03 -0.12856579854E+04  0.62242403887E+03  0.15682051663E+04  0.50400001928E-02 0.  1.
       -1    1    3    3    0  502 -0.64725520776E+03  0.12856579854E+04 -0.57567358029E+03  0.15502437971E+04  0.50400001928E-02 0. -1.
</event>
<event>
 5   0  0.6979625E-07  0.2963519E+04  0.7818609E-02  0.8254226E-01
        3   -1    0    0  501    0  0.00000000000E+00  0.00000000000E+00  0.22823614127E+04  0.22823614149E+04  0.10100000352E+00 0. -1.
       -3   -1    0    0    0  501  0.00000000000E+00  0.00000000000E+00 -0.96199091659E+03  0.96199092189E+03  0.10100000352E+00 0.  1.
    10030    2    1    2    0    0  0.00000000000E+00  0.00000000000E+00  0.13203704961E+04  0.32443523368E+04  0.29635188271E+04 0.  0.
        4    1    3    3  502    0 -0.80169771967E+03 -0.74979082891E+03 -0.42947784594E+03  0.11787104623E+04  0.12699999809E+01 0.  1.
       -4    1    3    3    0  502  0.80169771967E+03  0.74979082891E+03  0.17498483420E+04  0.20656418745E+04  0.12699999809E+01 0. -1.
</event>
<event>
 5   0  0.2094135E-06  0.3097968E+04  0.7818609E-02  0.8216296E-01
        2   -1    0    0  501    0  0.00000000000E+00  0.00000000000E+00  0.18316355128E+04  0.18316355128E+04  0.25500000920E-02 0. -1.
       -2   -1    0    0    0  501  0.00000000000E+00  0.00000000000E+00 -0.13099501655E+04  0.13099501655E+04  0.25500000920E-02 0.  1.
    10030    2    1    2    0    0  0.00000000000E+00  0.00000000000E+00  0.52168534729E+03  0.31415856784E+04  0.30979678780E+04 0.  0.
        4    1    3    3  502    0  0.10065695001E+04 -0.11365736703E+03 -0.92751375211E+03  0.13734567809E+04  0.12699999809E+01 0.  1.
       -4    1    3    3    0  502 -0.10065695001E+04  0.11365736703E+03  0.14491990994E+04  0.17681288975E+04  0.12699999809E+01 0. -1.
</event>
<event>
 5   0  0.7519202E-07  0.3124270E+04  0.7818609E-02  0.8209109E-01
       -1   -1    0    0    0  501  0.00000000000E+00  0.00000000000E+00  0.13383476082E+04  0.13383476082E+04  0.50400001928E-02 0. -1.
        1   -1    0    0  501    0  0.00000000000E+00  0.00000000000E+00 -0.18233421207E+04  0.18233421207E+04  0.50400001928E-02 0.  1.
    10030    2    1    2    0    0  0.00000000000E+00  0.00000000000E+00 -0.48499451254E+03  0.31616897289E+04  0.31242698770E+04 0.  0.
        4    1    3    3  502    0 -0.14197018475E+04  0.45253190533E+03 -0.71707623030E+03  0.16536439744E+04  0.12699999809E+01 0. -1.
       -4    1    3    3    0  502  0.14197018475E+04 -0.45253190533E+03  0.23208171777E+03  0.15080457545E+04  0.12699999809E+01 0.  1.
</event>
<event>
 5   0  0.2094135E-06  0.3109052E+04  0.7818609E-02  0.8213258E-01
        2   -1    0    0  501    0  0.00000000000E+00  0.00000000000E+00  0.16297189829E+04  0.16297189829E+04  0.25500000920E-02 0. -1.
       -2   -1    0    0    0  501  0.00000000000E+00  0.00000000000E+00 -0.14828026142E+04  0.14828026142E+04  0.25500000920E-02 0.  1.
    10030    2    1    2    0    0  0.00000000000E+00  0.00000000000E+00  0.14691636870E+03  0.31125215970E+04  0.31090523110E+04 0.  0.
        4    1    3    3  502    0 -0.25782046401E+03 -0.14362980067E+04 -0.46298169725E+03  0.15309399141E+04  0.12699999809E+01 0.  1.
       -4    1    3    3    0  502  0.25782046401E+03  0.14362980067E+04  0.60989806594E+03  0.15815816829E+04  0.12699999809E+01 0. -1.
</event>
<event>
 5   0  0.7656332E-07  0.3084796E+04  0.7818609E-02  0.8219923E-01
        1   -1    0    0  501    0  0.00000000000E+00  0.00000000000E+00  0.71908574706E+03  0.71908574708E+03  0.50400001928E-02 0.  1.
       -1   -1    0    0    0  501  0.00000000000E+00  0.00000000000E+00 -0.33083551809E+04  0.33083551810E+04  0.50400001928E-02 0. -1.
    10030    2    1    2    0    0  0.00000000000E+00  0.00000000000E+00 -0.25892694339E+04  0.40274409280E+04  0.30847956541E+04 0.  0.
        2    1    3    3  502    0 -0.79373558496E+03 -0.99506510533E+03 -0.24319274213E+04  0.27448937548E+04  0.25500000920E-02 0. -1.
       -2    1    3    3    0  502  0.79373558496E+03  0.99506510533E+03 -0.15734201261E+03  0.12825471733E+04  0.25500000920E-02 0.  1.
</event>
<event>
 5   0  0.2067926E-06  0.3117071E+04  0.7818609E-02  0.8211069E-01
       -2   -1    0    0    0  501  0.00000000000E+00  0.00000000000E+00  0.12865179602E+04  0.12865179602E+04  0.25500000920E-02 0.  1.
        2   -1    0    0  501    0  0.00000000000E+00  0.00000000000E+00 -0.18880675584E+04  0.18880675584E+04  0.25500000920E-02 0. -1.
    10030    2    1    2    0    0  0.00000000000E+00  0.00000000000E+00 -0.60154959823E+03  0.31745855186E+04  0.31170709482E+04 0.  0.
        1    1    3    3  502    0 -0.26445335314E+03  0.12863184333E+04  0.55404650228E+03  0.14253133742E+04  0.50400001928E-02 0.  1.
       -1    1    3    3    0  502  0.26445335314E+03 -0.12863184333E+04 -0.11555961005E+04  0.17492721445E+04  0.50400001928E-02 0. -1.
</event>
<event>
 5   0  0.7561815E-07  0.3013707E+04  0.7818609E-02  0.8239828E-01
       -1   -1    0    0    0  501  0.00000000000E+00  0.00000000000E+00  0.15279305329E+04  0.15279305329E+04  0.50400001928E-02 0. -1.
        1   -1    0    0  501    0  0.00000000000E+00  0.00000000000E+00 -0.14860670296E+04  0.14860670296E+04  0.50400001928E-02 0.  1.
    10030    2    1    2    0    0  0.00000000000E+00  0.00000000000E+00  0.41863503336E+02  0.30139975625E+04  0.30137068128E+04 0.  0.
        3    1    3    3  502    0 -0.72222230162E+02  0.13768474614E+04 -0.58714187039E+03  0.14985528248E+04  0.10100000352E+00 0.  1.
       -3    1    3    3    0  502  0.72222230162E+02 -0.13768474614E+04  0.62900537373E+03  0.15154447377E+04  0.10100000352E+00 0. -1.
</event>
<event>
 5   0  0.7726743E-07  0.3122419E+04  0.7818609E-02  0.8209612E-01
       -1   -1    0    0    0  501  0.00000000000E+00  0.00000000000E+00  0.13621488305E+04  0.13621488305E+04  0.50400001928E-02 0.  1.
        1   -1    0    0  501    0  0.00000000000E+00  0.00000000000E+00 -0.17893603572E+04  0.17893603572E+04  0.50400001928E-02 0. -1.
    10030    2    1    2    0    0  0.00000000000E+00  0.00000000000E+00 -0.42721152669E+03  0.31515091877E+04  0.31224190096E+04 0.  0.
        1    1    3    3  502    0  0.19048532320E+03 -0.24659982637E+03 -0.17576552370E+04  0.17850624821E+04  0.50400001928E-02 0. -1.
       -1    1    3    3    0  502 -0.19048532320E+03  0.24659982637E+03  0.13304437104E+04  0.13664467056E+04  0.50400001928E-02 0.  1.
</event>
<event>
 5   0  0.7561815E-07  0.3093699E+04  0.7818609E-02  0.8217469E-01
        1   -1    0    0  501    0  0.00000000000E+00  0.00000000000E+00  0.11615861888E+04  0.11615861888E+04  0.50400001928E-02 0. -1.
       -1   -1    0    0    0  501  0.00000000000E+00  0.00000000000E+00 -0.20598926170E+04  0.20598926170E+04  0.50400001928E-02 0.  1.
    10030    2    1    2    0    0  0.00000000000E+00  0.00000000000E+00 -0.89830642814E+03  0.32214788058E+04  0.30936986371E+04 0.  0.
        3    1    3    3  502    0 -0.10685068540E+04 -0.87382369106E+03  0.27787347946E+03  0.14080086722E+04  0.10100000352E+00 0. -1.
       -3    1    3    3    0  502  0.10685068540E+04  0.87382369106E+03 -0.11761799076E+04  0.18134701336E+04  0.10100000352E+00 0.  1.
</event>
<event>
 5   0  0.2078009E-06  0.3061306E+04  0.7818609E-02  0.8226438E-01
       -2   -1    0    0    0  501  0.00000000000E+00  0.00000000000E+00  0.14173488404E+04  0.14173488404E+04  0.25500000920E-02 0. -1.
        2   -1    0    0  501    0  0.00000000000E+00  0.00000000000E+00 -0.16530152607E+04  0.16530152607E+04  0.25500000920E-02 0.  1.
    10030    2    1    2    0    0  0.00000000000E+00  0.00000000000E+00 -0.23566642022E+03  0.30703641011E+04  0.30613064289E+04 0.  0.
        3    1    3    3  502    0  0.89519190672E+03 -0.24851472297E+03 -0.13378908588E+04  0.16288278232E+04  0.10100000352E+00 0.  1.
       -3    1    3    3    0  502 -0.89519190672E+03  0.24851472297E+03  0.11022244386E+04  0.14415362779E+04  0.10100000352E+00 0. -1.
</event>
<event>
 5   0  0.2133385E-06  0.3016843E+04  0.7818609E-02  0.8238938E-01
       -2   -1    0    0    0  501  0.00000000000E+00  0.00000000000E+00  0.13092791677E+04  0.13092791677E+04  0.25500000920E-02 0.  1.
        2   -1    0    0  501    0  0.00000000000E+00  0.00000000000E+00 -0.17378530271E+04  0.17378530271E+04  0.25500000920E-02 0. -1.
    10030    2    1    2    0    0  0.00000000000E+00  0.00000000000E+00 -0.42857385942E+03  0.30471321947E+04  0.30168425646E+04 0.  0.
        2    1    3    3  502    0 -0.45892718965E+03  0.14353961973E+04 -0.14760625160E+03  0.15141875756E+04  0.25500000920E-02 0. -1.
       -2    1    3    3    0  502  0.45892718965E+03 -0.14353961973E+04 -0.28096760781E+03  0.15329446191E+04  0.25500000920E-02 0.  1.
</event>
<event>
 5   0  0.7519202E-07  0.3101829E+04  0.7818609E-02  0.8215236E-01
        1   -1    0    0  501    0  0.00000000000E+00  0.00000000000E+00  0.26009641457E+04  0.26009641457E+04  0.50400001928E-02 0.  1.
       -1   -1    0    0    0  501  0.00000000000E+00  0.00000000000E+00 -0.92478620567E+03  0.92478620569E+03  0.50400001928E-02 0. -1.
    10030    2    1    2    0    0  0.00000000000E+00  0.00000000000E+00  0.16761779400E+04  0.35257503514E+04  0.31018289852E+04 0.  0.
        4    1    3    3  502    0  0.26435175652E+03 -0.84882390952E+02  0.25724849568E+04  0.25874248467E+04  0.12699999809E+01 0.  1.
       -4    1    3    3    0  502 -0.26435175652E+03  0.84882390952E+02 -0.89630701679E+03  0.93832550467E+03  0.12699999809E+01 0. -1.
</event>
<event>
 5   0  0.2067926E-06  0.3005940E+04  0.7818609E-02  0.8242037E-01
        2   -1    0    0  501    0  0.00000000000E+00  0.00000000000E+00  0.15985793529E+04  0.15985793529E+04  0.25500000920E-02 0. -1.
       -2   -1    0    0    0  501  0.00000000000E+00  0.00000000000E+00 -0.14130788943E+04  0.14130788943E+04  0.25500000920E-02 0.  1.
    10030    2    1    2    0    0  0.00000000000E+00  0.00000000000E+00  0.18550045857E+03  0.30116582473E+04  0.30059399492E+04 0.  0.
        1    1    3    3  502    0  0.14331091935E+04  0.17178501891E+03  0.51260193099E+03  0.15316895224E+04  0.50400001928E-02 0. -1.
       -1    1    3    3    0  502 -0.14331091935E+04 -0.17178501891E+03 -0.32710147242E+03  0.14799687249E+04  0.50400001928E-02 0.  1.
</event>
<event>
 5   0  0.2226334E-06  0.3104623E+04  0.7818609E-02  0.8214470E-01
        2   -1    0    0  501    0  0.00000000000E+00  0.00000000000E+00  0.14974712622E+04  0.14974712623E+04  0.25500000920E-02 0.  1.
       -2   -1    0    0    0  501  0.00000000000E+00  0.00000000000E+00 -0.16091604121E+04  0.16091604121E+04  0.25500000920E-02 0. -1.
    10030    2    1    2    0    0  0.00000000000E+00  0.00000000000E+00 -0.11168914988E+03  0.31066316744E+04  0.31046233095E+04 0.  0.
        5    1    3    3  502    0  0.12525296407E+04  0.82532195869E+03  0.34399187125E+03  0.15389409780E+04  0.46999998093E+01 0.  1.
       -5    1    3    3    0  502 -0.12525296407E+04 -0.82532195869E+03 -0.45568102113E+03  0.15676906963E+04  0.46999998093E+01 0. -1.
</event>
<event>
 5   0  0.7519202E-07  0.3108695E+04  0.7818609E-02  0.8213356E-01
        1   -1    0    0  501    0  0.00000000000E+00  0.00000000000E+00  0.16153405367E+04  0.16153405367E+04  0.50400001928E-02 0.  1.
       -1   -1    0    0    0  501  0.00000000000E+00  0.00000000000E+00 -0.14956571972E+04  0.14956571972E+04  0.50400001928E-02 0. -1.
    10030    2    1    2    0    0  0.00000000000E+00  0.00000000000E+00  0.11968333951E+03  0.31109977340E+04  0.31086947098E+04 0.  0.
        4    1    3    3  502    0  0.33058785363E+03 -0.14966635261E+04 -0.19862093329E+03  0.15455555401E+04  0.12699999809E+01 0.  1.
       -4    1    3    3    0  502 -0.33058785363E+03  0.14966635261E+04  0.31830427280E+03  0.15654421939E+04  0.12699999809E+01 0. -1.
</event>
<event>
 5   0  0.2067926E-06  0.3071233E+04  0.7818609E-02  0.8223677E-01
        2   -1    0    0  501    0  0.00000000000E+00  0.00000000000E+00  0.23833752935E+04  0.23833752935E+04  0.25500000920E-02 0. -1.
       -2   -1    0    0    0  501  0.00000000000E+00  0.00000000000E+00 -0.98940297975E+03  0.98940297975E+03  0.25500000920E-02 0.  1.
    10030    2    1    2    0    0  0.00000000000E+00  0.00000000000E+00  0.13939723137E+04  0.33727782732E+04  0.30712333791E+04 0.  0.
        1    1    3    3  502    0 -0.12765711367E+04  0.53139221853E+03 -0.36504389223E+02  0.13832368299E+04  0.50400001928E-02 0.  1.
       -1    1    3    3    0  502  0.12765711367E+04 -0.53139221853E+03  0.14304767030E+04  0.19895414434E+04  0.50400001928E-02 0. -1.
</event>
<event>
 5   0  0.7726743E-07  0.3139500E+04  0.7818609E-02  0.8204980E-01
        1   -1    0    0  501    0  0.00000000000E+00  0.00000000000E+00  0.23260316860E+04  0.23260316860E+04  0.50400001928E-02 0. -1.
       -1   -1    0    0    0  501  0.00000000000E+00  0.00000000000E+00 -0.10593646433E+04  0.10593646434E+04  0.50400001928E-02 0.  1.
    10030    2    1    2    0    0  0.00000000000E+00  0.00000000000E+00  0.12666670426E+04  0.33853963293E+04  0.31395004236E+04 0.  0.
        1    1    3    3  502    0 -0.54720196330E+03  0.11297477736E+03  0.22151725257E+04  0.22845530433E+04  0.50400001928E-02 0. -1.
       -1    1    3    3    0  502  0.54720196330E+03 -0.11297477736E+03 -0.94850548308E+03  0.11008432860E+04  0.50400001928E-02 0.  1.
</event>
<event>
 5   0  0.2067926E-06  0.2859621E+04  0.7818609E-02  0.8284994E-01
       -2   -1    0    0    0  501  0.00000000000E+00  0.00000000000E+00  0.11269444575E+04  0.11269444576E+04  0.25500000920E-02 0. -1.
        2   -1    0    0  501    0  0.00000000000E+00  0.00000000000E+00 -0.18140712309E+04  0.18140712309E+04  0.25500000920E-02 0.  1.
    10030    2    1    2    0    0  0.00000000000E+00  0.00000000000E+00 -0.68712677332E+03  0.29410156884E+04  0.28596206177E+04 0.  0.
        1    1    3    3  502    0  0.77287690523E+03 -0.11751141496E+04 -0.60803164200E+03  0.15322971164E+04  0.50400001928E-02 0.  1.
       -1    1    3    3    0  502 -0.77287690523E+03  0.11751141496E+04 -0.79095131325E+02  0.14087185720E+04  0.50400001928E-02 0. -1.
</event>
<event>
 5   0  0.7519202E-07  0.3108033E+04  0.7818609E-02  0.8213537E-01
       -1   -1    0    0    0  501  0.00000000000E+00  0.00000000000E+00  0.14472676730E+04  0.14472676730E+04  0.50400001928E-02 0.  1.
        1   -1    0    0  501    0  0.00000000000E+00  0.00000000000E+00 -0.16686390700E+04  0.16686390700E+04  0.50400001928E-02 0. -1.
    10030    2    1    2    0    0  0.00000000000E+00  0.00000000000E+00 -0.22137139694E+03  0.31159067430E+04  0.31080330654E+04 0.  0.
        4    1    3    3  502    0 -0.15387699891E+04  0.50948040943E+02 -0.32230571167E+03  0.15729880378E+04  0.12699999809E+01 0.  1.
       -4    1    3    3    0  502  0.15387699891E+04 -0.50948040943E+02  0.10093431473E+03  0.15429187053E+04  0.12699999809E+01 0. -1.
</event>
<event>
 5   0  0.2133385E-06  0.3109035E+04  0.7818609E-02  0.8213263E-01
        2   -1    0    0  501    0  0.00000000000E+00  0.00000000000E+00  0.11331375703E+04  0.11331375703E+04  0.25500000920E-02 0.  1.
       -2   -1    0    0    0  501  0.00000000000E+00  0.00000000000E+00 -0.21325963450E+04  0.21325963450E+04  0.25500000920E-02 0. -1.
    10030    2    1    2    0    0  0.00000000000E+00  0.00000000000E+00 -0.99945877474E+03  0.32657339153E+04  0.31090352464E+04 0.  0.
        2    1    3    3  502    0 -0.59080868670E+03  0.55825732904E+03  0.89212886783E+03  0.12068968749E+04  0.25500000920E-02 0.  1.
       -2    1    3    3    0  502  0.59080868670E+03 -0.55825732904E+03 -0.18915876426E+04  0.20588370405E+04  0.25500000920E-02 0. -1.
</event>
<event>
 5   0  0.2133385E-06  0.3037618E+04  0.7818609E-02  0.8233070E-01
       -2   -1    0    0    0  501  0.00000000000E+00  0.00000000000E+00  0.12383280751E+04  0.12383280751E+04  0.25500000920E-02 0. -1.
        2   -1    0    0  501    0  0.00000000000E+00  0.00000000000E+00 -0.18628184052E+04  0.18628184052E+04  0.25500000920E-02 0.  1.
    10030    2    1    2    0    0  0.00000000000E+00  0.00000000000E+00 -0.62449033005E+03  0.31011464803E+04  0.30376177047E+04 0.  0.
        2    1    3    3  502    0  0.75265894335E+03  0.11206313233E+04  0.39835079819E+03  0.14074776752E+04  0.25500000920E-02 0. -1.
       -2    1    3    3    0  502 -0.75265894335E+03 -0.11206313233E+04 -0.10228411282E+04  0.16936688051E+04  0.25500000920E-02 0.  1.
</event>
<event>
 5   0  0.7519202E-07  0.3089587E+04  0.7818609E-02  0.8218602E-01
       -1   -1    0    0    0  501  0.00000000000E+00  0.00000000000E+00  0.27485952547E+04  0.27485952548E+04  0.50400001928E-02 0.  1.
        1   -1    0    0  501    0  0.00000000000E+00  0.00000000000E+00 -0.86822038037E+03  0.86822038039E+03  0.50400001928E-02 0. -1.
    10030    2    1    2    0    0  0.00000000000E+00  0.00000000000E+00  0.18803748744E+04  0.36168156351E+04  0.30895866504E+04 0.  0.
        4    1    3    3  502    0  0.76511493750E+03  0.31702189499E+03 -0.58636557479E+03  0.10147561035E+04  0.12699999809E+01 0. -1.
       -4    1    3    3    0  502 -0.76511493750E+03 -0.31702189499E+03  0.24667404492E+04  0.26020595316E+04  0.12699999809E+01 0.  1.
</event>
<event>
 5   0  0.7413481E-07  0.3120309E+04  0.7818609E-02  0.8210186E-01
        1   -1    0    0  501    0  0.00000000000E+00  0.00000000000E+00  0.22391417404E+04  0.22391417404E+04  0.50400001928E-02 0. -1.
       -1   -1    0    0    0  501  0.00000000000E+00  0.00000000000E+00 -0.10870601073E+04  0.10870601073E+04  0.50400001928E-02 0.  1.
    10030    2    1    2    0    0  0.00000000000E+00  0.00000000000E+00  0.11520816331E+04  0.33262018478E+04  0.31203087416E+04 0.  0.
        5    1    3    3  502    0 -0.32620859141E+03 -0.86439772493E+03 -0.76407813905E+03  0.11989299248E+04  0.46999998093E+01 0.  1.
       -5    1    3    3    0  502  0.32620859141E+03  0.86439772493E+03  0.19161597721E+04  0.21272719230E+04  0.46999998093E+01 0. -1.
</event>
<event>
 5   0  0.7656332E-07  0.3095497E+04  0.7818609E-02  0.8216975E-01
        1   -1    0    0  501    0  0.00000000000E+00  0.00000000000E+00  0.19612650328E+04  0.19612650328E+04  0.50400001928E-02 0.  1.
       -1   -1    0    0    0  501  0.00000000000E+00  0.00000000000E+00 -0.12214187049E+04  0.12214187049E+04  0.50400001928E-02 0. -1.
    10030    2    1    2    0    0  0.00000000000E+00  0.00000000000E+00  0.73984632785E+03  0.31826837377E+04  0.30954972437E+04 0.  0.
        2    1    3    3  502    0 -0.94051997638E+02 -0.12925094575E+04  0.12399841481E+04  0.17935961540E+04  0.25500000920E-02 0.  1.
       -2    1    3    3    0  502  0.94051997638E+02  0.12925094575E+04 -0.50013782023E+03  0.13890875837E+04  0.25500000920E-02 0. -1.
</event>
<event>
 5   0  0.2078009E-06  0.3105862E+04  0.7818609E-02  0.8214131E-01
        2   -1    0    0  501    0  0.00000000000E+00  0.00000000000E+00  0.15689624039E+04  0.15689624039E+04  0.25500000920E-02 0. -1.
       -2   -1    0    0    0  501  0.00000000000E+00  0.00000000000E+00 -0.15370632561E+04  0.15370632561E+04  0.25500000920E-02 0.  1.
    10030    2    1    2    0    0  0.00000000000E+00  0.00000000000E+00  0.31899147813E+02  0.31060256601E+04  0.31058618523E+04 0.  0.
        3    1    3    3  502    0  0.98192583222E+03 -0.27428178354E+03  0.11874146227E+04  0.15650438758E+04  0.10100000352E+00 0. -1.
       -3    1    3    3    0  502 -0.98192583222E+03  0.27428178354E+03 -0.11555154748E+04  0.15409817843E+04  0.10100000352E+00 0.  1.
</event>
<event>
 5   0  0.7656332E-07  0.3092839E+04  0.7818609E-02  0.8217706E-01
       -1   -1    0    0    0  501  0.00000000000E+00  0.00000000000E+00  0.78099622296E+03  0.78099622297E+03  0.50400001928E-02 0. -1.
        1   -1    0    0  501    0  0.00000000000E+00  0.00000000000E+00 -0.30620026550E+04  0.30620026550E+04  0.50400001928E-02 0.  1.
    10030    2    1    2    0    0  0.00000000000E+00  0.00000000000E+00 -0.22810064321E+04  0.38429988780E+04  0.30928385074E+04 0.  0.
        2    1    3    3  502    0 -0.17855137352E+03  0.26291103717E+03  0.73998060413E+03  0.80534098427E+03  0.25500000920E-02 0. -1.
       -2    1    3    3    0  502  0.17855137352E+03 -0.26291103717E+03 -0.30209870362E+04  0.30376578937E+04  0.25500000920E-02 0.  1.
</event>
<event>
 5   0  0.7726743E-07  0.3050549E+04  0.7818609E-02  0.8229442E-01
        1   -1    0    0  501    0  0.00000000000E+00  0.00000000000E+00  0.14887283019E+04  0.14887283020E+04  0.50400001928E-02 0. -1.
       -1   -1    0    0    0  501  0.00000000000E+00  0.00000000000E+00 -0.15627173932E+04  0.15627173933E+04  0.50400001928E-02 0.  1.
    10030    2    1    2    0    0  0.00000000000E+00  0.00000000000E+00 -0.73989091301E+02  0.30514456952E+04  0.30505485482E+04 0.  0.
        1    1    3    3  502    0  0.14309242179E+04 -0.45934375244E+03  0.22369831365E+03  0.15194017691E+04  0.50400001928E-02 0. -1.
       -1    1    3    3    0  502 -0.14309242179E+04  0.45934375244E+03 -0.29768740495E+03  0.15320439261E+04  0.50400001928E-02 0.  1.
</event>
<event>
 5   0  0.2067926E-06  0.3142961E+04  0.7818609E-02  0.8204046E-01
        2   -1    0    0  501    0  0.00000000000E+00  0.00000000000E+00  0.15776582991E+04  0.15776582991E+04  0.25500000920E-02 0. -1.
       -2   -1    0    0    0  501  0.00000000000E+00  0.00000000000E+00 -0.15653271377E+04  0.15653271377E+04  0.25500000920E-02 0.  1.
    10030    2    1    2    0    0  0.00000000000E+00  0.00000000000E+00  0.12331161382E+02  0.31429854368E+04  0.31429612467E+04 0.  0.
        1    1    3    3  502    0 -0.37468689527E+03  0.25402498315E+02 -0.15197936706E+04  0.15655057833E+04  0.50400001928E-02 0.  1.
       -1    1    3    3    0  502  0.37468689527E+03 -0.25402498315E+02  0.15321248320E+04  0.15774796535E+04  0.50400001928E-02 0. -1.
</event>
<event>
 5   0  0.7413481E-07  0.3094524E+04  0.7818609E-02  0.8217242E-01
        1   -1    0    0  501    0  0.00000000000E+00  0.00000000000E+00  0.14457722558E+04  0.14457722558E+04  0.50400001928E-02 0. -1.
       -1   -1    0    0    0  501  0.00000000000E+00  0.00000000000E+00 -0.16558761484E+04  0.16558761484E+04  0.50400001928E-02 0.  1.
    10030    2    1    2    0    0  0.00000000000E+00  0.00000000000E+00 -0.21010389260E+03  0.31016484042E+04  0.30945240632E+04 0.  0.
        5    1    3    3  502    0  0.12397569113E+04  0.35294325932E+03  0.75274051772E+03  0.14927178302E+04  0.46999998093E+01 0. -1.
       -5    1    3    3    0  502 -0.12397569113E+04 -0.35294325932E+03 -0.96284441033E+03  0.16089305740E+04  0.46999998093E+01 0.  1.
</event>
<event>
 5   0  0.7413481E-07  0.3095483E+04  0.7818609E-02  0.8216979E-01
       -1   -1    0    0    0  501  0.00000000000E+00  0.00000000000E+00  0.16551419666E+04  0.16551419666E+04  0.50400001928E-02 0. -1.
        1   -1    0    0  501    0  0.00000000000E+00  0.00000000000E+00 -0.14473103515E+04  0.14473103516E+04  0.50400001928E-02 0.  1.
    10030    2    1    2    0    0  0.00000000000E+00  0.00000000000E+00  0.20783161505E+03  0.31024523181E+04  0.30954832266E+04 0.  0.
        5    1    3    3  502    0 -0.55472067347E+03  0.12426846658E+04  0.84280132924E+03  0.16007237035E+04  0.46999998093E+01 0. -1.
       -5    1    3    3    0  502  0.55472067347E+03 -0.12426846658E+04 -0.63496971420E+03  0.15017286147E+04  0.46999998093E+01 0.  1.
</event>
<event>
 5   0  0.2133385E-06  0.3108102E+04  0.7818609E-02  0.8213518E-01
        2   -1    0    0  501    0  0.00000000000E+00  0.00000000000E+00  0.23756815633E+04  0.23756815633E+04  0.25500000920E-02 0.  1.
       -2   -1    0    0    0  501  0.00000000000E+00  0.00000000000E+00 -0.10165816924E+04  0.10165816924E+04  0.25500000920E-02 0. -1.
    10030    2    1    2    0    0  0.00000000000E+00  0.00000000000E+00  0.13590998709E+04  0.33922632558E+04  0.31081019188E+04 0.  0.
        2    1    3    3  502    0  0.13180692601E+04 -0.18886670950E+03 -0.19502026754E+03  0.13457377580E+04  0.25500000920E-02 0. -1.
       -2    1    3    3    0  502 -0.13180692601E+04  0.18886670950E+03  0.15541201384E+04  0.20465254978E+04  0.25500000920E-02 0.  1.
</event>
<event>
 5   0  0.2133385E-06  0.3112646E+04  0.7818609E-02  0.8212276E-01
       -2   -1    0    0    0  501  0.00000000000E+00  0.00000000000E+00  0.14146649462E+04  0.14146649462E+04  0.25500000920E-02 0. -1.
        2   -1    0    0  501    0  0.00000000000E+00  0.00000000000E+00 -0.17121664883E+04  0.17121664883E+04  0.25500000920E-02 0.  1.
    10030    2    1    2    0    0  0.00000000000E+00  0.00000000000E+00 -0.29750154213E+03  0.31268314345E+04  0.31126464065E+04 0.  0.
        2    1    3    3  502    0  0.66933298977E+03 -0.13828086212E+04 -0.39883423559E+03  0.15872098417E+04  0.25500000920E-02 0.  1.
       -2    1    3    3    0  502 -0.66933298977E+03  0.13828086212E+04  0.10133269346E+03  0.15396215928E+04  0.25500000920E-02 0. -1.
</event>
<event>
 5   0  0.7561815E-07  0.3076707E+04  0.7818609E-02  0.8222160E-01
       -1   -1    0    0    0  501  0.00000000000E+00  0.00000000000E+00  0.13586795943E+04  0.13586795944E+04  0.50400001928E-02 0.  1.
        1   -1    0    0  501    0  0.00000000000E+00  0.00000000000E+00 -0.17417873481E+04  0.17417873481E+04  0.50400001928E-02 0. -1.
    10030    2    1    2    0    0  0.00000000000E+00  0.00000000000E+00 -0.38310775376E+03  0.31004669425E+04  0.30767066338E+04 0.  0.
        3    1    3    3  502    0 -0.91010910663E+03 -0.11031258542E+04  0.37969748829E+03  0.14796470623E+04  0.10100000352E+00 0.  1.
       -3    1    3    3    0  502  0.91010910663E+03  0.11031258542E+04 -0.76280524206E+03  0.16208198801E+04  0.10100000352E+00 0. -1.
</event>
<event>
 5   0  0.2226334E-06  0.3118724E+04  0.7818609E-02  0.8210618E-01
       -2   -1    0    0    0  501  0.00000000000E+00  0.00000000000E+00  0.14236058910E+04  0.14236058910E+04  0.25500000920E-02 0. -1.
        2   -1    0    0  501    0  0.00000000000E+00  0.00000000000E+00 -0.17080637027E+04  0.17080637027E+04  0.25500000920E-02 0.  1.
    10030    2    1    2    0    0  0.00000000000E+00  0.00000000000E+00 -0.28445781166E+03  0.31316695937E+04  0.31187238092E+04 0.  0.
        5    1    3    3  502    0 -0.24254451109E+03 -0.14106614615E+04 -0.76350050650E+03  0.16222665355E+04  0.46999998093E+01 0.  1.
       -5    1    3    3    0  502  0.24254451109E+03  0.14106614615E+04  0.47904269484E+03  0.15094030582E+04  0.46999998093E+01 0. -1.
</event>
<event>
 5   0  0.7519202E-07  0.3097162E+04  0.7818609E-02  0.8216517E-01
       -1   -1    0    0    0  501  0.00000000000E+00  0.00000000000E+00  0.13189888552E+04  0.13189888552E+04  0.50400001928E-02 0.  1.
        1   -1    0    0  501    0  0.00000000000E+00  0.00000000000E+00 -0.18181377219E+04  0.18181377219E+04  0.50400001928E-02 0. -1.
    10030    2    1    2    0    0  0.00000000000E+00  0.00000000000E+00 -0.49914886671E+03  0.31371265771E+04  0.30971621800E+04 0.  0.
        4    1    3    3  502    0 -0.56037054050E+03  0.13223028603E+04  0.33721221583E+03  0.14751995419E+04  0.12699999809E+01 0.  1.
       -4    1    3    3    0  502  0.56037054050E+03 -0.13223028603E+04 -0.83636108254E+03  0.16619270352E+04  0.12699999809E+01 0. -1.
</event>
<event>
 5   0  0.2133385E-06  0.3094145E+04  0.7818609E-02  0.8217346E-01
        2   -1    0    0  501    0  0.00000000000E+00  0.00000000000E+00  0.18475968088E+04  0.18475968088E+04  0.25500000920E-02 0.  1.
       -2   -1    0    0    0  501  0.00000000000E+00  0.00000000000E+00 -0.12954309069E+04  0.12954309069E+04  0.25500000920E-02 0. -1.
    10030    2    1    2    0    0  0.00000000000E+00  0.00000000000E+00  0.55216590193E+03  0.31430277156E+04  0.30941454455E+04 0.  0.
        2    1    3    3  502    0 -0.15332768164E+03 -0.15216755308E+04  0.51306721728E+03  0.16131471627E+04  0.25500000920E-02 0. -1.
       -2    1    3    3    0  502  0.15332768164E+03  0.15216755308E+04  0.39098684647E+02  0.15298805529E+04  0.25500000920E-02 0.  1.
</event>
<event>
 5   0  0.7413481E-07  0.3076084E+04  0.7818609E-02  0.8222332E-01
       -1   -1    0    0    0  501  0.00000000000E+00  0.00000000000E+00  0.11116142209E+04  0.11116142210E+04  0.50400001928E-02 0. -1.
        1   -1    0    0  501    0  0.00000000000E+00  0.00000000000E+00 -0.21280521800E+04  0.21280521800E+04  0.50400001928E-02 0.  1.
    10030    2    1    2    0    0  0.00000000000E+00  0.00000000000E+00 -0.10164379591E+04  0.32396664010E+04  0.30760839171E+04 0.  0.
        5    1    3    3  502    0 -0.11897445276E+03  0.15307281973E+04 -0.60397860309E+03  0.16498775644E+04  0.46999998093E+01 0.  1.
       -5    1    3    3    0  502  0.11897445276E+03 -0.15307281973E+04 -0.41245935598E+03  0.15897888366E+04  0.46999998093E+01 0. -1.
</event>
<event>
 5   0  0.7413481E-07  0.3120670E+04  0.7818609E-02  0.8210088E-01
       -1   -1    0    0    0  501  0.00000000000E+00  0.00000000000E+00  0.24009123537E+04  0.24009123537E+04  0.50400001928E-02 0. -1.
        1   -1    0    0  501    0  0.00000000000E+00  0.00000000000E+00 -0.10140499712E+04  0.10140499713E+04  0.50400001928E-02 0.  1.
    10030    2    1    2    0    0  0.00000000000E+00  0.00000000000E+00  0.13868623825E+04  0.34149623250E+04  0.31206698661E+04 0.  0.
        5    1    3    3  502    0 -0.56812651966E+03 -0.79858611393E+03 -0.63519816578E+03  0.11679068129E+04  0.46999998093E+01 0.  1.
       -5    1    3    3    0  502  0.56812651966E+03  0.79858611393E+03  0.20220605483E+04  0.22470555121E+04  0.46999998093E+01 0. -1.
</event>
<event>
 5   0  0.7656332E-07  0.3119683E+04  0.7818609E-02  0.8210357E-01
       -1   -1    0    0    0  501  0.00000000000E+00  0.00000000000E+00  0.13558715729E+04  0.13558715729E+04  0.50400001928E-02 0.  1.
        1   -1    0    0  501    0  0.00000000000E+00  0.00000000000E+00 -0.17944955519E+04  0.17944955519E+04  0.50400001928E-02 0. -1.
    10030    2    1    2    0    0  0.00000000000E+00  0.00000000000E+00 -0.43862397901E+03  0.31503671248E+04  0.31196830009E+04 0.  0.
        2    1    3    3  502    0  0.12326059421E+04  0.79706332393E+03 -0.75221266077E+03  0.16493790462E+04  0.25500000920E-02 0. -1.
       -2    1    3    3    0  502 -0.12326059421E+04 -0.79706332393E+03  0.31358868176E+03  0.15009880786E+04  0.25500000920E-02 0.  1.
</event>
<event>
 5   0  0.7413481E-07  0.3108544E+04  0.7818609E-02  0.8213397E-01
       -1   -1    0    0    0  501  0.00000000000E+00  0.00000000000E+00  0.13623806107E+04  0.13623806107E+04  0.50400001928E-02 0.  1.
        1   -1    0    0  501    0  0.00000000000E+00  0.00000000000E+00 -0.17731911393E+04  0.17731911393E+04  0.50400001928E-02 0. -1.
    10030    2    1    2    0    0  0.00000000000E+00  0.00000000000E+00 -0.41081052858E+03  0.31355717500E+04  0.31085438567E+04 0.  0.
        5    1    3    3  502    0 -0.64557787064E+03  0.67451834606E+03  0.10479738598E+04  0.14035729717E+04  0.46999998093E+01 0.  1.
       -5    1    3    3    0  502  0.64557787064E+03 -0.67451834606E+03 -0.14587843884E+04  0.17319987783E+04  0.46999998093E+01 0. -1.
</event>
<event>
 5   0  0.2133385E-06  0.3094771E+04  0.7818609E-02  0.8217175E-01
       -2   -1    0    0    0  501  0.00000000000E+00  0.00000000000E+00  0.10588553729E+04  0.10588553729E+04  0.25500000920E-02 0.  1.
        2   -1    0    0  501    0  0.00000000000E+00  0.00000000000E+00 -0.22613108324E+04  0.22613108324E+04  0.25500000920E-02 0. -1.
    10030    2    1    2    0    0  0.00000000000E+00  0.00000000000E+00 -0.12024554596E+04  0.33201662053E+04  0.30947705082E+04 0.  0.
        2    1    3    3  502    0  0.25340880208E+03  0.42447087000E+03 -0.21743104957E+04  0.22298021598E+04  0.25500000920E-02 0. -1.
       -2    1    3    3    0  502 -0.25340880208E+03 -0.42447087000E+03  0.97185503609E+03  0.10903640455E+04  0.25500000920E-02 0.  1.
</event>
<event>
 5   0  0.2133385E-06  0.3115920E+04  0.7818609E-02  0.8211382E-01
       -2   -1    0    0    0  501  0.00000000000E+00  0.00000000000E+00  0.11462767154E+04  0.11462767154E+04  0.25500000920E-02 0. -1.
        2   -1    0    0  501    0  0.00000000000E+00  0.00000000000E+00 -0.21174981334E+04  0.21174981334E+04  0.25500000920E-02 0.  1.
    10030    2    1    2    0    0  0.00000000000E+00  0.00000000000E+00 -0.97122141804E+03  0.32637748487E+04  0.31159196428E+04 0.  0.
        2    1    3    3  502    0 -0.76782869505E+03 -0.37809722961E+03  0.87797665799E+03  0.12261164023E+04  0.25500000920E-02 0. -1.
       -2    1    3    3    0  502  0.76782869505E+03  0.37809722961E+03 -0.18491980760E+04  0.20376584465E+04  0.25500000920E-02 0.  1.
</event>
<event>
 5   0  0.7519202E-07  0.2819856E+04  0.7818609E-02  0.8297130E-01
        1   -1    0    0  501    0  0.00000000000E+00  0.00000000000E+00  0.15661028478E+04  0.15661028478E+04  0.50400001928E-02 0. -1.
       -1   -1    0    0    0  501  0.00000000000E+00  0.00000000000E+00 -0.12693275355E+04  0.12693275355E+04  0.50400001928E-02 0.  1.
    10030    2    1    2    0    0  0.00000000000E+00  0.00000000000E+00  0.29677531227E+03  0.28354303833E+04  0.28198563567E+04 0.  0.
        4    1    3    3  502    0 -0.40067988974E+03  0.20291788476E+03  0.14922478962E+04  0.15583726893E+04  0.12699999809E+01 0. -1.
       -4    1    3    3    0  502  0.40067988974E+03 -0.20291788476E+03 -0.11954725840E+04  0.12770576940E+04  0.12699999809E+01 0.  1.
</event>
<event>
 5   0  0.2094135E-06  0.3095357E+04  0.7818609E-02  0.8217013E-01
        2   -1    0    0  501    0  0.00000000000E+00  0.00000000000E+00  0.10699129412E+04  0.10699129412E+04  0.25500000920E-02 0.  1.
       -2   -1    0    0    0  501  0.00000000000E+00  0.00000000000E+00 -0.22387887228E+04  0.22387887228E+04  0.25500000920E-02 0. -1.
    10030    2    1    2    0    0  0.00000000000E+00  0.00000000000E+00 -0.11688757816E+04  0.33087016641E+04  0.30953571860E+04 0.  0.
        4    1    3    3  502    0 -0.37823437390E+03 -0.61974828328E+03 -0.20454495048E+04  0.21704871494E+04  0.12699999809E+01 0. -1.
       -4    1    3    3    0  502  0.37823437390E+03  0.61974828328E+03  0.87657372319E+03  0.11382145146E+04  0.12699999809E+01 0.  1.
</event>
<event>
 5   0  0.6979625E-07  0.3107209E+04  0.7818609E-02  0.8213762E-01
       -3   -1    0    0    0  501  0.00000000000E+00  0.00000000000E+00  0.21835393615E+04  0.21835393639E+04  0.10100000352E+00 0.  1.
        3   -1    0    0  501    0  0.00000000000E+00  0.00000000000E+00 -0.11054014539E+04  0.11054014585E+04  0.10100000352E+00 0. -1.
    10030    2    1    2    0    0  0.00000000000E+00  0.00000000000E+00  0.10781379076E+04  0.32889408224E+04  0.31072094209E+04 0.  0.
        3    1    3    3  502    0  0.11962938151E+03  0.12157751669E+04  0.15550329671E+04  0.19775105523E+04  0.10100000352E+00 0.  1.
       -3    1    3    3    0  502 -0.11962938151E+03 -0.12157751669E+04 -0.47689505949E+03  0.13114302701E+04  0.10100000352E+00 0. -1.
</event>
<event>
 5   0  0.7413481E-07  0.3113842E+04  0.7818609E-02  0.8211949E-01
        1   -1    0    0  501    0  0.00000000000E+00  0.00000000000E+00  0.24862295288E+04  0.24862295289E+04  0.50400001928E-02 0.  1.
       -1   -1    0    0    0  501  0.00000000000E+00  0.00000000000E+00 -0.97497177419E+03  0.97497177421E+03  0.50400001928E-02 0. -1.
    10030    2    1    2    0    0  0.00000000000E+00  0.00000000000E+00  0.15112577547E+04  0.34612013031E+04  0.31138423947E+04 0.  0.
        5    1    3    3  502    0 -0.63746528342E+02 -0.36362150032E+03 -0.92561034007E+03  0.99652436349E+03  0.46999998093E+01 0. -1.
       -5    1    3    3    0  502  0.63746528342E+02  0.36362150032E+03  0.24368680947E+04  0.24646769396E+04  0.46999998093E+01 0.  1.
</event>
<event>
 5   0  0.7561815E-07  0.3119314E+04  0.7818609E-02  0.8210457E-01
       -1   -1    0    0    0  501  0.00000000000E+00  0.00000000000E+00  0.12922912064E+04  0.12922912064E+04  0.50400001928E-02 0.  1.
        1   -1    0    0  501    0  0.00000000000E+00  0.00000000000E+00 -0.18823385857E+04  0.18823385857E+04  0.50400001928E-02 0. -1.
    10030    2    1    2    0    0  0.00000000000E+00  0.00000000000E+00 -0.59004737936E+03  0.31746297921E+04  0.31193137718E+04 0.  0.
        3    1    3    3  502    0  0.28037228185E+03  0.63965246589E+03  0.11242549538E+04  0.13235229899E+04  0.10100000352E+00 0.  1.
       -3    1    3    3    0  502 -0.28037228185E+03 -0.63965246589E+03 -0.17143023331E+04  0.18511068022E+04  0.10100000352E+00 0. -1.
</event>
<event>
 5   0  0.2133385E-06  0.3098242E+04  0.7818609E-02  0.8216221E-01
        2   -1    0    0  501    0  0.00000000000E+00  0.00000000000E+00  0.12445281128E+04  0.12445281128E+04  0.25500000920E-02 0. -1.
       -2   -1    0    0    0  501  0.00000000000E+00  0.00000000000E+00 -0.19282611192E+04  0.19282611192E+04  0.25500000920E-02 0.  1.
    10030    2    1    2    0    0  0.00000000000E+00  0.00000000000E+00 -0.68373300645E+03  0.31727892320E+04  0.30982415475E+04 0.  0.
        2    1    3    3  502    0  0.13596324347E+04 -0.17187883543E+03  0.39775284241E+03  0.14270073634E+04  0.25500000920E-02 0. -1.
       -2    1    3    3    0  502 -0.13596324347E+04  0.17187883543E+03 -0.10814858489E+04  0.17457818686E+04  0.25500000920E-02 0.  1.
</event>
<event>
 5   0  0.7726743E-07  0.3095399E+04  0.7818609E-02  0.8217002E-01
       -1   -1    0    0    0  501  0.00000000000E+00  0.00000000000E+00  0.17019052259E+04  0.17019052259E+04  0.50400001928E-02 0.  1.
        1   -1    0    0  501    0  0.00000000000E+00  0.00000000000E+00 -0.14074658912E+04  0.14074658912E+04  0.50400001928E-02 0. -1.
    10030    2    1    2    0    0  0.00000000000E+00  0.00000000000E+00  0.29443933474E+03  0.31093711171E+04  0.30953988793E+04 0.  0.
        1    1    3    3  502    0 -0.32546009975E+03 -0.44037007752E+03 -0.13069068829E+04  0.14169882436E+04  0.50400001928E-02 0. -1.
       -1    1    3    3    0  502  0.32546009975E+03  0.44037007752E+03  0.16013462177E+04  0.16923828735E+04  0.50400001928E-02 0.  1.
</event>
<event>
 5   0  0.2133385E-06  0.3094293E+04  0.7818609E-02  0.8217306E-01
        2   -1    0    0  501    0  0.00000000000E+00  0.00000000000E+00  0.74522386531E+03  0.74522386532E+03  0.25500000920E-02 0.  1.
       -2   -1    0    0    0  501  0.00000000000E+00  0.00000000000E+00 -0.32120050282E+04  0.32120050282E+04  0.25500000920E-02 0. -1.
    10030    2    1    2    0    0  0.00000000000E+00  0.00000000000E+00 -0.24667811629E+04  0.39572288935E+04  0.30942933297E+04 0.  0.
        2    1    3    3  502    0  0.62494039356E+03 -0.12346737834E+04 -0.34856390315E+03  0.14270482268E+04  0.25500000920E-02 0.  1.
       -2    1    3    3    0  502 -0.62494039356E+03  0.12346737834E+04 -0.21182172597E+04  0.25301806667E+04  0.25500000920E-02 0. -1.
</event>
<event>
 5   0  0.2133385E-06  0.3097757E+04  0.7818609E-02  0.8216354E-01
       -2   -1    0    0    0  501  0.00000000000E+00  0.00000000000E+00  0.12034608586E+04  0.12034608586E+04  0.25500000920E-02 0.  1.
        2   -1    0    0  501    0  0.00000000000E+00  0.00000000000E+00 -0.19934382752E+04  0.19934382752E+04  0.25500000920E-02 0. -1.
    10030    2    1    2    0    0  0.00000000000E+00  0.00000000000E+00 -0.78997741655E+03  0.31968991338E+04  0.30977572134E+04 0.  0.
        2    1    3    3  502    0  0.14777558351E+04  0.43243082274E+03 -0.22148235731E+03  0.15555748645E+04  0.25500000920E-02 0.  1.
       -2    1    3    3    0  502 -0.14777558351E+04 -0.43243082274E+03 -0.56849505924E+03  0.16413242693E+04  0.25500000920E-02 0. -1.
</event>
<event>
 5   0  0.7561815E-07  0.3088360E+04  0.7818609E-02  0.8218940E-01
        1   -1    0    0  501    0  0.00000000000E+00  0.00000000000E+00  0.23790285394E+04  0.23790285394E+04  0.50400001928E-02 0. -1.
       -1   -1    0    0    0  501  0.00000000000E+00  0.00000000000E+00 -0.10022961671E+04  0.10022961671E+04  0.50400001928E-02 0.  1.
    10030    2    1    2    0    0  0.00000000000E+00  0.00000000000E+00  0.13767323723E+04  0.33813247065E+04  0.30883595557E+04 0.  0.
        3    1    3    3  502    0  0.10698032355E+04 -0.10451763859E+04  0.11090244917E+04  0.18619366192E+04  0.10100000352E+00 0. -1.
       -3    1    3    3    0  502 -0.10698032355E+04  0.10451763859E+04  0.26770788058E+03  0.15193880873E+04  0.10100000352E+00 0.  1.
</event>
<event>
 5   0  0.7726743E-07  0.2895028E+04  0.7818609E-02  0.8274358E-01
       -1   -1    0    0    0  501  0.00000000000E+00  0.00000000000E+00  0.10914524658E+04  0.10914524658E+04  0.50400001928E-02 0. -1.
        1   -1    0    0  501    0  0.00000000000E+00  0.00000000000E+00 -0.19197323074E+04  0.19197323074E+04  0.50400001928E-02 0.  1.
    10030    2    1    2    0    0  0.00000000000E+00  0.00000000000E+00 -0.82827984162E+03  0.30111847732E+04  0.28950278483E+04 0.  0.
        1    1    3    3  502    0 -0.32814252449E+03  0.12618715533E+04  0.23981474463E+03  0.13257105436E+04  0.50400001928E-02 0.  1.
       -1    1    3    3    0  502  0.32814252449E+03 -0.12618715533E+04 -0.10680945863E+04  0.16854742296E+04  0.50400001928E-02 0. -1.
</event>
<event>
 5   0  0.7561815E-07  0.3090499E+04  0.7818609E-02  0.8218350E-01
        1   -1    0    0  501    0  0.00000000000E+00  0.00000000000E+00  0.15581121938E+04  0.15581121938E+04  0.50400001928E-02 0.  1.
       -1   -1    0    0    0  501  0.00000000000E+00  0.00000000000E+00 -0.15324928120E+04  0.15324928120E+04  0.50400001928E-02 0. -1.
    10030    2    1    2    0    0  0.00000000000E+00  0.00000000000E+00  0.25619381814E+02  0.30906050058E+04  0.30904988189E+04 0.  0.
        3    1    3    3  502    0 -0.12156250460E+04  0.48163386827E+03 -0.81067491061E+03  0.15384762775E+04  0.10100000352E+00 0.  1.
       -3    1    3    3    0  502  0.12156250460E+04 -0.48163386827E+03  0.83629429242E+03  0.15521287283E+04  0.10100000352E+00 0. -1.
</event>
<event>
 5   0  0.6979625E-07  0.3062894E+04  0.7818609E-02  0.8225996E-01
        3   -1    0    0  501    0  0.00000000000E+00  0.00000000000E+00  0.16433006744E+04  0.16433006775E+04  0.10100000352E+00 0. -1.
       -3   -1    0    0    0  501  0.00000000000E+00  0.00000000000E+00 -0.14272066671E+04  0.14272066707E+04  0.10100000352E+00 0.  1.
    10030    2    1    2    0    0  0.00000000000E+00  0.00000000000E+00  0.21609400736E+03  0.30705073482E+04  0.30628938531E+04 0.  0.
        4    1    3    3  502    0  0.12500236695E+03 -0.64021517855E+03  0.14970693846E+04  0.16330093146E+04  0.12699999809E+01 0. -1.
       -4    1    3    3    0  502 -0.12500236695E+03  0.64021517855E+03 -0.12809753772E+04  0.14374980336E+04  0.12699999809E+01 0.  1.
</event>
<event>
 5   0  0.7519202E-07  0.2959973E+04  0.7818609E-02  0.8255254E-01
        1   -1    0    0  501    0  0.00000000000E+00  0.00000000000E+00  0.15560889527E+04  0.15560889527E+04  0.50400001928E-02 0.  1.
       -1   -1    0    0    0  501  0.00000000000E+00  0.00000000000E+00 -0.14076063658E+04  0.14076063658E+04  0.50400001928E-02 0. -1.
    10030    2    1    2    0    0  0.00000000000E+00  0.00000000000E+00  0.14848258683E+03  0.29636953185E+04  0.29599734563E+04 0.  0.
        4    1    3    3  502    0  0.17723392239E+02  0.65638331070E+03 -0.12537770633E+04  0.14153132892E+04  0.12699999809E+01 0. -1.
       -4    1    3    3    0  502 -0.17723392239E+02 -0.65638331070E+03  0.14022596502E+04  0.15483820293E+04  0.12699999809E+01 0.  1.
</event>
<event>
 5   0  0.7519202E-07  0.3091874E+04  0.7818609E-02  0.8217972E-01
       -1   -1    0    0    0  501  0.00000000000E+00  0.00000000000E+00  0.11932016973E+04  0.11932016973E+04  0.50400001928E-02 0. -1.
        1   -1    0    0  501    0  0.00000000000E+00  0.00000000000E+00 -0.20029477560E+04  0.20029477560E+04  0.50400001928E-02 0.  1.
    10030    2    1    2    0    0  0.00000000000E+00  0.00000000000E+00 -0.80974605874E+03  0.31961494534E+04  0.30918736469E+04 0.  0.
        4    1    3    3  502    0  0.51806692909E+03  0.17104875030E+03  0.10903776242E+04  0.12192522275E+04  0.12699999809E+01 0. -1.
       -4    1    3    3    0  502 -0.51806692909E+03 -0.17104875030E+03 -0.19001236830E+04  0.19768972258E+04  0.12699999809E+01 0.  1.
</event>
<event>
 5   0  0.2067926E-06  0.3096923E+04  0.7818609E-02  0.8216583E-01
        2   -1    0    0  501    0  0.00000000000E+00  0.00000000000E+00  0.13305495774E+04  0.13305495774E+04  0.25500000920E-02 0.  1.
       -2   -1    0    0    0  501  0.00000000000E+00  0.00000000000E+00 -0.18020616986E+04  0.18020616986E+04  0.25500000920E-02 0. -1.
    10030    2    1    2    0    0  0.00000000000E+00  0.00000000000E+00 -0.47151212120E+03  0.31326112760E+04  0.30969226220E+04 0.  0.
        1    1    3    3  502    0 -0.10070942502E+04 -0.40762472855E+03  0.88028796954E+03  0.13983217289E+04  0.50400001928E-02 0.  1.
       -1    1    3    3    0  502  0.10070942502E+04  0.40762472855E+03 -0.13518000907E+04  0.17342895472E+04  0.50400001928E-02 0. -1.
</event>
<event>
 5   0  0.2078009E-06  0.3102060E+04  0.7818609E-02  0.8215173E-01
        2   -1    0    0  501    0  0.00000000000E+00  0.00000000000E+00  0.24536530240E+04  0.24536530240E+04  0.25500000920E-02 0.  1.
       -2   -1    0    0    0  501  0.00000000000E+00  0.00000000000E+00 -0.98045398780E+03  0.98045398781E+03  0.25500000920E-02 0. -1.
    10030    2    1    2    0    0  0.00000000000E+00  0.00000000000E+00  0.14731990362E+04  0.34341070119E+04  0.31020598912E+04 0.  0.
        3    1    3    3  502    0 -0.77995639162E+03  0.88970708792E+03  0.18468368741E+04  0.21933347043E+04  0.10100000352E+00 0.  1.
       -3    1    3    3    0  502  0.77995639162E+03 -0.88970708792E+03 -0.37363783790E+03  0.12407723076E+04  0.10100000352E+00 0. -1.
</event>
<event>
 5   0  0.7413481E-07  0.3095570E+04  0.7818609E-02  0.8216955E-01
        1   -1    0    0  501    0  0.00000000000E+00  0.00000000000E+00  0.21128245719E+04  0.21128245719E+04  0.50400001928E-02 0. -1.
       -1   -1    0    0    0  501  0.00000000000E+00  0.00000000000E+00 -0.11338560791E+04  0.11338560791E+04  0.50400001928E-02 0.  1.
    10030    2    1    2    0    0  0.00000000000E+00  0.00000000000E+00  0.97896849283E+03  0.32466806511E+04  0.30955703739E+04 0.  0.
        5    1    3    3  502    0  0.19233947293E+03  0.56763231910E+03  0.19861752168E+04  0.20746361138E+04  0.46999998093E+01 0. -1.
       -5    1    3    3    0  502 -0.19233947293E+03 -0.56763231910E+03 -0.10072067240E+04  0.11720445373E+04  0.46999998093E+01 0.  1.
</event>
<event>
 5   0  0.2133385E-06  0.3030032E+04  0.7818609E-02  0.8235207E-01
       -2   -1    0    0    0  501  0.00000000000E+00  0.00000000000E+00  0.25881992524E+04  0.25881992524E+04  0.25500000920E-02 0.  1.
        2   -1    0    0  501    0  0.00000000000E+00  0.00000000000E+00 -0.88682281829E+03  0.88682281829E+03  0.25500000920E-02 0. -1.
    10030    2    1    2    0    0  0.00000000000E+00  0.00000000000E+00  0.17013764341E+04  0.34750220707E+04  0.30300324456E+04 0.  0.
        2    1    3    3  502    0 -0.18494779719E+03  0.14602661838E+04  0.12621074712E+04  0.19389425685E+04  0.25500000920E-02 0.  1.
       -2    1    3    3    0  502  0.18494779719E+03 -0.14602661838E+04  0.43926896290E+03  0.15360795022E+04  0.25500000920E-02 0. -1.
</event>
<event>
 5   0  0.2094135E-06  0.3126066E+04  0.7818609E-02  0.8208620E-01
        2   -1    0    0  501    0  0.00000000000E+00  0.00000000000E+00  0.24176741206E+04  0.24176741206E+04  0.25500000920E-02 0. -1.
       -2   -1    0    0    0  501  0.00000000000E+00  0.00000000000E+00 -0.10105053723E+04  0.10105053723E+04  0.25500000920E-02 0.  1.
    10030    2    1    2    0    0  0.00000000000E+00  0.00000000000E+00  0.14071687483E+04  0.34281794929E+04  0.31260663379E+04 0.  0.
        4    1    3    3  502    0  0.10327476414E+04 -0.71997000423E+03 -0.31230425645E+03  0.12970967810E+04  0.12699999809E+01 0.  1.
       -4    1    3    3    0  502 -0.10327476414E+04  0.71997000423E+03  0.17194730048E+04  0.21310827119E+04  0.12699999809E+01 0. -1.
</event>
<event>
 5   0  0.7519202E-07  0.3085542E+04  0.7818609E-02  0.8219717E-01
       -1   -1    0    0    0  501  0.00000000000E+00  0.00000000000E+00  0.21724832412E+04  0.21724832412E+04  0.50400001928E-02 0.  1.
        1   -1    0    0  501    0  0.00000000000E+00  0.00000000000E+00 -0.10955859400E+04  0.10955859400E+04  0.50400001928E-02 0. -1.
    10030    2    1    2    0    0  0.00000000000E+00  0.00000000000E+00  0.10768973012E+04  0.32680691813E+04  0.30855418286E+04 0.  0.
        4    1    3    3  502    0  0.13881171874E+04 -0.32369036801E+03  0.11637055831E+04  0.18400698566E+04  0.12699999809E+01 0.  1.
       -4    1    3    3    0  502 -0.13881171874E+04  0.32369036801E+03 -0.86808281883E+02  0.14279993246E+04  0.12699999809E+01 0. -1.
</event>
<event>
 5   0  0.2226334E-06  0.3079721E+04  0.7818609E-02  0.8221325E-01
        2   -1    0    0  501    0  0.00000000000E+00  0.00000000000E+00  0.13189387491E+04  0.13189387491E+04  0.25500000920E-02 0. -1.
       -2   -1    0    0    0  501  0.00000000000E+00  0.00000000000E+00 -0.17977866076E+04  0.17977866076E+04  0.25500000920E-02 0.  1.
    10030    2    1    2    0    0  0.00000000000E+00  0.00000000000E+00 -0.47884785847E+03  0.31167253567E+04  0.30797210390E+04 0.  0.
        5    1    3    3  502    0  0.16981597586E+03 -0.12438170598E+04  0.66304763803E+03  0.14197086335E+04  0.46999998093E+01 0. -1.
       -5    1    3    3    0  502 -0.16981597586E+03  0.12438170598E+04 -0.11418954965E+04  0.16970167232E+04  0.46999998093E+01 0.  1.
</event>
<event>
 5   0  0.2067926E-06  0.3096945E+04  0.7818609E-02  0.8216577E-01
       -2   -1    0    0    0  501  0.00000000000E+00  0.00000000000E+00  0.12417044416E+04  0.12417044416E+04  0.25500000920E-02 0.  1.
        2   -1    0    0  501    0  0.00000000000E+00  0.00000000000E+00 -0.19310291897E+04  0.19310291897E+04  0.25500000920E-02 0. -1.
    10030    2    1    2    0    0  0.00000000000E+00  0.00000000000E+00 -0.68932474811E+03  0.31727336313E+04  0.30969452832E+04 0.  0.
        1    1    3    3  502    0  0.77211934865E+03 -0.24787893589E+03  0.10067692580E+04  0.12927476917E+04  0.50400001928E-02 0.  1.
       -1    1    3    3    0  502 -0.77211934865E+03  0.24787893589E+03 -0.16960940062E+04  0.18799859396E+04  0.50400001928E-02 0. -1.
</event>
<event>
 5   0  0.7519202E-07  0.3026932E+04  0.7818609E-02  0.8236082E-01
       -1   -1    0    0    0  501  0.00000000000E+00  0.00000000000E+00  0.15007400731E+04  0.15007400731E+04  0.50400001928E-02 0. -1.
        1   -1    0    0  501    0  0.00000000000E+00  0.00000000000E+00 -0.15263003183E+04  0.15263003183E+04  0.50400001928E-02 0.  1.
    10030    2    1    2    0    0  0.00000000000E+00  0.00000000000E+00 -0.25560245223E+02  0.30270403914E+04  0.30269324744E+04 0.  0.
        4    1    3    3  502    0 -0.59856154411E+03 -0.12762398327E+04 -0.56372117939E+03  0.15181723267E+04  0.12699999809E+01 0.  1.
       -4    1    3    3    0  502  0.59856154411E+03  0.12762398327E+04  0.53816093416E+03  0.15088680647E+04  0.12699999809E+01 0. -1.
</event>
<event>
 5   0  0.7561815E-07  0.3008168E+04  0.7818609E-02  0.8241402E-01
       -1   -1    0    0    0  501  0.00000000000E+00  0.00000000000E+00  0.17728841290E+04  0.17728841290E+04  0.50400001928E-02 0. -1.
        1   -1    0    0  501    0  0.00000000000E+00  0.00000000000E+00 -0.12760385475E+04  0.12760385475E+04  0.50400001928E-02 0.  1.
    10030    2    1    2    0    0  0.00000000000E+00  0.00000000000E+00  0.49684558147E+03  0.30489226765E+04  0.30081678735E+04 0.  0.
        3    1    3    3  502    0 -0.81131425526E+03 -0.10109700519E+04 -0.52478697655E+03  0.13984608137E+04  0.10100000352E+00 0.  1.
       -3    1    3    3    0  502  0.81131425526E+03  0.10109700519E+04  0.10216325580E+04  0.16504618627E+04  0.10100000352E+00 0. -1.
</event>
<event>
 5   0  0.2094135E-06  0.3097769E+04  0.7818609E-02  0.8216351E-01
        2   -1    0    0  501    0  0.00000000000E+00  0.00000000000E+00  0.18916174917E+04  0.18916174917E+04  0.25500000920E-02 0. -1.
       -2   -1    0    0    0  501  0.00000000000E+00  0.00000000000E+00 -0.12682493796E+04  0.12682493796E+04  0.25500000920E-02 0.  1.
    10030    2    1    2    0    0  0.00000000000E+00  0.00000000000E+00  0.62336811216E+03  0.31598668713E+04  0.30977686875E+04 0.  0.
        4    1    3    3  502    0 -0.45214473310E+03  0.63873126018E+03 -0.10517588067E+04  0.13109579256E+04  0.12699999809E+01 0.  1.
       -4    1    3    3    0  502  0.45214473310E+03 -0.63873126018E+03  0.16751269188E+04  0.18489089457E+04  0.12699999809E+01 0. -1.
</event>
<event>
 5   0  0.2078009E-06  0.3083388E+04  0.7818609E-02  0.8220312E-01
       -2   -1    0    0    0  501  0.00000000000E+00  0.00000000000E+00  0.14952824835E+04  0.14952824835E+04  0.25500000920E-02 0. -1.
        2   -1    0    0  501    0  0.00000000000E+00  0.00000000000E+00 -0.15895458893E+04  0.15895458893E+04  0.25500000920E-02 0.  1.
    10030    2    1    2    0    0  0.00000000000E+00  0.00000000000E+00 -0.94263405832E+02  0.30848283728E+04  0.30833878283E+04 0.  0.
        3    1    3    3  502    0  0.33432927013E+03 -0.14917597038E+04 -0.24646594798E+03  0.15485052626E+04  0.10100000352E+00 0.  1.
       -3    1    3    3    0  502 -0.33432927013E+03  0.14917597038E+04  0.15220254214E+03  0.15363231101E+04  0.10100000352E+00 0. -1.
</event>
<event>
 5   0  0.2133385E-06  0.2799672E+04  0.7818609E-02  0.8303370E-01
        2   -1    0    0  501    0  0.00000000000E+00  0.00000000000E+00  0.26071182295E+04  0.26071182295E+04  0.25500000920E-02 0.  1.
       -2   -1    0    0    0  501  0.00000000000E+00  0.00000000000E+00 -0.75161187938E+03  0.75161187938E+03  0.25500000920E-02 0. -1.
    10030    2    1    2    0    0  0.00000000000E+00  0.00000000000E+00  0.18555063501E+04  0.33587301089E+04  0.27996721467E+04 0.  0.
        2    1    3    3  502    0 -0.67946984672E+03 -0.23360608910E+03 -0.51351476216E+03  0.88314692346E+03  0.25500000920E-02 0. -1.
       -2    1    3    3    0  502  0.67946984672E+03  0.23360608910E+03  0.23690211123E+04  0.24755831854E+04  0.25500000920E-02 0.  1.
</event>
<event>
 5   0  0.2133385E-06  0.3117057E+04  0.7818609E-02  0.8211072E-01
       -2   -1    0    0    0  501  0.00000000000E+00  0.00000000000E+00  0.13098416703E+04  0.13098416703E+04  0.25500000920E-02 0. -1.
        2   -1    0    0  501    0  0.00000000000E+00  0.00000000000E+00 -0.18544311513E+04  0.18544311513E+04  0.25500000920E-02 0.  1.
    10030    2    1    2    0    0  0.00000000000E+00  0.00000000000E+00 -0.54458948104E+03  0.31642728216E+04  0.31170570714E+04 0.  0.
        2    1    3    3  502    0  0.17625758763E+03 -0.46886861476E+02  0.12989707066E+04  0.13117126254E+04  0.25500000920E-02 0. -1.
       -2    1    3    3    0  502 -0.17625758763E+03  0.46886861476E+02 -0.18435601876E+04  0.18525601962E+04  0.25500000920E-02 0.  1.
</event>
<event>
 5   0  0.2094135E-06  0.3091583E+04  0.7818609E-02  0.8218052E-01
       -2   -1    0    0    0  501  0.00000000000E+00  0.00000000000E+00  0.99766493242E+03  0.99766493243E+03  0.25500000920E-02 0. -1.
        2   -1    0    0  501    0  0.00000000000E+00  0.00000000000E+00 -0.23950636340E+04  0.23950636340E+04  0.25500000920E-02 0.  1.
    10030    2    1    2    0    0  0.00000000000E+00  0.00000000000E+00 -0.13973987016E+04  0.33927285665E+04  0.30915827653E+04 0.  0.
        4    1    3    3  502    0  0.27305523424E+03 -0.85504820149E+03 -0.20797792070E+04  0.22652041300E+04  0.12699999809E+01 0.  1.
       -4    1    3    3    0  502 -0.27305523424E+03  0.85504820149E+03  0.68238050537E+03  0.11275244365E+04  0.12699999809E+01 0. -1.
</event>
<event>
 5   0  0.2226334E-06  0.3073814E+04  0.7818609E-02  0.8222961E-01
       -2   -1    0    0    0  501  0.00000000000E+00  0.00000000000E+00  0.13922690113E+04  0.13922690113E+04  0.25500000920E-02 0. -1.
        2   -1    0    0  501    0  0.00000000000E+00  0.00000000000E+00 -0.16965712142E+04  0.16965712142E+04  0.25500000920E-02 0.  1.
    10030    2    1    2    0    0  0.00000000000E+00  0.00000000000E+00 -0.30430220294E+03  0.30888402255E+04  0.30738142605E+04 0.  0.
        5    1    3    3  502    0  0.14462704255E+04  0.13041524959E+03  0.35365340773E+03  0.14945899451E+04  0.46999998093E+01 0. -1.
       -5    1    3    3    0  502 -0.14462704255E+04 -0.13041524959E+03 -0.65795561067E+03  0.15942502805E+04  0.46999998093E+01 0.  1.
</event>
<event>
 5   0  0.2226334E-06  0.3095081E+04  0.7818609E-02  0.8217089E-01
        2   -1    0    0  501    0  0.00000000000E+00  0.00000000000E+00  0.11901056644E+04  0.11901056644E+04  0.25500000920E-02 0. -1.
       -2   -1    0    0    0  501  0.00000000000E+00  0.00000000000E+00 -0.20123271157E+04  0.20123271157E+04  0.25500000920E-02 0.  1.
    10030    2    1    2    0    0  0.00000000000E+00  0.00000000000E+00 -0.82222145126E+03  0.32024327801E+04  0.30950811938E+04 0.  0.
        5    1    3    3  502    0 -0.11166748658E+04 -0.68965193620E+03 -0.12594746392E+04  0.18190329864E+04  0.46999998093E+01 0.  1.
       -5    1    3    3    0  502  0.11166748658E+04  0.68965193620E+03  0.43725318792E+03  0.13833997937E+04  0.46999998093E+01 0. -1.
</event>
<event>
 5   0  0.2078009E-06  0.3105327E+04  0.7818609E-02  0.8214277E-01
       -2   -1    0    0    0  501  0.00000000000E+00  0.00000000000E+00  0.19327846585E+04  0.19327846586E+04  0.25500000920E-02 0.  1.
        2   -1    0    0  501    0  0.00000000000E+00  0.00000000000E+00 -0.12473009043E+04  0.12473009043E+04  0.25500000920E-02 0. -1.
    10030    2    1    2    0    0  0.00000000000E+00  0.00000000000E+00  0.68548375430E+03  0.31800855628E+04  0.31053270696E+04 0.  0.
        3    1    3    3  502    0 -0.23202081898E+03  0.15334195142E+04  0.26641587471E+03  0.15735903201E+04  0.10100000352E+00 0.  1.
       -3    1    3    3    0  502  0.23202081898E+03 -0.15334195142E+04  0.41906787958E+03  0.16064952427E+04  0.10100000352E+00 0. -1.
</event>
<event>
 5   0  0.7726743E-07  0.3116188E+04  0.7818609E-02  0.8211309E-01
       -1   -1    0    0    0  501  0.00000000000E+00  0.00000000000E+00  0.21427365201E+04  0.21427365201E+04  0.50400001928E-02 0.  1.
        1   -1    0    0  501    0  0.00000000000E+00  0.00000000000E+00 -0.11329701784E+04  0.11329701784E+04  0.50400001928E-02 0. -1.
    10030    2    1    2    0    0  0.00000000000E+00  0.00000000000E+00  0.10097663417E+04  0.32757066984E+04  0.31161877847E+04 0.  0.
        1    1    3    3  502    0 -0.12214461302E+04 -0.88766790943E+03  0.90897204377E+03  0.17624174145E+04  0.50400001928E-02 0.  1.
       -1    1    3    3    0  502  0.12214461302E+04  0.88766790943E+03  0.10079429793E+03  0.15132892840E+04  0.50400001928E-02 0. -1.
</event>
<event>
 5   0  0.7726743E-07  0.3059407E+04  0.7818609E-02  0.8226967E-01
        1   -1    0    0  501    0  0.00000000000E+00  0.00000000000E+00  0.14055957229E+04  0.14055957229E+04  0.50400001928E-02 0. -1.
       -1   -1    0    0    0  501  0.00000000000E+00  0.00000000000E+00 -0.16647696185E+04  0.16647696185E+04  0.50400001928E-02 0.  1.
    10030    2    1    2    0    0  0.00000000000E+00  0.00000000000E+00 -0.25917389553E+03  0.30703653414E+04  0.30594071683E+04 0.  0.
        1    1    3    3  502    0  0.91310537765E+03 -0.11396889814E+04  0.32739074785E+03  0.14966085349E+04  0.50400001928E-02 0.  1.
       -1    1    3    3    0  502 -0.91310537765E+03  0.11396889814E+04 -0.58656464338E+03  0.15737568065E+04  0.50400001928E-02 0. -1.
</event>
<event>
 5   0  0.2133385E-06  0.2967262E+04  0.7818609E-02  0.8253142E-01
        2   -1    0    0  501    0  0.00000000000E+00  0.00000000000E+00  0.22279008842E+04  0.22279008842E+04  0.25500000920E-02 0.  1.
       -2   -1    0    0    0  501  0.00000000000E+00  0.00000000000E+00 -0.98799779274E+03  0.98799779274E+03  0.25500000920E-02 0. -1.
    10030    2    1    2    0    0  0.00000000000E+00  0.00000000000E+00  0.12399030915E+04  0.32158986770E+04  0.29672621428E+04 0.  0.
        2    1    3    3  502    0 -0.65945406072E+03  0.13037378760E+04  0.34036429308E+03  0.15001533120E+04  0.25500000920E-02 0.  1.
       -2    1    3    3    0  502  0.65945406072E+03 -0.13037378760E+04  0.89953879841E+03  0.17157453650E+04  0.25500000920E-02 0. -1.
</event>
<event>
 5   0  0.2094135E-06  0.3078518E+04  0.7818609E-02  0.8221658E-01
        2   -1    0    0  501    0  0.00000000000E+00  0.00000000000E+00  0.15626980194E+04  0.15626980194E+04  0.25500000920E-02 0. -1.
       -2   -1    0    0    0  501  0.00000000000E+00  0.00000000000E+00 -0.15161719924E+04  0.15161719924E+04  0.25500000920E-02 0.  1.
    10030    2    1    2    0    0  0.00000000000E+00  0.00000000000E+00  0.46526027030E+02  0.30788700117E+04  0.30785184550E+04 0.  0.
        4    1    3    3  502    0 -0.13583603310E+04 -0.48147401438E+03 -0.51749951982E+03  0.15312633286E+04  0.12699999809E+01 0.  1.
       -4    1    3    3    0  502  0.13583603310E+04  0.48147401438E+03  0.56402554685E+03  0.15476066832E+04  0.12699999809E+01 0. -1.
</event>
<event>
 5   0  0.7413481E-07  0.3082118E+04  0.7818609E-02  0.8220663E-01
        1   -1    0    0  501    0  0.00000000000E+00  0.00000000000E+00  0.21373732623E+04  0.21373732623E+04  0.50400001928E-02 0.  1.
       -1   -1    0    0    0  501  0.00000000000E+00  0.00000000000E+00 -0.11111130940E+04  0.11111130940E+04  0.50400001928E-02 0. -1.
    10030    2    1    2    0    0  0.00000000000E+00  0.00000000000E+00  0.10262601683E+04  0.32484863563E+04  0.30821183744E+04 0.  0.
        5    1    3    3  502    0  0.65341075677E+03  0.13701035242E+04  0.79340125611E+03  0.17127863052E+04  0.46999998093E+01 0. -1.
       -5    1    3    3    0  502 -0.65341075677E+03 -0.13701035242E+04  0.23285891220E+03  0.15357000511E+04  0.46999998093E+01 0.  1.
</event>
<event>
 5   0  0.2067926E-06  0.3098751E+04  0.7818609E-02  0.8216081E-01
        2   -1    0    0  501    0  0.00000000000E+00  0.00000000000E+00  0.13649107682E+04  0.13649107682E+04  0.25500000920E-02 0.  1.
       -2   -1    0    0    0  501  0.00000000000E+00  0.00000000000E+00 -0.17587707144E+04  0.17587707144E+04  0.25500000920E-02 0. -1.
    10030    2    1    2    0    0  0.00000000000E+00  0.00000000000E+00 -0.39385994612E+03  0.31236814826E+04  0.30987514175E+04 0.  0.
        1    1    3    3  502    0  0.12869107479E+04  0.84990378606E+03 -0.47109332011E+02  0.15429500990E+04  0.50400001928E-02 0.  1.
       -1    1    3    3    0  502 -0.12869107479E+04 -0.84990378606E+03 -0.34675061411E+03  0.15807313836E+04  0.50400001928E-02 0. -1.
</event>
<event>
 5   0  0.7413481E-07  0.3079565E+04  0.7818609E-02  0.8221369E-01
        1   -1    0    0  501    0  0.00000000000E+00  0.00000000000E+00  0.10478927001E+04  0.10478927001E+04  0.50400001928E-02 0. -1.
       -1   -1    0    0    0  501  0.00000000000E+00  0.00000000000E+00 -0.22625693921E+04  0.22625693921E+04  0.50400001928E-02 0.  1.
    10030    2    1    2    0    0  0.00000000000E+00  0.00000000000E+00 -0.12146766921E+04  0.33104620922E+04  0.30795648715E+04 0.  0.
        5    1    3    3  502    0  0.12933660281E+04 -0.68662001698E+03 -0.95548555576E+02  0.14674448361E+04  0.46999998093E+01 0. -1.
       -5    1    3    3    0  502 -0.12933660281E+04  0.68662001698E+03 -0.11191281365E+04  0.18430172561E+04  0.46999998093E+01 0.  1.
</event>
<event>
 5   0  0.7519202E-07  0.3091293E+04  0.7818609E-02  0.8218131E-01
       -1   -1    0    0    0  501  0.00000000000E+00  0.00000000000E+00  0.11558337448E+04  0.11558337448E+04  0.50400001928E-02 0. -1.
        1   -1    0    0  501    0  0.00000000000E+00  0.00000000000E+00 -0.20669264542E+04  0.20669264542E+04  0.50400001928E-02 0.  1.
    10030    2    1    2    0    0  0.00000000000E+00  0.00000000000E+00 -0.91109270942E+03  0.32227601991E+04  0.30912931559E+04 0.  0.
        4    1    3    3  502    0 -0.12048232027E+04 -0.96699699920E+03 -0.40512004467E+03  0.15971242938E+04  0.12699999809E+01 0.  1.
       -4    1    3    3    0  502  0.12048232027E+04  0.96699699920E+03 -0.50597266475E+03  0.16256359053E+04  0.12699999809E+01 0. -1.
</event>
<event>
 5   0  0.7726743E-07  0.3095801E+04  0.7818609E-02  0.8216891E-01
       -1   -1    0    0    0  501  0.00000000000E+00  0.00000000000E+00  0.10779843003E+04  0.10779843003E+04  0.50400001928E-02 0.  1.
        1   -1    0    0  501    0  0.00000000000E+00  0.00000000000E+00 -0.22226629941E+04  0.22226629941E+04  0.50400001928E-02 0. -1.
    10030    2    1    2    0    0  0.00000000000E+00  0.00000000000E+00 -0.11446786938E+04  0.33006472944E+04  0.30958009061E+04 0.  0.
        1    1    3    3  502    0 -0.85299500417E+03  0.12309906124E+04 -0.15522672811E+03  0.15056671950E+04  0.50400001928E-02 0.  1.
       -1    1    3    3    0  502  0.85299500417E+03 -0.12309906124E+04 -0.98945196573E+03  0.17949800994E+04  0.50400001928E-02 0. -1.
</event>
<event>
 5   0  0.7726743E-07  0.3099728E+04  0.7818609E-02  0.8215813E-01
       -1   -1    0    0    0  501  0.00000000000E+00  0.00000000000E+00  0.10728856724E+04  0.10728856724E+04  0.50400001928E-02 0. -1.
        1   -1    0    0  501    0  0.00000000000E+00  0.00000000000E+00 -0.22388949214E+04  0.22388949214E+04  0.50400001928E-02 0.  1.
    10030    2    1    2    0    0  0.00000000000E+00  0.00000000000E+00 -0.11660092490E+04  0.33117805938E+04  0.30997279127E+04 0.  0.
        1    1    3    3  502    0 -0.99407304576E+02 -0.11230721871E+04  0.55318575854E+03  0.12558612316E+04  0.50400001928E-02 0. -1.
       -1    1    3    3    0  502  0.99407304576E+02  0.11230721871E+04 -0.17191950076E+04  0.20559193622E+04  0.50400001928E-02 0.  1.
</event>
<event>
 5   0  0.7726743E-07  0.3118947E+04  0.7818609E-02  0.8210557E-01
       -1   -1    0    0    0  501  0.00000000000E+00  0.00000000000E+00  0.15273428211E+04  0.15273428211E+04  0.50400001928E-02 0. -1.
        1   -1    0    0  501    0  0.00000000000E+00  0.00000000000E+00 -0.15922799749E+04  0.15922799749E+04  0.50400001928E-02 0.  1.
    10030    2    1    2    0    0  0.00000000000E+00  0.00000000000E+00 -0.64937153799E+02  0.31196227960E+04  0.31189468664E+04 0.  0.
        1    1    3    3  502    0 -0.13780330348E+03  0.42001117213E+03  0.14633682325E+04  0.15286744974E+04  0.50400001928E-02 0. -1.
       -1    1    3    3    0  502  0.13780330348E+03 -0.42001117213E+03 -0.15283053863E+04  0.15909482986E+04  0.50400001928E-02 0.  1.
</event>
<event>
 5   0  0.7656332E-07  0.3087698E+04  0.7818609E-02  0.8219122E-01
        1   -1    0    0  501    0  0.00000000000E+00  0.00000000000E+00  0.12039711587E+04  0.12039711587E+04  0.50400001928E-02 0.  1.
       -1   -1    0    0    0  501  0.00000000000E+00  0.00000000000E+00 -0.19796734448E+04  0.19796734448E+04  0.50400001928E-02 0. -1.
    10030    2    1    2    0    0  0.00000000000E+00  0.00000000000E+00 -0.77570228612E+03  0.31836446035E+04  0.30876979976E+04 0.  0.
        2    1    3    3  502    0  0.27473848854E+03 -0.43237837188E+03 -0.18894845847E+04  0.19576987228E+04  0.25500000920E-02 0. -1.
       -2    1    3    3    0  502 -0.27473848854E+03  0.43237837188E+03  0.11137822986E+04  0.12259458806E+04  0.25500000920E-02 0.  1.
</event>
<event>
 5   0  0.7413481E-07  0.3104325E+04  0.7818609E-02  0.8214552E-01
        1   -1    0    0  501    0  0.00000000000E+00  0.00000000000E+00  0.19256179120E+04  0.19256179120E+04  0.50400001928E-02 0.  1.
       -1   -1    0    0    0  501  0.00000000000E+00  0.00000000000E+00 -0.12511352235E+04  0.12511352235E+04  0.50400001928E-02 0. -1.
    10030    2    1    2    0    0  0.00000000000E+00  0.00000000000E+00  0.67448268850E+03  0.31767531354E+04  0.31043249808E+04 0.  0.
        5    1    3    3  502    0 -0.12370483319E+04 -0.20902036205E+03 -0.59797840070E+03  0.13898123416E+04  0.46999998093E+01 0. -1.
       -5    1    3    3    0  502  0.12370483319E+04  0.20902036205E+03  0.12724610892E+04  0.17869407938E+04  0.46999998093E+01 0.  1.
</event>
<event>
 5   0  0.2078009E-06  0.3089019E+04  0.7818609E-02  0.8218758E-01
       -2   -1    0    0    0  501  0.00000000000E+00  0.00000000000E+00  0.15653284136E+04  0.15653284136E+04  0.25500000920E-02 0. -1.
        2   -1    0    0  501    0  0.00000000000E+00  0.00000000000E+00 -0.15239675502E+04  0.15239675502E+04  0.25500000920E-02 0.  1.
    10030    2    1    2    0    0  0.00000000000E+00  0.00000000000E+00  0.41360863448E+02  0.30892959638E+04  0.30890190726E+04 0.  0.
        3    1    3    3  502    0  0.55686275334E+03  0.14345884774E+04 -0.11112467466E+03  0.15428833167E+04  0.10100000352E+00 0.  1.
       -3    1    3    3    0  502 -0.55686275334E+03 -0.14345884774E+04  0.15248553811E+03  0.15464126471E+04  0.10100000352E+00 0. -1.
</event>
<event>
 5   0  0.7561815E-07  0.3099171E+04  0.7818609E-02  0.8215965E-01
        1   -1    0    0  501    0  0.00000000000E+00  0.00000000000E+00  0.21866203076E+04  0.21866203076E+04  0.50400001928E-02 0. -1.
       -1   -1    0    0    0  501  0.00000000000E+00  0.00000000000E+00 -0.10981400677E+04  0.10981400677E+04  0.50400001928E-02 0.  1.
    10030    2    1    2    0    0  0.00000000000E+00  0.00000000000E+00  0.10884802399E+04  0.32847603754E+04  0.30991710974E+04 0.  0.
        3    1    3    3  502    0 -0.91406610863E+02  0.11614671842E+03 -0.10906521592E+04  0.11006213569E+04  0.10100000352E+00 0.  1.
       -3    1    3    3    0  502  0.91406610863E+02 -0.11614671842E+03  0.21791323991E+04  0.21841390184E+04  0.10100000352E+00 0. -1.
</event>
<event>
 5   0  0.7656332E-07  0.3076414E+04  0.7818609E-02  0.8222241E-01
       -1   -1    0    0    0  501  0.00000000000E+00  0.00000000000E+00  0.18239977464E+04  0.18239977465E+04  0.50400001928E-02 0. -1.
        1   -1    0    0  501    0  0.00000000000E+00  0.00000000000E+00 -0.12971950051E+04  0.12971950051E+04  0.50400001928E-02 0.  1.
    10030    2    1    2    0    0  0.00000000000E+00  0.00000000000E+00  0.52680274138E+03  0.31211927515E+04  0.30764139942E+04 0.  0.
        2    1    3    3  502    0  0.52378573011E+03  0.78024252543E+03  0.14988912550E+04  0.17691254574E+04  0.25500000920E-02 0. -1.
       -2    1    3    3    0  502 -0.52378573011E+03 -0.78024252543E+03 -0.97208851364E+03  0.13520672942E+04  0.25500000920E-02 0.  1.
</event>
<event>
 5   0  0.2226334E-06  0.3135440E+04  0.7818609E-02  0.8206078E-01
        2   -1    0    0  501    0  0.00000000000E+00  0.00000000000E+00  0.11331937042E+04  0.11331937042E+04  0.25500000920E-02 0.  1.
       -2   -1    0    0    0  501  0.00000000000E+00  0.00000000000E+00 -0.21688671174E+04  0.21688671174E+04  0.25500000920E-02 0. -1.
    10030    2    1    2    0    0  0.00000000000E+00  0.00000000000E+00 -0.10356734132E+04  0.33020608217E+04  0.31354403600E+04 0.  0.
        5    1    3    3  502    0  0.92377592722E+03 -0.34193290372E+03 -0.18022562182E+04  0.20538816033E+04  0.46999998093E+01 0. -1.
       -5    1    3    3    0  502 -0.92377592722E+03  0.34193290372E+03  0.76658280495E+03  0.12481792184E+04  0.46999998093E+01 0.  1.
</event>
<event>
 5   0  0.2078009E-06  0.3086798E+04  0.7818609E-02  0.8219370E-01
        2   -1    0    0  501    0  0.00000000000E+00  0.00000000000E+00  0.16815863070E+04  0.16815863070E+04  0.25500000920E-02 0.  1.
       -2   -1    0    0    0  501  0.00000000000E+00  0.00000000000E+00 -0.14165676959E+04  0.14165676959E+04  0.25500000920E-02 0. -1.
    10030    2    1    2    0    0  0.00000000000E+00  0.00000000000E+00  0.26501861115E+03  0.30981540029E+04  0.30867982378E+04 0.  0.
        3    1    3    3  502    0 -0.95020932579E+02  0.22072877799E+02 -0.14134703874E+04  0.14168326421E+04  0.10100000352E+00 0. -1.
       -3    1    3    3    0  502  0.95020932579E+02 -0.22072877799E+02  0.16784889986E+04  0.16813213607E+04  0.10100000352E+00 0.  1.
</event>
<event>
 5   0  0.7726743E-07  0.3107080E+04  0.7818609E-02  0.8213798E-01
        1   -1    0    0  501    0  0.00000000000E+00  0.00000000000E+00  0.23731168433E+04  0.23731168433E+04  0.50400001928E-02 0. -1.
       -1   -1    0    0    0  501  0.00000000000E+00  0.00000000000E+00 -0.10170111328E+04  0.10170111328E+04  0.50400001928E-02 0.  1.
    10030    2    1    2    0    0  0.00000000000E+00  0.00000000000E+00  0.13561057105E+04  0.33901279761E+04  0.31070798181E+04 0.  0.
        1    1    3    3  502    0 -0.95531854874E+03 -0.12007513298E+04  0.41291617030E+03  0.15890050501E+04  0.50400001928E-02 0.  1.
       -1    1    3    3    0  502  0.95531854874E+03  0.12007513298E+04  0.94318954019E+03  0.18011229259E+04  0.50400001928E-02 0. -1.
</event>
<event>
 5   0  0.2094135E-06  0.3035114E+04  0.7818609E-02  0.8233774E-01
        2   -1    0    0  501    0  0.00000000000E+00  0.00000000000E+00  0.13225925251E+04  0.13225925251E+04  0.25500000920E-02 0. -1.
       -2   -1    0    0    0  501  0.00000000000E+00  0.00000000000E+00 -0.17412614668E+04  0.17412614668E+04  0.25500000920E-02 0.  1.
    10030    2    1    2    0    0  0.00000000000E+00  0.00000000000E+00 -0.41866894171E+03  0.30638539920E+04  0.30351141002E+04 0.  0.
        4    1    3    3  502    0 -0.33126791211E+03 -0.12337720052E+04 -0.10362653086E+04  0.16449252849E+04  0.12699999809E+01 0.  1.
       -4    1    3    3    0  502  0.33126791211E+03  0.12337720052E+04  0.61759636690E+03  0.14189287070E+04  0.12699999809E+01 0. -1.
</event>
<event>
 5   0  0.2067926E-06  0.3088156E+04  0.7818609E-02  0.8218996E-01
        2   -1    0    0  501    0  0.00000000000E+00  0.00000000000E+00  0.27919034698E+04  0.27919034698E+04  0.25500000920E-02 0. -1.
       -2   -1    0    0    0  501  0.00000000000E+00  0.00000000000E+00 -0.85396127046E+03  0.85396127046E+03  0.25500000920E-02 0.  1.
    10030    2    1    2    0    0  0.00000000000E+00  0.00000000000E+00  0.19379421994E+04  0.36458647403E+04  0.30881563653E+04 0.  0.
        1    1    3    3  502    0 -0.13969025176E+04  0.64322929495E+03  0.11321193057E+04  0.19096530292E+04  0.50400001928E-02 0. -1.
       -1    1    3    3    0  502  0.13969025176E+04 -0.64322929495E+03  0.80582289371E+03  0.17362117111E+04  0.50400001928E-02 0.  1.
</event>
<event>
 5   0  0.2078009E-06  0.3071753E+04  0.7818609E-02  0.8223533E-01
        2   -1    0    0  501    0  0.00000000000E+00  0.00000000000E+00  0.19655284228E+04  0.19655284228E+04  0.25500000920E-02 0. -1.
       -2   -1    0    0    0  501  0.00000000000E+00  0.00000000000E+00 -0.12001435706E+04  0.12001435706E+04  0.25500000920E-02 0.  1.
    10030    2    1    2    0    0  0.00000000000E+00  0.00000000000E+00  0.76538485222E+03  0.31656719935E+04  0.30717527892E+04 0.  0.
        3    1    3    3  502    0 -0.12862496313E+04  0.54730023590E+03  0.10384983394E+04  0.17413944049E+04  0.10100000352E+00 0. -1.
       -3    1    3    3    0  502  0.12862496313E+04 -0.54730023590E+03 -0.27311348720E+03  0.14242775886E+04  0.10100000352E+00 0.  1.
</event>
<event>
 5   0  0.7413481E-07  0.3097160E+04  0.7818609E-02  0.8216518E-01
        1   -1    0    0  501    0  0.00000000000E+00  0.00000000000E+00  0.18438844773E+04  0.18438844773E+04  0.50400001928E-02 0.  1.
       -1   -1    0    0    0  501  0.00000000000E+00  0.00000000000E+00 -0.13005693851E+04  0.13005693851E+04  0.50400001928E-02 0. -1.
    10030    2    1    2    0    0  0.00000000000E+00  0.00000000000E+00  0.54331509222E+03  0.31444538624E+04  0.30971597963E+04 0.  0.
        5    1    3    3  502    0 -0.35244768888E+03  0.36334760546E+03 -0.12141918676E+04  0.13154941418E+04  0.46999998093E+01 0. -1.
       -5    1    3    3    0  502  0.35244768888E+03 -0.36334760546E+03  0.17575069598E+04  0.18289597206E+04  0.46999998093E+01 0.  1.
</event>
<event>
 5   0  0.7656332E-07  0.3106144E+04  0.7818609E-02  0.8214054E-01
       -1   -1    0    0    0  501  0.00000000000E+00  0.00000000000E+00  0.28062389361E+04  0.28062389362E+04  0.50400001928E-02 0.  1.
        1   -1    0    0  501    0  0.00000000000E+00  0.00000000000E+00 -0.85952490015E+03  0.85952490017E+03  0.50400001928E-02 0. -1.
    10030    2    1    2    0    0  0.00000000000E+00  0.00000000000E+00  0.19467140360E+04  0.36657638363E+04  0.31061437452E+04 0.  0.
        2    1    3    3  502    0  0.12930907211E+04  0.40155927794E+03  0.75578490691E+02  0.13561141452E+04  0.25500000920E-02 0. -1.
       -2    1    3    3    0  502 -0.12930907211E+04 -0.40155927794E+03  0.18711355453E+04  0.23096496911E+04  0.25500000920E-02 0.  1.
</event>
<event>
 5   0  0.7561815E-07  0.3052646E+04  0.7818609E-02  0.8228855E-01
       -1   -1    0    0    0  501  0.00000000000E+00  0.00000000000E+00  0.17385515088E+04  0.17385515088E+04  0.50400001928E-02 0.  1.
        1   -1    0    0  501    0  0.00000000000E+00  0.00000000000E+00 -0.13400020316E+04  0.13400020316E+04  0.50400001928E-02 0. -1.
    10030    2    1    2    0    0  0.00000000000E+00  0.00000000000E+00  0.39854947723E+03  0.30785535404E+04  0.30526464282E+04 0.  0.
        3    1    3    3  502    0 -0.43071626636E+03 -0.89751166139E+03 -0.96753131982E+03  0.13882220822E+04  0.10100000352E+00 0. -1.
       -3    1    3    3    0  502  0.43071626636E+03  0.89751166139E+03  0.13660807971E+04  0.16903314582E+04  0.10100000352E+00 0.  1.
</event>
<event>
 5   0  0.2133385E-06  0.3104117E+04  0.7818609E-02  0.8214609E-01
       -2   -1    0    0    0  501  0.00000000000E+00  0.00000000000E+00  0.10934506071E+04  0.10934506071E+04  0.25500000920E-02 0. -1.
        2   -1    0    0  501    0  0.00000000000E+00  0.00000000000E+00 -0.22030121896E+04  0.22030121896E+04  0.25500000920E-02 0.  1.
    10030    2    1    2    0    0  0.00000000000E+00  0.00000000000E+00 -0.11095615825E+04  0.32964627968E+04  0.31041166320E+04 0.  0.
        2    1    3    3  502    0  0.12538982646E+04 -0.78853329181E+03 -0.62551879012E+02  0.14825512969E+04  0.25500000920E-02 0.  1.
       -2    1    3    3    0  502 -0.12538982646E+04  0.78853329181E+03 -0.10470097035E+04  0.18139114999E+04  0.25500000920E-02 0. -1.
</event>
<event>
 5   0  0.2094135E-06  0.3141241E+04  0.7818609E-02  0.8204510E-01
       -2   -1    0    0    0  501  0.00000000000E+00  0.00000000000E+00  0.10758555823E+04  0.10758555823E+04  0.25500000920E-02 0. -1.
        2   -1    0    0  501    0  0.00000000000E+00  0.00000000000E+00 -0.22929183599E+04  0.22929183599E+04  0.25500000920E-02 0.  1.
    10030    2    1    2    0    0  0.00000000000E+00  0.00000000000E+00 -0.12170627776E+04  0.33687739423E+04  0.31412411670E+04 0.  0.
        4    1    3    3  502    0  0.13265840532E+04  0.77063489259E+03 -0.24779796422E+03  0.15540620425E+04  0.12699999809E+01 0. -1.
       -4    1    3    3    0  502 -0.13265840532E+04 -0.77063489259E+03 -0.96926481337E+03  0.18147118998E+04  0.12699999809E+01 0.  1.
</event>
<event>
 5   0  0.7656332E-07  0.3119915E+04  0.7818609E-02  0.8210294E-01
        1   -1    0    0  501    0  0.00000000000E+00  0.00000000000E+00  0.24407596811E+04  0.24407596811E+04  0.50400001928E-02 0. -1.
       -1   -1    0    0    0  501  0.00000000000E+00  0.00000000000E+00 -0.99701208796E+03  0.99701208797E+03  0.50400001928E-02 0.  1.
    10030    2    1    2    0    0  0.00000000000E+00  0.00000000000E+00  0.14437475931E+04  0.34377717690E+04  0.31199146821E+04 0.  0.
        2    1    3    3  502    0  0.10580819956E+04 -0.30637823301E+03  0.19389709125E+04  0.22300254103E+04  0.25500000920E-02 0. -1.
       -2    1    3    3    0  502 -0.10580819956E+04  0.30637823301E+03 -0.49522331941E+03  0.12077463587E+04  0.25500000920E-02 0.  1.
</event>
<event>
 5   0  0.7413481E-07  0.3098842E+04  0.7818609E-02  0.8216056E-01
        1   -1    0    0  501    0  0.00000000000E+00  0.00000000000E+00  0.15868133825E+04  0.15868133825E+04  0.50400001928E-02 0. -1.
       -1   -1    0    0    0  501  0.00000000000E+00  0.00000000000E+00 -0.15129099599E+04  0.15129099599E+04  0.50400001928E-02 0.  1.
    10030    2    1    2    0    0  0.00000000000E+00  0.00000000000E+00  0.73903422613E+02  0.30997233424E+04  0.30988422166E+04 0.  0.
        5    1    3    3  502    0 -0.97247924380E+03 -0.19387368009E+02 -0.11694558679E+04  0.15210985723E+04  0.46999998093E+01 0.  1.
       -5    1    3    3    0  502  0.97247924380E+03  0.19387368009E+02  0.12433592905E+04  0.15786247701E+04  0.46999998093E+01 0. -1.
</event>
<event>
 5   0  0.7656332E-07  0.3106570E+04  0.7818609E-02  0.8213937E-01
        1   -1    0    0  501    0  0.00000000000E+00  0.00000000000E+00  0.18172222766E+04  0.18172222766E+04  0.50400001928E-02 0. -1.
       -1   -1    0    0    0  501  0.00000000000E+00  0.00000000000E+00 -0.13276821771E+04  0.13276821771E+04  0.50400001928E-02 0.  1.
    10030    2    1    2    0    0  0.00000000000E+00  0.00000000000E+00  0.48954009951E+03  0.31449044537E+04  0.31065695733E+04 0.  0.
        2    1    3    3  502    0 -0.12464268130E+04 -0.21705599096E+03  0.11570004188E+04  0.17144512453E+04  0.25500000920E-02 0. -1.
       -2    1    3    3    0  502  0.12464268130E+04  0.21705599096E+03 -0.66746031931E+03  0.14304532084E+04  0.25500000920E-02 0.  1.
</event>
<event>
 5   0  0.2133385E-06  0.3060446E+04  0.7818609E-02  0.8226678E-01
        2   -1    0    0  501    0  0.00000000000E+00  0.00000000000E+00  0.23591913983E+04  0.23591913983E+04  0.25500000920E-02 0. -1.
       -2   -1    0    0    0  501  0.00000000000E+00  0.00000000000E+00 -0.99253592418E+03  0.99253592419E+03  0.25500000920E-02 0.  1.
    10030    2    1    2    0    0  0.00000000000E+00  0.00000000000E+00  0.13666554741E+04  0.33517273225E+04  0.30604458596E+04 0.  0.
        2    1    3    3  502    0  0.19566679679E+03  0.33598333677E+03  0.23041928524E+04  0.23367659274E+04  0.25500000920E-02 0. -1.
       -2    1    3    3    0  502 -0.19566679679E+03 -0.33598333677E+03 -0.93753737830E+03  0.10149613952E+04  0.25500000920E-02 0.  1.
</event>
<event>
 5   0  0.2078009E-06  0.3086187E+04  0.7818609E-02  0.8219539E-01
        2   -1    0    0  501    0  0.00000000000E+00  0.00000000000E+00  0.17429588143E+04  0.17429588143E+04  0.25500000920E-02 0.  1.
       -2   -1    0    0    0  501  0.00000000000E+00  0.00000000000E+00 -0.13661466048E+04  0.13661466048E+04  0.25500000920E-02 0. -1.
    10030    2    1    2    0    0  0.00000000000E+00  0.00000000000E+00  0.37681220947E+03  0.31091054191E+04  0.30861868164E+04 0.  0.
        3    1    3    3  502    0 -0.64322339396E+03 -0.86863481283E+03 -0.92107820737E+03  0.14200872673E+04  0.10100000352E+00 0. -1.
       -3    1    3    3    0  502  0.64322339396E+03  0.86863481283E+03  0.12978904168E+04  0.16890181517E+04  0.10100000352E+00 0.  1.
</event>
<event>
 5   0  0.2133385E-06  0.3076469E+04  0.7818609E-02  0.8222226E-01
        2   -1    0    0  501    0  0.00000000000E+00  0.00000000000E+00  0.30774234420E+04  0.30774234420E+04  0.25500000920E-02 0.  1.
       -2   -1    0    0    0  501  0.00000000000E+00  0.00000000000E+00 -0.76887876428E+03  0.76887876428E+03  0.25500000920E-02 0. -1.
    10030    2    1    2    0    0  0.00000000000E+00  0.00000000000E+00  0.23085446777E+04  0.38463022063E+04  0.30764691016E+04 0.  0.
        2    1    3    3  502    0  0.79520721971E+03 -0.10948049770E+04  0.20689207893E+04  0.24721216985E+04  0.25500000920E-02 0.  1.
       -2    1    3    3    0  502 -0.79520721971E+03  0.10948049770E+04  0.23962388847E+03  0.13741805078E+04  0.25500000920E-02 0. -1.
</event>
<event>
 5   0  0.7561815E-07  0.3123014E+04  0.7818609E-02  0.8209450E-01
       -1   -1    0    0    0  501  0.00000000000E+00  0.00000000000E+00  0.17867884732E+04  0.17867884732E+04  0.50400001928E-02 0. -1.
        1   -1    0    0  501    0  0.00000000000E+00  0.00000000000E+00 -0.13646291217E+04  0.13646291217E+04  0.50400001928E-02 0.  1.
    10030    2    1    2    0    0  0.00000000000E+00  0.00000000000E+00  0.42215935150E+03  0.31514175949E+04  0.31230136630E+04 0.  0.
        3    1    3    3  502    0 -0.88288671379E+03  0.80214566290E+03 -0.80574417284E+03  0.14394965426E+04  0.10100000352E+00 0.  1.
       -3    1    3    3    0  502  0.88288671379E+03 -0.80214566290E+03  0.12279035243E+04  0.17119210523E+04  0.10100000352E+00 0. -1.
</event>
<event>
 5   0  0.7413481E-07  0.3104051E+04  0.7818609E-02  0.8214627E-01
       -1   -1    0    0    0  501  0.00000000000E+00  0.00000000000E+00  0.16021275819E+04  0.16021275819E+04  0.50400001928E-02 0.  1.
        1   -1    0    0  501    0  0.00000000000E+00  0.00000000000E+00 -0.15034904225E+04  0.15034904225E+04  0.50400001928E-02 0. -1.
    10030    2    1    2    0    0  0.00000000000E+00  0.00000000000E+00  0.98637159387E+02  0.31056180044E+04  0.31040512077E+04 0.  0.
        5    1    3    3  502    0 -0.13868005239E+04  0.63144562833E+03  0.34412322849E+03  0.15621722572E+04  0.46999998093E+01 0.  1.
       -5    1    3    3    0  502  0.13868005239E+04 -0.63144562833E+03 -0.24548606911E+03  0.15434457473E+04  0.46999998093E+01 0. -1.
</event>
<event>
 5   0  0.2078009E-06  0.3088828E+04  0.7818609E-02  0.8218811E-01
       -2   -1    0    0    0  501  0.00000000000E+00  0.00000000000E+00  0.16722085678E+04  0.16722085678E+04  0.25500000920E-02 0.  1.
        2   -1    0    0  501    0  0.00000000000E+00  0.00000000000E+00 -0.14263858291E+04  0.14263858291E+04  0.25500000920E-02 0. -1.
    10030    2    1    2    0    0  0.00000000000E+00  0.00000000000E+00  0.24582273871E+03  0.30985943969E+04  0.30888280006E+04 0.  0.
        3    1    3    3  502    0  0.10032952228E+04  0.11569901755E+04  0.32351119309E+03  0.15652115105E+04  0.10100000352E+00 0.  1.
       -3    1    3    3    0  502 -0.10032952228E+04 -0.11569901755E+04 -0.77688454375E+02  0.15333828864E+04  0.10100000352E+00 0. -1.
</event>
<event>
 5   0  0.7413481E-07  0.3171609E+04  0.7818609E-02  0.8196356E-01
       -1   -1    0    0    0  501  0.00000000000E+00  0.00000000000E+00  0.17099673676E+04  0.17099673676E+04  0.50400001928E-02 0. -1.
        1   -1    0    0  501    0  0.00000000000E+00  0.00000000000E+00 -0.14706574218E+04  0.14706574218E+04  0.50400001928E-02 0.  1.
    10030    2    1    2    0    0  0.00000000000E+00  0.00000000000E+00  0.23930994581E+03  0.31806247895E+04  0.31716091817E+04 0.  0.
        5    1    3    3  502    0  0.14077010049E+04 -0.68193923372E+03 -0.14202905924E+03  0.15706233098E+04  0.46999998093E+01 0. -1.
       -5    1    3    3    0  502 -0.14077010049E+04  0.68193923372E+03  0.38133900506E+03  0.16100014796E+04  0.46999998093E+01 0.  1.
</event>
<event>
 5   0  0.7656332E-07  0.3110154E+04  0.7818609E-02  0.8212957E-01
        1   -1    0    0  501    0  0.00000000000E+00  0.00000000000E+00  0.21220975586E+04  0.21220975586E+04  0.50400001928E-02 0.  1.
       -1   -1    0    0    0  501  0.00000000000E+00  0.00000000000E+00 -0.11395631152E+04  0.11395631152E+04  0.50400001928E-02 0. -1.
    10030    2    1    2    0    0  0.00000000000E+00  0.00000000000E+00  0.98253444343E+03  0.32616606738E+04  0.31101537612E+04 0.  0.
        2    1    3    3  502    0  0.42185404049E+03 -0.36846236717E+03  0.20126390883E+04  0.20891245648E+04  0.25500000920E-02 0.  1.
       -2    1    3    3    0  502 -0.42185404049E+03  0.36846236717E+03 -0.10301046448E+04  0.11725361090E+04  0.25500000920E-02 0. -1.
</event>
<event>
 5   0  0.2226334E-06  0.3110472E+04  0.7818609E-02  0.8212870E-01
        2   -1    0    0  501    0  0.00000000000E+00  0.00000000000E+00  0.16644761681E+04  0.16644761681E+04  0.25500000920E-02 0.  1.
       -2   -1    0    0    0  501  0.00000000000E+00  0.00000000000E+00 -0.14531652383E+04  0.14531652383E+04  0.25500000920E-02 0. -1.
    10030    2    1    2    0    0  0.00000000000E+00  0.00000000000E+00  0.21131092976E+03  0.31176414064E+04  0.31104719304E+04 0.  0.
        5    1    3    3  502    0 -0.31276506403E+03  0.11497997234E+04  0.11073966725E+04  0.16267178210E+04  0.46999998093E+01 0.  1.
       -5    1    3    3    0  502  0.31276506403E+03 -0.11497997234E+04 -0.89608574271E+03  0.14909235854E+04  0.46999998093E+01 0. -1.
</event>
<event>
 5   0  0.7726743E-07  0.3131069E+04  0.7818609E-02  0.8207263E-01
        1   -1    0    0  501    0  0.00000000000E+00  0.00000000000E+00  0.28981531801E+04  0.28981531801E+04  0.50400001928E-02 0. -1.
       -1   -1    0    0    0  501  0.00000000000E+00  0.00000000000E+00 -0.84567570940E+03  0.84567570941E+03  0.50400001928E-02 0.  1.
    10030    2    1    2    0    0  0.00000000000E+00  0.00000000000E+00  0.20524774707E+04  0.37438288895E+04  0.31310686652E+04 0.  0.
        1    1    3    3  502    0  0.21542338400E+03 -0.14745576310E+04  0.45258735096E+03  0.15574218284E+04  0.50400001928E-02 0.  1.
       -1    1    3    3    0  502 -0.21542338400E+03  0.14745576310E+04  0.15998901197E+04  0.21864070610E+04  0.50400001928E-02 0. -1.
</event>
<event>
 5   0  0.2078009E-06  0.3092007E+04  0.7818609E-02  0.8217935E-01
       -2   -1    0    0    0  501  0.00000000000E+00  0.00000000000E+00  0.20661942683E+04  0.20661942683E+04  0.25500000920E-02 0. -1.
        2   -1    0    0  501    0  0.00000000000E+00  0.00000000000E+00 -0.11567776198E+04  0.11567776198E+04  0.25500000920E-02 0.  1.
    10030    2    1    2    0    0  0.00000000000E+00  0.00000000000E+00  0.90941664844E+03  0.32229718881E+04  0.30920073013E+04 0.  0.
        3    1    3    3  502    0 -0.97860871349E+03  0.11850369491E+04  0.27985427986E+03  0.15621478845E+04  0.10100000352E+00 0.  1.
       -3    1    3    3    0  502  0.97860871349E+03 -0.11850369491E+04  0.62956236859E+03  0.16608240036E+04  0.10100000352E+00 0. -1.
</event>
<event>
 5   0  0.2067926E-06  0.3065864E+04  0.7818609E-02  0.8225169E-01
       -2   -1    0    0    0  501  0.00000000000E+00  0.00000000000E+00  0.13715946169E+04  0.13715946169E+04  0.25500000920E-02 0. -1.
        2   -1    0    0  501    0  0.00000000000E+00  0.00000000000E+00 -0.17132472934E+04  0.17132472934E+04  0.25500000920E-02 0.  1.
    10030    2    1    2    0    0  0.00000000000E+00  0.00000000000E+00 -0.34165267657E+03  0.30848419103E+04  0.30658641620E+04 0.  0.
        1    1    3    3  502    0  0.12460463013E+04 -0.17271966946E+03 -0.10522725085E+04  0.16400429572E+04  0.50400001928E-02 0.  1.
       -1    1    3    3    0  502 -0.12460463013E+04  0.17271966946E+03  0.71061983190E+03  0.14447989531E+04  0.50400001928E-02 0. -1.
</event>
<event>
 5   0  0.2078009E-06  0.3110529E+04  0.7818609E-02  0.8212854E-01
       -2   -1    0    0    0  501  0.00000000000E+00  0.00000000000E+00  0.11436462031E+04  0.11436462031E+04  0.25500000920E-02 0.  1.
        2   -1    0    0  501    0  0.00000000000E+00  0.00000000000E+00 -0.21150312931E+04  0.21150312931E+04  0.25500000920E-02 0. -1.
    10030    2    1    2    0    0  0.00000000000E+00  0.00000000000E+00 -0.97138508999E+03  0.32586774961E+04  0.31105288989E+04 0.  0.
        3    1    3    3  502    0  0.63701602755E+03 -0.54640111613E+03  0.88606191012E+03  0.12204299725E+04  0.10100000352E+00 0.  1.
       -3    1    3    3    0  502 -0.63701602755E+03  0.54640111613E+03 -0.18574470001E+04  0.20382475236E+04  0.10100000352E+00 0. -1.
</event>
<event>
 5   0  0.7656332E-07  0.3090889E+04  0.7818609E-02  0.8218243E-01
       -1   -1    0    0    0  501  0.00000000000E+00  0.00000000000E+00  0.12263787973E+04  0.12263787973E+04  0.50400001928E-02 0.  1.
        1   -1    0    0  501    0  0.00000000000E+00  0.00000000000E+00 -0.19475217956E+04  0.19475217956E+04  0.50400001928E-02 0. -1.
    10030    2    1    2    0    0  0.00000000000E+00  0.00000000000E+00 -0.72114299824E+03  0.31739005929E+04  0.30908894755E+04 0.  0.
        2    1    3    3  502    0 -0.66507750591E+02 -0.13245183586E+04  0.45422960891E+03  0.14018190685E+04  0.25500000920E-02 0.  1.
       -2    1    3    3    0  502  0.66507750591E+02  0.13245183586E+04 -0.11753726072E+04  0.17720815243E+04  0.25500000920E-02 0. -1.
</event>
<event>
 5   0  0.2094135E-06  0.3105649E+04  0.7818609E-02  0.8214189E-01
       -2   -1    0    0    0  501  0.00000000000E+00  0.00000000000E+00  0.15214735009E+04  0.15214735009E+04  0.25500000920E-02 0. -1.
        2   -1    0    0  501    0  0.00000000000E+00  0.00000000000E+00 -0.15848218848E+04  0.15848218848E+04  0.25500000920E-02 0.  1.
    10030    2    1    2    0    0  0.00000000000E+00  0.00000000000E+00 -0.63348383889E+02  0.31062953857E+04  0.31056493693E+04 0.  0.
        4    1    3    3  502    0 -0.83270894757E+03 -0.11728235958E+04 -0.61689718287E+03  0.15650824660E+04  0.12699999809E+01 0.  1.
       -4    1    3    3    0  502  0.83270894757E+03  0.11728235958E+04  0.55354879898E+03  0.15412129197E+04  0.12699999809E+01 0. -1.
</event>
<event>
 5   0  0.7413481E-07  0.3108444E+04  0.7818609E-02  0.8213424E-01
       -1   -1    0    0    0  501  0.00000000000E+00  0.00000000000E+00  0.78118942961E+03  0.78118942963E+03  0.50400001928E-02 0.  1.
        1   -1    0    0  501    0  0.00000000000E+00  0.00000000000E+00 -0.30922161173E+04  0.30922161173E+04  0.50400001928E-02 0. -1.
    10030    2    1    2    0    0  0.00000000000E+00  0.00000000000E+00 -0.23110266877E+04  0.38734055470E+04  0.31084443344E+04 0.  0.
        5    1    3    3  502    0  0.11644985857E+04 -0.95579817763E+03 -0.16316072275E+04  0.22207591827E+04  0.46999998093E+01 0. -1.
       -5    1    3    3    0  502 -0.11644985857E+04  0.95579817763E+03 -0.67941946025E+03  0.16526463643E+04  0.46999998093E+01 0.  1.
</event>
<event>
 5   0  0.6979625E-07  0.3099045E+04  0.7818609E-02  0.8216000E-01
        4   -1    0    0  501    0  0.00000000000E+00  0.00000000000E+00  0.14451969935E+04  0.14451975515E+04  0.12699999809E+01 0.  1.
       -4   -1    0    0    0  501  0.00000000000E+00  0.00000000000E+00 -0.16613777591E+04  0.16613782445E+04  0.12699999809E+01 0. -1.
    10030    2    1    2    0    0  0.00000000000E+00  0.00000000000E+00 -0.21618076561E+03  0.31065757960E+04  0.30990448614E+04 0.  0.
        5    1    3    3  502    0  0.14543468168E+04 -0.43774203094E+03  0.19966532431E+03  0.15318717573E+04  0.46999998093E+01 0. -1.
       -5    1    3    3    0  502 -0.14543468168E+04  0.43774203094E+03 -0.41584608992E+03  0.15747040387E+04  0.46999998093E+01 0.  1.
</event>
<event>
 5   0  0.6979625E-07  0.3093556E+04  0.7818609E-02  0.8217509E-01
       -3   -1    0    0    0  501  0.00000000000E+00  0.00000000000E+00  0.11367058983E+04  0.11367059028E+04  0.10100000352E+00 0.  1.
        3   -1    0    0  501    0  0.00000000000E+00  0.00000000000E+00 -0.21047854974E+04  0.21047854998E+04  0.10100000352E+00 0. -1.
    10030    2    1    2    0    0  0.00000000000E+00  0.00000000000E+00 -0.96807959908E+03  0.32414914027E+04  0.30935559480E+04 0.  0.
        5    1    3    3  502    0  0.13095305551E+04 -0.13930421605E+03  0.36606756701E+03  0.13668589880E+04  0.46999998093E+01 0.  1.
       -5    1    3    3    0  502 -0.13095305551E+04  0.13930421605E+03 -0.13341471661E+04  0.18746324147E+04  0.46999998093E+01 0. -1.
</event>
<event>
 5   0  0.7656332E-07  0.3098662E+04  0.7818609E-02  0.8216105E-01
       -1   -1    0    0    0  501  0.00000000000E+00  0.00000000000E+00  0.12895390478E+04  0.12895390478E+04  0.50400001928E-02 0. -1.
        1   -1    0    0  501    0  0.00000000000E+00  0.00000000000E+00 -0.18614612557E+04  0.18614612557E+04  0.50400001928E-02 0.  1.
    10030    2    1    2    0    0  0.00000000000E+00  0.00000000000E+00 -0.57192220792E+03  0.31510003035E+04  0.30986622760E+04 0.  0.
        2    1    3    3  502    0 -0.75668056666E+02 -0.43462373690E+03  0.12243193908E+04  0.13013767395E+04  0.25500000920E-02 0. -1.
       -2    1    3    3    0  502  0.75668056666E+02  0.43462373690E+03 -0.17962415987E+04  0.18496235640E+04  0.25500000920E-02 0.  1.
</event>
<event>
 5   0  0.7561815E-07  0.3099172E+04  0.7818609E-02  0.8215965E-01
        1   -1    0    0  501    0  0.00000000000E+00  0.00000000000E+00  0.21923564379E+04  0.21923564379E+04  0.50400001928E-02 0. -1.
       -1   -1    0    0    0  501  0.00000000000E+00  0.00000000000E+00 -0.10952672101E+04  0.10952672101E+04  0.50400001928E-02 0.  1.
    10030    2    1    2    0    0  0.00000000000E+00  0.00000000000E+00  0.10970892279E+04  0.32876236480E+04  0.30991715792E+04 0.  0.
        3    1    3    3  502    0  0.46103435422E+03  0.69421358414E+03 -0.83731425297E+03  0.11813468350E+04  0.10100000352E+00 0.  1.
       -3    1    3    3    0  502 -0.46103435422E+03 -0.69421358414E+03  0.19344034808E+04  0.21062768130E+04  0.10100000352E+00 0. -1.
</event>
<event>
 5   0  0.7413481E-07  0.3122961E+04  0.7818609E-02  0.8209464E-01
       -1   -1    0    0    0  501  0.00000000000E+00  0.00000000000E+00  0.11172642727E+04  0.11172642727E+04  0.50400001928E-02 0. -1.
        1   -1    0    0  501    0  0.00000000000E+00  0.00000000000E+00 -0.21823145250E+04  0.21823145250E+04  0.50400001928E-02 0.  1.
    10030    2    1    2    0    0  0.00000000000E+00  0.00000000000E+00 -0.10650502523E+04  0.32995787977E+04  0.31229614475E+04 0.  0.
        5    1    3    3  502    0  0.13895809460E+04  0.55986193070E+03 -0.67377858608E+02  0.14996474429E+04  0.46999998093E+01 0. -1.
       -5    1    3    3    0  502 -0.13895809460E+04 -0.55986193070E+03 -0.99767239368E+03  0.17999313548E+04  0.46999998093E+01 0.  1.
</event>
<event>
 5   0  0.2226334E-06  0.3011052E+04  0.7818609E-02  0.8240582E-01
        2   -1    0    0  501    0  0.00000000000E+00  0.00000000000E+00  0.19227900682E+04  0.19227900682E+04  0.25500000920E-02 0. -1.
       -2   -1    0    0    0  501  0.00000000000E+00  0.00000000000E+00 -0.11788124349E+04  0.11788124349E+04  0.25500000920E-02 0.  1.
    10030    2    1    2    0    0  0.00000000000E+00  0.00000000000E+00  0.74397763328E+03  0.31016025030E+04  0.30110522028E+04 0.  0.
        5    1    3    3  502    0  0.34368052372E+03 -0.75066590277E+03  0.16688053374E+04  0.18618670586E+04  0.46999998093E+01 0. -1.
       -5    1    3    3    0  502 -0.34368052372E+03  0.75066590277E+03 -0.92482770407E+03  0.12397354444E+04  0.46999998093E+01 0.  1.
</event>
<event>
 5   0  0.7726743E-07  0.3079303E+04  0.7818609E-02  0.8221441E-01
       -1   -1    0    0    0  501  0.00000000000E+00  0.00000000000E+00  0.10040254187E+04  0.10040254187E+04  0.50400001928E-02 0. -1.
        1   -1    0    0  501    0  0.00000000000E+00  0.00000000000E+00 -0.23610226689E+04  0.23610226689E+04  0.50400001928E-02 0.  1.
    10030    2    1    2    0    0  0.00000000000E+00  0.00000000000E+00 -0.13569972502E+04  0.33650480876E+04  0.30793030210E+04 0.  0.
        1    1    3    3  502    0 -0.36881177248E+03  0.89554221237E+03  0.62944039210E+03  0.11550814624E+04  0.50400001928E-02 0. -1.
       -1    1    3    3    0  502  0.36881177248E+03 -0.89554221237E+03 -0.19864376423E+04  0.22099666251E+04  0.50400001928E-02 0.  1.
</event>
<event>
 5   0  0.7413481E-07  0.3101943E+04  0.7818609E-02  0.8215205E-01
       -1   -1    0    0    0  501  0.00000000000E+00  0.00000000000E+00  0.14227862452E+04  0.14227862452E+04  0.50400001928E-02 0. -1.
        1   -1    0    0  501    0  0.00000000000E+00  0.00000000000E+00 -0.16907060064E+04  0.16907060064E+04  0.50400001928E-02 0.  1.
    10030    2    1    2    0    0  0.00000000000E+00  0.00000000000E+00 -0.26791976115E+03  0.31134922516E+04  0.31019434234E+04 0.  0.
        5    1    3    3  502    0 -0.30948125894E+03 -0.27952874536E+03  0.13654479565E+04  0.14277202741E+04  0.46999998093E+01 0. -1.
       -5    1    3    3    0  502  0.30948125894E+03  0.27952874536E+03 -0.16333677176E+04  0.16857719775E+04  0.46999998093E+01 0.  1.
</event>
<event>
 5   0  0.7519202E-07  0.3106637E+04  0.7818609E-02  0.8213919E-01
       -1   -1    0    0    0  501  0.00000000000E+00  0.00000000000E+00  0.19697056547E+04  0.19697056547E+04  0.50400001928E-02 0. -1.
        1   -1    0    0  501    0  0.00000000000E+00  0.00000000000E+00 -0.12249536666E+04  0.12249536666E+04  0.50400001928E-02 0.  1.
    10030    2    1    2    0    0  0.00000000000E+00  0.00000000000E+00  0.74475198808E+03  0.31946593213E+04  0.31066368721E+04 0.  0.
        4    1    3    3  502    0 -0.49855499126E+03  0.78611592383E+03 -0.90634410667E+03  0.12992292244E+04  0.12699999809E+01 0.  1.
       -4    1    3    3    0  502  0.49855499126E+03 -0.78611592383E+03  0.16510960948E+04  0.18954300968E+04  0.12699999809E+01 0. -1.
</event>
<event>
 5   0  0.7656332E-07  0.3099916E+04  0.7818609E-02  0.8215761E-01
       -1   -1    0    0    0  501  0.00000000000E+00  0.00000000000E+00  0.14455564329E+04  0.14455564329E+04  0.50400001928E-02 0.  1.
        1   -1    0    0  501    0  0.00000000000E+00  0.00000000000E+00 -0.16618992470E+04  0.16618992470E+04  0.50400001928E-02 0. -1.
    10030    2    1    2    0    0  0.00000000000E+00  0.00000000000E+00 -0.21634281414E+03  0.31074556799E+04  0.30999155778E+04 0.  0.
        2    1    3    3  502    0  0.69509553095E+03 -0.28852139950E+03 -0.14664457051E+04  0.16482916614E+04  0.25500000920E-02 0. -1.
       -2    1    3    3    0  502 -0.69509553095E+03  0.28852139950E+03  0.12501028909E+04  0.14591640185E+04  0.25500000920E-02 0.  1.
</event>
<event>
 5   0  0.2133385E-06  0.3084942E+04  0.7818609E-02  0.8219883E-01
        2   -1    0    0  501    0  0.00000000000E+00  0.00000000000E+00  0.22604997178E+04  0.22604997178E+04  0.25500000920E-02 0. -1.
       -2   -1    0    0    0  501  0.00000000000E+00  0.00000000000E+00 -0.10525183289E+04  0.10525183289E+04  0.25500000920E-02 0.  1.
    10030    2    1    2    0    0  0.00000000000E+00  0.00000000000E+00  0.12079813888E+04  0.33130180467E+04  0.30849423887E+04 0.  0.
        2    1    3    3  502    0 -0.45180902295E+03 -0.81610113986E+03 -0.71527024964E+03  0.11754845783E+04  0.25500000920E-02 0.  1.
       -2    1    3    3    0  502  0.45180902295E+03  0.81610113986E+03  0.19232516385E+04  0.21375334684E+04  0.25500000920E-02 0. -1.
</event>
<event>
 5   0  0.2078009E-06  0.3104788E+04  0.7818609E-02  0.8214425E-01
        2   -1    0    0  501    0  0.00000000000E+00  0.00000000000E+00  0.87697126116E+03  0.87697126117E+03  0.25500000920E-02 0.  1.
       -2   -1    0    0    0  501  0.00000000000E+00  0.00000000000E+00 -0.27480114755E+04  0.27480114755E+04  0.25500000920E-02 0. -1.
    10030    2    1    2    0    0  0.00000000000E+00  0.00000000000E+00 -0.18710402143E+04  0.36249827366E+04  0.31047879730E+04 0.  0.
        3    1    3    3  502    0 -0.78023792638E+03 -0.12049502119E+04 -0.24553021676E+03  0.14563520633E+04  0.10100000352E+00 0.  1.
       -3    1    3    3    0  502  0.78023792638E+03  0.12049502119E+04 -0.16255099975E+04  0.21686306733E+04  0.10100000352E+00 0. -1.
</event>
<event>
 5   0  0.2094135E-06  0.3047063E+04  0.7818609E-02  0.8230418E-01
       -2   -1    0    0    0  501  0.00000000000E+00  0.00000000000E+00  0.16558750125E+04  0.16558750125E+04  0.25500000920E-02 0.  1.
        2   -1    0    0  501    0  0.00000000000E+00  0.00000000000E+00 -0.14017656963E+04  0.14017656963E+04  0.25500000920E-02 0. -1.
    10030    2    1    2    0    0  0.00000000000E+00  0.00000000000E+00  0.25410931618E+03  0.30576407087E+04  0.30470633664E+04 0.  0.
        4    1    3    3  502    0 -0.83052103364E+03  0.46113526572E+03 -0.10681872157E+04  0.14294881816E+04  0.12699999809E+01 0. -1.
       -4    1    3    3    0  502  0.83052103364E+03 -0.46113526572E+03  0.13222965319E+04  0.16281525272E+04  0.12699999809E+01 0.  1.
</event>
<event>
 5   0  0.7413481E-07  0.3088251E+04  0.7818609E-02  0.8218970E-01
        1   -1    0    0  501    0  0.00000000000E+00  0.00000000000E+00  0.25308965944E+04  0.25308965944E+04  0.50400001928E-02 0.  1.
       -1   -1    0    0    0  501  0.00000000000E+00  0.00000000000E+00 -0.94208677221E+03  0.94208677222E+03  0.50400001928E-02 0. -1.
    10030    2    1    2    0    0  0.00000000000E+00  0.00000000000E+00  0.15888098222E+04  0.34729833666E+04  0.30882514168E+04 0.  0.
        5    1    3    3  502    0 -0.13662862118E+04 -0.67544112744E+03  0.51587366648E+03  0.16090700603E+04  0.46999998093E+01 0. -1.
       -5    1    3    3    0  502  0.13662862118E+04  0.67544112744E+03  0.10729361557E+04  0.18639133063E+04  0.46999998093E+01 0.  1.
</event>
<event>
 5   0  0.2067926E-06  0.3111165E+04  0.7818609E-02  0.8212680E-01
        2   -1    0    0  501    0  0.00000000000E+00  0.00000000000E+00  0.11928281218E+04  0.11928281218E+04  0.25500000920E-02 0. -1.
       -2   -1    0    0    0  501  0.00000000000E+00  0.00000000000E+00 -0.20286554428E+04  0.20286554428E+04  0.25500000920E-02 0.  1.
    10030    2    1    2    0    0  0.00000000000E+00  0.00000000000E+00 -0.83582732104E+03  0.32214835646E+04  0.31111652233E+04 0.  0.
        1    1    3    3  502    0  0.49681647069E+03 -0.13777253943E+04  0.12497040750E+03  0.14698882510E+04  0.50400001928E-02 0. -1.
       -1    1    3    3    0  502 -0.49681647069E+03  0.13777253943E+04 -0.96079772854E+03  0.17515953137E+04  0.50400001928E-02 0.  1.
</event>
<event>
 5   0  0.2226334E-06  0.3116357E+04  0.7818609E-02  0.8211263E-01
       -2   -1    0    0    0  501  0.00000000000E+00  0.00000000000E+00  0.11376297148E+04  0.11376297148E+04  0.25500000920E-02 0.  1.
        2   -1    0    0  501    0  0.00000000000E+00  0.00000000000E+00 -0.21341918590E+04  0.21341918590E+04  0.25500000920E-02 0. -1.
    10030    2    1    2    0    0  0.00000000000E+00  0.00000000000E+00 -0.99656214419E+03  0.32718215738E+04  0.31163568960E+04 0.  0.
        5    1    3    3  502    0 -0.13992135732E+04 -0.43521232562E+03  0.57950427183E+02  0.14664885727E+04  0.46999998093E+01 0.  1.
       -5    1    3    3    0  502  0.13992135732E+04  0.43521232562E+03 -0.10545125714E+04  0.18053330011E+04  0.46999998093E+01 0. -1.
</event>
<event>
 5   0  0.7519202E-07  0.3064959E+04  0.7818609E-02  0.8225421E-01
        1   -1    0    0  501    0  0.00000000000E+00  0.00000000000E+00  0.21708441363E+04  0.21708441363E+04  0.50400001928E-02 0. -1.
       -1   -1    0    0    0  501  0.00000000000E+00  0.00000000000E+00 -0.10818338661E+04  0.10818338661E+04  0.50400001928E-02 0.  1.
    10030    2    1    2    0    0  0.00000000000E+00  0.00000000000E+00  0.10890102702E+04  0.32526780025E+04  0.30649585347E+04 0.  0.
        4    1    3    3  502    0 -0.38344566610E+03  0.24453779988E+03  0.20975782872E+04  0.21463144220E+04  0.12699999809E+01 0. -1.
       -4    1    3    3    0  502  0.38344566610E+03 -0.24453779988E+03 -0.10085680170E+04  0.11063635805E+04  0.12699999809E+01 0.  1.
</event>
<event>
 5   0  0.7656332E-07  0.3077613E+04  0.7818609E-02  0.8221909E-01
       -1   -1    0    0    0  501  0.00000000000E+00  0.00000000000E+00  0.15706434489E+04  0.15706434489E+04  0.50400001928E-02 0. -1.
        1   -1    0    0  501    0  0.00000000000E+00  0.00000000000E+00 -0.15076151417E+04  0.15076151417E+04  0.50400001928E-02 0.  1.
    10030    2    1    2    0    0  0.00000000000E+00  0.00000000000E+00  0.63028307197E+02  0.30782585906E+04  0.30776132608E+04 0.  0.
        2    1    3    3  502    0 -0.48432861863E+03 -0.25092727852E+02  0.14922045670E+04  0.15690373883E+04  0.25500000920E-02 0. -1.
       -2    1    3    3    0  502  0.48432861863E+03  0.25092727852E+02 -0.14291762599E+04  0.15092212023E+04  0.25500000920E-02 0.  1.
</event>
<event>
 5   0  0.7656332E-07  0.3091701E+04  0.7818609E-02  0.8218019E-01
       -1   -1    0    0    0  501  0.00000000000E+00  0.00000000000E+00  0.10477580182E+04  0.10477580183E+04  0.50400001928E-02 0. -1.
        1   -1    0    0  501    0  0.00000000000E+00  0.00000000000E+00 -0.22807307601E+04  0.22807307601E+04  0.50400001928E-02 0.  1.
    10030    2    1    2    0    0  0.00000000000E+00  0.00000000000E+00 -0.12329727419E+04  0.33284887784E+04  0.30917011120E+04 0.  0.
        2    1    3    3  502    0 -0.27059363791E+03  0.13759025478E+04 -0.13169517226E+04  0.19237179049E+04  0.25500000920E-02 0.  1.
       -2    1    3    3    0  502  0.27059363791E+03 -0.13759025478E+04  0.83978980687E+02  0.14047708735E+04  0.25500000920E-02 0. -1.
</event>
<event>
 5   0  0.7413481E-07  0.3068501E+04  0.7818609E-02  0.8224436E-01
        1   -1    0    0  501    0  0.00000000000E+00  0.00000000000E+00  0.12942087645E+04  0.12942087645E+04  0.50400001928E-02 0.  1.
       -1   -1    0    0    0  501  0.00000000000E+00  0.00000000000E+00 -0.18188134865E+04  0.18188134865E+04  0.50400001928E-02 0. -1.
    10030    2    1    2    0    0  0.00000000000E+00  0.00000000000E+00 -0.52460472204E+03  0.31130222510E+04  0.30685008426E+04 0.  0.
        5    1    3    3  502    0  0.13651380330E+04  0.43443275784E+03 -0.81942272648E+03  0.16503967295E+04  0.46999998093E+01 0.  1.
       -5    1    3    3    0  502 -0.13651380330E+04 -0.43443275784E+03  0.29481800444E+03  0.14626255214E+04  0.46999998093E+01 0. -1.
</event>
<event>
 5   0  0.7656332E-07  0.3101626E+04  0.7818609E-02  0.8215292E-01
       -1   -1    0    0    0  501  0.00000000000E+00  0.00000000000E+00  0.17476377569E+04  0.17476377569E+04  0.50400001928E-02 0. -1.
        1   -1    0    0  501    0  0.00000000000E+00  0.00000000000E+00 -0.13761551850E+04  0.13761551850E+04  0.50400001928E-02 0.  1.
    10030    2    1    2    0    0  0.00000000000E+00  0.00000000000E+00  0.37148257197E+03  0.31237929419E+04  0.31016258709E+04 0.  0.
        2    1    3    3  502    0 -0.12255116375E+03  0.11324404856E+04  0.12456793366E+04  0.16879446824E+04  0.25500000920E-02 0. -1.
       -2    1    3    3    0  502  0.12255116375E+03 -0.11324404856E+04 -0.87419676463E+03  0.14358482595E+04  0.25500000920E-02 0.  1.
</event>
<event>
 5   0  0.2133385E-06  0.3103664E+04  0.7818609E-02  0.8214733E-01
       -2   -1    0    0    0  501  0.00000000000E+00  0.00000000000E+00  0.17087210641E+04  0.17087210641E+04  0.25500000920E-02 0. -1.
        2   -1    0    0  501    0  0.00000000000E+00  0.00000000000E+00 -0.14093482686E+04  0.14093482686E+04  0.25500000920E-02 0.  1.
    10030    2    1    2    0    0  0.00000000000E+00  0.00000000000E+00  0.29937279545E+03  0.31180693327E+04  0.31036643332E+04 0.  0.
        2    1    3    3  502    0  0.38371041672E+03  0.22984107484E+03  0.16425584954E+04  0.17023686482E+04  0.25500000920E-02 0. -1.
       -2    1    3    3    0  502 -0.38371041672E+03 -0.22984107484E+03 -0.13431856999E+04  0.14157006845E+04  0.25500000920E-02 0.  1.
</event>
<event>
 5   0  0.2133385E-06  0.2960869E+04  0.7818609E-02  0.8254994E-01
       -2   -1    0    0    0  501  0.00000000000E+00  0.00000000000E+00  0.10147301101E+04  0.10147301101E+04  0.25500000920E-02 0.  1.
        2   -1    0    0  501    0  0.00000000000E+00  0.00000000000E+00 -0.21598704546E+04  0.21598704546E+04  0.25500000920E-02 0. -1.
    10030    2    1    2    0    0  0.00000000000E+00  0.00000000000E+00 -0.11451403445E+04  0.31746005647E+04  0.29608685106E+04 0.  0.
        2    1    3    3  502    0 -0.78746677746E+02  0.10812333278E+04  0.50838171220E+03  0.11973798536E+04  0.25500000920E-02 0.  1.
       -2    1    3    3    0  502  0.78746677746E+02 -0.10812333278E+04 -0.16535220567E+04  0.19772207111E+04  0.25500000920E-02 0. -1.
</event>
<event>
 5   0  0.2078009E-06  0.2895716E+04  0.7818609E-02  0.8274153E-01
       -2   -1    0    0    0  501  0.00000000000E+00  0.00000000000E+00  0.12776298249E+04  0.12776298249E+04  0.25500000920E-02 0.  1.
        2   -1    0    0  501    0  0.00000000000E+00  0.00000000000E+00 -0.16407666664E+04  0.16407666664E+04  0.25500000920E-02 0. -1.
    10030    2    1    2    0    0  0.00000000000E+00  0.00000000000E+00 -0.36313684153E+03  0.29183964913E+04  0.28957157517E+04 0.  0.
        3    1    3    3  502    0 -0.55521520935E+03  0.12784137130E+04  0.21353132137E+03  0.14100358810E+04  0.10100000352E+00 0.  1.
       -3    1    3    3    0  502  0.55521520935E+03 -0.12784137130E+04 -0.57666816291E+03  0.15083606103E+04  0.10100000352E+00 0. -1.
</event>
<event>
 5   0  0.7726743E-07  0.3100794E+04  0.7818609E-02  0.8215520E-01
        1   -1    0    0  501    0  0.00000000000E+00  0.00000000000E+00  0.22338308705E+04  0.22338308705E+04  0.50400001928E-02 0.  1.
       -1   -1    0    0    0  501  0.00000000000E+00  0.00000000000E+00 -0.10760573941E+04  0.10760573941E+04  0.50400001928E-02 0. -1.
    10030    2    1    2    0    0  0.00000000000E+00  0.00000000000E+00  0.11577734764E+04  0.33098882645E+04  0.31007935921E+04 0.  0.
        1    1    3    3  502    0  0.81980566169E+03  0.12569367021E+04  0.99471858306E+03  0.18003989157E+04  0.50400001928E-02 0.  1.
       -1    1    3    3    0  502 -0.81980566169E+03 -0.12569367021E+04  0.16305489335E+03  0.15094893489E+04  0.50400001928E-02 0. -1.
</event>
<event>
 5   0  0.7656332E-07  0.3060653E+04  0.7818609E-02  0.8226620E-01
       -1   -1    0    0    0  501  0.00000000000E+00  0.00000000000E+00  0.13953034508E+04  0.13953034508E+04  0.50400001928E-02 0.  1.
        1   -1    0    0  501    0  0.00000000000E+00  0.00000000000E+00 -0.16784154173E+04  0.16784154173E+04  0.50400001928E-02 0. -1.
    10030    2    1    2    0    0  0.00000000000E+00  0.00000000000E+00 -0.28311196653E+03  0.30737188681E+04  0.30606527563E+04 0.  0.
        2    1    3    3  502    0  0.13861914979E+04  0.60603876165E+03  0.89838099808E+02  0.15155463483E+04  0.25500000920E-02 0.  1.
       -2    1    3    3    0  502 -0.13861914979E+04 -0.60603876165E+03 -0.37295006634E+03  0.15581725198E+04  0.25500000920E-02 0. -1.
</event>
<event>
 5   0  0.7656332E-07  0.3085232E+04  0.7818609E-02  0.8219803E-01
        1   -1    0    0  501    0  0.00000000000E+00  0.00000000000E+00  0.79101219281E+03  0.79101219283E+03  0.50400001928E-02 0. -1.
       -1   -1    0    0    0  501  0.00000000000E+00  0.00000000000E+00 -0.30083785915E+04  0.30083785915E+04  0.50400001928E-02 0.  1.
    10030    2    1    2    0    0  0.00000000000E+00  0.00000000000E+00 -0.22173663987E+04  0.37993907843E+04  0.30852320149E+04 0.  0.
        2    1    3    3  502    0  0.68295364510E+01 -0.11740128078E+04  0.12360055415E+03  0.11805209919E+04  0.25500000920E-02 0. -1.
       -2    1    3    3    0  502 -0.68295364510E+01  0.11740128078E+04 -0.23409669528E+04  0.26188697924E+04  0.25500000920E-02 0.  1.
</event>
<event>
 5   0  0.2078009E-06  0.3093624E+04  0.7818609E-02  0.8217490E-01
       -2   -1    0    0    0  501  0.00000000000E+00  0.00000000000E+00  0.13388379910E+04  0.13388379910E+04  0.25500000920E-02 0. -1.
        2   -1    0    0  501    0  0.00000000000E+00  0.00000000000E+00 -0.17870930817E+04  0.17870930817E+04  0.25500000920E-02 0.  1.
    10030    2    1    2    0    0  0.00000000000E+00  0.00000000000E+00 -0.44825509076E+03  0.31259310727E+04  0.30936244835E+04 0.  0.
        3    1    3    3  502    0  0.77799430189E+03  0.13244294496E+04 -0.39906306638E+02  0.15365484126E+04  0.10100000352E+00 0. -1.
       -3    1    3    3    0  502 -0.77799430189E+03 -0.13244294496E+04 -0.40834878413E+03  0.15893826601E+04  0.10100000352E+00 0.  1.
</event>
<event>
 5   0  0.2133385E-06  0.3112947E+04  0.7818609E-02  0.8212194E-01
       -2   -1    0    0    0  501  0.00000000000E+00  0.00000000000E+00  0.11424236649E+04  0.11424236649E+04  0.25500000920E-02 0. -1.
        2   -1    0    0  501    0  0.00000000000E+00  0.00000000000E+00 -0.21205872210E+04  0.21205872210E+04  0.25500000920E-02 0.  1.
    10030    2    1    2    0    0  0.00000000000E+00  0.00000000000E+00 -0.97816355612E+03  0.32630108859E+04  0.31129465301E+04 0.  0.
        2    1    3    3  502    0 -0.80142159530E+03  0.78683061817E+03 -0.16186331588E+04  0.19701147930E+04  0.25500000920E-02 0.  1.
       -2    1    3    3    0  502  0.80142159530E+03 -0.78683061817E+03  0.64046960263E+03  0.12928960929E+04  0.25500000920E-02 0. -1.
</event>
<event>
 5   0  0.2133385E-06  0.3078782E+04  0.7818609E-02  0.8221585E-01
       -2   -1    0    0    0  501  0.00000000000E+00  0.00000000000E+00  0.23293448784E+04  0.23293448784E+04  0.25500000920E-02 0. -1.
        2   -1    0    0  501    0  0.00000000000E+00  0.00000000000E+00 -0.10173351488E+04  0.10173351488E+04  0.25500000920E-02 0.  1.
    10030    2    1    2    0    0  0.00000000000E+00  0.00000000000E+00  0.13120097296E+04  0.33466800272E+04  0.30787818490E+04 0.  0.
        2    1    3    3  502    0 -0.74978443489E+03 -0.40115482711E+03 -0.73886053093E+03  0.11265064484E+04  0.25500000920E-02 0.  1.
       -2    1    3    3    0  502  0.74978443489E+03  0.40115482711E+03  0.20508702606E+04  0.22201735788E+04  0.25500000920E-02 0. -1.
</event>
<event>
 5   0  0.7519202E-07  0.3228809E+04  0.7818609E-02  0.8181250E-01
        1   -1    0    0  501    0  0.00000000000E+00  0.00000000000E+00  0.21595006518E+04  0.21595006518E+04  0.50400001928E-02 0. -1.
       -1   -1    0    0    0  501  0.00000000000E+00  0.00000000000E+00 -0.12069006119E+04  0.12069006119E+04  0.50400001928E-02 0.  1.
    10030    2    1    2    0    0  0.00000000000E+00  0.00000000000E+00  0.95260003991E+03  0.33664012638E+04  0.32288094760E+04 0.  0.
        4    1    3    3  502    0  0.31734859788E+03 -0.41447491220E+03  0.20690786331E+04  0.21339136787E+04  0.12699999809E+01 0. -1.
       -4    1    3    3    0  502 -0.31734859788E+03  0.41447491220E+03 -0.11164785932E+04  0.12324875851E+04  0.12699999809E+01 0.  1.
</event>
<event>
 5   0  0.6979625E-07  0.3095701E+04  0.7818609E-02  0.8216919E-01
        3   -1    0    0  501    0  0.00000000000E+00  0.00000000000E+00  0.12955545701E+04  0.12955545740E+04  0.10100000352E+00 0. -1.
       -3   -1    0    0    0  501  0.00000000000E+00  0.00000000000E+00 -0.18492782037E+04  0.18492782064E+04  0.10100000352E+00 0.  1.
    10030    2    1    2    0    0  0.00000000000E+00  0.00000000000E+00 -0.55372363358E+03  0.31448327805E+04  0.30957007857E+04 0.  0.
        4    1    3    3  502    0  0.44025328327E+03  0.57485561855E+03  0.11128992571E+04  0.13277154458E+04  0.12699999809E+01 0. -1.
       -4    1    3    3    0  502 -0.44025328327E+03 -0.57485561855E+03 -0.16666228906E+04  0.18171173347E+04  0.12699999809E+01 0.  1.
</event>
<event>
 5   0  0.2067926E-06  0.3103268E+04  0.7818609E-02  0.8214842E-01
       -2   -1    0    0    0  501  0.00000000000E+00  0.00000000000E+00  0.17340374981E+04  0.17340374981E+04  0.25500000920E-02 0. -1.
        2   -1    0    0  501    0  0.00000000000E+00  0.00000000000E+00 -0.13884175057E+04  0.13884175057E+04  0.25500000920E-02 0.  1.
    10030    2    1    2    0    0  0.00000000000E+00  0.00000000000E+00  0.34561999241E+03  0.31224550038E+04  0.31032679665E+04 0.  0.
        1    1    3    3  502    0  0.96484485580E+03 -0.78047754206E+03  0.11099639855E+04  0.16649597108E+04  0.50400001928E-02 0. -1.
       -1    1    3    3    0  502 -0.96484485580E+03  0.78047754206E+03 -0.76434399309E+03  0.14574952930E+04  0.50400001928E-02 0.  1.
</event>
<event>
 5   0  0.2078009E-06  0.3124494E+04  0.7818609E-02  0.8209048E-01
        2   -1    0    0  501    0  0.00000000000E+00  0.00000000000E+00  0.17844670965E+04  0.17844670965E+04  0.25500000920E-02 0. -1.
       -2   -1    0    0    0  501  0.00000000000E+00  0.00000000000E+00 -0.13677000862E+04  0.13677000862E+04  0.25500000920E-02 0.  1.
    10030    2    1    2    0    0  0.00000000000E+00  0.00000000000E+00  0.41676701029E+03  0.31521671827E+04  0.31244940722E+04 0.  0.
        3    1    3    3  502    0  0.10543896362E+04 -0.92315544333E+03 -0.48813866869E+03  0.14839921993E+04  0.10100000352E+00 0.  1.
       -3    1    3    3    0  502 -0.10543896362E+04  0.92315544333E+03  0.90490567898E+03  0.16681749835E+04  0.10100000352E+00 0. -1.
</event>
<event>
 5   0  0.7656332E-07  0.3102157E+04  0.7818609E-02  0.8215146E-01
       -1   -1    0    0    0  501  0.00000000000E+00  0.00000000000E+00  0.17820425014E+04  0.17820425014E+04  0.50400001928E-02 0. -1.
        1   -1    0    0  501    0  0.00000000000E+00  0.00000000000E+00 -0.13500492053E+04  0.13500492053E+04  0.50400001928E-02 0.  1.
    10030    2    1    2    0    0  0.00000000000E+00  0.00000000000E+00  0.43199329605E+03  0.31320917067E+04  0.31021573544E+04 0.  0.
        2    1    3    3  502    0  0.14045656542E+04 -0.48176394874E+03  0.66858986623E+03  0.16284697076E+04  0.25500000920E-02 0. -1.
       -2    1    3    3    0  502 -0.14045656542E+04  0.48176394874E+03 -0.23659657018E+03  0.15036219991E+04  0.25500000920E-02 0.  1.
</event>
<event>
 5   0  0.2078009E-06  0.3098994E+04  0.7818609E-02  0.8216014E-01
        2   -1    0    0  501    0  0.00000000000E+00  0.00000000000E+00  0.21073247201E+04  0.21073247201E+04  0.25500000920E-02 0. -1.
       -2   -1    0    0    0  501  0.00000000000E+00  0.00000000000E+00 -0.11393309233E+04  0.11393309233E+04  0.25500000920E-02 0.  1.
    10030    2    1    2    0    0  0.00000000000E+00  0.00000000000E+00  0.96799379679E+03  0.32466556434E+04  0.30989935263E+04 0.  0.
        3    1    3    3  502    0 -0.69358702068E+03  0.54513359155E+03  0.18185490896E+04  0.20212259620E+04  0.10100000352E+00 0. -1.
       -3    1    3    3    0  502  0.69358702068E+03 -0.54513359155E+03 -0.85055529278E+03  0.12254296814E+04  0.10100000352E+00 0.  1.
</event>
<event>
 5   0  0.2133385E-06  0.3097948E+04  0.7818609E-02  0.8216301E-01
       -2   -1    0    0    0  501  0.00000000000E+00  0.00000000000E+00  0.15296337561E+04  0.15296337561E+04  0.25500000920E-02 0.  1.
        2   -1    0    0  501    0  0.00000000000E+00  0.00000000000E+00 -0.15685582725E+04  0.15685582725E+04  0.25500000920E-02 0. -1.
    10030    2    1    2    0    0  0.00000000000E+00  0.00000000000E+00 -0.38924516348E+02  0.30981920286E+04  0.30979475025E+04 0.  0.
        2    1    3    3  502    0  0.11806237997E+04  0.33077840532E+03  0.92720253386E+03  0.15372024748E+04  0.25500000920E-02 0.  1.
       -2    1    3    3    0  502 -0.11806237997E+04 -0.33077840532E+03 -0.96612705021E+03  0.15609895538E+04  0.25500000920E-02 0. -1.
</event>
<event>
 5   0  0.2078009E-06  0.3117852E+04  0.7818609E-02  0.8210856E-01
        2   -1    0    0  501    0  0.00000000000E+00  0.00000000000E+00  0.21020341455E+04  0.21020341455E+04  0.25500000920E-02 0. -1.
       -2   -1    0    0    0  501  0.00000000000E+00  0.00000000000E+00 -0.11561421872E+04  0.11561421872E+04  0.25500000920E-02 0.  1.
    10030    2    1    2    0    0  0.00000000000E+00  0.00000000000E+00  0.94589195821E+03  0.32581763327E+04  0.31178520520E+04 0.  0.
        3    1    3    3  502    0 -0.10260155954E+03 -0.20311909510E+02  0.20983633759E+04  0.21009684722E+04  0.10100000352E+00 0. -1.
       -3    1    3    3    0  502  0.10260155954E+03  0.20311909510E+02 -0.11524714177E+04  0.11572078605E+04  0.10100000352E+00 0.  1.
</event>
<event>
 5   0  0.7413481E-07  0.3091203E+04  0.7818609E-02  0.8218156E-01
       -1   -1    0    0    0  501  0.00000000000E+00  0.00000000000E+00  0.12556342073E+04  0.12556342073E+04  0.50400001928E-02 0. -1.
        1   -1    0    0  501    0  0.00000000000E+00  0.00000000000E+00 -0.19025321545E+04  0.19025321545E+04  0.50400001928E-02 0.  1.
    10030    2    1    2    0    0  0.00000000000E+00  0.00000000000E+00 -0.64689794714E+03  0.31581663618E+04  0.30912032956E+04 0.  0.
        5    1    3    3  502    0  0.50075269975E+03  0.53452079222E+03 -0.17139599635E+04  0.18639062718E+04  0.46999998093E+01 0.  1.
       -5    1    3    3    0  502 -0.50075269975E+03 -0.53452079222E+03  0.10670620164E+04  0.12942600899E+04  0.46999998093E+01 0. -1.
</event>
<event>
 5   0  0.7413481E-07  0.3101484E+04  0.7818609E-02  0.8215331E-01
       -1   -1    0    0    0  501  0.00000000000E+00  0.00000000000E+00  0.14027422091E+04  0.14027422091E+04  0.50400001928E-02 0. -1.
        1   -1    0    0  501    0  0.00000000000E+00  0.00000000000E+00 -0.17143565129E+04  0.17143565129E+04  0.50400001928E-02 0.  1.
    10030    2    1    2    0    0  0.00000000000E+00  0.00000000000E+00 -0.31161430380E+03  0.31170987221E+04  0.31014836722E+04 0.  0.
        5    1    3    3  502    0  0.13173538406E+04 -0.73257885870E+03  0.21028662211E+03  0.15219512079E+04  0.46999998093E+01 0. -1.
       -5    1    3    3    0  502 -0.13173538406E+04  0.73257885870E+03 -0.52190092591E+03  0.15951475142E+04  0.46999998093E+01 0.  1.
</event>
<event>
 5   0  0.2067926E-06  0.3083612E+04  0.7818609E-02  0.8220250E-01
       -2   -1    0    0    0  501  0.00000000000E+00  0.00000000000E+00  0.12335599749E+04  0.12335599749E+04  0.25500000920E-02 0. -1.
        2   -1    0    0  501    0  0.00000000000E+00  0.00000000000E+00 -0.19270780146E+04  0.19270780146E+04  0.25500000920E-02 0.  1.
    10030    2    1    2    0    0  0.00000000000E+00  0.00000000000E+00 -0.69351803976E+03  0.31606379895E+04  0.30836123669E+04 0.  0.
        1    1    3    3  502    0  0.64681953910E+03 -0.87290849411E+03 -0.14680793022E+04  0.18263629412E+04  0.50400001928E-02 0.  1.
       -1    1    3    3    0  502 -0.64681953910E+03  0.87290849411E+03  0.77456126245E+03  0.13342750483E+04  0.50400001928E-02 0. -1.
</event>
<event>
 5   0  0.7519202E-07  0.3152691E+04  0.7818609E-02  0.8201424E-01
        1   -1    0    0  501    0  0.00000000000E+00  0.00000000000E+00  0.20421405271E+04  0.20421405271E+04  0.50400001928E-02 0. -1.
       -1   -1    0    0    0  501  0.00000000000E+00  0.00000000000E+00 -0.12167947673E+04  0.12167947673E+04  0.50400001928E-02 0.  1.
    10030    2    1    2    0    0  0.00000000000E+00  0.00000000000E+00  0.82534575980E+03  0.32589352944E+04  0.31526914898E+04 0.  0.
        4    1    3    3  502    0 -0.50796847098E+03 -0.14875264910E+04  0.28993977952E+03  0.15983847214E+04  0.12699999809E+01 0.  1.
       -4    1    3    3    0  502  0.50796847098E+03  0.14875264910E+04  0.53540598028E+03  0.16605505730E+04  0.12699999809E+01 0. -1.
</event>
<event>
 5   0  0.2133385E-06  0.3132841E+04  0.7818609E-02  0.8206782E-01
       -2   -1    0    0    0  501  0.00000000000E+00  0.00000000000E+00  0.15414013389E+04  0.15414013389E+04  0.25500000920E-02 0.  1.
        2   -1    0    0  501    0  0.00000000000E+00  0.00000000000E+00 -0.15918452711E+04  0.15918452711E+04  0.25500000920E-02 0. -1.
    10030    2    1    2    0    0  0.00000000000E+00  0.00000000000E+00 -0.50443932178E+02  0.31332466100E+04  0.31328405208E+04 0.  0.
        2    1    3    3  502    0 -0.97748931558E+03 -0.65720237908E+03 -0.10579603397E+04  0.15832499517E+04  0.25500000920E-02 0. -1.
       -2    1    3    3    0  502  0.97748931558E+03  0.65720237908E+03  0.10075164076E+04  0.15499966583E+04  0.25500000920E-02 0.  1.
</event>
<event>
 5   0  0.7726743E-07  0.3130072E+04  0.7818609E-02  0.8207533E-01
        1   -1    0    0  501    0  0.00000000000E+00  0.00000000000E+00  0.16551988670E+04  0.16551988670E+04  0.50400001928E-02 0.  1.
       -1   -1    0    0    0  501  0.00000000000E+00  0.00000000000E+00 -0.14797848309E+04  0.14797848310E+04  0.50400001928E-02 0. -1.
    10030    2    1    2    0    0  0.00000000000E+00  0.00000000000E+00  0.17541403601E+03  0.31349836979E+04  0.31300723158E+04 0.  0.
        1    1    3    3  502    0  0.11088370079E+04 -0.10534667546E+04 -0.24451582491E+03  0.15489027412E+04  0.50400001928E-02 0.  1.
       -1    1    3    3    0  502 -0.11088370079E+04  0.10534667546E+04  0.41992986093E+03  0.15860809567E+04  0.50400001928E-02 0. -1.
</event>
<event>
 5   0  0.2094135E-06  0.3110171E+04  0.7818609E-02  0.8212952E-01
       -2   -1    0    0    0  501  0.00000000000E+00  0.00000000000E+00  0.11306798737E+04  0.11306798737E+04  0.25500000920E-02 0. -1.
        2   -1    0    0  501    0  0.00000000000E+00  0.00000000000E+00 -0.21387938960E+04  0.21387938960E+04  0.25500000920E-02 0.  1.
    10030    2    1    2    0    0  0.00000000000E+00  0.00000000000E+00 -0.10081140223E+04  0.32694737697E+04  0.31101711929E+04 0.  0.
        4    1    3    3  502    0  0.14330791071E+04  0.25645781375E+03  0.70570255620E+02  0.14575555260E+04  0.12699999809E+01 0. -1.
       -4    1    3    3    0  502 -0.14330791071E+04 -0.25645781375E+03 -0.10786842779E+04  0.18119182437E+04  0.12699999809E+01 0.  1.
</event>
<event>
 5   0  0.7519202E-07  0.3096944E+04  0.7818609E-02  0.8216577E-01
       -1   -1    0    0    0  501  0.00000000000E+00  0.00000000000E+00  0.17488081131E+04  0.17488081131E+04  0.50400001928E-02 0. -1.
        1   -1    0    0  501    0  0.00000000000E+00  0.00000000000E+00 -0.13710857532E+04  0.13710857532E+04  0.50400001928E-02 0.  1.
    10030    2    1    2    0    0  0.00000000000E+00  0.00000000000E+00  0.37772235989E+03  0.31198938663E+04  0.30969442287E+04 0.  0.
        4    1    3    3  502    0 -0.13323363020E+04 -0.68600790261E+03  0.58167039740E+03  0.16075039434E+04  0.12699999809E+01 0. -1.
       -4    1    3    3    0  502  0.13323363020E+04  0.68600790261E+03 -0.20394803751E+03  0.15123899229E+04  0.12699999809E+01 0.  1.
</event>
<event>
 5   0  0.2226334E-06  0.3103928E+04  0.7818609E-02  0.8214661E-01
        2   -1    0    0  501    0  0.00000000000E+00  0.00000000000E+00  0.82340649431E+03  0.82340649432E+03  0.25500000920E-02 0. -1.
       -2   -1    0    0    0  501  0.00000000000E+00  0.00000000000E+00 -0.29251553352E+04  0.29251553352E+04  0.25500000920E-02 0.  1.
    10030    2    1    2    0    0  0.00000000000E+00  0.00000000000E+00 -0.21017488409E+04  0.37485618295E+04  0.31039277697E+04 0.  0.
        5    1    3    3  502    0  0.22020954565E+03  0.10215308002E+04  0.33483492239E+03  0.10973394803E+04  0.46999998093E+01 0. -1.
       -5    1    3    3    0  502 -0.22020954565E+03 -0.10215308002E+04 -0.24365837633E+04  0.26512223493E+04  0.46999998093E+01 0.  1.
</event>
<event>
 5   0  0.7519202E-07  0.3093354E+04  0.7818609E-02  0.8217564E-01
        1   -1    0    0  501    0  0.00000000000E+00  0.00000000000E+00  0.11401560102E+04  0.11401560102E+04  0.50400001928E-02 0. -1.
       -1   -1    0    0    0  501  0.00000000000E+00  0.00000000000E+00 -0.20981419718E+04  0.20981419718E+04  0.50400001928E-02 0.  1.
    10030    2    1    2    0    0  0.00000000000E+00  0.00000000000E+00 -0.95798596162E+03  0.32382979820E+04  0.30933536360E+04 0.  0.
        4    1    3    3  502    0 -0.23118796642E+03 -0.12910821825E+04 -0.13370748531E+04  0.18729954227E+04  0.12699999809E+01 0.  1.
       -4    1    3    3    0  502  0.23118796642E+03  0.12910821825E+04  0.37908889151E+03  0.13653025593E+04  0.12699999809E+01 0. -1.
</event>
<event>
 5   0  0.7413481E-07  0.3103480E+04  0.7818609E-02  0.8214783E-01
        1   -1    0    0  501    0  0.00000000000E+00  0.00000000000E+00  0.12925140776E+04  0.12925140776E+04  0.50400001928E-02 0.  1.
       -1   -1    0    0    0  501  0.00000000000E+00  0.00000000000E+00 -0.18629562661E+04  0.18629562661E+04  0.50400001928E-02 0. -1.
    10030    2    1    2    0    0  0.00000000000E+00  0.00000000000E+00 -0.57044218854E+03  0.31554703437E+04  0.31034801110E+04 0.  0.
        5    1    3    3  502    0  0.34641744843E+03 -0.14070929515E+04 -0.84945857301E+03  0.16797373545E+04  0.46999998093E+01 0.  1.
       -5    1    3    3    0  502 -0.34641744843E+03  0.14070929515E+04  0.27901638447E+03  0.14757329892E+04  0.46999998093E+01 0. -1.
</event>
<event>
 5   0  0.2067926E-06  0.3089976E+04  0.7818609E-02  0.8218494E-01
       -2   -1    0    0    0  501  0.00000000000E+00  0.00000000000E+00  0.15625435429E+04  0.15625435429E+04  0.25500000920E-02 0. -1.
        2   -1    0    0  501    0  0.00000000000E+00  0.00000000000E+00 -0.15276300204E+04  0.15276300204E+04  0.25500000920E-02 0.  1.
    10030    2    1    2    0    0  0.00000000000E+00  0.00000000000E+00  0.34913522469E+02  0.30901735633E+04  0.30899763263E+04 0.  0.
        1    1    3    3  502    0  0.57165207606E+03  0.64168083805E+03  0.13014577277E+04  0.15595937327E+04  0.50400001928E-02 0. -1.
       -1    1    3    3    0  502 -0.57165207606E+03 -0.64168083805E+03 -0.12665442052E+04  0.15305798306E+04  0.50400001928E-02 0.  1.
</event>
<event>
 5   0  0.7413481E-07  0.3096304E+04  0.7818609E-02  0.8216753E-01
       -1   -1    0    0    0  501  0.00000000000E+00  0.00000000000E+00  0.16482617378E+04  0.16482617378E+04  0.50400001928E-02 0. -1.
        1   -1    0    0  501    0  0.00000000000E+00  0.00000000000E+00 -0.14541221930E+04  0.14541221930E+04  0.50400001928E-02 0.  1.
    10030    2    1    2    0    0  0.00000000000E+00  0.00000000000E+00  0.19413954478E+03  0.31023839308E+04  0.30963035851E+04 0.  0.
        5    1    3    3  502    0 -0.36055423408E+03 -0.10423682989E+03 -0.14078408153E+04  0.14570183676E+04  0.46999998093E+01 0.  1.
       -5    1    3    3    0  502  0.36055423408E+03  0.10423682989E+03  0.16019803601E+04  0.16453655632E+04  0.46999998093E+01 0. -1.
</event>
<event>
 5   0  0.2067926E-06  0.3105848E+04  0.7818609E-02  0.8214135E-01
       -2   -1    0    0    0  501  0.00000000000E+00  0.00000000000E+00  0.15654046385E+04  0.15654046385E+04  0.25500000920E-02 0.  1.
        2   -1    0    0  501    0  0.00000000000E+00  0.00000000000E+00 -0.15405429438E+04  0.15405429438E+04  0.25500000920E-02 0. -1.
    10030    2    1    2    0    0  0.00000000000E+00  0.00000000000E+00  0.24861694719E+02  0.31059475823E+04  0.31058480775E+04 0.  0.
        1    1    3    3  502    0 -0.10337807811E+04  0.78851807901E+03  0.86163978052E+03  0.15597713216E+04  0.50400001928E-02 0.  1.
       -1    1    3    3    0  502  0.10337807811E+04 -0.78851807901E+03 -0.83677808581E+03  0.15461762607E+04  0.50400001928E-02 0. -1.
</event>
<event>
 5   0  0.7561815E-07  0.3106446E+04  0.7818609E-02  0.8213971E-01
        1   -1    0    0  501    0  0.00000000000E+00  0.00000000000E+00  0.18953857008E+04  0.18953857008E+04  0.50400001928E-02 0. -1.
       -1   -1    0    0    0  501  0.00000000000E+00  0.00000000000E+00 -0.12728291815E+04  0.12728291816E+04  0.50400001928E-02 0.  1.
    10030    2    1    2    0    0  0.00000000000E+00  0.00000000000E+00  0.62255651925E+03  0.31682148823E+04  0.31064463493E+04 0.  0.
        3    1    3    3  502    0 -0.61520591431E+03  0.30943802084E+03 -0.11086229688E+04  0.13050958213E+04  0.10100000352E+00 0.  1.
       -3    1    3    3    0  502  0.61520591431E+03 -0.30943802084E+03  0.17311794880E+04  0.18631190610E+04  0.10100000352E+00 0. -1.
</event>
<event>
 5   0  0.7413481E-07  0.3110585E+04  0.7818609E-02  0.8212839E-01
       -1   -1    0    0    0  501  0.00000000000E+00  0.00000000000E+00  0.86080079854E+03  0.86080079856E+03  0.50400001928E-02 0.  1.
        1   -1    0    0  501    0  0.00000000000E+00  0.00000000000E+00 -0.28100975101E+04  0.28100975101E+04  0.50400001928E-02 0. -1.
    10030    2    1    2    0    0  0.00000000000E+00  0.00000000000E+00 -0.19492967116E+04  0.36708983087E+04  0.31105846272E+04 0.  0.
        5    1    3    3  502    0 -0.23957822974E+03 -0.11055480156E+04 -0.22342846861E+04  0.25043331032E+04  0.46999998093E+01 0. -1.
       -5    1    3    3    0  502  0.23957822974E+03  0.11055480156E+04  0.28498797454E+03  0.11665652055E+04  0.46999998093E+01 0.  1.
</event>
<event>
 5   0  0.2094135E-06  0.3160742E+04  0.7818609E-02  0.8199263E-01
        2   -1    0    0  501    0  0.00000000000E+00  0.00000000000E+00  0.13364284946E+04  0.13364284946E+04  0.25500000920E-02 0.  1.
       -2   -1    0    0    0  501  0.00000000000E+00  0.00000000000E+00 -0.18688405311E+04  0.18688405311E+04  0.25500000920E-02 0. -1.
    10030    2    1    2    0    0  0.00000000000E+00  0.00000000000E+00 -0.53241203650E+03  0.32052690257E+04  0.31607415191E+04 0.  0.
        4    1    3    3  502    0  0.52687067082E+03  0.11933746835E+04  0.63845698114E+03  0.14523652325E+04  0.12699999809E+01 0.  1.
       -4    1    3    3    0  502 -0.52687067082E+03 -0.11933746835E+04 -0.11708690176E+04  0.17529037932E+04  0.12699999809E+01 0. -1.
</event>
<event>
 5   0  0.2133385E-06  0.3092367E+04  0.7818609E-02  0.8217836E-01
        2   -1    0    0  501    0  0.00000000000E+00  0.00000000000E+00  0.12776762417E+04  0.12776762417E+04  0.25500000920E-02 0.  1.
       -2   -1    0    0    0  501  0.00000000000E+00  0.00000000000E+00 -0.18711185076E+04  0.18711185076E+04  0.25500000920E-02 0. -1.
    10030    2    1    2    0    0  0.00000000000E+00  0.00000000000E+00 -0.59344226593E+03  0.31487947494E+04  0.30923671597E+04 0.  0.
        2    1    3    3  502    0  0.48119738147E+03  0.69839765627E+03 -0.16131277311E+04  0.18224958939E+04  0.25500000920E-02 0. -1.
       -2    1    3    3    0  502 -0.48119738147E+03 -0.69839765627E+03  0.10196854652E+04  0.13262988555E+04  0.25500000920E-02 0.  1.
</event>
<event>
 5   0  0.7519202E-07  0.3089054E+04  0.7818609E-02  0.8218748E-01
       -1   -1    0    0    0  501  0.00000000000E+00  0.00000000000E+00  0.96729611988E+03  0.96729611989E+03  0.50400001928E-02 0.  1.
        1   -1    0    0  501    0  0.00000000000E+00  0.00000000000E+00 -0.24662178216E+04  0.24662178216E+04  0.50400001928E-02 0. -1.
    10030    2    1    2    0    0  0.00000000000E+00  0.00000000000E+00 -0.14989217018E+04  0.34335139415E+04  0.30890535312E+04 0.  0.
        4    1    3    3  502    0  0.28772627797E+03  0.39650826203E+03  0.87864755450E+03  0.10059961982E+04  0.12699999809E+01 0.  1.
       -4    1    3    3    0  502 -0.28772627797E+03 -0.39650826203E+03 -0.23775692563E+04  0.24275177433E+04  0.12699999809E+01 0. -1.
</event>
<event>
 5   0  0.2226334E-06  0.3037485E+04  0.7818609E-02  0.8233107E-01
       -2   -1    0    0    0  501  0.00000000000E+00  0.00000000000E+00  0.13876785785E+04  0.13876785785E+04  0.25500000920E-02 0. -1.
        2   -1    0    0  501    0  0.00000000000E+00  0.00000000000E+00 -0.16621856816E+04  0.16621856816E+04  0.25500000920E-02 0.  1.
    10030    2    1    2    0    0  0.00000000000E+00  0.00000000000E+00 -0.27450710312E+03  0.30498642601E+04  0.30374854494E+04 0.  0.
        5    1    3    3  502    0 -0.11408650684E+04 -0.29263226729E+02 -0.11433991434E+04  0.16154916068E+04  0.46999998093E+01 0.  1.
       -5    1    3    3    0  502  0.11408650684E+04  0.29263226729E+02  0.86889204023E+03  0.14343726532E+04  0.46999998093E+01 0. -1.
</event>
<event>
 5   0  0.7726743E-07  0.3097852E+04  0.7818609E-02  0.8216328E-01
       -1   -1    0    0    0  501  0.00000000000E+00  0.00000000000E+00  0.96226596248E+03  0.96226596250E+03  0.50400001928E-02 0.  1.
        1   -1    0    0  501    0  0.00000000000E+00  0.00000000000E+00 -0.24932528384E+04  0.24932528385E+04  0.50400001928E-02 0. -1.
    10030    2    1    2    0    0  0.00000000000E+00  0.00000000000E+00 -0.15309868760E+04  0.34555188010E+04  0.30978523802E+04 0.  0.
        1    1    3    3  502    0  0.17223689754E+03  0.84145885074E+03 -0.22032874667E+04  0.23647820634E+04  0.50400001928E-02 0. -1.
       -1    1    3    3    0  502 -0.17223689754E+03 -0.84145885074E+03  0.67230059074E+03  0.10907367376E+04  0.50400001928E-02 0.  1.
</event>
<event>
 5   0  0.2094135E-06  0.3097892E+04  0.7818609E-02  0.8216317E-01
        2   -1    0    0  501    0  0.00000000000E+00  0.00000000000E+00  0.20783643069E+04  0.20783643069E+04  0.25500000920E-02 0. -1.
       -2   -1    0    0    0  501  0.00000000000E+00  0.00000000000E+00 -0.11543855689E+04  0.11543855689E+04  0.25500000920E-02 0.  1.
    10030    2    1    2    0    0  0.00000000000E+00  0.00000000000E+00  0.92397873796E+03  0.32327498758E+04  0.30978920335E+04 0.  0.
        4    1    3    3  502    0  0.90763576281E+03 -0.12540908561E+04  0.40791067248E+03  0.16009182624E+04  0.12699999809E+01 0.  1.
       -4    1    3    3    0  502 -0.90763576281E+03  0.12540908561E+04  0.51606806548E+03  0.16318316134E+04  0.12699999809E+01 0. -1.
</event>
<event>
 5   0  0.7656332E-07  0.3106675E+04  0.7818609E-02  0.8213909E-01
       -1   -1    0    0    0  501  0.00000000000E+00  0.00000000000E+00  0.13430708086E+04  0.13430708086E+04  0.50400001928E-02 0.  1.
        1   -1    0    0  501    0  0.00000000000E+00  0.00000000000E+00 -0.17965223894E+04  0.17965223894E+04  0.50400001928E-02 0. -1.
    10030    2    1    2    0    0  0.00000000000E+00  0.00000000000E+00 -0.45345158077E+03  0.31395931980E+04  0.31066746068E+04 0.  0.
        2    1    3    3  502    0  0.10795160614E+04 -0.50901834128E+03  0.77799284852E+03  0.14246850427E+04  0.25500000920E-02 0.  1.
       -2    1    3    3    0  502 -0.10795160614E+04  0.50901834128E+03 -0.12314444293E+04  0.17149081553E+04  0.25500000920E-02 0. -1.
</event>
<event>
 5   0  0.7656332E-07  0.3097150E+04  0.7818609E-02  0.8216521E-01
        1   -1    0    0  501    0  0.00000000000E+00  0.00000000000E+00  0.20124318150E+04  0.20124318150E+04  0.50400001928E-02 0.  1.
       -1   -1    0    0    0  501  0.00000000000E+00  0.00000000000E+00 -0.11916348620E+04  0.11916348620E+04  0.50400001928E-02 0. -1.
    10030    2    1    2    0    0  0.00000000000E+00  0.00000000000E+00  0.82079695302E+03  0.32040666770E+04  0.30971495980E+04 0.  0.
        2    1    3    3  502    0  0.20607459416E+03  0.14522931332E+04  0.92398567758E+03  0.17336007659E+04  0.25500000920E-02 0.  1.
       -2    1    3    3    0  502 -0.20607459416E+03 -0.14522931332E+04 -0.10318872456E+03  0.14704659112E+04  0.25500000920E-02 0. -1.
</event>
<event>
 5   0  0.2133385E-06  0.3099932E+04  0.7818609E-02  0.8215757E-01
        2   -1    0    0  501    0  0.00000000000E+00  0.00000000000E+00  0.20573374572E+04  0.20573374572E+04  0.25500000920E-02 0.  1.
       -2   -1    0    0    0  501  0.00000000000E+00  0.00000000000E+00 -0.11677198774E+04  0.11677198775E+04  0.25500000920E-02 0. -1.
    10030    2    1    2    0    0  0.00000000000E+00  0.00000000000E+00  0.88961757979E+03  0.32250573347E+04  0.30999315111E+04 0.  0.
        2    1    3    3  502    0 -0.97740608171E+03  0.89691872256E+03 -0.38917652797E+03  0.13824775634E+04  0.25500000920E-02 0. -1.
       -2    1    3    3    0  502  0.97740608171E+03 -0.89691872256E+03  0.12787941078E+04  0.18425797713E+04  0.25500000920E-02 0.  1.
</event>
<event>
 5   0  0.7413481E-07  0.3090405E+04  0.7818609E-02  0.8218376E-01
       -1   -1    0    0    0  501  0.00000000000E+00  0.00000000000E+00  0.13089188534E+04  0.13089188534E+04  0.50400001928E-02 0. -1.
        1   -1    0    0  501    0  0.00000000000E+00  0.00000000000E+00 -0.18241396257E+04  0.18241396257E+04  0.50400001928E-02 0.  1.
    10030    2    1    2    0    0  0.00000000000E+00  0.00000000000E+00 -0.51522077230E+03  0.31330584790E+04  0.30904049878E+04 0.  0.
        5    1    3    3  502    0 -0.69185467215E+02  0.14157040594E+04  0.36620660586E+03  0.14639446646E+04  0.46999998093E+01 0. -1.
       -5    1    3    3    0  502  0.69185467215E+02 -0.14157040594E+04 -0.88142737816E+03  0.16691138145E+04  0.46999998093E+01 0.  1.
</event>
<event>
 5   0  0.7519202E-07  0.3089973E+04  0.7818609E-02  0.8218495E-01
       -1   -1    0    0    0  501  0.00000000000E+00  0.00000000000E+00  0.89526991463E+03  0.89526991465E+03  0.50400001928E-02 0. -1.
        1   -1    0    0  501    0  0.00000000000E+00  0.00000000000E+00 -0.26662170898E+04  0.26662170898E+04  0.50400001928E-02 0.  1.
    10030    2    1    2    0    0  0.00000000000E+00  0.00000000000E+00 -0.17709471752E+04  0.35614870045E+04  0.30899734280E+04 0.  0.
        4    1    3    3  502    0  0.69373142207E+03  0.11220337626E+03  0.70039345962E+03  0.99217210946E+03  0.12699999809E+01 0. -1.
       -4    1    3    3    0  502 -0.69373142207E+03 -0.11220337626E+03 -0.24713406348E+04  0.25693148950E+04  0.12699999809E+01 0.  1.
</event>
<event>
 5   0  0.7413481E-07  0.3111935E+04  0.7818609E-02  0.8212470E-01
        1   -1    0    0  501    0  0.00000000000E+00  0.00000000000E+00  0.24644868150E+04  0.24644868150E+04  0.50400001928E-02 0. -1.
       -1   -1    0    0    0  501  0.00000000000E+00  0.00000000000E+00 -0.98236904705E+03  0.98236904706E+03  0.50400001928E-02 0.  1.
    10030    2    1    2    0    0  0.00000000000E+00  0.00000000000E+00  0.14821177680E+04  0.34468558621E+04  0.31119354518E+04 0.  0.
        5    1    3    3  502    0 -0.12274494893E+04  0.64022167059E+03  0.15277822064E+04  0.20617120547E+04  0.46999998093E+01 0. -1.
       -5    1    3    3    0  502  0.12274494893E+04 -0.64022167059E+03 -0.45664438365E+02  0.13851438074E+04  0.46999998093E+01 0.  1.
</event>
<event>
 5   0  0.2133385E-06  0.3108008E+04  0.7818609E-02  0.8213544E-01
        2   -1    0    0  501    0  0.00000000000E+00  0.00000000000E+00  0.22330672418E+04  0.22330672418E+04  0.25500000920E-02 0. -1.
       -2   -1    0    0    0  501  0.00000000000E+00  0.00000000000E+00 -0.10814399586E+04  0.10814399586E+04  0.25500000920E-02 0.  1.
    10030    2    1    2    0    0  0.00000000000E+00  0.00000000000E+00  0.11516272832E+04  0.33145072005E+04  0.31080078157E+04 0.  0.
        2    1    3    3  502    0 -0.10046218421E+04  0.53771654408E+03 -0.55104878816E+03  0.12657246519E+04  0.25500000920E-02 0.  1.
       -2    1    3    3    0  502  0.10046218421E+04 -0.53771654408E+03  0.17026760714E+04  0.20487825486E+04  0.25500000920E-02 0. -1.
</event>
<event>
 5   0  0.2133385E-06  0.3096048E+04  0.7818609E-02  0.8216823E-01
       -2   -1    0    0    0  501  0.00000000000E+00  0.00000000000E+00  0.11314345482E+04  0.11314345482E+04  0.25500000920E-02 0. -1.
        2   -1    0    0  501    0  0.00000000000E+00  0.00000000000E+00 -0.21179997495E+04  0.21179997495E+04  0.25500000920E-02 0.  1.
    10030    2    1    2    0    0  0.00000000000E+00  0.00000000000E+00 -0.98656520137E+03  0.32494342977E+04  0.30960478611E+04 0.  0.
        2    1    3    3  502    0  0.53006683986E+03  0.14510772009E+04 -0.38947762198E+03  0.15932007770E+04  0.25500000920E-02 0. -1.
       -2    1    3    3    0  502 -0.53006683986E+03 -0.14510772009E+04 -0.59708757939E+03  0.16562335207E+04  0.25500000920E-02 0.  1.
</event>
<event>
 5   0  0.7726743E-07  0.3096315E+04  0.7818609E-02  0.8216750E-01
       -1   -1    0    0    0  501  0.00000000000E+00  0.00000000000E+00  0.11719328429E+04  0.11719328430E+04  0.50400001928E-02 0. -1.
        1   -1    0    0  501    0  0.00000000000E+00  0.00000000000E+00 -0.20451616257E+04  0.20451616257E+04  0.50400001928E-02 0.  1.
    10030    2    1    2    0    0  0.00000000000E+00  0.00000000000E+00 -0.87322878273E+03  0.32170944686E+04  0.30963152800E+04 0.  0.
        1    1    3    3  502    0 -0.92410130000E+03  0.12306257768E+04 -0.61167731107E+03  0.16560652608E+04  0.50400001928E-02 0.  1.
       -1    1    3    3    0  502  0.92410130000E+03 -0.12306257768E+04 -0.26155147166E+03  0.15610292078E+04  0.50400001928E-02 0. -1.
</event>
<event>
 5   0  0.2078009E-06  0.3027647E+04  0.7818609E-02  0.8235880E-01
        2   -1    0    0  501    0  0.00000000000E+00  0.00000000000E+00  0.23590081840E+04  0.23590081840E+04  0.25500000920E-02 0.  1.
       -2   -1    0    0    0  501  0.00000000000E+00  0.00000000000E+00 -0.97145111274E+03  0.97145111274E+03  0.25500000920E-02 0. -1.
    10030    2    1    2    0    0  0.00000000000E+00  0.00000000000E+00  0.13875570712E+04  0.33304592967E+04  0.30276466936E+04 0.  0.
        3    1    3    3  502    0  0.23385847382E+03 -0.59953546704E+03  0.22010525468E+04  0.22931997048E+04  0.10100000352E+00 0.  1.
       -3    1    3    3    0  502 -0.23385847382E+03  0.59953546704E+03 -0.81349547559E+03  0.10372595919E+04  0.10100000352E+00 0. -1.
</event>
<event>
 5   0  0.2078009E-06  0.3102837E+04  0.7818609E-02  0.8214960E-01
       -2   -1    0    0    0  501  0.00000000000E+00  0.00000000000E+00  0.13741740522E+04  0.13741740522E+04  0.25500000920E-02 0. -1.
        2   -1    0    0  501    0  0.00000000000E+00  0.00000000000E+00 -0.17515242380E+04  0.17515242380E+04  0.25500000920E-02 0.  1.
    10030    2    1    2    0    0  0.00000000000E+00  0.00000000000E+00 -0.37735018579E+03  0.31256982902E+04  0.31028368695E+04 0.  0.
        3    1    3    3  502    0  0.46778445513E+03 -0.15604067902E+03 -0.16704746494E+04  0.17417395197E+04  0.10100000352E+00 0.  1.
       -3    1    3    3    0  502 -0.46778445513E+03  0.15604067902E+03  0.12931244636E+04  0.13839587705E+04  0.10100000352E+00 0. -1.
</event>
<event>
 5   0  0.2094135E-06  0.3086031E+04  0.7818609E-02  0.8219582E-01
        2   -1    0    0  501    0  0.00000000000E+00  0.00000000000E+00  0.21359561503E+04  0.21359561503E+04  0.25500000920E-02 0. -1.
       -2   -1    0    0    0  501  0.00000000000E+00  0.00000000000E+00 -0.11146746607E+04  0.11146746607E+04  0.25500000920E-02 0.  1.
    10030    2    1    2    0    0  0.00000000000E+00  0.00000000000E+00  0.10212814896E+04  0.32506308110E+04  0.30860305877E+04 0.  0.
        4    1    3    3  502    0  0.11827240102E+03  0.10894560902E+03 -0.11058242182E+04  0.11174552881E+04  0.12699999809E+01 0.  1.
       -4    1    3    3    0  502 -0.11827240102E+03 -0.10894560902E+03  0.21271057077E+04  0.21331755229E+04  0.12699999809E+01 0. -1.
</event>
<event>
 5   0  0.7519202E-07  0.3097349E+04  0.7818609E-02  0.8216466E-01
       -1   -1    0    0    0  501  0.00000000000E+00  0.00000000000E+00  0.12139825431E+04  0.12139825432E+04  0.50400001928E-02 0. -1.
        1   -1    0    0  501    0  0.00000000000E+00  0.00000000000E+00 -0.19756405758E+04  0.19756405758E+04  0.50400001928E-02 0.  1.
    10030    2    1    2    0    0  0.00000000000E+00  0.00000000000E+00 -0.76165803266E+03  0.31896231190E+04  0.30973492994E+04 0.  0.
        4    1    3    3  502    0  0.10175909926E+04  0.56016536560E+03 -0.14356061627E+04  0.18466844160E+04  0.12699999809E+01 0.  1.
       -4    1    3    3    0  502 -0.10175909926E+04 -0.56016536560E+03  0.67394813001E+03  0.13429387030E+04  0.12699999809E+01 0. -1.
</event>
<event>
 5   0  0.7519202E-07  0.3091269E+04  0.7818609E-02  0.8218138E-01
       -1   -1    0    0    0  501  0.00000000000E+00  0.00000000000E+00  0.17764747561E+04  0.17764747561E+04  0.50400001928E-02 0.  1.
        1   -1    0    0  501    0  0.00000000000E+00  0.00000000000E+00 -0.13447904242E+04  0.13447904243E+04  0.50400001928E-02 0. -1.
    10030    2    1    2    0    0  0.00000000000E+00  0.00000000000E+00  0.43168433184E+03  0.31212651804E+04  0.30912691510E+04 0.  0.
        4    1    3    3  502    0 -0.60563914967E+03 -0.93875063792E+03  0.12943515676E+04  0.17097950559E+04  0.12699999809E+01 0.  1.
       -4    1    3    3    0  502  0.60563914967E+03  0.93875063792E+03 -0.86266723571E+03  0.14114701245E+04  0.12699999809E+01 0. -1.
</event>
<event>
 5   0  0.2078009E-06  0.3151771E+04  0.7818609E-02  0.8201672E-01
        2   -1    0    0  501    0  0.00000000000E+00  0.00000000000E+00  0.19765396653E+04  0.19765396653E+04  0.25500000920E-02 0. -1.
       -2   -1    0    0    0  501  0.00000000000E+00  0.00000000000E+00 -0.12564462577E+04  0.12564462577E+04  0.25500000920E-02 0.  1.
    10030    2    1    2    0    0  0.00000000000E+00  0.00000000000E+00  0.72009340758E+03  0.32329859229E+04  0.31517714800E+04 0.  0.
        3    1    3    3  502    0  0.43361058198E+03  0.96537574554E+02  0.19109854108E+04  0.19619385542E+04  0.10100000352E+00 0. -1.
       -3    1    3    3    0  502 -0.43361058198E+03 -0.96537574554E+02 -0.11908920032E+04  0.12710473687E+04  0.10100000352E+00 0.  1.
</event>
<event>
 5   0  0.7519202E-07  0.3096191E+04  0.7818609E-02  0.8216784E-01
       -1   -1    0    0    0  501  0.00000000000E+00  0.00000000000E+00  0.87266661051E+03  0.87266661053E+03  0.50400001928E-02 0.  1.
        1   -1    0    0  501    0  0.00000000000E+00  0.00000000000E+00 -0.27462943715E+04  0.27462943715E+04  0.50400001928E-02 0. -1.
    10030    2    1    2    0    0  0.00000000000E+00  0.00000000000E+00 -0.18736277610E+04  0.36189609820E+04  0.30961908214E+04 0.  0.
        4    1    3    3  502    0 -0.38969361658E+02 -0.10520739061E+04 -0.22634479475E+04  0.24963125483E+04  0.12699999809E+01 0. -1.
       -4    1    3    3    0  502  0.38969361658E+02  0.10520739061E+04  0.38982018649E+03  0.11226484337E+04  0.12699999809E+01 0.  1.
</event>
<event>
 5   0  0.2078009E-06  0.2776021E+04  0.7818609E-02  0.8310752E-01
        2   -1    0    0  501    0  0.00000000000E+00  0.00000000000E+00  0.15769269133E+04  0.15769269133E+04  0.25500000920E-02 0. -1.
       -2   -1    0    0    0  501  0.00000000000E+00  0.00000000000E+00 -0.12217263421E+04  0.12217263421E+04  0.25500000920E-02 0.  1.
    10030    2    1    2    0    0  0.00000000000E+00  0.00000000000E+00  0.35520057119E+03  0.27986532554E+04  0.27760210010E+04 0.  0.
        3    1    3    3  502    0 -0.13286121938E+04 -0.65302483782E+02  0.57718804601E+03  0.14500416637E+04  0.10100000352E+00 0. -1.
       -3    1    3    3    0  502  0.13286121938E+04  0.65302483782E+02 -0.22198747482E+03  0.13486115916E+04  0.10100000352E+00 0.  1.
</event>
<event>
 5   0  0.2078009E-06  0.3061056E+04  0.7818609E-02  0.8226508E-01
        2   -1    0    0  501    0  0.00000000000E+00  0.00000000000E+00  0.14236719568E+04  0.14236719568E+04  0.25500000920E-02 0.  1.
       -2   -1    0    0    0  501  0.00000000000E+00  0.00000000000E+00 -0.16454043266E+04  0.16454043266E+04  0.25500000920E-02 0. -1.
    10030    2    1    2    0    0  0.00000000000E+00  0.00000000000E+00 -0.22173236975E+03  0.30690762834E+04  0.30610560252E+04 0.  0.
        3    1    3    3  502    0  0.12023135000E+04  0.18353380732E+03 -0.10424257486E+04  0.16018407730E+04  0.10100000352E+00 0. -1.
       -3    1    3    3    0  502 -0.12023135000E+04 -0.18353380732E+03  0.82069337881E+03  0.14672355104E+04  0.10100000352E+00 0.  1.
</event>
<event>
 5   0  0.7519202E-07  0.3087544E+04  0.7818609E-02  0.8219165E-01
        1   -1    0    0  501    0  0.00000000000E+00  0.00000000000E+00  0.95257569809E+03  0.95257569810E+03  0.50400001928E-02 0. -1.
       -1   -1    0    0    0  501  0.00000000000E+00  0.00000000000E+00 -0.25018825015E+04  0.25018825015E+04  0.50400001928E-02 0.  1.
    10030    2    1    2    0    0  0.00000000000E+00  0.00000000000E+00 -0.15493068034E+04  0.34544581996E+04  0.30875443125E+04 0.  0.
        4    1    3    3  502    0 -0.83734614902E+03 -0.26986244880E+03  0.64466353220E+03  0.10906727269E+04  0.12699999809E+01 0. -1.
       -4    1    3    3    0  502  0.83734614902E+03  0.26986244880E+03 -0.21939703356E+04  0.23637854727E+04  0.12699999809E+01 0.  1.
</event>
<event>
 5   0  0.7561815E-07  0.3282187E+04  0.7818609E-02  0.8167443E-01
        1   -1    0    0  501    0  0.00000000000E+00  0.00000000000E+00  0.22556598104E+04  0.22556598104E+04  0.50400001928E-02 0. -1.
       -1   -1    0    0    0  501  0.00000000000E+00  0.00000000000E+00 -0.11939690958E+04  0.11939690958E+04  0.50400001928E-02 0.  1.
    10030    2    1    2    0    0  0.00000000000E+00  0.00000000000E+00  0.10616907146E+04  0.34496289062E+04  0.32821871393E+04 0.  0.
        3    1    3    3  502    0 -0.11693672322E+03  0.78643277481E+03  0.20397158790E+04  0.21891988451E+04  0.10100000352E+00 0. -1.
       -3    1    3    3    0  502  0.11693672322E+03 -0.78643277481E+03 -0.97802516436E+03  0.12604300611E+04  0.10100000352E+00 0.  1.
</event>
<event>
 5   0  0.7519202E-07  0.3078271E+04  0.7818609E-02  0.8221727E-01
       -1   -1    0    0    0  501  0.00000000000E+00  0.00000000000E+00  0.15458537677E+04  0.15458537677E+04  0.50400001928E-02 0. -1.
        1   -1    0    0  501    0  0.00000000000E+00  0.00000000000E+00 -0.15324466043E+04  0.15324466043E+04  0.50400001928E-02 0.  1.
    10030    2    1    2    0    0  0.00000000000E+00  0.00000000000E+00  0.13407163407E+02  0.30783003720E+04  0.30782711752E+04 0.  0.
        4    1    3    3  502    0 -0.14567150211E+04 -0.10564664617E+03 -0.47884904132E+03  0.15370354205E+04  0.12699999809E+01 0.  1.
       -4    1    3    3    0  502  0.14567150211E+04  0.10564664617E+03  0.49225620473E+03  0.15412649515E+04  0.12699999809E+01 0. -1.
</event>
<event>
 5   0  0.2226334E-06  0.3098361E+04  0.7818609E-02  0.8216188E-01
        2   -1    0    0  501    0  0.00000000000E+00  0.00000000000E+00  0.12847008580E+04  0.12847008580E+04  0.25500000920E-02 0. -1.
       -2   -1    0    0    0  501  0.00000000000E+00  0.00000000000E+00 -0.18681084311E+04  0.18681084311E+04  0.25500000920E-02 0.  1.
    10030    2    1    2    0    0  0.00000000000E+00  0.00000000000E+00 -0.58340757312E+03  0.31528092890E+04  0.30983611824E+04 0.  0.
        5    1    3    3  502    0  0.55035177307E+03  0.12829620400E+04 -0.97511593238E+03  0.17028657733E+04  0.46999998093E+01 0. -1.
       -5    1    3    3    0  502 -0.55035177307E+03 -0.12829620400E+04  0.39170835926E+03  0.14499435158E+04  0.46999998093E+01 0.  1.
</event>
<event>
 5   0  0.7519202E-07  0.3115024E+04  0.7818609E-02  0.8211627E-01
       -1   -1    0    0    0  501  0.00000000000E+00  0.00000000000E+00  0.19484535941E+04  0.19484535941E+04  0.50400001928E-02 0. -1.
        1   -1    0    0  501    0  0.00000000000E+00  0.00000000000E+00 -0.12450095087E+04  0.12450095087E+04  0.50400001928E-02 0.  1.
    10030    2    1    2    0    0  0.00000000000E+00  0.00000000000E+00  0.70344408544E+03  0.31934631028E+04  0.31150237572E+04 0.  0.
        4    1    3    3  502    0  0.78954452462E+03 -0.44072647434E+03 -0.94836801967E+03  0.13103525843E+04  0.12699999809E+01 0.  1.
       -4    1    3    3    0  502 -0.78954452462E+03  0.44072647434E+03  0.16518121051E+04  0.18831105185E+04  0.12699999809E+01 0. -1.
</event>
<event>
 5   0  0.7656332E-07  0.3132185E+04  0.7818609E-02  0.8206960E-01
       -1   -1    0    0    0  501  0.00000000000E+00  0.00000000000E+00  0.15960654286E+04  0.15960654286E+04  0.50400001928E-02 0.  1.
        1   -1    0    0  501    0  0.00000000000E+00  0.00000000000E+00 -0.15366822152E+04  0.15366822152E+04  0.50400001928E-02 0. -1.
    10030    2    1    2    0    0  0.00000000000E+00  0.00000000000E+00  0.59383213409E+02  0.31327476438E+04  0.31321847701E+04 0.  0.
        2    1    3    3  502    0  0.10300096332E+04  0.30049931192E+03 -0.11113138572E+04  0.15447453415E+04  0.25500000920E-02 0. -1.
       -2    1    3    3    0  502 -0.10300096332E+04 -0.30049931192E+03  0.11706970707E+04  0.15880023023E+04  0.25500000920E-02 0.  1.
</event>
<event>
 5   0  0.7413481E-07  0.3102420E+04  0.7818609E-02  0.8215074E-01
        1   -1    0    0  501    0  0.00000000000E+00  0.00000000000E+00  0.30582827646E+04  0.30582827646E+04  0.50400001928E-02 0. -1.
       -1   -1    0    0    0  501  0.00000000000E+00  0.00000000000E+00 -0.78679843073E+03  0.78679843075E+03  0.50400001928E-02 0.  1.
    10030    2    1    2    0    0  0.00000000000E+00  0.00000000000E+00  0.22714843338E+04  0.38450811953E+04  0.31024197524E+04 0.  0.
        5    1    3    3  502    0 -0.13318803077E+04 -0.48369663503E+03  0.19179895681E+04  0.23846537824E+04  0.46999998093E+01 0. -1.
       -5    1    3    3    0  502  0.13318803077E+04  0.48369663503E+03  0.35349476577E+03  0.14604274129E+04  0.46999998093E+01 0.  1.
</event>
<event>
 5   0  0.2133385E-06  0.3105705E+04  0.7818609E-02  0.8214174E-01
       -2   -1    0    0    0  501  0.00000000000E+00  0.00000000000E+00  0.17013004499E+04  0.17013004499E+04  0.25500000920E-02 0. -1.
        2   -1    0    0  501    0  0.00000000000E+00  0.00000000000E+00 -0.14173579050E+04  0.14173579050E+04  0.25500000920E-02 0.  1.
    10030    2    1    2    0    0  0.00000000000E+00  0.00000000000E+00  0.28394254493E+03  0.31186583549E+04  0.31057054860E+04 0.  0.
        2    1    3    3  502    0 -0.33772339926E+03  0.13726560838E+04  0.78738811227E+03  0.16180920425E+04  0.25500000920E-02 0. -1.
       -2    1    3    3    0  502  0.33772339926E+03 -0.13726560838E+04 -0.50344556734E+03  0.15005663124E+04  0.25500000920E-02 0.  1.
</event>
<event>
 5   0  0.2094135E-06  0.3156543E+04  0.7818609E-02  0.8200389E-01
        2   -1    0    0  501    0  0.00000000000E+00  0.00000000000E+00  0.28838159794E+04  0.28838159794E+04  0.25500000920E-02 0.  1.
       -2   -1    0    0    0  501  0.00000000000E+00  0.00000000000E+00 -0.86376561938E+03  0.86376561939E+03  0.25500000920E-02 0. -1.
    10030    2    1    2    0    0  0.00000000000E+00  0.00000000000E+00  0.20200503600E+04  0.37475815988E+04  0.31565431064E+04 0.  0.
        4    1    3    3  502    0 -0.12405014239E+04  0.28193129781E+03 -0.99020862547E+02  0.12759842411E+04  0.12699999809E+01 0. -1.
       -4    1    3    3    0  502  0.12405014239E+04 -0.28193129781E+03  0.21190712226E+04  0.24715973577E+04  0.12699999809E+01 0.  1.
</event>
<event>
 5   0  0.2078009E-06  0.3093107E+04  0.7818609E-02  0.8217632E-01
       -2   -1    0    0    0  501  0.00000000000E+00  0.00000000000E+00  0.10004557539E+04  0.10004557539E+04  0.25500000920E-02 0.  1.
        2   -1    0    0  501    0  0.00000000000E+00  0.00000000000E+00 -0.23907386404E+04  0.23907386404E+04  0.25500000920E-02 0. -1.
    10030    2    1    2    0    0  0.00000000000E+00  0.00000000000E+00 -0.13902828865E+04  0.33911943942E+04  0.30931073236E+04 0.  0.
        3    1    3    3  502    0  0.57586814875E+02 -0.10035948352E+04  0.59341420070E+03  0.11673299698E+04  0.10100000352E+00 0.  1.
       -3    1    3    3    0  502 -0.57586814875E+02  0.10035948352E+04 -0.19836970872E+04  0.22238644245E+04  0.10100000352E+00 0. -1.
</event>
<event>
 5   0  0.7726743E-07  0.3161066E+04  0.7818609E-02  0.8199176E-01
       -1   -1    0    0    0  501  0.00000000000E+00  0.00000000000E+00  0.14363685014E+04  0.14363685014E+04  0.50400001928E-02 0.  1.
        1   -1    0    0  501    0  0.00000000000E+00  0.00000000000E+00 -0.17391669063E+04  0.17391669063E+04  0.50400001928E-02 0. -1.
    10030    2    1    2    0    0  0.00000000000E+00  0.00000000000E+00 -0.30279840490E+03  0.31755354078E+04  0.31610659993E+04 0.  0.
        1    1    3    3  502    0 -0.10486326202E+04  0.98753440249E+03 -0.80493836250E+03  0.16500849480E+04  0.50400001928E-02 0. -1.
       -1    1    3    3    0  502  0.10486326202E+04 -0.98753440249E+03  0.50213995760E+03  0.15254504598E+04  0.50400001928E-02 0.  1.
</event>
<event>
 5   0  0.7561815E-07  0.3091442E+04  0.7818609E-02  0.8218090E-01
        1   -1    0    0  501    0  0.00000000000E+00  0.00000000000E+00  0.19526762219E+04  0.19526762219E+04  0.50400001928E-02 0. -1.
       -1   -1    0    0    0  501  0.00000000000E+00  0.00000000000E+00 -0.12235792293E+04  0.12235792293E+04  0.50400001928E-02 0.  1.
    10030    2    1    2    0    0  0.00000000000E+00  0.00000000000E+00  0.72909699262E+03  0.31762554512E+04  0.30914424250E+04 0.  0.
        3    1    3    3  502    0  0.47173978253E+03  0.13965310267E+04  0.84251743187E+03  0.16978436219E+04  0.10100000352E+00 0. -1.
       -3    1    3    3    0  502 -0.47173978253E+03 -0.13965310267E+04 -0.11342043925E+03  0.14784118294E+04  0.10100000352E+00 0.  1.
</event>
<event>
 5   0  0.7413481E-07  0.3197545E+04  0.7818609E-02  0.8189466E-01
        1   -1    0    0  501    0  0.00000000000E+00  0.00000000000E+00  0.18351238250E+04  0.18351238250E+04  0.50400001928E-02 0. -1.
       -1   -1    0    0    0  501  0.00000000000E+00  0.00000000000E+00 -0.13928613553E+04  0.13928613553E+04  0.50400001928E-02 0.  1.
    10030    2    1    2    0    0  0.00000000000E+00  0.00000000000E+00  0.44226246973E+03  0.32279851804E+04  0.31975447194E+04 0.  0.
        5    1    3    3  502    0  0.83330636632E+03 -0.97311930963E+03 -0.74436800577E+03  0.14817106698E+04  0.46999998093E+01 0.  1.
       -5    1    3    3    0  502 -0.83330636632E+03  0.97311930963E+03  0.11866304755E+04  0.17462745106E+04  0.46999998093E+01 0. -1.
</event>
<event>
 5   0  0.7413481E-07  0.3048995E+04  0.7818609E-02  0.8229877E-01
        1   -1    0    0  501    0  0.00000000000E+00  0.00000000000E+00  0.11196789558E+04  0.11196789559E+04  0.50400001928E-02 0. -1.
       -1   -1    0    0    0  501  0.00000000000E+00  0.00000000000E+00 -0.20756775318E+04  0.20756775318E+04  0.50400001928E-02 0.  1.
    10030    2    1    2    0    0  0.00000000000E+00  0.00000000000E+00 -0.95599857598E+03  0.31953564877E+04  0.30489948846E+04 0.  0.
        5    1    3    3  502    0  0.95903980069E+03 -0.42767955640E+03 -0.16362221986E+04  0.19441996594E+04  0.46999998093E+01 0.  1.
       -5    1    3    3    0  502 -0.95903980069E+03  0.42767955640E+03  0.68022362262E+03  0.12511568283E+04  0.46999998093E+01 0. -1.
</event>
<event>
 5   0  0.2133385E-06  0.3131322E+04  0.7818609E-02  0.8207194E-01
       -2   -1    0    0    0  501  0.00000000000E+00  0.00000000000E+00  0.14858548053E+04  0.14858548053E+04  0.25500000920E-02 0.  1.
        2   -1    0    0  501    0  0.00000000000E+00  0.00000000000E+00 -0.16497540001E+04  0.16497540001E+04  0.25500000920E-02 0. -1.
    10030    2    1    2    0    0  0.00000000000E+00  0.00000000000E+00 -0.16389919479E+03  0.31356088055E+04  0.31313223460E+04 0.  0.
        2    1    3    3  502    0 -0.76630474882E+03  0.13070521142E+04  0.31316208493E+03  0.15471517988E+04  0.25500000920E-02 0. -1.
       -2    1    3    3    0  502  0.76630474882E+03 -0.13070521142E+04 -0.47706127972E+03  0.15884570066E+04  0.25500000920E-02 0.  1.
</event>
<event>
 5   0  0.2133385E-06  0.3090503E+04  0.7818609E-02  0.8218349E-01
       -2   -1    0    0    0  501  0.00000000000E+00  0.00000000000E+00  0.17018184499E+04  0.17018184499E+04  0.25500000920E-02 0.  1.
        2   -1    0    0  501    0  0.00000000000E+00  0.00000000000E+00 -0.14030888805E+04  0.14030888805E+04  0.25500000920E-02 0. -1.
    10030    2    1    2    0    0  0.00000000000E+00  0.00000000000E+00  0.29872956935E+03  0.31049073304E+04  0.30905032236E+04 0.  0.
        2    1    3    3  502    0  0.61812475882E+03 -0.13039518008E+04 -0.40587189849E+03  0.14990331932E+04  0.25500000920E-02 0.  1.
       -2    1    3    3    0  502 -0.61812475882E+03  0.13039518008E+04  0.70460146784E+03  0.16058741373E+04  0.25500000920E-02 0. -1.
</event>
<event>
 5   0  0.7561815E-07  0.3104474E+04  0.7818609E-02  0.8214511E-01
       -1   -1    0    0    0  501  0.00000000000E+00  0.00000000000E+00  0.15824353844E+04  0.15824353844E+04  0.50400001928E-02 0. -1.
        1   -1    0    0  501    0  0.00000000000E+00  0.00000000000E+00 -0.15226145185E+04  0.15226145185E+04  0.50400001928E-02 0.  1.
    10030    2    1    2    0    0  0.00000000000E+00  0.00000000000E+00  0.59820865880E+02  0.31050499029E+04  0.31044736049E+04 0.  0.
        3    1    3    3  502    0 -0.12924100686E+04 -0.11891929669E+03 -0.82170138104E+03  0.15361180795E+04  0.10100000352E+00 0.  1.
       -3    1    3    3    0  502  0.12924100686E+04  0.11891929669E+03  0.88152224692E+03  0.15689318234E+04  0.10100000352E+00 0. -1.
</event>
<event>
 5   0  0.7726743E-07  0.3096304E+04  0.7818609E-02  0.8216753E-01
       -1   -1    0    0    0  501  0.00000000000E+00  0.00000000000E+00  0.19568298662E+04  0.19568298662E+04  0.50400001928E-02 0. -1.
        1   -1    0    0  501    0  0.00000000000E+00  0.00000000000E+00 -0.12248249781E+04  0.12248249781E+04  0.50400001928E-02 0.  1.
    10030    2    1    2    0    0  0.00000000000E+00  0.00000000000E+00  0.73200488812E+03  0.31816548443E+04  0.30963036660E+04 0.  0.
        1    1    3    3  502    0 -0.15370930450E+04 -0.79946912386E+02  0.19489640185E+03  0.15514609712E+04  0.50400001928E-02 0.  1.
       -1    1    3    3    0  502  0.15370930450E+04  0.79946912386E+02  0.53710848626E+03  0.16301938731E+04  0.50400001928E-02 0. -1.
</event>
<event>
 5   0  0.2067926E-06  0.3062607E+04  0.7818609E-02  0.8226076E-01
       -2   -1    0    0    0  501  0.00000000000E+00  0.00000000000E+00  0.95613565176E+03  0.95613565177E+03  0.25500000920E-02 0.  1.
        2   -1    0    0  501    0  0.00000000000E+00  0.00000000000E+00 -0.24524661861E+04  0.24524661861E+04  0.25500000920E-02 0. -1.
    10030    2    1    2    0    0  0.00000000000E+00  0.00000000000E+00 -0.14963305343E+04  0.34086018379E+04  0.30626069648E+04 0.  0.
        1    1    3    3  502    0  0.14894617158E+03 -0.48668006580E+02 -0.24435197683E+04  0.24485388286E+04  0.50400001928E-02 0. -1.
       -1    1    3    3    0  502 -0.14894617158E+03  0.48668006580E+02  0.94718923396E+03  0.96006300931E+03  0.50400001928E-02 0.  1.
</event>
<event>
 5   0  0.2226334E-06  0.3049444E+04  0.7818609E-02  0.8229751E-01
        2   -1    0    0  501    0  0.00000000000E+00  0.00000000000E+00  0.13040198355E+04  0.13040198355E+04  0.25500000920E-02 0.  1.
       -2   -1    0    0    0  501  0.00000000000E+00  0.00000000000E+00 -0.17827769182E+04  0.17827769182E+04  0.25500000920E-02 0. -1.
    10030    2    1    2    0    0  0.00000000000E+00  0.00000000000E+00 -0.47875708271E+03  0.30867967537E+04  0.30494435319E+04 0.  0.
        5    1    3    3  502    0 -0.37326792515E+03 -0.28296174542E+03  0.12293800664E+04  0.13155963405E+04  0.46999998093E+01 0.  1.
       -5    1    3    3    0  502  0.37326792515E+03  0.28296174542E+03 -0.17081371492E+04  0.17712004132E+04  0.46999998093E+01 0. -1.
</event>
<event>
 5   0  0.7656332E-07  0.3134758E+04  0.7818609E-02  0.8206263E-01
        1   -1    0    0  501    0  0.00000000000E+00  0.00000000000E+00  0.24068747216E+04  0.24068747216E+04  0.50400001928E-02 0.  1.
       -1   -1    0    0    0  501  0.00000000000E+00  0.00000000000E+00 -0.10206917016E+04  0.10206917016E+04  0.50400001928E-02 0. -1.
    10030    2    1    2    0    0  0.00000000000E+00  0.00000000000E+00  0.13861830200E+04  0.34275664231E+04  0.31347580800E+04 0.  0.
        2    1    3    3  502    0  0.14293100101E+04  0.45666054241E+03  0.19777560641E+03  0.15134665990E+04  0.25500000920E-02 0. -1.
       -2    1    3    3    0  502 -0.14293100101E+04 -0.45666054241E+03  0.11884074136E+04  0.19140998241E+04  0.25500000920E-02 0.  1.
</event>
<event>
 5   0  0.7656332E-07  0.3097850E+04  0.7818609E-02  0.8216328E-01
       -1   -1    0    0    0  501  0.00000000000E+00  0.00000000000E+00  0.10125426389E+04  0.10125426389E+04  0.50400001928E-02 0. -1.
        1   -1    0    0  501    0  0.00000000000E+00  0.00000000000E+00 -0.23694495077E+04  0.23694495077E+04  0.50400001928E-02 0.  1.
    10030    2    1    2    0    0  0.00000000000E+00  0.00000000000E+00 -0.13569068688E+04  0.33819921466E+04  0.30978500011E+04 0.  0.
        2    1    3    3  502    0 -0.39755235824E+03 -0.94542487676E+03  0.58874074342E+03  0.11825784279E+04  0.25500000920E-02 0. -1.
       -2    1    3    3    0  502  0.39755235824E+03  0.94542487676E+03 -0.19456476122E+04  0.21994137187E+04  0.25500000920E-02 0.  1.
</event>
<event>
 5   0  0.7561815E-07  0.3192471E+04  0.7818609E-02  0.8190808E-01
       -1   -1    0    0    0  501  0.00000000000E+00  0.00000000000E+00  0.17684184827E+04  0.17684184827E+04  0.50400001928E-02 0.  1.
        1   -1    0    0  501    0  0.00000000000E+00  0.00000000000E+00 -0.14408171258E+04  0.14408171258E+04  0.50400001928E-02 0. -1.
    10030    2    1    2    0    0  0.00000000000E+00  0.00000000000E+00  0.32760135690E+03  0.32092356085E+04  0.31924709148E+04 0.  0.
        3    1    3    3  502    0 -0.32557151903E+03  0.55795755271E+03 -0.13035406043E+04  0.14548304237E+04  0.10100000352E+00 0. -1.
       -3    1    3    3    0  502  0.32557151903E+03 -0.55795755271E+03  0.16311419612E+04  0.17544051848E+04  0.10100000352E+00 0.  1.
</event>
<event>
 5   0  0.2078009E-06  0.3102648E+04  0.7818609E-02  0.8215012E-01
       -2   -1    0    0    0  501  0.00000000000E+00  0.00000000000E+00  0.14430341906E+04  0.14430341906E+04  0.25500000920E-02 0. -1.
        2   -1    0    0  501    0  0.00000000000E+00  0.00000000000E+00 -0.16677399180E+04  0.16677399180E+04  0.25500000920E-02 0.  1.
    10030    2    1    2    0    0  0.00000000000E+00  0.00000000000E+00 -0.22470572737E+03  0.31107741086E+04  0.31026477226E+04 0.  0.
        3    1    3    3  502    0  0.64201430080E+03  0.49682308083E+02 -0.15274158488E+04  0.16576036558E+04  0.10100000352E+00 0.  1.
       -3    1    3    3    0  502 -0.64201430080E+03 -0.49682308083E+02  0.13027101215E+04  0.14531704528E+04  0.10100000352E+00 0. -1.
</event>
<event>
 5   0  0.7413481E-07  0.3102326E+04  0.7818609E-02  0.8215100E-01
       -1   -1    0    0    0  501  0.00000000000E+00  0.00000000000E+00  0.11923022756E+04  0.11923022756E+04  0.50400001928E-02 0.  1.
        1   -1    0    0  501    0  0.00000000000E+00  0.00000000000E+00 -0.20180339356E+04  0.20180339356E+04  0.50400001928E-02 0. -1.
    10030    2    1    2    0    0  0.00000000000E+00  0.00000000000E+00 -0.82573165998E+03  0.32103362112E+04  0.31023258717E+04 0.  0.
        5    1    3    3  502    0  0.14836773836E+04 -0.11875905690E+03 -0.86474053731E+03  0.17213949515E+04  0.46999998093E+01 0.  1.
       -5    1    3    3    0  502 -0.14836773836E+04  0.11875905690E+03  0.39008877329E+02  0.14889412597E+04  0.46999998093E+01 0. -1.
</event>
<event>
 5   0  0.7656332E-07  0.3067868E+04  0.7818609E-02  0.8224612E-01
       -1   -1    0    0    0  501  0.00000000000E+00  0.00000000000E+00  0.14614886569E+04  0.14614886569E+04  0.50400001928E-02 0. -1.
        1   -1    0    0  501    0  0.00000000000E+00  0.00000000000E+00 -0.16099705624E+04  0.16099705624E+04  0.50400001928E-02 0.  1.
    10030    2    1    2    0    0  0.00000000000E+00  0.00000000000E+00 -0.14848190545E+03  0.30714592193E+04  0.30678681294E+04 0.  0.
        2    1    3    3  502    0  0.71465231985E+02  0.26215294249E+02 -0.16080784081E+04  0.16098790910E+04  0.25500000920E-02 0.  1.
       -2    1    3    3    0  502 -0.71465231985E+02 -0.26215294249E+02  0.14595965026E+04  0.14615801283E+04  0.25500000920E-02 0. -1.
</event>
<event>
 5   0  0.2067926E-06  0.3146053E+04  0.7818609E-02  0.8203211E-01
       -2   -1    0    0    0  501  0.00000000000E+00  0.00000000000E+00  0.12677566981E+04  0.12677566981E+04  0.25500000920E-02 0.  1.
        2   -1    0    0  501    0  0.00000000000E+00  0.00000000000E+00 -0.19518039824E+04  0.19518039824E+04  0.25500000920E-02 0. -1.
    10030    2    1    2    0    0  0.00000000000E+00  0.00000000000E+00 -0.68404728434E+03  0.32195606806E+04  0.31460531287E+04 0.  0.
        1    1    3    3  502    0 -0.11097378462E+04 -0.63347418061E+03 -0.12808487641E+04  0.18092487892E+04  0.50400001928E-02 0. -1.
       -1    1    3    3    0  502  0.11097378462E+04  0.63347418061E+03  0.59680147974E+03  0.14103118914E+04  0.50400001928E-02 0.  1.
</event>
<event>
 5   0  0.2226334E-06  0.3116500E+04  0.7818609E-02  0.8211224E-01
       -2   -1    0    0    0  501  0.00000000000E+00  0.00000000000E+00  0.32774967397E+04  0.32774967397E+04  0.25500000920E-02 0. -1.
        2   -1    0    0  501    0  0.00000000000E+00  0.00000000000E+00 -0.74085297941E+03  0.74085297941E+03  0.25500000920E-02 0.  1.
    10030    2    1    2    0    0  0.00000000000E+00  0.00000000000E+00  0.25366437603E+04  0.40183497191E+04  0.31165001040E+04 0.  0.
        5    1    3    3  502    0  0.13455322540E+04 -0.29834826359E+03  0.22058098210E+04  0.26009782370E+04  0.46999998093E+01 0. -1.
       -5    1    3    3    0  502 -0.13455322540E+04  0.29834826359E+03  0.33083393924E+03  0.14173714821E+04  0.46999998093E+01 0.  1.
</event>
<event>
 5   0  0.2226334E-06  0.3096471E+04  0.7818609E-02  0.8216707E-01
        2   -1    0    0  501    0  0.00000000000E+00  0.00000000000E+00  0.12635444239E+04  0.12635444239E+04  0.25500000920E-02 0. -1.
       -2   -1    0    0    0  501  0.00000000000E+00  0.00000000000E+00 -0.18970710359E+04  0.18970710359E+04  0.25500000920E-02 0.  1.
    10030    2    1    2    0    0  0.00000000000E+00  0.00000000000E+00 -0.63352661202E+03  0.31606154598E+04  0.30964712362E+04 0.  0.
        5    1    3    3  502    0 -0.85146925573E+03  0.15235676815E+03  0.99389191693E+03  0.13175946686E+04  0.46999998093E+01 0. -1.
       -5    1    3    3    0  502  0.85146925573E+03 -0.15235676815E+03 -0.16274185289E+04  0.18430207911E+04  0.46999998093E+01 0.  1.
</event>
<event>
 5   0  0.2226334E-06  0.3050343E+04  0.7818609E-02  0.8229499E-01
       -2   -1    0    0    0  501  0.00000000000E+00  0.00000000000E+00  0.12968368610E+04  0.12968368610E+04  0.25500000920E-02 0.  1.
        2   -1    0    0  501    0  0.00000000000E+00  0.00000000000E+00 -0.17937096884E+04  0.17937096884E+04  0.25500000920E-02 0. -1.
    10030    2    1    2    0    0  0.00000000000E+00  0.00000000000E+00 -0.49687282736E+03  0.30905465494E+04  0.30503434835E+04 0.  0.
        5    1    3    3  502    0 -0.11946678378E+04  0.94303359031E+03 -0.14925259112E+03  0.15293273100E+04  0.46999998093E+01 0.  1.
       -5    1    3    3    0  502  0.11946678378E+04 -0.94303359031E+03 -0.34762023624E+03  0.15612192395E+04  0.46999998093E+01 0. -1.
</event>
<event>
 5   0  0.2133385E-06  0.3108747E+04  0.7818609E-02  0.8213342E-01
        2   -1    0    0  501    0  0.00000000000E+00  0.00000000000E+00  0.14731127990E+04  0.14731127990E+04  0.25500000920E-02 0. -1.
       -2   -1    0    0    0  501  0.00000000000E+00  0.00000000000E+00 -0.16401166005E+04  0.16401166005E+04  0.25500000920E-02 0.  1.
    10030    2    1    2    0    0  0.00000000000E+00  0.00000000000E+00 -0.16700380151E+03  0.31132293995E+04  0.31087468575E+04 0.  0.
        2    1    3    3  502    0  0.95134982693E+03 -0.93262604073E+03 -0.88541799846E+03  0.15996321005E+04  0.25500000920E-02 0.  1.
       -2    1    3    3    0  502 -0.95134982693E+03  0.93262604073E+03  0.71841419696E+03  0.15135972990E+04  0.25500000920E-02 0. -1.
</event>
<event>
 5   0  0.2094135E-06  0.3062819E+04  0.7818609E-02  0.8226017E-01
       -2   -1    0    0    0  501  0.00000000000E+00  0.00000000000E+00  0.11095557369E+04  0.11095557369E+04  0.25500000920E-02 0.  1.
        2   -1    0    0  501    0  0.00000000000E+00  0.00000000000E+00 -0.21136516952E+04  0.21136516952E+04  0.25500000920E-02 0. -1.
    10030    2    1    2    0    0  0.00000000000E+00  0.00000000000E+00 -0.10040959583E+04  0.32232074321E+04  0.30628185478E+04 0.  0.
        4    1    3    3  502    0  0.64234301546E+03 -0.13882370717E+04 -0.57942400059E+03  0.16357079514E+04  0.12699999809E+01 0.  1.
       -4    1    3    3    0  502 -0.64234301546E+03  0.13882370717E+04 -0.42467195771E+03  0.15874994807E+04  0.12699999809E+01 0. -1.
</event>
<event>
 5   0  0.2078009E-06  0.3101993E+04  0.7818609E-02  0.8215191E-01
        2   -1    0    0  501    0  0.00000000000E+00  0.00000000000E+00  0.17630813476E+04  0.17630813476E+04  0.25500000920E-02 0.  1.
       -2   -1    0    0    0  501  0.00000000000E+00  0.00000000000E+00 -0.13644241528E+04  0.13644241528E+04  0.25500000920E-02 0. -1.
    10030    2    1    2    0    0  0.00000000000E+00  0.00000000000E+00  0.39865719480E+03  0.31275055004E+04  0.31019934068E+04 0.  0.
        3    1    3    3  502    0  0.99492755365E+03 -0.75412198553E+03  0.11272292278E+04  0.16820304838E+04  0.10100000352E+00 0.  1.
       -3    1    3    3    0  502 -0.99492755365E+03  0.75412198553E+03 -0.72857203304E+03  0.14454750166E+04  0.10100000352E+00 0. -1.
</event>
<event>
 5   0  0.2226334E-06  0.3103477E+04  0.7818609E-02  0.8214784E-01
       -2   -1    0    0    0  501  0.00000000000E+00  0.00000000000E+00  0.17370725016E+04  0.17370725016E+04  0.25500000920E-02 0.  1.
        2   -1    0    0  501    0  0.00000000000E+00  0.00000000000E+00 -0.13861785560E+04  0.13861785560E+04  0.25500000920E-02 0. -1.
    10030    2    1    2    0    0  0.00000000000E+00  0.00000000000E+00  0.35089394563E+03  0.31232510576E+04  0.31034771802E+04 0.  0.
        5    1    3    3  502    0  0.13102465325E+04  0.56049911072E+03  0.79333395531E+03  0.16310444763E+04  0.46999998093E+01 0.  1.
       -5    1    3    3    0  502 -0.13102465325E+04 -0.56049911072E+03 -0.44244000967E+03  0.14922065813E+04  0.46999998093E+01 0. -1.
</event>
<event>
 5   0  0.2094135E-06  0.3083954E+04  0.7818609E-02  0.8220155E-01
        2   -1    0    0  501    0  0.00000000000E+00  0.00000000000E+00  0.17830959398E+04  0.17830959398E+04  0.25500000920E-02 0.  1.
       -2   -1    0    0    0  501  0.00000000000E+00  0.00000000000E+00 -0.13334635350E+04  0.13334635350E+04  0.25500000920E-02 0. -1.
    10030    2    1    2    0    0  0.00000000000E+00  0.00000000000E+00  0.44963240480E+03  0.31165594749E+04  0.30839542248E+04 0.  0.
        4    1    3    3  502    0  0.10796333362E+04  0.16442725250E+03  0.13249242608E+04  0.17169945753E+04  0.12699999809E+01 0.  1.
       -4    1    3    3    0  502 -0.10796333362E+04 -0.16442725250E+03 -0.87529185595E+03  0.13995648995E+04  0.12699999809E+01 0. -1.
</event>
<event>
 5   0  0.6979625E-07  0.3109998E+04  0.7818609E-02  0.8212999E-01
        3   -1    0    0  501    0  0.00000000000E+00  0.00000000000E+00  0.12425125719E+04  0.12425125760E+04  0.10100000352E+00 0. -1.
       -3   -1    0    0    0  501  0.00000000000E+00  0.00000000000E+00 -0.19460747810E+04  0.19460747836E+04  0.10100000352E+00 0.  1.
    10030    2    1    2    0    0  0.00000000000E+00  0.00000000000E+00 -0.70356220910E+03  0.31885873596E+04  0.31099983228E+04 0.  0.
        5    1    3    3  502    0 -0.12493724490E+04 -0.49728859110E+03  0.44883109692E+03  0.14176384951E+04  0.46999998093E+01 0.  1.
       -5    1    3    3    0  502  0.12493724490E+04  0.49728859110E+03 -0.11523933060E+04  0.17709488646E+04  0.46999998093E+01 0. -1.
</event>
<event>
 5   0  0.2067926E-06  0.3099700E+04  0.7818609E-02  0.8215820E-01
       -2   -1    0    0    0  501  0.00000000000E+00  0.00000000000E+00  0.21531713224E+04  0.21531713224E+04  0.25500000920E-02 0. -1.
        2   -1    0    0  501    0  0.00000000000E+00  0.00000000000E+00 -0.11155802176E+04  0.11155802176E+04  0.25500000920E-02 0.  1.
    10030    2    1    2    0    0  0.00000000000E+00  0.00000000000E+00  0.10375911048E+04  0.32687515399E+04  0.30997001999E+04 0.  0.
        1    1    3    3  502    0 -0.14355437260E+03  0.15203717035E+04  0.79759544240E+03  0.17228744773E+04  0.50400001928E-02 0. -1.
       -1    1    3    3    0  502  0.14355437260E+03 -0.15203717035E+04  0.23999566243E+03  0.15458770626E+04  0.50400001928E-02 0.  1.
</event>
<event>
 5   0  0.7656332E-07  0.3088968E+04  0.7818609E-02  0.8218772E-01
        1   -1    0    0  501    0  0.00000000000E+00  0.00000000000E+00  0.16411969486E+04  0.16411969486E+04  0.50400001928E-02 0. -1.
       -1   -1    0    0    0  501  0.00000000000E+00  0.00000000000E+00 -0.14534699899E+04  0.14534699899E+04  0.50400001928E-02 0.  1.
    10030    2    1    2    0    0  0.00000000000E+00  0.00000000000E+00  0.18772695871E+03  0.30946669385E+04  0.30889677967E+04 0.  0.
        2    1    3    3  502    0  0.38404828181E+03 -0.10918786330E+04  0.11183637538E+04  0.16094811331E+04  0.25500000920E-02 0. -1.
       -2    1    3    3    0  502 -0.38404828181E+03  0.10918786330E+04 -0.93063679512E+03  0.14851858053E+04  0.25500000920E-02 0.  1.
</event>
<event>
 5   0  0.2078009E-06  0.3109679E+04  0.7818609E-02  0.8213087E-01
        2   -1    0    0  501    0  0.00000000000E+00  0.00000000000E+00  0.14827420924E+04  0.14827420924E+04  0.25500000920E-02 0.  1.
       -2   -1    0    0    0  501  0.00000000000E+00  0.00000000000E+00 -0.16304421379E+04  0.16304421379E+04  0.25500000920E-02 0. -1.
    10030    2    1    2    0    0  0.00000000000E+00  0.00000000000E+00 -0.14770004548E+03  0.31131842304E+04  0.31096785604E+04 0.  0.
        3    1    3    3  502    0 -0.88510496865E+03 -0.44234179583E+03 -0.12745553072E+04  0.16135576566E+04  0.10100000352E+00 0. -1.
       -3    1    3    3    0  502  0.88510496865E+03  0.44234179583E+03  0.11268552617E+04  0.14996265738E+04  0.10100000352E+00 0.  1.
</event>
<event>
 5   0  0.7519202E-07  0.3098719E+04  0.7818609E-02  0.8216089E-01
        1   -1    0    0  501    0  0.00000000000E+00  0.00000000000E+00  0.20930990289E+04  0.20930990289E+04  0.50400001928E-02 0. -1.
       -1   -1    0    0    0  501  0.00000000000E+00  0.00000000000E+00 -0.11468714462E+04  0.11468714462E+04  0.50400001928E-02 0.  1.
    10030    2    1    2    0    0  0.00000000000E+00  0.00000000000E+00  0.94622758267E+03  0.32399704752E+04  0.30987194196E+04 0.  0.
        4    1    3    3  502    0  0.41093942265E+03 -0.22308070784E+03 -0.10713367284E+04  0.11689312255E+04  0.12699999809E+01 0.  1.
       -4    1    3    3    0  502 -0.41093942265E+03  0.22308070784E+03  0.20175643111E+04  0.20710392497E+04  0.12699999809E+01 0. -1.
</event>
<event>
 5   0  0.7726743E-07  0.3113962E+04  0.7818609E-02  0.8211916E-01
       -1   -1    0    0    0  501  0.00000000000E+00  0.00000000000E+00  0.12264428059E+04  0.12264428059E+04  0.50400001928E-02 0.  1.
        1   -1    0    0  501    0  0.00000000000E+00  0.00000000000E+00 -0.19766029290E+04  0.19766029290E+04  0.50400001928E-02 0. -1.
    10030    2    1    2    0    0  0.00000000000E+00  0.00000000000E+00 -0.75016012306E+03  0.32030457349E+04  0.31139623906E+04 0.  0.
        1    1    3    3  502    0  0.40239940643E+03  0.17199366029E+03  0.11618826912E+04  0.12415629221E+04  0.50400001928E-02 0.  1.
       -1    1    3    3    0  502 -0.40239940643E+03 -0.17199366029E+03 -0.19120428142E+04  0.19614828128E+04  0.50400001928E-02 0. -1.
</event>
<event>
 5   0  0.7413481E-07  0.3084949E+04  0.7818609E-02  0.8219881E-01
       -1   -1    0    0    0  501  0.00000000000E+00  0.00000000000E+00  0.19058639948E+04  0.19058639948E+04  0.50400001928E-02 0. -1.
        1   -1    0    0  501    0  0.00000000000E+00  0.00000000000E+00 -0.12483718681E+04  0.12483718681E+04  0.50400001928E-02 0.  1.
    10030    2    1    2    0    0  0.00000000000E+00  0.00000000000E+00  0.65749212669E+03  0.31542358629E+04  0.30849486191E+04 0.  0.
        5    1    3    3  502    0 -0.71037215582E+03  0.81301665446E+03  0.14551145096E+04  0.18119064563E+04  0.46999998093E+01 0. -1.
       -5    1    3    3    0  502  0.71037215582E+03 -0.81301665446E+03 -0.79762238294E+03  0.13423294067E+04  0.46999998093E+01 0.  1.
</event>
<event>
 5   0  0.2094135E-06  0.3127779E+04  0.7818609E-02  0.8208155E-01
        2   -1    0    0  501    0  0.00000000000E+00  0.00000000000E+00  0.16117574304E+04  0.16117574304E+04  0.25500000920E-02 0.  1.
       -2   -1    0    0    0  501  0.00000000000E+00  0.00000000000E+00 -0.15174433825E+04  0.15174433825E+04  0.25500000920E-02 0. -1.
    10030    2    1    2    0    0  0.00000000000E+00  0.00000000000E+00  0.94314047896E+02  0.31292008129E+04  0.31277791782E+04 0.  0.
        4    1    3    3  502    0  0.58086508359E+03 -0.64168855620E+03  0.13502775831E+04  0.16038764332E+04  0.12699999809E+01 0. -1.
       -4    1    3    3    0  502 -0.58086508359E+03  0.64168855620E+03 -0.12559635352E+04  0.15253243797E+04  0.12699999809E+01 0.  1.
</event>
<event>
 5   0  0.7656332E-07  0.3097014E+04  0.7818609E-02  0.8216558E-01
        1   -1    0    0  501    0  0.00000000000E+00  0.00000000000E+00  0.16028842185E+04  0.16028842185E+04  0.50400001928E-02 0. -1.
       -1   -1    0    0    0  501  0.00000000000E+00  0.00000000000E+00 -0.14959746643E+04  0.14959746643E+04  0.50400001928E-02 0.  1.
    10030    2    1    2    0    0  0.00000000000E+00  0.00000000000E+00  0.10690955420E+03  0.30988588828E+04  0.30970141625E+04 0.  0.
        2    1    3    3  502    0  0.12075786307E+04  0.84713058056E+03  0.52490186133E+03  0.15656942019E+04  0.25500000920E-02 0. -1.
       -2    1    3    3    0  502 -0.12075786307E+04 -0.84713058056E+03 -0.41799230713E+03  0.15331646809E+04  0.25500000920E-02 0.  1.
</event>
<event>
 5   0  0.2133385E-06  0.3106310E+04  0.7818609E-02  0.8214008E-01
        2   -1    0    0  501    0  0.00000000000E+00  0.00000000000E+00  0.13384978390E+04  0.13384978390E+04  0.25500000920E-02 0.  1.
       -2   -1    0    0    0  501  0.00000000000E+00  0.00000000000E+00 -0.18022373027E+04  0.18022373027E+04  0.25500000920E-02 0. -1.
    10030    2    1    2    0    0  0.00000000000E+00  0.00000000000E+00 -0.46373946377E+03  0.31407351417E+04  0.31063101809E+04 0.  0.
        2    1    3    3  502    0  0.13873897696E+04 -0.30589440140E+03 -0.86641466647E+03  0.16640601347E+04  0.25500000920E-02 0. -1.
       -2    1    3    3    0  502 -0.13873897696E+04  0.30589440140E+03  0.40267520271E+03  0.14766750070E+04  0.25500000920E-02 0.  1.
</event>
<event>
 5   0  0.2067926E-06  0.3097428E+04  0.7818609E-02  0.8216444E-01
        2   -1    0    0  501    0  0.00000000000E+00  0.00000000000E+00  0.23388685742E+04  0.23388685742E+04  0.25500000920E-02 0.  1.
       -2   -1    0    0    0  501  0.00000000000E+00  0.00000000000E+00 -0.10255019596E+04  0.10255019596E+04  0.25500000920E-02 0. -1.
    10030    2    1    2    0    0  0.00000000000E+00  0.00000000000E+00  0.13133666146E+04  0.33643705338E+04  0.30974275172E+04 0.  0.
        1    1    3    3  502    0 -0.73885499461E+03 -0.10710009714E+04  0.15690533898E+04  0.20383518646E+04  0.50400001928E-02 0.  1.
       -1    1    3    3    0  502  0.73885499461E+03  0.10710009714E+04 -0.25568677520E+03  0.13260186691E+04  0.50400001928E-02 0. -1.
</event>
<event>
 5   0  0.2226334E-06  0.3092882E+04  0.7818609E-02  0.8217694E-01
        2   -1    0    0  501    0  0.00000000000E+00  0.00000000000E+00  0.27237273797E+04  0.27237273797E+04  0.25500000920E-02 0.  1.
       -2   -1    0    0    0  501  0.00000000000E+00  0.00000000000E+00 -0.87801729922E+03  0.87801729922E+03  0.25500000920E-02 0. -1.
    10030    2    1    2    0    0  0.00000000000E+00  0.00000000000E+00  0.18457100805E+04  0.36017446789E+04  0.30928819944E+04 0.  0.
        5    1    3    3  502    0 -0.83253791311E+03 -0.92295063750E+03  0.19942834548E+04  0.23499246465E+04  0.46999998093E+01 0.  1.
       -5    1    3    3    0  502  0.83253791311E+03  0.92295063750E+03 -0.14857337434E+03  0.12518200324E+04  0.46999998093E+01 0. -1.
</event>
<event>
 5   0  0.7656332E-07  0.3078605E+04  0.7818609E-02  0.8221634E-01
        1   -1    0    0  501    0  0.00000000000E+00  0.00000000000E+00  0.12202030094E+04  0.12202030094E+04  0.50400001928E-02 0. -1.
       -1   -1    0    0    0  501  0.00000000000E+00  0.00000000000E+00 -0.19418508710E+04  0.19418508710E+04  0.50400001928E-02 0.  1.
    10030    2    1    2    0    0  0.00000000000E+00  0.00000000000E+00 -0.72164786155E+03  0.31620538804E+04  0.30786050585E+04 0.  0.
        2    1    3    3  502    0  0.39488578887E+03 -0.12741060213E+04 -0.11498736030E+04  0.17611048358E+04  0.25500000920E-02 0.  1.
       -2    1    3    3    0  502 -0.39488578887E+03  0.12741060213E+04  0.42822574140E+03  0.14009490446E+04  0.25500000920E-02 0. -1.
</event>
<event>
 5   0  0.7519202E-07  0.3066916E+04  0.7818609E-02  0.8224876E-01
       -1   -1    0    0    0  501  0.00000000000E+00  0.00000000000E+00  0.18719486362E+04  0.18719486362E+04  0.50400001928E-02 0.  1.
        1   -1    0    0  501    0  0.00000000000E+00  0.00000000000E+00 -0.12561744236E+04  0.12561744237E+04  0.50400001928E-02 0. -1.
    10030    2    1    2    0    0  0.00000000000E+00  0.00000000000E+00  0.61577421253E+03  0.31281230598E+04  0.30669163661E+04 0.  0.
        4    1    3    3  502    0 -0.57609501657E+03  0.24397605052E+02  0.17571638121E+04  0.18493531266E+04  0.12699999809E+01 0.  1.
       -4    1    3    3    0  502  0.57609501657E+03 -0.24397605052E+02 -0.11413895996E+04  0.12787699333E+04  0.12699999809E+01 0. -1.
</event>
<event>
 5   0  0.2094135E-06  0.3090271E+04  0.7818609E-02  0.8218413E-01
       -2   -1    0    0    0  501  0.00000000000E+00  0.00000000000E+00  0.13525038696E+04  0.13525038696E+04  0.25500000920E-02 0.  1.
        2   -1    0    0  501    0  0.00000000000E+00  0.00000000000E+00 -0.17652027181E+04  0.17652027181E+04  0.25500000920E-02 0. -1.
    10030    2    1    2    0    0  0.00000000000E+00  0.00000000000E+00 -0.41269884854E+03  0.31177065877E+04  0.30902708663E+04 0.  0.
        4    1    3    3  502    0 -0.22339031884E+03 -0.12495718805E+04  0.68244227496E+03  0.14412016481E+04  0.12699999809E+01 0.  1.
       -4    1    3    3    0  502  0.22339031884E+03  0.12495718805E+04 -0.10951411235E+04  0.16765049395E+04  0.12699999809E+01 0. -1.
</event>
<event>
 5   0  0.2078009E-06  0.3089251E+04  0.7818609E-02  0.8218694E-01
       -2   -1    0    0    0  501  0.00000000000E+00  0.00000000000E+00  0.22929631401E+04  0.22929631401E+04  0.25500000920E-02 0. -1.
        2   -1    0    0  501    0  0.00000000000E+00  0.00000000000E+00 -0.10405175630E+04  0.10405175630E+04  0.25500000920E-02 0.  1.
    10030    2    1    2    0    0  0.00000000000E+00  0.00000000000E+00  0.12524455770E+04  0.33334807031E+04  0.30892513130E+04 0.  0.
        3    1    3    3  502    0  0.42893520487E+02 -0.11997881137E+04  0.16749298720E+04  0.20607574962E+04  0.10100000352E+00 0. -1.
       -3    1    3    3    0  502 -0.42893520487E+02  0.11997881137E+04 -0.42248429498E+03  0.12727232069E+04  0.10100000352E+00 0.  1.
</event>
<event>
 5   0  0.7726743E-07  0.2915994E+04  0.7818609E-02  0.8268135E-01
        1   -1    0    0  501    0  0.00000000000E+00  0.00000000000E+00  0.15149002383E+04  0.15149002383E+04  0.50400001928E-02 0.  1.
       -1   -1    0    0    0  501  0.00000000000E+00  0.00000000000E+00 -0.14032308404E+04  0.14032308404E+04  0.50400001928E-02 0. -1.
    10030    2    1    2    0    0  0.00000000000E+00  0.00000000000E+00  0.11166939788E+03  0.29181310787E+04  0.29159936451E+04 0.  0.
        1    1    3    3  502    0 -0.64726543332E+03 -0.12460550155E+04  0.44874074152E+03  0.14741010467E+04  0.50400001928E-02 0.  1.
       -1    1    3    3    0  502  0.64726543332E+03  0.12460550155E+04 -0.33707134363E+03  0.14440300320E+04  0.50400001928E-02 0. -1.
</event>
<event>
 5   0  0.7561815E-07  0.3112917E+04  0.7818609E-02  0.8212202E-01
       -1   -1    0    0    0  501  0.00000000000E+00  0.00000000000E+00  0.14002614623E+04  0.14002614623E+04  0.50400001928E-02 0. -1.
        1   -1    0    0  501    0  0.00000000000E+00  0.00000000000E+00 -0.17300789213E+04  0.17300789213E+04  0.50400001928E-02 0.  1.
    10030    2    1    2    0    0  0.00000000000E+00  0.00000000000E+00 -0.32981745894E+03  0.31303403836E+04  0.31129168574E+04 0.  0.
        3    1    3    3  502    0  0.46925007198E+03 -0.88240207553E+03 -0.13647904493E+04  0.16915915682E+04  0.10100000352E+00 0.  1.
       -3    1    3    3    0  502 -0.46925007198E+03  0.88240207553E+03  0.10349729903E+04  0.14387488154E+04  0.10100000352E+00 0. -1.
</event>
<event>
 5   0  0.7656332E-07  0.3106371E+04  0.7818609E-02  0.8213992E-01
        1   -1    0    0  501    0  0.00000000000E+00  0.00000000000E+00  0.80044241321E+03  0.80044241323E+03  0.50400001928E-02 0.  1.
       -1   -1    0    0    0  501  0.00000000000E+00  0.00000000000E+00 -0.30138143286E+04  0.30138143286E+04  0.50400001928E-02 0. -1.
    10030    2    1    2    0    0  0.00000000000E+00  0.00000000000E+00 -0.22133719154E+04  0.38142567418E+04  0.31063707533E+04 0.  0.
        2    1    3    3  502    0 -0.11778876095E+04 -0.63331220901E+03 -0.13682919812E+03  0.13443309876E+04  0.25500000920E-02 0.  1.
       -2    1    3    3    0  502  0.11778876095E+04  0.63331220901E+03 -0.20765427173E+04  0.24699257542E+04  0.25500000920E-02 0. -1.
</event>
<event>
 5   0  0.7656332E-07  0.2914402E+04  0.7818609E-02  0.8268605E-01
        1   -1    0    0  501    0  0.00000000000E+00  0.00000000000E+00  0.17022700803E+04  0.17022700803E+04  0.50400001928E-02 0. -1.
       -1   -1    0    0    0  501  0.00000000000E+00  0.00000000000E+00 -0.12474136109E+04  0.12474136109E+04  0.50400001928E-02 0.  1.
    10030    2    1    2    0    0  0.00000000000E+00  0.00000000000E+00  0.45485646937E+03  0.29496836912E+04  0.29144020776E+04 0.  0.
        2    1    3    3  502    0  0.29330259723E+02  0.12922494673E+04 -0.45352122160E+03  0.13698359202E+04  0.25500000920E-02 0. -1.
       -2    1    3    3    0  502 -0.29330259723E+02 -0.12922494673E+04  0.90837769097E+03  0.15798477709E+04  0.25500000920E-02 0.  1.
</event>
<event>
 5   0  0.2226334E-06  0.3109943E+04  0.7818609E-02  0.8213015E-01
       -2   -1    0    0    0  501  0.00000000000E+00  0.00000000000E+00  0.29766813556E+04  0.29766813556E+04  0.25500000920E-02 0. -1.
        2   -1    0    0  501    0  0.00000000000E+00  0.00000000000E+00 -0.81229239693E+03  0.81229239693E+03  0.25500000920E-02 0.  1.
    10030    2    1    2    0    0  0.00000000000E+00  0.00000000000E+00  0.21643889586E+04  0.37889737525E+04  0.31099425289E+04 0.  0.
        5    1    3    3  502    0  0.24649190258E+03 -0.15172678939E+04  0.79632920754E+03  0.17311910399E+04  0.46999998093E+01 0. -1.
       -5    1    3    3    0  502 -0.24649190258E+03  0.15172678939E+04  0.13680597511E+04  0.20577827126E+04  0.46999998093E+01 0.  1.
</event>
<event>
 5   0  0.7413481E-07  0.3086725E+04  0.7818609E-02  0.8219391E-01
       -1   -1    0    0    0  501  0.00000000000E+00  0.00000000000E+00  0.19089086749E+04  0.19089086749E+04  0.50400001928E-02 0.  1.
        1   -1    0    0  501    0  0.00000000000E+00  0.00000000000E+00 -0.12478165918E+04  0.12478165918E+04  0.50400001928E-02 0. -1.
    10030    2    1    2    0    0  0.00000000000E+00  0.00000000000E+00  0.66109208307E+03  0.31567252667E+04  0.30867250715E+04 0.  0.
        5    1    3    3  502    0  0.63354541484E+03  0.11321022800E+04  0.11855135444E+04  0.17574128198E+04  0.46999998093E+01 0.  1.
       -5    1    3    3    0  502 -0.63354541484E+03 -0.11321022800E+04 -0.52442146130E+03  0.13993124470E+04  0.46999998093E+01 0. -1.
</event>
<event>
 5   0  0.7561815E-07  0.3084417E+04  0.7818609E-02  0.8220028E-01
       -1   -1    0    0    0  501  0.00000000000E+00  0.00000000000E+00  0.12632690827E+04  0.12632690827E+04  0.50400001928E-02 0. -1.
        1   -1    0    0  501    0  0.00000000000E+00  0.00000000000E+00 -0.18827396220E+04  0.18827396220E+04  0.50400001928E-02 0.  1.
    10030    2    1    2    0    0  0.00000000000E+00  0.00000000000E+00 -0.61947053924E+03  0.31460087047E+04  0.30844168040E+04 0.  0.
        3    1    3    3  502    0 -0.20446974561E+03 -0.87400199285E+03 -0.15888587739E+04  0.18248724816E+04  0.10100000352E+00 0.  1.
       -3    1    3    3    0  502  0.20446974561E+03  0.87400199285E+03  0.96938823466E+03  0.13211362231E+04  0.10100000352E+00 0. -1.
</event>
<event>
 5   0  0.7413481E-07  0.3042522E+04  0.7818609E-02  0.8231692E-01
       -1   -1    0    0    0  501  0.00000000000E+00  0.00000000000E+00  0.13127377259E+04  0.13127377259E+04  0.50400001928E-02 0.  1.
        1   -1    0    0  501    0  0.00000000000E+00  0.00000000000E+00 -0.17629070672E+04  0.17629070672E+04  0.50400001928E-02 0. -1.
    10030    2    1    2    0    0  0.00000000000E+00  0.00000000000E+00 -0.45016934134E+03  0.30756447931E+04  0.30425217267E+04 0.  0.
        5    1    3    3  502    0  0.50227377645E+03  0.10942028915E+04 -0.11650753961E+04  0.16754049310E+04  0.46999998093E+01 0. -1.
       -5    1    3    3    0  502 -0.50227377645E+03 -0.10942028915E+04  0.71490605480E+03  0.14002398621E+04  0.46999998093E+01 0.  1.
</event>
<event>
 5   0  0.7726743E-07  0.3098847E+04  0.7818609E-02  0.8216054E-01
       -1   -1    0    0    0  501  0.00000000000E+00  0.00000000000E+00  0.84376745958E+03  0.84376745959E+03  0.50400001928E-02 0.  1.
        1   -1    0    0  501    0  0.00000000000E+00  0.00000000000E+00 -0.28452307686E+04  0.28452307686E+04  0.50400001928E-02 0. -1.
    10030    2    1    2    0    0  0.00000000000E+00  0.00000000000E+00 -0.20014633091E+04  0.36889982282E+04  0.30988469711E+04 0.  0.
        1    1    3    3  502    0 -0.12176736768E+04  0.62279910062E+03 -0.18674726986E+04  0.23147488380E+04  0.50400001928E-02 0. -1.
       -1    1    3    3    0  502  0.12176736768E+04 -0.62279910062E+03 -0.13399061044E+03  0.13742493902E+04  0.50400001928E-02 0.  1.
</event>
<event>
 5   0  0.2133385E-06  0.3100527E+04  0.7818609E-02  0.8215593E-01
       -2   -1    0    0    0  501  0.00000000000E+00  0.00000000000E+00  0.16845428666E+04  0.16845428666E+04  0.25500000920E-02 0.  1.
        2   -1    0    0  501    0  0.00000000000E+00  0.00000000000E+00 -0.14266876185E+04  0.14266876185E+04  0.25500000920E-02 0. -1.
    10030    2    1    2    0    0  0.00000000000E+00  0.00000000000E+00  0.25785524817E+03  0.31112304851E+04  0.31005266976E+04 0.  0.
        2    1    3    3  502    0 -0.13104140112E+04  0.11339853020E+03  0.95229204738E+03  0.16238547506E+04  0.25500000920E-02 0.  1.
       -2    1    3    3    0  502  0.13104140112E+04 -0.11339853020E+03 -0.69443679921E+03  0.14873757345E+04  0.25500000920E-02 0. -1.
</event>
<event>
 5   0  0.2067926E-06  0.3128031E+04  0.7818609E-02  0.8208087E-01
        2   -1    0    0  501    0  0.00000000000E+00  0.00000000000E+00  0.17902040557E+04  0.17902040557E+04  0.25500000920E-02 0. -1.
       -2   -1    0    0    0  501  0.00000000000E+00  0.00000000000E+00 -0.13664050819E+04  0.13664050819E+04  0.25500000920E-02 0.  1.
    10030    2    1    2    0    0  0.00000000000E+00  0.00000000000E+00  0.42379897383E+03  0.31566091375E+04  0.31280306388E+04 0.  0.
        1    1    3    3  502    0  0.55519845683E+02 -0.37116285012E+03  0.17440925754E+04  0.17840132360E+04  0.50400001928E-02 0. -1.
       -1    1    3    3    0  502 -0.55519845683E+02  0.37116285012E+03 -0.13202936016E+04  0.13725959016E+04  0.50400001928E-02 0.  1.
</event>
<event>
 5   0  0.7413481E-07  0.3093438E+04  0.7818609E-02  0.8217541E-01
        1   -1    0    0  501    0  0.00000000000E+00  0.00000000000E+00  0.21513317243E+04  0.21513317243E+04  0.50400001928E-02 0.  1.
       -1   -1    0    0    0  501  0.00000000000E+00  0.00000000000E+00 -0.11120274718E+04  0.11120274718E+04  0.50400001928E-02 0. -1.
    10030    2    1    2    0    0  0.00000000000E+00  0.00000000000E+00  0.10393042525E+04  0.32633591961E+04  0.30934382026E+04 0.  0.
        5    1    3    3  502    0  0.90035406333E+03  0.11896916334E+04  0.89434512858E+02  0.14946652615E+04  0.46999998093E+01 0. -1.
       -5    1    3    3    0  502 -0.90035406333E+03 -0.11896916334E+04  0.94986973968E+03  0.17686939346E+04  0.46999998093E+01 0.  1.
</event>
<event>
 5   0  0.7656332E-07  0.2960781E+04  0.7818609E-02  0.8255020E-01
        1   -1    0    0  501    0  0.00000000000E+00  0.00000000000E+00  0.12449800632E+04  0.12449800632E+04  0.50400001928E-02 0.  1.
       -1   -1    0    0    0  501  0.00000000000E+00  0.00000000000E+00 -0.17603135818E+04  0.17603135819E+04  0.50400001928E-02 0. -1.
    10030    2    1    2    0    0  0.00000000000E+00  0.00000000000E+00 -0.51533351866E+03  0.30052936450E+04  0.29607805149E+04 0.  0.
        2    1    3    3  502    0  0.67514960647E+02 -0.47939001294E+03 -0.16776928841E+04  0.17461461760E+04  0.25500000920E-02 0. -1.
       -2    1    3    3    0  502 -0.67514960647E+02  0.47939001294E+03  0.11623593655E+04  0.12591474691E+04  0.25500000920E-02 0.  1.
</event>
<event>
 5   0  0.7561815E-07  0.3096890E+04  0.7818609E-02  0.8216592E-01
       -1   -1    0    0    0  501  0.00000000000E+00  0.00000000000E+00  0.18675778524E+04  0.18675778524E+04  0.50400001928E-02 0.  1.
        1   -1    0    0  501    0  0.00000000000E+00  0.00000000000E+00 -0.12838455186E+04  0.12838455186E+04  0.50400001928E-02 0. -1.
    10030    2    1    2    0    0  0.00000000000E+00  0.00000000000E+00  0.58373233379E+03  0.31514233711E+04  0.30968897020E+04 0.  0.
        3    1    3    3  502    0 -0.10290127032E+04 -0.25136365094E+03  0.14411928271E+04  0.17885993413E+04  0.10100000352E+00 0.  1.
       -3    1    3    3    0  502  0.10290127032E+04  0.25136365094E+03 -0.85746049333E+03  0.13628240298E+04  0.10100000352E+00 0. -1.
</event>
<event>
 5   0  0.2133385E-06  0.3109849E+04  0.7818609E-02  0.8213040E-01
       -2   -1    0    0    0  501  0.00000000000E+00  0.00000000000E+00  0.87961316134E+03  0.87961316135E+03  0.25500000920E-02 0.  1.
        2   -1    0    0  501    0  0.00000000000E+00  0.00000000000E+00 -0.27486964501E+04  0.27486964501E+04  0.25500000920E-02 0. -1.
    10030    2    1    2    0    0  0.00000000000E+00  0.00000000000E+00 -0.18690832888E+04  0.36283096115E+04  0.31098485970E+04 0.  0.
        2    1    3    3  502    0  0.14953583664E+04  0.15594944604E+03 -0.47170280923E+03  0.15757285343E+04  0.25500000920E-02 0.  1.
       -2    1    3    3    0  502 -0.14953583664E+04 -0.15594944604E+03 -0.13973804795E+04  0.20525810771E+04  0.25500000920E-02 0. -1.
</event>
<event>
 5   0  0.2067926E-06  0.3112639E+04  0.7818609E-02  0.8212278E-01
        2   -1    0    0  501    0  0.00000000000E+00  0.00000000000E+00  0.18432832466E+04  0.18432832466E+04  0.25500000920E-02 0. -1.
       -2   -1    0    0    0  501  0.00000000000E+00  0.00000000000E+00 -0.13140301849E+04  0.13140301849E+04  0.25500000920E-02 0.  1.
    10030    2    1    2    0    0  0.00000000000E+00  0.00000000000E+00  0.52925306169E+03  0.31573134315E+04  0.31126386397E+04 0.  0.
        1    1    3    3  502    0  0.48217389864E+03  0.13187091753E+04 -0.41630887821E+03  0.14645131067E+04  0.50400001928E-02 0.  1.
       -1    1    3    3    0  502 -0.48217389864E+03 -0.13187091753E+04  0.94556193990E+03  0.16928003248E+04  0.50400001928E-02 0. -1.
</event>
<event>
 5   0  0.7726743E-07  0.3083275E+04  0.7818609E-02  0.8220343E-01
       -1   -1    0    0    0  501  0.00000000000E+00  0.00000000000E+00  0.13243068221E+04  0.13243068221E+04  0.50400001928E-02 0.  1.
        1   -1    0    0  501    0  0.00000000000E+00  0.00000000000E+00 -0.17946336514E+04  0.17946336514E+04  0.50400001928E-02 0. -1.
    10030    2    1    2    0    0  0.00000000000E+00  0.00000000000E+00 -0.47032682933E+03  0.31189404736E+04  0.30832746150E+04 0.  0.
        1    1    3    3  502    0 -0.95749836540E+03 -0.11590080934E+04  0.11016906765E+03  0.15073951386E+04  0.50400001928E-02 0.  1.
       -1    1    3    3    0  502  0.95749836540E+03  0.11590080934E+04 -0.58049589698E+03  0.16115453350E+04  0.50400001928E-02 0. -1.
</event>
<event>
 5   0  0.2133385E-06  0.3105676E+04  0.7818609E-02  0.8214182E-01
       -2   -1    0    0    0  501  0.00000000000E+00  0.00000000000E+00  0.99942494482E+03  0.99942494482E+03  0.25500000920E-02 0.  1.
        2   -1    0    0  501    0  0.00000000000E+00  0.00000000000E+00 -0.24126925355E+04  0.24126925355E+04  0.25500000920E-02 0. -1.
    10030    2    1    2    0    0  0.00000000000E+00  0.00000000000E+00 -0.14132675907E+04  0.34121174803E+04  0.31056755170E+04 0.  0.
        2    1    3    3  502    0 -0.14988061138E+04 -0.39850857964E+03 -0.79227557637E+03  0.17415307760E+04  0.25500000920E-02 0.  1.
       -2    1    3    3    0  502  0.14988061138E+04  0.39850857964E+03 -0.62099201432E+03  0.16705867043E+04  0.25500000920E-02 0. -1.
</event>
<event>
 5   0  0.7519202E-07  0.3092777E+04  0.7818609E-02  0.8217723E-01
       -1   -1    0    0    0  501  0.00000000000E+00  0.00000000000E+00  0.11654280229E+04  0.11654280229E+04  0.50400001928E-02 0. -1.
        1   -1    0    0  501    0  0.00000000000E+00  0.00000000000E+00 -0.20518784966E+04  0.20518784966E+04  0.50400001928E-02 0.  1.
    10030    2    1    2    0    0  0.00000000000E+00  0.00000000000E+00 -0.88645047363E+03  0.32173065195E+04  0.30927765516E+04 0.  0.
        4    1    3    3  502    0  0.47851138055E+03 -0.11470297681E+04  0.51396797573E+03  0.13449219766E+04  0.12699999809E+01 0. -1.
       -4    1    3    3    0  502 -0.47851138055E+03  0.11470297681E+04 -0.14004184494E+04  0.18723845429E+04  0.12699999809E+01 0.  1.
</event>
<event>
 5   0  0.7561815E-07  0.3096850E+04  0.7818609E-02  0.8216603E-01
       -1   -1    0    0    0  501  0.00000000000E+00  0.00000000000E+00  0.15343288951E+04  0.15343288951E+04  0.50400001928E-02 0. -1.
        1   -1    0    0  501    0  0.00000000000E+00  0.00000000000E+00 -0.15626507912E+04  0.15626507912E+04  0.50400001928E-02 0.  1.
    10030    2    1    2    0    0  0.00000000000E+00  0.00000000000E+00 -0.28321896036E+02  0.30969796863E+04  0.30968501817E+04 0.  0.
        3    1    3    3  502    0  0.24591559665E+03  0.11979833841E+04 -0.96392777335E+03  0.15571754659E+04  0.10100000352E+00 0.  1.
       -3    1    3    3    0  502 -0.24591559665E+03 -0.11979833841E+04  0.93560587731E+03  0.15398042204E+04  0.10100000352E+00 0. -1.
</event>
<event>
 5   0  0.2226334E-06  0.3112975E+04  0.7818609E-02  0.8212186E-01
        2   -1    0    0  501    0  0.00000000000E+00  0.00000000000E+00  0.15851832823E+04  0.15851832823E+04  0.25500000920E-02 0.  1.
       -2   -1    0    0    0  501  0.00000000000E+00  0.00000000000E+00 -0.15283114713E+04  0.15283114713E+04  0.25500000920E-02 0. -1.
    10030    2    1    2    0    0  0.00000000000E+00  0.00000000000E+00  0.56871810993E+02  0.31134947537E+04  0.31129752935E+04 0.  0.
        5    1    3    3  502    0 -0.12237923116E+04  0.48325434484E+03 -0.80322514138E+03  0.15415560649E+04  0.46999998093E+01 0. -1.
       -5    1    3    3    0  502  0.12237923116E+04 -0.48325434484E+03  0.86009695237E+03  0.15719386887E+04  0.46999998093E+01 0.  1.
</event>
<event>
 5   0  0.2133385E-06  0.3110768E+04  0.7818609E-02  0.8212789E-01
       -2   -1    0    0    0  501  0.00000000000E+00  0.00000000000E+00  0.10933269524E+04  0.10933269524E+04  0.25500000920E-02 0.  1.
        2   -1    0    0  501    0  0.00000000000E+00  0.00000000000E+00 -0.22127138717E+04  0.22127138717E+04  0.25500000920E-02 0. -1.
    10030    2    1    2    0    0  0.00000000000E+00  0.00000000000E+00 -0.11193869193E+04  0.33060408241E+04  0.31107682099E+04 0.  0.
        2    1    3    3  502    0  0.72589062792E+02  0.69125496480E+03  0.91909608750E+03  0.11523194941E+04  0.25500000920E-02 0.  1.
       -2    1    3    3    0  502 -0.72589062792E+02 -0.69125496480E+03 -0.20384830068E+04  0.21537213300E+04  0.25500000920E-02 0. -1.
</event>
<event>
 5   0  0.6979625E-07  0.3036969E+04  0.7818609E-02  0.8233252E-01
        3   -1    0    0  501    0  0.00000000000E+00  0.00000000000E+00  0.99217041292E+03  0.99217041807E+03  0.10100000352E+00 0.  1.
       -3   -1    0    0    0  501  0.00000000000E+00  0.00000000000E+00 -0.23239917268E+04  0.23239917290E+04  0.10100000352E+00 0. -1.
    10030    2    1    2    0    0  0.00000000000E+00  0.00000000000E+00 -0.13318213139E+04  0.33161621470E+04  0.30369694390E+04 0.  0.
        1    1    3    3  502    0 -0.11901737398E+04 -0.52677182191E+03  0.18816797729E+03  0.13150700631E+04  0.50400001928E-02 0.  1.
       -1    1    3    3    0  502  0.11901737398E+04  0.52677182191E+03 -0.15199892911E+04  0.20010920839E+04  0.50400001928E-02 0. -1.
</event>
<event>
 5   0  0.7413481E-07  0.3112400E+04  0.7818609E-02  0.8212343E-01
        1   -1    0    0  501    0  0.00000000000E+00  0.00000000000E+00  0.10911029162E+04  0.10911029162E+04  0.50400001928E-02 0.  1.
       -1   -1    0    0    0  501  0.00000000000E+00  0.00000000000E+00 -0.22195505730E+04  0.22195505730E+04  0.50400001928E-02 0. -1.
    10030    2    1    2    0    0  0.00000000000E+00  0.00000000000E+00 -0.11284476568E+04  0.33106534892E+04  0.31123997833E+04 0.  0.
        5    1    3    3  502    0  0.45891672121E+03 -0.14396082920E+04 -0.96031306681E+03  0.17903351272E+04  0.46999998093E+01 0.  1.
       -5    1    3    3    0  502 -0.45891672121E+03  0.14396082920E+04 -0.16813458998E+03  0.15203183620E+04  0.46999998093E+01 0. -1.
</event>
<event>
 5   0  0.7656332E-07  0.3071239E+04  0.7818609E-02  0.8223676E-01
        1   -1    0    0  501    0  0.00000000000E+00  0.00000000000E+00  0.16385964831E+04  0.16385964831E+04  0.50400001928E-02 0.  1.
       -1   -1    0    0    0  501  0.00000000000E+00  0.00000000000E+00 -0.14391136473E+04  0.14391136473E+04  0.50400001928E-02 0. -1.
    10030    2    1    2    0    0  0.00000000000E+00  0.00000000000E+00  0.19948283577E+03  0.30777101304E+04  0.30712385523E+04 0.  0.
        2    1    3    3  502    0  0.40795589165E+03 -0.14704841796E+04  0.27149343181E+03  0.15499872308E+04  0.25500000920E-02 0. -1.
       -2    1    3    3    0  502 -0.40795589165E+03  0.14704841796E+04 -0.72010596031E+02  0.15277228996E+04  0.25500000920E-02 0.  1.
</event>
<event>
 5   0  0.7726743E-07  0.3089424E+04  0.7818609E-02  0.8218646E-01
        1   -1    0    0  501    0  0.00000000000E+00  0.00000000000E+00  0.11498014807E+04  0.11498014807E+04  0.50400001928E-02 0.  1.
       -1   -1    0    0    0  501  0.00000000000E+00  0.00000000000E+00 -0.20752588876E+04  0.20752588876E+04  0.50400001928E-02 0. -1.
    10030    2    1    2    0    0  0.00000000000E+00  0.00000000000E+00 -0.92545740691E+03  0.32250603683E+04  0.30894243747E+04 0.  0.
        1    1    3    3  502    0  0.65354912184E+03  0.12872486885E+04  0.11094352192E+03  0.14479102548E+04  0.50400001928E-02 0.  1.
       -1    1    3    3    0  502 -0.65354912184E+03 -0.12872486885E+04 -0.10364009288E+04  0.17771501135E+04  0.50400001928E-02 0. -1.
</event>
<event>
 5   0  0.2133385E-06  0.3086973E+04  0.7818609E-02  0.8219322E-01
        2   -1    0    0  501    0  0.00000000000E+00  0.00000000000E+00  0.19359438481E+04  0.19359438481E+04  0.25500000920E-02 0.  1.
       -2   -1    0    0    0  501  0.00000000000E+00  0.00000000000E+00 -0.12305884601E+04  0.12305884601E+04  0.25500000920E-02 0. -1.
    10030    2    1    2    0    0  0.00000000000E+00  0.00000000000E+00  0.70535538806E+03  0.31665323082E+04  0.30869727299E+04 0.  0.
        2    1    3    3  502    0  0.34479769125E+03  0.46303768702E+03 -0.11156688123E+04  0.12561871860E+04  0.25500000920E-02 0. -1.
       -2    1    3    3    0  502 -0.34479769125E+03 -0.46303768702E+03  0.18210242004E+04  0.19103451222E+04  0.25500000920E-02 0.  1.
</event>
<event>
 5   0  0.7726743E-07  0.3125100E+04  0.7818609E-02  0.8208883E-01
        1   -1    0    0  501    0  0.00000000000E+00  0.00000000000E+00  0.16062382726E+04  0.16062382726E+04  0.50400001928E-02 0. -1.
       -1   -1    0    0    0  501  0.00000000000E+00  0.00000000000E+00 -0.15200503864E+04  0.15200503864E+04  0.50400001928E-02 0.  1.
    10030    2    1    2    0    0  0.00000000000E+00  0.00000000000E+00  0.86187886206E+02  0.31262886590E+04  0.31251003868E+04 0.  0.
        1    1    3    3  502    0 -0.11646168419E+04  0.58168117610E+02  0.10836082664E+04  0.15918300140E+04  0.50400001928E-02 0. -1.
       -1    1    3    3    0  502  0.11646168419E+04 -0.58168117610E+02 -0.99742038017E+03  0.15344586450E+04  0.50400001928E-02 0.  1.
</event>
<event>
 5   0  0.2226334E-06  0.3045280E+04  0.7818609E-02  0.8230918E-01
        2   -1    0    0  501    0  0.00000000000E+00  0.00000000000E+00  0.19141364897E+04  0.19141364897E+04  0.25500000920E-02 0.  1.
       -2   -1    0    0    0  501  0.00000000000E+00  0.00000000000E+00 -0.12112156656E+04  0.12112156656E+04  0.25500000920E-02 0. -1.
    10030    2    1    2    0    0  0.00000000000E+00  0.00000000000E+00  0.70292082408E+03  0.31253521553E+04  0.30452796932E+04 0.  0.
        5    1    3    3  502    0 -0.68966235523E+03 -0.92776224937E+03  0.13684929007E+04  0.17914161618E+04  0.46999998093E+01 0.  1.
       -5    1    3    3    0  502  0.68966235523E+03  0.92776224937E+03 -0.66557207663E+03  0.13339359935E+04  0.46999998093E+01 0. -1.
</event>
<event>
 5   0  0.7561815E-07  0.3090469E+04  0.7818609E-02  0.8218358E-01
        1   -1    0    0  501    0  0.00000000000E+00  0.00000000000E+00  0.20394233675E+04  0.20394233676E+04  0.50400001928E-02 0.  1.
       -1   -1    0    0    0  501  0.00000000000E+00  0.00000000000E+00 -0.11707967856E+04  0.11707967856E+04  0.50400001928E-02 0. -1.
    10030    2    1    2    0    0  0.00000000000E+00  0.00000000000E+00  0.86862658199E+03  0.32102201531E+04  0.30904694292E+04 0.  0.
        3    1    3    3  502    0  0.42424163489E+03  0.31469012743E+03 -0.10741051340E+04  0.11969597697E+04  0.10100000352E+00 0. -1.
       -3    1    3    3    0  502 -0.42424163489E+03 -0.31469012743E+03  0.19427317160E+04  0.20132603835E+04  0.10100000352E+00 0.  1.
</event>
<event>
 5   0  0.6979625E-07  0.3104964E+04  0.7818609E-02  0.8214377E-01
       -3   -1    0    0    0  501  0.00000000000E+00  0.00000000000E+00  0.12137065952E+04  0.12137065994E+04  0.10100000352E+00 0.  1.
        3   -1    0    0  501    0  0.00000000000E+00  0.00000000000E+00 -0.19858177329E+04  0.19858177355E+04  0.10100000352E+00 0. -1.
    10030    2    1    2    0    0  0.00000000000E+00  0.00000000000E+00 -0.77211113771E+03  0.31995243349E+04  0.31049638260E+04 0.  0.
        4    1    3    3  502    0 -0.62205254653E+03 -0.81851766503E+03 -0.15847883276E+04  0.18890410781E+04  0.12699999809E+01 0. -1.
       -4    1    3    3    0  502  0.62205254653E+03  0.81851766503E+03  0.81267718987E+03  0.13104832568E+04  0.12699999809E+01 0.  1.
</event>
<event>
 5   0  0.7413481E-07  0.3101919E+04  0.7818609E-02  0.8215212E-01
       -1   -1    0    0    0  501  0.00000000000E+00  0.00000000000E+00  0.16216847328E+04  0.16216847328E+04  0.50400001928E-02 0.  1.
        1   -1    0    0  501    0  0.00000000000E+00  0.00000000000E+00 -0.14833185062E+04  0.14833185062E+04  0.50400001928E-02 0. -1.
    10030    2    1    2    0    0  0.00000000000E+00  0.00000000000E+00  0.13836622661E+03  0.31050032390E+04  0.31019187452E+04 0.  0.
        5    1    3    3  502    0  0.15271881422E+04  0.12478149475E+03 -0.17101141179E+03  0.15417979881E+04  0.46999998093E+01 0.  1.
       -5    1    3    3    0  502 -0.15271881422E+04 -0.12478149475E+03  0.30937763840E+03  0.15632052509E+04  0.46999998093E+01 0. -1.
</event>
<event>
 5   0  0.2133385E-06  0.3161733E+04  0.7818609E-02  0.8198997E-01
       -2   -1    0    0    0  501  0.00000000000E+00  0.00000000000E+00  0.12101861111E+04  0.12101861111E+04  0.25500000920E-02 0.  1.
        2   -1    0    0  501    0  0.00000000000E+00  0.00000000000E+00 -0.20650861272E+04  0.20650861272E+04  0.25500000920E-02 0. -1.
    10030    2    1    2    0    0  0.00000000000E+00  0.00000000000E+00 -0.85490001608E+03  0.32752722383E+04  0.31617327840E+04 0.  0.
        2    1    3    3  502    0  0.15391613040E+04  0.26975161147E+03 -0.17936058281E+03  0.15728806917E+04  0.25500000920E-02 0.  1.
       -2    1    3    3    0  502 -0.15391613040E+04 -0.26975161147E+03 -0.67553943327E+03  0.17023915465E+04  0.25500000920E-02 0. -1.
</event>
<event>
 5   0  0.6979625E-07  0.3139729E+04  0.7818609E-02  0.8204918E-01
       -3   -1    0    0    0  501  0.00000000000E+00  0.00000000000E+00  0.15911590784E+04  0.15911590816E+04  0.10100000352E+00 0. -1.
        3   -1    0    0  501    0  0.00000000000E+00  0.00000000000E+00 -0.15488548514E+04  0.15488548547E+04  0.10100000352E+00 0.  1.
    10030    2    1    2    0    0  0.00000000000E+00  0.00000000000E+00  0.42304226972E+02  0.31400139364E+04  0.31397289490E+04 0.  0.
        1    1    3    3  502    0 -0.23710133609E+03  0.15486418426E+04  0.12099036946E+03  0.15713520515E+04  0.50400001928E-02 0.  1.
       -1    1    3    3    0  502  0.23710133609E+03 -0.15486418426E+04 -0.78686142484E+02  0.15686618849E+04  0.50400001928E-02 0. -1.
</event>
<event>
 5   0  0.7726743E-07  0.3098092E+04  0.7818609E-02  0.8216262E-01
        1   -1    0    0  501    0  0.00000000000E+00  0.00000000000E+00  0.19945365263E+04  0.19945365263E+04  0.50400001928E-02 0.  1.
       -1   -1    0    0    0  501  0.00000000000E+00  0.00000000000E+00 -0.12030580501E+04  0.12030580501E+04  0.50400001928E-02 0. -1.
    10030    2    1    2    0    0  0.00000000000E+00  0.00000000000E+00  0.79147847622E+03  0.31975945764E+04  0.30980918154E+04 0.  0.
        1    1    3    3  502    0 -0.17662361682E+03  0.11435378661E+04 -0.66722571060E+03  0.13356889242E+04  0.50400001928E-02 0. -1.
       -1    1    3    3    0  502  0.17662361682E+03 -0.11435378661E+04  0.14587041868E+04  0.18619056523E+04  0.50400001928E-02 0.  1.
</event>
<event>
 5   0  0.2133385E-06  0.3096697E+04  0.7818609E-02  0.8216645E-01
        2   -1    0    0  501    0  0.00000000000E+00  0.00000000000E+00  0.23461917631E+04  0.23461917631E+04  0.25500000920E-02 0. -1.
       -2   -1    0    0    0  501  0.00000000000E+00  0.00000000000E+00 -0.10218186232E+04  0.10218186232E+04  0.25500000920E-02 0.  1.
    10030    2    1    2    0    0  0.00000000000E+00  0.00000000000E+00  0.13243731399E+04  0.33680103863E+04  0.30966965865E+04 0.  0.
        2    1    3    3  502    0 -0.77411962659E+03  0.52589142296E+03 -0.67940163042E+03  0.11564642495E+04  0.25500000920E-02 0.  1.
       -2    1    3    3    0  502  0.77411962659E+03 -0.52589142296E+03  0.20037747703E+04  0.22115461368E+04  0.25500000920E-02 0. -1.
</event>
<event>
 5   0  0.7656332E-07  0.3095305E+04  0.7818609E-02  0.8217028E-01
        1   -1    0    0  501    0  0.00000000000E+00  0.00000000000E+00  0.18011560720E+04  0.18011560720E+04  0.50400001928E-02 0. -1.
       -1   -1    0    0    0  501  0.00000000000E+00  0.00000000000E+00 -0.13298281062E+04  0.13298281062E+04  0.50400001928E-02 0.  1.
    10030    2    1    2    0    0  0.00000000000E+00  0.00000000000E+00  0.47132796579E+03  0.31309841782E+04  0.30953048109E+04 0.  0.
        2    1    3    3  502    0 -0.38747255042E+03  0.63221026278E+03  0.16097789876E+04  0.17723468009E+04  0.25500000920E-02 0. -1.
       -2    1    3    3    0  502  0.38747255042E+03 -0.63221026278E+03 -0.11384510219E+04  0.13586373772E+04  0.25500000920E-02 0.  1.
</event>
<event>
 5   0  0.7656332E-07  0.3125384E+04  0.7818609E-02  0.8208806E-01
        1   -1    0    0  501    0  0.00000000000E+00  0.00000000000E+00  0.24377931501E+04  0.24377931501E+04  0.50400001928E-02 0.  1.
       -1   -1    0    0    0  501  0.00000000000E+00  0.00000000000E+00 -0.10017281171E+04  0.10017281171E+04  0.50400001928E-02 0. -1.
    10030    2    1    2    0    0  0.00000000000E+00  0.00000000000E+00  0.14360650330E+04  0.34395212672E+04  0.31253837794E+04 0.  0.
        2    1    3    3  502    0  0.93411737452E+03 -0.32628202545E+03  0.20491379656E+04  0.22755222766E+04  0.25500000920E-02 0.  1.
       -2    1    3    3    0  502 -0.93411737452E+03  0.32628202545E+03 -0.61307293255E+03  0.11639989906E+04  0.25500000920E-02 0. -1.
</event>
<event>
 5   0  0.7519202E-07  0.3073705E+04  0.7818609E-02  0.8222992E-01
       -1   -1    0    0    0  501  0.00000000000E+00  0.00000000000E+00  0.16644042490E+04  0.16644042490E+04  0.50400001928E-02 0.  1.
        1   -1    0    0  501    0  0.00000000000E+00  0.00000000000E+00 -0.14190756695E+04  0.14190756695E+04  0.50400001928E-02 0. -1.
    10030    2    1    2    0    0  0.00000000000E+00  0.00000000000E+00  0.24532857950E+03  0.30834799184E+04  0.30737049786E+04 0.  0.
        4    1    3    3  502    0 -0.10089567549E+04 -0.18209522443E+03 -0.10258616058E+04  0.14503606625E+04  0.12699999809E+01 0. -1.
       -4    1    3    3    0  502  0.10089567549E+04  0.18209522443E+03  0.12711901853E+04  0.16331192560E+04  0.12699999809E+01 0.  1.
</event>
<event>
 5   0  0.7519202E-07  0.3094012E+04  0.7818609E-02  0.8217383E-01
        1   -1    0    0  501    0  0.00000000000E+00  0.00000000000E+00  0.16778506595E+04  0.16778506596E+04  0.50400001928E-02 0. -1.
       -1   -1    0    0    0  501  0.00000000000E+00  0.00000000000E+00 -0.14263653336E+04  0.14263653336E+04  0.50400001928E-02 0.  1.
    10030    2    1    2    0    0  0.00000000000E+00  0.00000000000E+00  0.25148532592E+03  0.31042159932E+04  0.30940122920E+04 0.  0.
        4    1    3    3  502    0 -0.14723122029E+03 -0.82502606069E+03  0.14303699773E+04  0.16578012300E+04  0.12699999809E+01 0. -1.
       -4    1    3    3    0  502  0.14723122029E+03  0.82502606069E+03 -0.11788846514E+04  0.14464147632E+04  0.12699999809E+01 0.  1.
</event>
<event>
 5   0  0.7413481E-07  0.3051424E+04  0.7818609E-02  0.8229197E-01
        1   -1    0    0  501    0  0.00000000000E+00  0.00000000000E+00  0.15729734302E+04  0.15729734303E+04  0.50400001928E-02 0.  1.
       -1   -1    0    0    0  501  0.00000000000E+00  0.00000000000E+00 -0.14798707469E+04  0.14798707469E+04  0.50400001928E-02 0. -1.
    10030    2    1    2    0    0  0.00000000000E+00  0.00000000000E+00  0.93102683354E+02  0.30528441772E+04  0.30514241692E+04 0.  0.
        5    1    3    3  502    0  0.14365654635E+04  0.47397321633E+03  0.24514896822E+03  0.15324787265E+04  0.46999998093E+01 0. -1.
       -5    1    3    3    0  502 -0.14365654635E+04 -0.47397321633E+03 -0.15204628486E+03  0.15203654506E+04  0.46999998093E+01 0.  1.
</event>
<event>
 5   0  0.7561815E-07  0.3108301E+04  0.7818609E-02  0.8213463E-01
       -1   -1    0    0    0  501  0.00000000000E+00  0.00000000000E+00  0.98832941292E+03  0.98832941293E+03  0.50400001928E-02 0. -1.
        1   -1    0    0  501    0  0.00000000000E+00  0.00000000000E+00 -0.24439060567E+04  0.24439060567E+04  0.50400001928E-02 0.  1.
    10030    2    1    2    0    0  0.00000000000E+00  0.00000000000E+00 -0.14555766438E+04  0.34322354697E+04  0.31083012970E+04 0.  0.
        3    1    3    3  502    0 -0.13472463285E+04  0.59555629839E+03 -0.12750431348E+04  0.19482030130E+04  0.10100000352E+00 0.  1.
       -3    1    3    3    0  502  0.13472463285E+04 -0.59555629839E+03 -0.18053350900E+03  0.14840324566E+04  0.10100000352E+00 0. -1.
</event>
<event>
 5   0  0.2226334E-06  0.3070564E+04  0.7818609E-02  0.8223863E-01
       -2   -1    0    0    0  501  0.00000000000E+00  0.00000000000E+00  0.99001629168E+03  0.99001629169E+03  0.25500000920E-02 0. -1.
        2   -1    0    0  501    0  0.00000000000E+00  0.00000000000E+00 -0.23808609307E+04  0.23808609307E+04  0.25500000920E-02 0.  1.
    10030    2    1    2    0    0  0.00000000000E+00  0.00000000000E+00 -0.13908446390E+04  0.33708772224E+04  0.30705641890E+04 0.  0.
        5    1    3    3  502    0 -0.13302062503E+04 -0.32377963809E+03 -0.14582080874E+04  0.20001687025E+04  0.46999998093E+01 0.  1.
       -5    1    3    3    0  502  0.13302062503E+04  0.32377963809E+03  0.67363448393E+02  0.13707085199E+04  0.46999998093E+01 0. -1.
</event>
<event>
 5   0  0.7413481E-07  0.3076140E+04  0.7818609E-02  0.8222317E-01
       -1   -1    0    0    0  501  0.00000000000E+00  0.00000000000E+00  0.14670885293E+04  0.14670885293E+04  0.50400001928E-02 0.  1.
        1   -1    0    0  501    0  0.00000000000E+00  0.00000000000E+00 -0.16124861329E+04  0.16124861329E+04  0.50400001928E-02 0. -1.
    10030    2    1    2    0    0  0.00000000000E+00  0.00000000000E+00 -0.14539760365E+03  0.30795746622E+04  0.30761403799E+04 0.  0.
        5    1    3    3  502    0 -0.91018985968E+03 -0.92606622881E+03 -0.89799381395E+03  0.15787524254E+04  0.46999998093E+01 0. -1.
       -5    1    3    3    0  502  0.91018985968E+03  0.92606622881E+03  0.75259621030E+03  0.15008222368E+04  0.46999998093E+01 0.  1.
</event>
<event>
 5   0  0.2067926E-06  0.3103646E+04  0.7818609E-02  0.8214738E-01
        2   -1    0    0  501    0  0.00000000000E+00  0.00000000000E+00  0.23155190259E+04  0.23155190260E+04  0.25500000920E-02 0.  1.
       -2   -1    0    0    0  501  0.00000000000E+00  0.00000000000E+00 -0.10400062054E+04  0.10400062054E+04  0.25500000920E-02 0. -1.
    10030    2    1    2    0    0  0.00000000000E+00  0.00000000000E+00  0.12755128205E+04  0.33555252314E+04  0.31036456987E+04 0.  0.
        1    1    3    3  502    0  0.12040872451E+04  0.41582832644E+03  0.15959161733E+04  0.20419813229E+04  0.50400001928E-02 0.  1.
       -1    1    3    3    0  502 -0.12040872451E+04 -0.41582832644E+03 -0.32040335280E+03  0.13135439085E+04  0.50400001928E-02 0. -1.
</event>
<event>
 5   0  0.7561815E-07  0.2957287E+04  0.7818609E-02  0.8256034E-01
        1   -1    0    0  501    0  0.00000000000E+00  0.00000000000E+00  0.10909955162E+04  0.10909955162E+04  0.50400001928E-02 0. -1.
       -1   -1    0    0    0  501  0.00000000000E+00  0.00000000000E+00 -0.20040284675E+04  0.20040284676E+04  0.50400001928E-02 0.  1.
    10030    2    1    2    0    0  0.00000000000E+00  0.00000000000E+00 -0.91303295135E+03  0.30950239838E+04  0.29572866432E+04 0.  0.
        3    1    3    3  502    0  0.75217604276E+03 -0.74678568056E+03 -0.15355193575E+04  0.18658181475E+04  0.10100000352E+00 0.  1.
       -3    1    3    3    0  502 -0.75217604276E+03  0.74678568056E+03  0.62248640612E+03  0.12292058363E+04  0.10100000352E+00 0. -1.
</event>
<event>
 5   0  0.7519202E-07  0.3131228E+04  0.7818609E-02  0.8207220E-01
       -1   -1    0    0    0  501  0.00000000000E+00  0.00000000000E+00  0.10431179018E+04  0.10431179018E+04  0.50400001928E-02 0.  1.
        1   -1    0    0  501    0  0.00000000000E+00  0.00000000000E+00 -0.23498273161E+04  0.23498273161E+04  0.50400001928E-02 0. -1.
    10030    2    1    2    0    0  0.00000000000E+00  0.00000000000E+00 -0.13067094144E+04  0.33929452179E+04  0.31312278355E+04 0.  0.
        4    1    3    3  502    0 -0.16262456733E+03  0.40693540643E+03  0.97530410396E+03  0.10692347184E+04  0.12699999809E+01 0.  1.
       -4    1    3    3    0  502  0.16262456733E+03 -0.40693540643E+03 -0.22820135183E+04  0.23237104995E+04  0.12699999809E+01 0. -1.
</event>
<event>
 5   0  0.2067926E-06  0.3049916E+04  0.7818609E-02  0.8229619E-01
       -2   -1    0    0    0  501  0.00000000000E+00  0.00000000000E+00  0.12454936269E+04  0.12454936269E+04  0.25500000920E-02 0. -1.
        2   -1    0    0  501    0  0.00000000000E+00  0.00000000000E+00 -0.18671286142E+04  0.18671286142E+04  0.25500000920E-02 0.  1.
    10030    2    1    2    0    0  0.00000000000E+00  0.00000000000E+00 -0.62163498733E+03  0.31126222411E+04  0.30499159265E+04 0.  0.
        1    1    3    3  502    0  0.94907484342E+03  0.68751563682E+03  0.68498762162E+03  0.13574346581E+04  0.50400001928E-02 0. -1.
       -1    1    3    3    0  502 -0.94907484342E+03 -0.68751563682E+03 -0.13066226090E+04  0.17551875830E+04  0.50400001928E-02 0.  1.
</event>
<event>
 5   0  0.2078009E-06  0.3075367E+04  0.7818609E-02  0.8222531E-01
       -2   -1    0    0    0  501  0.00000000000E+00  0.00000000000E+00  0.18503469486E+04  0.18503469486E+04  0.25500000920E-02 0. -1.
        2   -1    0    0  501    0  0.00000000000E+00  0.00000000000E+00 -0.12778527041E+04  0.12778527041E+04  0.25500000920E-02 0.  1.
    10030    2    1    2    0    0  0.00000000000E+00  0.00000000000E+00  0.57249424449E+03  0.31281996527E+04  0.30753671987E+04 0.  0.
        3    1    3    3  502    0 -0.93731067856E+03  0.37866660536E+03  0.14648287552E+04  0.17797929650E+04  0.10100000352E+00 0. -1.
       -3    1    3    3    0  502  0.93731067856E+03 -0.37866660536E+03 -0.89233451069E+03  0.13484066877E+04  0.10100000352E+00 0.  1.
</event>
<event>
 5   0  0.2067926E-06  0.3115986E+04  0.7818609E-02  0.8211364E-01
        2   -1    0    0  501    0  0.00000000000E+00  0.00000000000E+00  0.20749578773E+04  0.20749578773E+04  0.25500000920E-02 0. -1.
       -2   -1    0    0    0  501  0.00000000000E+00  0.00000000000E+00 -0.11698271117E+04  0.11698271117E+04  0.25500000920E-02 0.  1.
    10030    2    1    2    0    0  0.00000000000E+00  0.00000000000E+00  0.90513076567E+03  0.32447849890E+04  0.31159858668E+04 0.  0.
        1    1    3    3  502    0  0.72016602155E+03 -0.13757042442E+04  0.58486293874E+03  0.16592968159E+04  0.50400001928E-02 0.  1.
       -1    1    3    3    0  502 -0.72016602155E+03  0.13757042442E+04  0.32026782694E+03  0.15854881731E+04  0.50400001928E-02 0. -1.
</event>
<event>
 5   0  0.2078009E-06  0.3103233E+04  0.7818609E-02  0.8214851E-01
       -2   -1    0    0    0  501  0.00000000000E+00  0.00000000000E+00  0.18794791086E+04  0.18794791086E+04  0.25500000920E-02 0.  1.
        2   -1    0    0  501    0  0.00000000000E+00  0.00000000000E+00 -0.12809474520E+04  0.12809474520E+04  0.25500000920E-02 0. -1.
    10030    2    1    2    0    0  0.00000000000E+00  0.00000000000E+00  0.59853165668E+03  0.31604265606E+04  0.31032331367E+04 0.  0.
        3    1    3    3  502    0  0.96683550516E+03  0.10589901111E+04  0.90288062196E+03  0.16945277741E+04  0.10100000352E+00 0.  1.
       -3    1    3    3    0  502 -0.96683550516E+03 -0.10589901111E+04 -0.30434896527E+03  0.14658987865E+04  0.10100000352E+00 0. -1.
</event>
<event>
 5   0  0.2133385E-06  0.3089332E+04  0.7818609E-02  0.8218672E-01
       -2   -1    0    0    0  501  0.00000000000E+00  0.00000000000E+00  0.17043100061E+04  0.17043100061E+04  0.25500000920E-02 0.  1.
        2   -1    0    0  501    0  0.00000000000E+00  0.00000000000E+00 -0.13999756446E+04  0.13999756446E+04  0.25500000920E-02 0. -1.
    10030    2    1    2    0    0  0.00000000000E+00  0.00000000000E+00  0.30433436149E+03  0.31042856507E+04  0.30893316426E+04 0.  0.
        2    1    3    3  502    0 -0.10391895027E+03  0.55521619476E+03  0.15968079052E+04  0.16937708396E+04  0.25500000920E-02 0.  1.
       -2    1    3    3    0  502  0.10391895027E+03 -0.55521619476E+03 -0.12924735437E+04  0.14105148111E+04  0.25500000920E-02 0. -1.
</event>
<event>
 5   0  0.2067926E-06  0.3089749E+04  0.7818609E-02  0.8218557E-01
       -2   -1    0    0    0  501  0.00000000000E+00  0.00000000000E+00  0.25861374876E+04  0.25861374876E+04  0.25500000920E-02 0. -1.
        2   -1    0    0  501    0  0.00000000000E+00  0.00000000000E+00 -0.92285754639E+03  0.92285754639E+03  0.25500000920E-02 0.  1.
    10030    2    1    2    0    0  0.00000000000E+00  0.00000000000E+00  0.16632799412E+04  0.35089950340E+04  0.30897485311E+04 0.  0.
        1    1    3    3  502    0  0.11862656485E+03 -0.27225079836E+03  0.25534156056E+04  0.25706271636E+04  0.50400001928E-02 0. -1.
       -1    1    3    3    0  502 -0.11862656485E+03  0.27225079836E+03 -0.89013566442E+03  0.93836787040E+03  0.50400001928E-02 0.  1.
</event>
<event>
 5   0  0.7413481E-07  0.3109466E+04  0.7818609E-02  0.8213145E-01
       -1   -1    0    0    0  501  0.00000000000E+00  0.00000000000E+00  0.97801455283E+03  0.97801455284E+03  0.50400001928E-02 0.  1.
        1   -1    0    0  501    0  0.00000000000E+00  0.00000000000E+00 -0.24715329396E+04  0.24715329396E+04  0.50400001928E-02 0. -1.
    10030    2    1    2    0    0  0.00000000000E+00  0.00000000000E+00 -0.14935183868E+04  0.34495474925E+04  0.31094663097E+04 0.  0.
        5    1    3    3  502    0 -0.25523250758E+03  0.43120335505E+03 -0.23794909318E+04  0.24316823704E+04  0.46999998093E+01 0. -1.
       -5    1    3    3    0  502  0.25523250758E+03 -0.43120335505E+03  0.88597254494E+03  0.10178651221E+04  0.46999998093E+01 0.  1.
</event>
<event>
 5   0  0.7413481E-07  0.3099099E+04  0.7818609E-02  0.8215985E-01
        1   -1    0    0  501    0  0.00000000000E+00  0.00000000000E+00  0.25026801049E+04  0.25026801049E+04  0.50400001928E-02 0.  1.
       -1   -1    0    0    0  501  0.00000000000E+00  0.00000000000E+00 -0.95941313529E+03  0.95941313531E+03  0.50400001928E-02 0. -1.
    10030    2    1    2    0    0  0.00000000000E+00  0.00000000000E+00  0.15432669696E+04  0.34620932402E+04  0.30990993312E+04 0.  0.
        5    1    3    3  502    0 -0.75708431191E+03 -0.17291768891E+03 -0.72632127883E+03  0.10633164499E+04  0.46999998093E+01 0. -1.
       -5    1    3    3    0  502  0.75708431191E+03  0.17291768891E+03  0.22695882484E+04  0.23987767903E+04  0.46999998093E+01 0.  1.
</event>
<event>
 5   0  0.2133385E-06  0.3098771E+04  0.7818609E-02  0.8216075E-01
        2   -1    0    0  501    0  0.00000000000E+00  0.00000000000E+00  0.15878880710E+04  0.15878880710E+04  0.25500000920E-02 0.  1.
       -2   -1    0    0    0  501  0.00000000000E+00  0.00000000000E+00 -0.15118167369E+04  0.15118167369E+04  0.25500000920E-02 0. -1.
    10030    2    1    2    0    0  0.00000000000E+00  0.00000000000E+00  0.76071334090E+02  0.30997048079E+04  0.30987712158E+04 0.  0.
        2    1    3    3  502    0  0.85623864374E+03  0.12631010463E+04 -0.23042345580E+03  0.15432640206E+04  0.25500000920E-02 0. -1.
       -2    1    3    3    0  502 -0.85623864374E+03 -0.12631010463E+04  0.30649478989E+03  0.15564407873E+04  0.25500000920E-02 0.  1.
</event>
<event>
 5   0  0.7561815E-07  0.3122408E+04  0.7818609E-02  0.8209615E-01
        1   -1    0    0  501    0  0.00000000000E+00  0.00000000000E+00  0.18284050541E+04  0.18284050541E+04  0.50400001928E-02 0. -1.
       -1   -1    0    0    0  501  0.00000000000E+00  0.00000000000E+00 -0.13330515611E+04  0.13330515611E+04  0.50400001928E-02 0.  1.
    10030    2    1    2    0    0  0.00000000000E+00  0.00000000000E+00  0.49535349304E+03  0.31614566152E+04  0.31224081807E+04 0.  0.
        3    1    3    3  502    0 -0.14331766268E+04 -0.19312179115E+03  0.84330816995E+03  0.16740549422E+04  0.10100000352E+00 0. -1.
       -3    1    3    3    0  502  0.14331766268E+04  0.19312179115E+03 -0.34795467691E+03  0.14874016731E+04  0.10100000352E+00 0.  1.
</event>
<event>
 5   0  0.7413481E-07  0.3095000E+04  0.7818609E-02  0.8217111E-01
       -1   -1    0    0    0  501  0.00000000000E+00  0.00000000000E+00  0.19124016987E+04  0.19124016987E+04  0.50400001928E-02 0. -1.
        1   -1    0    0  501    0  0.00000000000E+00  0.00000000000E+00 -0.12522248042E+04  0.12522248042E+04  0.50400001928E-02 0.  1.
    10030    2    1    2    0    0  0.00000000000E+00  0.00000000000E+00  0.66017689448E+03  0.31646265030E+04  0.30950003831E+04 0.  0.
        5    1    3    3  502    0 -0.74949811559E+03  0.10998029476E+04  0.11374208793E+04  0.17507319313E+04  0.46999998093E+01 0. -1.
       -5    1    3    3    0  502  0.74949811559E+03 -0.10998029476E+04 -0.47724398480E+03  0.14138945716E+04  0.46999998093E+01 0.  1.
</event>
<event>
 5   0  0.2226334E-06  0.3065808E+04  0.7818609E-02  0.8225185E-01
        2   -1    0    0  501    0  0.00000000000E+00  0.00000000000E+00  0.18442577055E+04  0.18442577055E+04  0.25500000920E-02 0.  1.
       -2   -1    0    0    0  501  0.00000000000E+00  0.00000000000E+00 -0.12741137447E+04  0.12741137447E+04  0.25500000920E-02 0. -1.
    10030    2    1    2    0    0  0.00000000000E+00  0.00000000000E+00  0.57014396072E+03  0.31183714502E+04  0.30658076204E+04 0.  0.
        5    1    3    3  502    0 -0.85626748466E+03  0.49586389647E+03 -0.90576873843E+03  0.13414596925E+04  0.46999998093E+01 0. -1.
       -5    1    3    3    0  502  0.85626748466E+03 -0.49586389647E+03  0.14759126992E+04  0.17769117577E+04  0.46999998093E+01 0.  1.
</event>
<event>
 5   0  0.2078009E-06  0.3056431E+04  0.7818609E-02  0.8227798E-01
        2   -1    0    0  501    0  0.00000000000E+00  0.00000000000E+00  0.12406401336E+04  0.12406401336E+04  0.25500000920E-02 0.  1.
       -2   -1    0    0    0  501  0.00000000000E+00  0.00000000000E+00 -0.18824493844E+04  0.18824493844E+04  0.25500000920E-02 0. -1.
    10030    2    1    2    0    0  0.00000000000E+00  0.00000000000E+00 -0.64180925084E+03  0.31230895180E+04  0.30564307652E+04 0.  0.
        3    1    3    3  502    0  0.13333960337E+04  0.46554657168E+03 -0.91738547148E+03  0.16841243145E+04  0.10100000352E+00 0.  1.
       -3    1    3    3    0  502 -0.13333960337E+04 -0.46554657168E+03  0.27557622063E+03  0.14389652035E+04  0.10100000352E+00 0. -1.
</event>
<event>
 5   0  0.7413481E-07  0.3147371E+04  0.7818609E-02  0.8202856E-01
        1   -1    0    0  501    0  0.00000000000E+00  0.00000000000E+00  0.24629616364E+04  0.24629616364E+04  0.50400001928E-02 0. -1.
       -1   -1    0    0    0  501  0.00000000000E+00  0.00000000000E+00 -0.10054909547E+04  0.10054909547E+04  0.50400001928E-02 0.  1.
    10030    2    1    2    0    0  0.00000000000E+00  0.00000000000E+00  0.14574706817E+04  0.34684525911E+04  0.31473707422E+04 0.  0.
        5    1    3    3  502    0  0.97189445173E+03 -0.12244272248E+04  0.52956992812E+03  0.16505354443E+04  0.46999998093E+01 0. -1.
       -5    1    3    3    0  502 -0.97189445173E+03  0.12244272248E+04  0.92790075357E+03  0.18179171468E+04  0.46999998093E+01 0.  1.
</event>
<event>
 5   0  0.2133385E-06  0.3088126E+04  0.7818609E-02  0.8219004E-01
       -2   -1    0    0    0  501  0.00000000000E+00  0.00000000000E+00  0.84643107012E+03  0.84643107013E+03  0.25500000920E-02 0. -1.
        2   -1    0    0  501    0  0.00000000000E+00  0.00000000000E+00 -0.28166860370E+04  0.28166860370E+04  0.25500000920E-02 0.  1.
    10030    2    1    2    0    0  0.00000000000E+00  0.00000000000E+00 -0.19702549669E+04  0.36631171071E+04  0.30881260185E+04 0.  0.
        2    1    3    3  502    0 -0.81676657730E+03 -0.10766079478E+04 -0.99096597981E+02  0.13549953693E+04  0.25500000920E-02 0. -1.
       -2    1    3    3    0  502  0.81676657730E+03  0.10766079478E+04 -0.18711583689E+04  0.23081217378E+04  0.25500000920E-02 0.  1.
</event>
<event>
 5   0  0.7726743E-07  0.3093471E+04  0.7818609E-02  0.8217532E-01
        1   -1    0    0  501    0  0.00000000000E+00  0.00000000000E+00  0.19058354822E+04  0.19058354822E+04  0.50400001928E-02 0. -1.
       -1   -1    0    0    0  501  0.00000000000E+00  0.00000000000E+00 -0.12552979932E+04  0.12552979932E+04  0.50400001928E-02 0.  1.
    10030    2    1    2    0    0  0.00000000000E+00  0.00000000000E+00  0.65053748895E+03  0.31611334754E+04  0.30934714844E+04 0.  0.
        1    1    3    3  502    0 -0.91258064294E+02 -0.78002518212E+03  0.16869398967E+04  0.18607884174E+04  0.50400001928E-02 0. -1.
       -1    1    3    3    0  502  0.91258064294E+02  0.78002518212E+03 -0.10364024078E+04  0.13003450580E+04  0.50400001928E-02 0.  1.
</event>
<event>
 5   0  0.2067926E-06  0.3130217E+04  0.7818609E-02  0.8207494E-01
        2   -1    0    0  501    0  0.00000000000E+00  0.00000000000E+00  0.21447482292E+04  0.21447482292E+04  0.25500000920E-02 0.  1.
       -2   -1    0    0    0  501  0.00000000000E+00  0.00000000000E+00 -0.11421220471E+04  0.11421220471E+04  0.25500000920E-02 0. -1.
    10030    2    1    2    0    0  0.00000000000E+00  0.00000000000E+00  0.10026261821E+04  0.32868702763E+04  0.31302167580E+04 0.  0.
        1    1    3    3  502    0 -0.37806156827E+03  0.14185704466E+04  0.10709486181E+04  0.18171966333E+04  0.50400001928E-02 0.  1.
       -1    1    3    3    0  502  0.37806156827E+03 -0.14185704466E+04 -0.68322436075E+02  0.14696736430E+04  0.50400001928E-02 0. -1.
</event>
<event>
 5   0  0.7656332E-07  0.3103097E+04  0.7818609E-02  0.8214888E-01
       -1   -1    0    0    0  501  0.00000000000E+00  0.00000000000E+00  0.12987380840E+04  0.12987380840E+04  0.50400001928E-02 0. -1.
        1   -1    0    0  501    0  0.00000000000E+00  0.00000000000E+00 -0.18535710385E+04  0.18535710385E+04  0.50400001928E-02 0.  1.
    10030    2    1    2    0    0  0.00000000000E+00  0.00000000000E+00 -0.55483295452E+03  0.31523091226E+04  0.31030973554E+04 0.  0.
        2    1    3    3  502    0 -0.79306202506E+03 -0.31942663986E+03 -0.15926782283E+04  0.18076517067E+04  0.25500000920E-02 0.  1.
       -2    1    3    3    0  502  0.79306202506E+03  0.31942663986E+03  0.10378452738E+04  0.13446574159E+04  0.25500000920E-02 0. -1.
</event>
<event>
 5   0  0.7561815E-07  0.3099695E+04  0.7818609E-02  0.8215821E-01
        1   -1    0    0  501    0  0.00000000000E+00  0.00000000000E+00  0.17698383456E+04  0.17698383456E+04  0.50400001928E-02 0. -1.
       -1   -1    0    0    0  501  0.00000000000E+00  0.00000000000E+00 -0.13572019116E+04  0.13572019116E+04  0.50400001928E-02 0.  1.
    10030    2    1    2    0    0  0.00000000000E+00  0.00000000000E+00  0.41263643398E+03  0.31270402572E+04  0.30996954598E+04 0.  0.
        3    1    3    3  502    0 -0.99472018643E+03 -0.64160698434E+03 -0.80295752262E+03  0.14303386190E+04  0.10100000352E+00 0.  1.
       -3    1    3    3    0  502  0.99472018643E+03  0.64160698434E+03  0.12155939566E+04  0.16967016382E+04  0.10100000352E+00 0. -1.
</event>
<event>
 5   0  0.7413481E-07  0.3123468E+04  0.7818609E-02  0.8209327E-01
        1   -1    0    0  501    0  0.00000000000E+00  0.00000000000E+00  0.15097021318E+04  0.15097021318E+04  0.50400001928E-02 0. -1.
       -1   -1    0    0    0  501  0.00000000000E+00  0.00000000000E+00 -0.16155591169E+04  0.16155591169E+04  0.50400001928E-02 0.  1.
    10030    2    1    2    0    0  0.00000000000E+00  0.00000000000E+00 -0.10585698512E+03  0.31252612488E+04  0.31234679719E+04 0.  0.
        5    1    3    3  502    0 -0.39646076473E+03  0.14344449661E+03 -0.15575316698E+04  0.16135936459E+04  0.46999998093E+01 0.  1.
       -5    1    3    3    0  502  0.39646076473E+03 -0.14344449661E+03  0.14516746847E+04  0.15116676029E+04  0.46999998093E+01 0. -1.
</event>
<event>
 5   0  0.7656332E-07  0.3093681E+04  0.7818609E-02  0.8217474E-01
        1   -1    0    0  501    0  0.00000000000E+00  0.00000000000E+00  0.23512629468E+04  0.23512629468E+04  0.50400001928E-02 0.  1.
       -1   -1    0    0    0  501  0.00000000000E+00  0.00000000000E+00 -0.10176296590E+04  0.10176296590E+04  0.50400001928E-02 0. -1.
    10030    2    1    2    0    0  0.00000000000E+00  0.00000000000E+00  0.13336332878E+04  0.33688926058E+04  0.30936805981E+04 0.  0.
        2    1    3    3  502    0 -0.36520183402E+03 -0.67224210792E+03  0.21308224741E+04  0.22639978461E+04  0.25500000920E-02 0.  1.
       -2    1    3    3    0  502  0.36520183402E+03  0.67224210792E+03 -0.79718918631E+03  0.11048947597E+04  0.25500000920E-02 0. -1.
</event>
<event>
 5   0  0.2094135E-06  0.3077280E+04  0.7818609E-02  0.8222001E-01
       -2   -1    0    0    0  501  0.00000000000E+00  0.00000000000E+00  0.94881402622E+03  0.94881402622E+03  0.25500000920E-02 0. -1.
        2   -1    0    0  501    0  0.00000000000E+00  0.00000000000E+00 -0.24951289578E+04  0.24951289578E+04  0.25500000920E-02 0.  1.
    10030    2    1    2    0    0  0.00000000000E+00  0.00000000000E+00 -0.15463149315E+04  0.34439429840E+04  0.30772801968E+04 0.  0.
        4    1    3    3  502    0  0.88906950210E+03 -0.34256203653E+03 -0.21252567324E+04  0.23290579898E+04  0.12699999809E+01 0.  1.
       -4    1    3    3    0  502 -0.88906950210E+03  0.34256203653E+03  0.57894180089E+03  0.11148849941E+04  0.12699999809E+01 0. -1.
</event>
<event>
 5   0  0.7519202E-07  0.3094582E+04  0.7818609E-02  0.8217226E-01
       -1   -1    0    0    0  501  0.00000000000E+00  0.00000000000E+00  0.12731599121E+04  0.12731599121E+04  0.50400001928E-02 0. -1.
        1   -1    0    0  501    0  0.00000000000E+00  0.00000000000E+00 -0.18804468915E+04  0.18804468915E+04  0.50400001928E-02 0.  1.
    10030    2    1    2    0    0  0.00000000000E+00  0.00000000000E+00 -0.60728697945E+03  0.31536068037E+04  0.30945821037E+04 0.  0.
        4    1    3    3  502    0  0.98039600397E+03  0.76296322385E+03  0.63634831700E+03  0.13957900985E+04  0.12699999809E+01 0. -1.
       -4    1    3    3    0  502 -0.98039600397E+03 -0.76296322385E+03 -0.12436352965E+04  0.17578167052E+04  0.12699999809E+01 0.  1.
</event>
<event>
 5   0  0.7413481E-07  0.3089972E+04  0.7818609E-02  0.8218495E-01
        1   -1    0    0  501    0  0.00000000000E+00  0.00000000000E+00  0.25378131846E+04  0.25378131846E+04  0.50400001928E-02 0.  1.
       -1   -1    0    0    0  501  0.00000000000E+00  0.00000000000E+00 -0.94056662704E+03  0.94056662705E+03  0.50400001928E-02 0. -1.
    10030    2    1    2    0    0  0.00000000000E+00  0.00000000000E+00  0.15972465576E+04  0.34783798117E+04  0.30899724187E+04 0.  0.
        5    1    3    3  502    0  0.14990549257E+04 -0.33675990026E+03  0.61576245624E+03  0.16552215541E+04  0.46999998093E+01 0. -1.
       -5    1    3    3    0  502 -0.14990549257E+04  0.33675990026E+03  0.98148410133E+03  0.18231582575E+04  0.46999998093E+01 0.  1.
</event>
<event>
 5   0  0.6979625E-07  0.3082959E+04  0.7818609E-02  0.8220430E-01
       -4   -1    0    0    0  501  0.00000000000E+00  0.00000000000E+00  0.16603097635E+04  0.16603102492E+04  0.12699999809E+01 0. -1.
        4   -1    0    0  501    0  0.00000000000E+00  0.00000000000E+00 -0.14311528102E+04  0.14311533737E+04  0.12699999809E+01 0.  1.
    10030    2    1    2    0    0  0.00000000000E+00  0.00000000000E+00  0.22915695323E+03  0.30914636229E+04  0.30829587124E+04 0.  0.
        5    1    3    3  502    0  0.11503386496E+04 -0.81509095600E+03  0.73958296284E+03  0.15920607162E+04  0.46999998093E+01 0. -1.
       -5    1    3    3    0  502 -0.11503386496E+04  0.81509095600E+03 -0.51042600962E+03  0.14994029067E+04  0.46999998093E+01 0.  1.
</event>
<event>
 5   0  0.2067926E-06  0.2994879E+04  0.7818609E-02  0.8245195E-01
        2   -1    0    0  501    0  0.00000000000E+00  0.00000000000E+00  0.22938923454E+04  0.22938923454E+04  0.25500000920E-02 0.  1.
       -2   -1    0    0    0  501  0.00000000000E+00  0.00000000000E+00 -0.97751996074E+03  0.97751996074E+03  0.25500000920E-02 0. -1.
    10030    2    1    2    0    0  0.00000000000E+00  0.00000000000E+00  0.13163723846E+04  0.32714123061E+04  0.29948793334E+04 0.  0.
        1    1    3    3  502    0  0.51205226105E+03 -0.55354156246E+02 -0.87772573590E+03  0.10176758168E+04  0.50400001928E-02 0. -1.
       -1    1    3    3    0  502 -0.51205226105E+03  0.55354156246E+02  0.21940981205E+04  0.22537364893E+04  0.50400001928E-02 0.  1.
</event>
<event>
 5   0  0.2078009E-06  0.3117487E+04  0.7818609E-02  0.8210955E-01
        2   -1    0    0  501    0  0.00000000000E+00  0.00000000000E+00  0.77385256789E+03  0.77385256790E+03  0.25500000920E-02 0.  1.
       -2   -1    0    0    0  501  0.00000000000E+00  0.00000000000E+00 -0.31397221428E+04  0.31397221428E+04  0.25500000920E-02 0. -1.
    10030    2    1    2    0    0  0.00000000000E+00  0.00000000000E+00 -0.23658695749E+04  0.39135747107E+04  0.31174874772E+04 0.  0.
        3    1    3    3  502    0  0.11884865856E+04  0.40249721568E+03 -0.23438408652E+04  0.26585887956E+04  0.10100000352E+00 0. -1.
       -3    1    3    3    0  502 -0.11884865856E+04 -0.40249721568E+03 -0.22028709678E+02  0.12549859150E+04  0.10100000352E+00 0.  1.
</event>
<event>
 5   0  0.2078009E-06  0.3083717E+04  0.7818609E-02  0.8220221E-01
       -2   -1    0    0    0  501  0.00000000000E+00  0.00000000000E+00  0.11022520733E+04  0.11022520733E+04  0.25500000920E-02 0. -1.
        2   -1    0    0  501    0  0.00000000000E+00  0.00000000000E+00 -0.21567913639E+04  0.21567913639E+04  0.25500000920E-02 0.  1.
    10030    2    1    2    0    0  0.00000000000E+00  0.00000000000E+00 -0.10545392906E+04  0.32590434373E+04  0.30837170770E+04 0.  0.
        3    1    3    3  502    0 -0.24567323918E+03 -0.21871960225E+03  0.10647400485E+04  0.11143899613E+04  0.10100000352E+00 0. -1.
       -3    1    3    3    0  502  0.24567323918E+03  0.21871960225E+03 -0.21192793391E+04  0.21446534760E+04  0.10100000352E+00 0.  1.
</event>
<event>
 5   0  0.7519202E-07  0.3006517E+04  0.7818609E-02  0.8241872E-01
        1   -1    0    0  501    0  0.00000000000E+00  0.00000000000E+00  0.26211269544E+04  0.26211269544E+04  0.50400001928E-02 0.  1.
       -1   -1    0    0    0  501  0.00000000000E+00  0.00000000000E+00 -0.86214298054E+03  0.86214298055E+03  0.50400001928E-02 0. -1.
    10030    2    1    2    0    0  0.00000000000E+00  0.00000000000E+00  0.17589839738E+04  0.34832699349E+04  0.30065170579E+04 0.  0.
        4    1    3    3  502    0 -0.62532605185E+03 -0.42220284174E+03 -0.62687441405E+03  0.98094905810E+03  0.12699999809E+01 0. -1.
       -4    1    3    3    0  502  0.62532605185E+03  0.42220284174E+03  0.23858583879E+04  0.25023208768E+04  0.12699999809E+01 0.  1.
</event>
<event>
 5   0  0.2067926E-06  0.2991052E+04  0.7818609E-02  0.8246291E-01
        2   -1    0    0  501    0  0.00000000000E+00  0.00000000000E+00  0.23770751008E+04  0.23770751008E+04  0.25500000920E-02 0.  1.
       -2   -1    0    0    0  501  0.00000000000E+00  0.00000000000E+00 -0.94090357149E+03  0.94090357149E+03  0.25500000920E-02 0. -1.
    10030    2    1    2    0    0  0.00000000000E+00  0.00000000000E+00  0.14361715293E+04  0.33179786723E+04  0.29910522911E+04 0.  0.
        1    1    3    3  502    0 -0.10049231674E+04  0.85012389812E+03 -0.69453615027E+02  0.13181066039E+04  0.50400001928E-02 0.  1.
       -1    1    3    3    0  502  0.10049231674E+04 -0.85012389812E+03  0.15056251443E+04  0.19998720684E+04  0.50400001928E-02 0. -1.
</event>
<event>
 5   0  0.7656332E-07  0.3115880E+04  0.7818609E-02  0.8211393E-01
        1   -1    0    0  501    0  0.00000000000E+00  0.00000000000E+00  0.12475247881E+04  0.12475247881E+04  0.50400001928E-02 0.  1.
       -1   -1    0    0    0  501  0.00000000000E+00  0.00000000000E+00 -0.19455946287E+04  0.19455946287E+04  0.50400001928E-02 0. -1.
    10030    2    1    2    0    0  0.00000000000E+00  0.00000000000E+00 -0.69806984066E+03  0.31931194168E+04  0.31158803102E+04 0.  0.
        2    1    3    3  502    0  0.13793173651E+04  0.25679095471E+03  0.34504265513E+03  0.14448226265E+04  0.25500000920E-02 0.  1.
       -2    1    3    3    0  502 -0.13793173651E+04 -0.25679095471E+03 -0.10431124958E+04  0.17482967903E+04  0.25500000920E-02 0. -1.
</event>
<event>
 5   0  0.7726743E-07  0.3090859E+04  0.7818609E-02  0.8218251E-01
        1   -1    0    0  501    0  0.00000000000E+00  0.00000000000E+00  0.10979831337E+04  0.10979831337E+04  0.50400001928E-02 0. -1.
       -1   -1    0    0    0  501  0.00000000000E+00  0.00000000000E+00 -0.21752171673E+04  0.21752171674E+04  0.50400001928E-02 0.  1.
    10030    2    1    2    0    0  0.00000000000E+00  0.00000000000E+00 -0.10772340336E+04  0.32732003011E+04  0.30908586263E+04 0.  0.
        1    1    3    3  502    0 -0.12879168901E+03 -0.28624554594E+03 -0.21411053168E+04  0.21639907091E+04  0.50400001928E-02 0.  1.
       -1    1    3    3    0  502  0.12879168901E+03  0.28624554594E+03  0.10638712831E+04  0.11092095919E+04  0.50400001928E-02 0. -1.
</event>
<event>
 5   0  0.7413481E-07  0.3082824E+04  0.7818609E-02  0.8220468E-01
        1   -1    0    0  501    0  0.00000000000E+00  0.00000000000E+00  0.15959598145E+04  0.15959598145E+04  0.50400001928E-02 0. -1.
       -1   -1    0    0    0  501  0.00000000000E+00  0.00000000000E+00 -0.14887283778E+04  0.14887283778E+04  0.50400001928E-02 0.  1.
    10030    2    1    2    0    0  0.00000000000E+00  0.00000000000E+00  0.10723143670E+03  0.30846881922E+04  0.30828238131E+04 0.  0.
        5    1    3    3  502    0 -0.99935678591E+03 -0.10562396002E+04 -0.45813516988E+03  0.15245543619E+04  0.46999998093E+01 0.  1.
       -5    1    3    3    0  502  0.99935678591E+03  0.10562396002E+04  0.56536660658E+03  0.15601338303E+04  0.46999998093E+01 0. -1.
</event>
<event>
 5   0  0.2133385E-06  0.3155919E+04  0.7818609E-02  0.8200557E-01
       -2   -1    0    0    0  501  0.00000000000E+00  0.00000000000E+00  0.15935936728E+04  0.15935936728E+04  0.25500000920E-02 0. -1.
        2   -1    0    0  501    0  0.00000000000E+00  0.00000000000E+00 -0.15624785800E+04  0.15624785800E+04  0.25500000920E-02 0.  1.
    10030    2    1    2    0    0  0.00000000000E+00  0.00000000000E+00  0.31115092813E+02  0.31560722527E+04  0.31559188702E+04 0.  0.
        2    1    3    3  502    0 -0.80869392481E+03  0.12772423623E+04 -0.43681614101E+03  0.15735762636E+04  0.25500000920E-02 0.  1.
       -2    1    3    3    0  502  0.80869392481E+03 -0.12772423623E+04  0.46793123383E+03  0.15824959892E+04  0.25500000920E-02 0. -1.
</event>
<event>
 5   0  0.2067926E-06  0.3115975E+04  0.7818609E-02  0.8211367E-01
       -2   -1    0    0    0  501  0.00000000000E+00  0.00000000000E+00  0.97884745126E+03  0.97884745127E+03  0.25500000920E-02 0. -1.
        2   -1    0    0  501    0  0.00000000000E+00  0.00000000000E+00 -0.24797786650E+04  0.24797786650E+04  0.25500000920E-02 0.  1.
    10030    2    1    2    0    0  0.00000000000E+00  0.00000000000E+00 -0.15009312138E+04  0.34586261163E+04  0.31159749845E+04 0.  0.
        1    1    3    3  502    0  0.12632687740E+04 -0.19078153550E+03  0.23926024591E+03  0.12998042371E+04  0.50400001928E-02 0.  1.
       -1    1    3    3    0  502 -0.12632687740E+04  0.19078153550E+03 -0.17401914597E+04  0.21588218792E+04  0.50400001928E-02 0. -1.
</event>
<event>
 5   0  0.2078009E-06  0.3099463E+04  0.7818609E-02  0.8215885E-01
        2   -1    0    0  501    0  0.00000000000E+00  0.00000000000E+00  0.20853239519E+04  0.20853239519E+04  0.25500000920E-02 0. -1.
       -2   -1    0    0    0  501  0.00000000000E+00  0.00000000000E+00 -0.11517002904E+04  0.11517002904E+04  0.25500000920E-02 0.  1.
    10030    2    1    2    0    0  0.00000000000E+00  0.00000000000E+00  0.93362366154E+03  0.32370242424E+04  0.30994633091E+04 0.  0.
        3    1    3    3  502    0  0.46610376288E+03 -0.13835325906E+04 -0.76119306579E+02  0.14619197331E+04  0.10100000352E+00 0.  1.
       -3    1    3    3    0  502 -0.46610376288E+03  0.13835325906E+04  0.10097429681E+04  0.17751045093E+04  0.10100000352E+00 0. -1.
</event>
<event>
 5   0  0.6979625E-07  0.3106908E+04  0.7818609E-02  0.8213845E-01
        3   -1    0    0  501    0  0.00000000000E+00  0.00000000000E+00  0.16769016253E+04  0.16769016283E+04  0.10100000352E+00 0. -1.
       -3   -1    0    0    0  501  0.00000000000E+00  0.00000000000E+00 -0.14390944483E+04  0.14390944518E+04  0.10100000352E+00 0.  1.
    10030    2    1    2    0    0  0.00000000000E+00  0.00000000000E+00  0.23780717701E+03  0.31159960801E+04  0.31069083214E+04 0.  0.
        5    1    3    3  502    0 -0.71571887898E+03  0.11908529558E+04 -0.57797665168E+03  0.15048134023E+04  0.46999998093E+01 0.  1.
       -5    1    3    3    0  502  0.71571887898E+03 -0.11908529558E+04  0.81578382869E+03  0.16111826778E+04  0.46999998093E+01 0. -1.
</event>
<event>
 5   0  0.6979625E-07  0.3085318E+04  0.7818609E-02  0.8219779E-01
       -4   -1    0    0    0  501  0.00000000000E+00  0.00000000000E+00  0.13316334525E+04  0.13316340581E+04  0.12699999809E+01 0. -1.
        4   -1    0    0  501    0  0.00000000000E+00  0.00000000000E+00 -0.17871251465E+04  0.17871255977E+04  0.12699999809E+01 0.  1.
    10030    2    1    2    0    0  0.00000000000E+00  0.00000000000E+00 -0.45549169402E+03  0.31187596558E+04  0.30853183154E+04 0.  0.
        1    1    3    3  502    0  0.92019847796E+03 -0.17724929002E+03 -0.14664317349E+04  0.17402886493E+04  0.50400001928E-02 0.  1.
       -1    1    3    3    0  502 -0.92019847796E+03  0.17724929002E+03  0.10109400409E+04  0.13784710065E+04  0.50400001928E-02 0. -1.
</event>
<event>
 5   0  0.2094135E-06  0.3121750E+04  0.7818609E-02  0.8209794E-01
        2   -1    0    0  501    0  0.00000000000E+00  0.00000000000E+00  0.13412886499E+04  0.13412886499E+04  0.25500000920E-02 0. -1.
       -2   -1    0    0    0  501  0.00000000000E+00  0.00000000000E+00 -0.18164108736E+04  0.18164108736E+04  0.25500000920E-02 0.  1.
    10030    2    1    2    0    0  0.00000000000E+00  0.00000000000E+00 -0.47512222367E+03  0.31576995235E+04  0.31217503349E+04 0.  0.
        4    1    3    3  502    0  0.98472490862E+03  0.19883610755E+03 -0.14459353858E+04  0.17606674008E+04  0.12699999809E+01 0.  1.
       -4    1    3    3    0  502 -0.98472490862E+03 -0.19883610755E+03  0.97081316215E+03  0.13970321228E+04  0.12699999809E+01 0. -1.
</event>
<event>
 5   0  0.2067926E-06  0.3083363E+04  0.7818609E-02  0.8220319E-01
        2   -1    0    0  501    0  0.00000000000E+00  0.00000000000E+00  0.20362794664E+04  0.20362794664E+04  0.25500000920E-02 0.  1.
       -2   -1    0    0    0  501  0.00000000000E+00  0.00000000000E+00 -0.11672181135E+04  0.11672181135E+04  0.25500000920E-02 0. -1.
    10030    2    1    2    0    0  0.00000000000E+00  0.00000000000E+00  0.86906135286E+03  0.32034975799E+04  0.30833632788E+04 0.  0.
        1    1    3    3  502    0 -0.90943405494E+03  0.52086723385E+03 -0.74019014172E+03  0.12830644651E+04  0.50400001928E-02 0. -1.
       -1    1    3    3    0  502  0.90943405494E+03 -0.52086723385E+03  0.16092514946E+04  0.19204331148E+04  0.50400001928E-02 0.  1.
</event>
<event>
 5   0  0.7726743E-07  0.3101724E+04  0.7818609E-02  0.8215265E-01
        1   -1    0    0  501    0  0.00000000000E+00  0.00000000000E+00  0.25575354514E+04  0.25575354514E+04  0.50400001928E-02 0. -1.
       -1   -1    0    0    0  501  0.00000000000E+00  0.00000000000E+00 -0.94042616159E+03  0.94042616160E+03  0.50400001928E-02 0.  1.
    10030    2    1    2    0    0  0.00000000000E+00  0.00000000000E+00  0.16171092898E+04  0.34979616130E+04  0.31017241965E+04 0.  0.
        1    1    3    3  502    0 -0.17426643355E+03  0.10270157913E+03  0.25425949533E+04  0.25506284522E+04  0.50400001928E-02 0. -1.
       -1    1    3    3    0  502  0.17426643355E+03 -0.10270157913E+03 -0.92548566353E+03  0.94733316085E+03  0.50400001928E-02 0.  1.
</event>
<event>
 5   0  0.7413481E-07  0.3085517E+04  0.7818609E-02  0.8219724E-01
        1   -1    0    0  501    0  0.00000000000E+00  0.00000000000E+00  0.12785715670E+04  0.12785715670E+04  0.50400001928E-02 0. -1.
       -1   -1    0    0    0  501  0.00000000000E+00  0.00000000000E+00 -0.18615339103E+04  0.18615339103E+04  0.50400001928E-02 0.  1.
    10030    2    1    2    0    0  0.00000000000E+00  0.00000000000E+00 -0.58296234331E+03  0.31401054773E+04  0.30855173496E+04 0.  0.
        5    1    3    3  502    0 -0.90914271910E+03 -0.74625007345E+03 -0.13074681506E+04  0.17586712912E+04  0.46999998093E+01 0. -1.
       -5    1    3    3    0  502  0.90914271910E+03  0.74625007345E+03  0.72450580724E+03  0.13814341861E+04  0.46999998093E+01 0.  1.
</event>
<event>
 5   0  0.2226334E-06  0.3105712E+04  0.7818609E-02  0.8214172E-01
       -2   -1    0    0    0  501  0.00000000000E+00  0.00000000000E+00  0.13782672884E+04  0.13782672884E+04  0.25500000920E-02 0.  1.
        2   -1    0    0  501    0  0.00000000000E+00  0.00000000000E+00 -0.17495607176E+04  0.17495607176E+04  0.25500000920E-02 0. -1.
    10030    2    1    2    0    0  0.00000000000E+00  0.00000000000E+00 -0.37129342921E+03  0.31278280060E+04  0.31057123538E+04 0.  0.
        5    1    3    3  502    0  0.62806854790E+03  0.14064302726E+04 -0.38408789155E+03  0.15874702551E+04  0.46999998093E+01 0. -1.
       -5    1    3    3    0  502 -0.62806854790E+03 -0.14064302726E+04  0.12794462340E+02  0.15403577509E+04  0.46999998093E+01 0.  1.
</event>
<event>
 5   0  0.2226334E-06  0.3109841E+04  0.7818609E-02  0.8213042E-01
        2   -1    0    0  501    0  0.00000000000E+00  0.00000000000E+00  0.26050847496E+04  0.26050847496E+04  0.25500000920E-02 0.  1.
       -2   -1    0    0    0  501  0.00000000000E+00  0.00000000000E+00 -0.92809957385E+03  0.92809957385E+03  0.25500000920E-02 0. -1.
    10030    2    1    2    0    0  0.00000000000E+00  0.00000000000E+00  0.16769851757E+04  0.35331843234E+04  0.31098411830E+04 0.  0.
        5    1    3    3  502    0  0.12977798831E+04 -0.83208782048E+03  0.60801439683E+03  0.16571983474E+04  0.46999998093E+01 0.  1.
       -5    1    3    3    0  502 -0.12977798831E+04  0.83208782048E+03  0.10689707789E+04  0.18759859760E+04  0.46999998093E+01 0. -1.
</event>
<event>
 5   0  0.2226334E-06  0.3116625E+04  0.7818609E-02  0.8211190E-01
       -2   -1    0    0    0  501  0.00000000000E+00  0.00000000000E+00  0.22896611851E+04  0.22896611851E+04  0.25500000920E-02 0. -1.
        2   -1    0    0  501    0  0.00000000000E+00  0.00000000000E+00 -0.10605662116E+04  0.10605662116E+04  0.25500000920E-02 0.  1.
    10030    2    1    2    0    0  0.00000000000E+00  0.00000000000E+00  0.12290949735E+04  0.33502273967E+04  0.31166246414E+04 0.  0.
        5    1    3    3  502    0  0.60821279932E+02  0.11719216166E+04 -0.48758982173E+03  0.12707735549E+04  0.46999998093E+01 0.  1.
       -5    1    3    3    0  502 -0.60821279932E+02 -0.11719216166E+04  0.17166847953E+04  0.20794538417E+04  0.46999998093E+01 0. -1.
</event>
<event>
 5   0  0.2094135E-06  0.3091276E+04  0.7818609E-02  0.8218136E-01
       -2   -1    0    0    0  501  0.00000000000E+00  0.00000000000E+00  0.17588048198E+04  0.17588048198E+04  0.25500000920E-02 0.  1.
        2   -1    0    0  501    0  0.00000000000E+00  0.00000000000E+00 -0.13583067190E+04  0.13583067190E+04  0.25500000920E-02 0. -1.
    10030    2    1    2    0    0  0.00000000000E+00  0.00000000000E+00  0.40049810088E+03  0.31171115388E+04  0.30912757264E+04 0.  0.
        4    1    3    3  502    0 -0.99800341533E+03  0.37544341977E+02  0.13897582739E+04  0.17113883450E+04  0.12699999809E+01 0.  1.
       -4    1    3    3    0  502  0.99800341533E+03 -0.37544341977E+02 -0.98926017306E+03  0.14057231938E+04  0.12699999809E+01 0. -1.
</event>
<event>
 5   0  0.2094135E-06  0.3107442E+04  0.7818609E-02  0.8213699E-01
        2   -1    0    0  501    0  0.00000000000E+00  0.00000000000E+00  0.20252662389E+04  0.20252662389E+04  0.25500000920E-02 0. -1.
       -2   -1    0    0    0  501  0.00000000000E+00  0.00000000000E+00 -0.11919660855E+04  0.11919660855E+04  0.25500000920E-02 0.  1.
    10030    2    1    2    0    0  0.00000000000E+00  0.00000000000E+00  0.83330015341E+03  0.32172323245E+04  0.31074418231E+04 0.  0.
        4    1    3    3  502    0  0.49947761908E+03 -0.11171276876E+04  0.14078656897E+04  0.18653523998E+04  0.12699999809E+01 0. -1.
       -4    1    3    3    0  502 -0.49947761908E+03  0.11171276876E+04 -0.57456553629E+03  0.13518799247E+04  0.12699999809E+01 0.  1.
</event>
<event>
 5   0  0.7413481E-07  0.3107642E+04  0.7818609E-02  0.8213644E-01
        1   -1    0    0  501    0  0.00000000000E+00  0.00000000000E+00  0.10806933297E+04  0.10806933298E+04  0.50400001928E-02 0. -1.
       -1   -1    0    0    0  501  0.00000000000E+00  0.00000000000E+00 -0.22340841203E+04  0.22340841203E+04  0.50400001928E-02 0.  1.
    10030    2    1    2    0    0  0.00000000000E+00  0.00000000000E+00 -0.11533907906E+04  0.33147774501E+04  0.31076420688E+04 0.  0.
        5    1    3    3  502    0 -0.15194095359E+04 -0.16118969309E+03 -0.87791930624E+03  0.17622008550E+04  0.46999998093E+01 0.  1.
       -5    1    3    3    0  502  0.15194095359E+04  0.16118969309E+03 -0.27547148434E+03  0.15525765951E+04  0.46999998093E+01 0. -1.
</event>
<event>
 5   0  0.2078009E-06  0.3106993E+04  0.7818609E-02  0.8213821E-01
       -2   -1    0    0    0  501  0.00000000000E+00  0.00000000000E+00  0.22092446475E+04  0.22092446475E+04  0.25500000920E-02 0.  1.
        2   -1    0    0  501    0  0.00000000000E+00  0.00000000000E+00 -0.10923875154E+04  0.10923875154E+04  0.25500000920E-02 0. -1.
    10030    2    1    2    0    0  0.00000000000E+00  0.00000000000E+00  0.11168571322E+04  0.33016321629E+04  0.31069929329E+04 0.  0.
        3    1    3    3  502    0 -0.56815559264E+03 -0.96084679451E+03 -0.58968305750E+03  0.12624394871E+04  0.10100000352E+00 0. -1.
       -3    1    3    3    0  502  0.56815559264E+03  0.96084679451E+03  0.17065401897E+04  0.20391926758E+04  0.10100000352E+00 0.  1.
</event>
<event>
 5   0  0.2133385E-06  0.3115881E+04  0.7818609E-02  0.8211393E-01
       -2   -1    0    0    0  501  0.00000000000E+00  0.00000000000E+00  0.20730720823E+04  0.20730720823E+04  0.25500000920E-02 0. -1.
        2   -1    0    0  501    0  0.00000000000E+00  0.00000000000E+00 -0.11708124463E+04  0.11708124463E+04  0.25500000920E-02 0.  1.
    10030    2    1    2    0    0  0.00000000000E+00  0.00000000000E+00  0.90225963600E+03  0.32438845286E+04  0.31158809964E+04 0.  0.
        2    1    3    3  502    0  0.13160666809E+03 -0.15099868659E+04  0.82620509023E+03  0.17262663472E+04  0.25500000920E-02 0. -1.
       -2    1    3    3    0  502 -0.13160666809E+03  0.15099868659E+04  0.76054545770E+02  0.15176181813E+04  0.25500000920E-02 0.  1.
</event>
<event>
 5   0  0.7561815E-07  0.2974315E+04  0.7818609E-02  0.8251104E-01
        1   -1    0    0  501    0  0.00000000000E+00  0.00000000000E+00  0.18904402320E+04  0.18904402320E+04  0.50400001928E-02 0.  1.
       -1   -1    0    0    0  501  0.00000000000E+00  0.00000000000E+00 -0.11699063063E+04  0.11699063064E+04  0.50400001928E-02 0. -1.
    10030    2    1    2    0    0  0.00000000000E+00  0.00000000000E+00  0.72053392569E+03  0.30603465384E+04  0.29743153493E+04 0.  0.
        3    1    3    3  502    0 -0.74791978029E+03 -0.40789904366E+03 -0.89395482018E+03  0.12348768596E+04  0.10100000352E+00 0. -1.
       -3    1    3    3    0  502  0.74791978029E+03  0.40789904366E+03  0.16144887459E+04  0.18254696788E+04  0.10100000352E+00 0.  1.
</event>
<event>
 5   0  0.2226334E-06  0.3081365E+04  0.7818609E-02  0.8220871E-01
        2   -1    0    0  501    0  0.00000000000E+00  0.00000000000E+00  0.12519463780E+04  0.12519463780E+04  0.25500000920E-02 0.  1.
       -2   -1    0    0    0  501  0.00000000000E+00  0.00000000000E+00 -0.18960098743E+04  0.18960098743E+04  0.25500000920E-02 0. -1.
    10030    2    1    2    0    0  0.00000000000E+00  0.00000000000E+00 -0.64406349633E+03  0.31479562523E+04  0.30813650837E+04 0.  0.
        5    1    3    3  502    0 -0.40589598802E+03 -0.14352770394E+04  0.72194755244E+02  0.14933204296E+04  0.46999998093E+01 0.  1.
       -5    1    3    3    0  502  0.40589598802E+03  0.14352770394E+04 -0.71625825158E+03  0.16546358227E+04  0.46999998093E+01 0. -1.
</event>
<event>
 5   0  0.2133385E-06  0.3079778E+04  0.7818609E-02  0.8221310E-01
       -2   -1    0    0    0  501  0.00000000000E+00  0.00000000000E+00  0.18268125676E+04  0.18268125676E+04  0.25500000920E-02 0.  1.
        2   -1    0    0  501    0  0.00000000000E+00  0.00000000000E+00 -0.12980301667E+04  0.12980301667E+04  0.25500000920E-02 0. -1.
    10030    2    1    2    0    0  0.00000000000E+00  0.00000000000E+00  0.52878240090E+03  0.31248427343E+04  0.30797777982E+04 0.  0.
        2    1    3    3  502    0 -0.21731546601E+03 -0.93051765747E+03 -0.96082482071E+03  0.13550916791E+04  0.25500000920E-02 0. -1.
       -2    1    3    3    0  502  0.21731546601E+03  0.93051765747E+03  0.14896072216E+04  0.17697510552E+04  0.25500000920E-02 0.  1.
</event>
<event>
 5   0  0.7726743E-07  0.3278559E+04  0.7818609E-02  0.8168373E-01
       -1   -1    0    0    0  501  0.00000000000E+00  0.00000000000E+00  0.14069141482E+04  0.14069141482E+04  0.50400001928E-02 0.  1.
        1   -1    0    0  501    0  0.00000000000E+00  0.00000000000E+00 -0.19100220894E+04  0.19100220894E+04  0.50400001928E-02 0. -1.
    10030    2    1    2    0    0  0.00000000000E+00  0.00000000000E+00 -0.50310794114E+03  0.33169362376E+04  0.32785588914E+04 0.  0.
        1    1    3    3  502    0 -0.13866147667E+03 -0.12892084223E+04  0.76315782045E+03  0.15045581478E+04  0.50400001928E-02 0.  1.
       -1    1    3    3    0  502  0.13866147667E+03  0.12892084223E+04 -0.12662657616E+04  0.18123780898E+04  0.50400001928E-02 0. -1.
</event>
<event>
 5   0  0.2226334E-06  0.3002367E+04  0.7818609E-02  0.8243055E-01
        2   -1    0    0  501    0  0.00000000000E+00  0.00000000000E+00  0.27655221358E+04  0.27655221358E+04  0.25500000920E-02 0.  1.
       -2   -1    0    0    0  501  0.00000000000E+00  0.00000000000E+00 -0.81487390708E+03  0.81487390709E+03  0.25500000920E-02 0. -1.
    10030    2    1    2    0    0  0.00000000000E+00  0.00000000000E+00  0.19506482287E+04  0.35803960429E+04  0.30023669516E+04 0.  0.
        5    1    3    3  502    0  0.75133794243E+03 -0.37823926963E+03  0.24580670877E+04  0.25980164639E+04  0.46999998093E+01 0.  1.
       -5    1    3    3    0  502 -0.75133794243E+03  0.37823926963E+03 -0.50741885899E+03  0.98237957902E+03  0.46999998093E+01 0. -1.
</event>
<event>
 5   0  0.2226334E-06  0.3104673E+04  0.7818609E-02  0.8214457E-01
       -2   -1    0    0    0  501  0.00000000000E+00  0.00000000000E+00  0.11005408742E+04  0.11005408742E+04  0.25500000920E-02 0. -1.
        2   -1    0    0  501    0  0.00000000000E+00  0.00000000000E+00 -0.21896037595E+04  0.21896037595E+04  0.25500000920E-02 0.  1.
    10030    2    1    2    0    0  0.00000000000E+00  0.00000000000E+00 -0.10890628854E+04  0.32901446337E+04  0.31046728881E+04 0.  0.
        5    1    3    3  502    0 -0.15400286705E+03  0.11115471013E+04 -0.16812089402E+04  0.20213212095E+04  0.46999998093E+01 0.  1.
       -5    1    3    3    0  502  0.15400286705E+03 -0.11115471013E+04  0.59214605482E+03  0.12688234242E+04  0.46999998093E+01 0. -1.
</event>
<event>
 5   0  0.2078009E-06  0.3124272E+04  0.7818609E-02  0.8209108E-01
       -2   -1    0    0    0  501  0.00000000000E+00  0.00000000000E+00  0.19175082309E+04  0.19175082309E+04  0.25500000920E-02 0. -1.
        2   -1    0    0  501    0  0.00000000000E+00  0.00000000000E+00 -0.12726249151E+04  0.12726249151E+04  0.25500000920E-02 0.  1.
    10030    2    1    2    0    0  0.00000000000E+00  0.00000000000E+00  0.64488331580E+03  0.31901331461E+04  0.31242719150E+04 0.  0.
        3    1    3    3  502    0  0.79359414804E+03 -0.12921406644E+04 -0.60769149735E+02  0.15176007605E+04  0.10100000352E+00 0. -1.
       -3    1    3    3    0  502 -0.79359414804E+03  0.12921406644E+04  0.70565246554E+03  0.16725323856E+04  0.10100000352E+00 0.  1.
</event>
<event>
 5   0  0.7656332E-07  0.3109620E+04  0.7818609E-02  0.8213103E-01
       -1   -1    0    0    0  501  0.00000000000E+00  0.00000000000E+00  0.11078152886E+04  0.11078152886E+04  0.50400001928E-02 0.  1.
        1   -1    0    0  501    0  0.00000000000E+00  0.00000000000E+00 -0.21821629357E+04  0.21821629357E+04  0.50400001928E-02 0. -1.
    10030    2    1    2    0    0  0.00000000000E+00  0.00000000000E+00 -0.10743476471E+04  0.32899782244E+04  0.31096195668E+04 0.  0.
        2    1    3    3  502    0 -0.15147847870E+04 -0.21645128183E+03 -0.24548533889E+03  0.15497377714E+04  0.25500000920E-02 0. -1.
       -2    1    3    3    0  502  0.15147847870E+04  0.21645128183E+03 -0.82886230821E+03  0.17402404530E+04  0.25500000920E-02 0.  1.
</event>
<event>
 5   0  0.7413481E-07  0.3058170E+04  0.7818609E-02  0.8227313E-01
        1   -1    0    0  501    0  0.00000000000E+00  0.00000000000E+00  0.21559678781E+04  0.21559678781E+04  0.50400001928E-02 0. -1.
       -1   -1    0    0    0  501  0.00000000000E+00  0.00000000000E+00 -0.10844783789E+04  0.10844783790E+04  0.50400001928E-02 0.  1.
    10030    2    1    2    0    0  0.00000000000E+00  0.00000000000E+00  0.10714894991E+04  0.32404462570E+04  0.30581697464E+04 0.  0.
        5    1    3    3  502    0  0.13287538595E+04  0.67041168566E+03  0.16406742616E+03  0.14973238987E+04  0.46999998093E+01 0.  1.
       -5    1    3    3    0  502 -0.13287538595E+04 -0.67041168566E+03  0.90742207295E+03  0.17431223583E+04  0.46999998093E+01 0. -1.
</event>
<event>
 5   0  0.2133385E-06  0.3103891E+04  0.7818609E-02  0.8214671E-01
       -2   -1    0    0    0  501  0.00000000000E+00  0.00000000000E+00  0.11619117321E+04  0.11619117321E+04  0.25500000920E-02 0.  1.
        2   -1    0    0  501    0  0.00000000000E+00  0.00000000000E+00 -0.20729066703E+04  0.20729066703E+04  0.25500000920E-02 0. -1.
    10030    2    1    2    0    0  0.00000000000E+00  0.00000000000E+00 -0.91099493823E+03  0.32348184024E+04  0.31038908356E+04 0.  0.
        2    1    3    3  502    0  0.15940485989E+03  0.64253522507E+03  0.10073757405E+04  0.12054324151E+04  0.25500000920E-02 0.  1.
       -2    1    3    3    0  502 -0.15940485989E+03 -0.64253522507E+03 -0.19183706787E+04  0.20293859874E+04  0.25500000920E-02 0. -1.
</event>
<event>
 5   0  0.2067926E-06  0.3137977E+04  0.7818609E-02  0.8205392E-01
       -2   -1    0    0    0  501  0.00000000000E+00  0.00000000000E+00  0.12088163780E+04  0.12088163780E+04  0.25500000920E-02 0.  1.
        2   -1    0    0  501    0  0.00000000000E+00  0.00000000000E+00 -0.20364755167E+04  0.20364755167E+04  0.25500000920E-02 0. -1.
    10030    2    1    2    0    0  0.00000000000E+00  0.00000000000E+00 -0.82765913872E+03  0.32452918947E+04  0.31379770286E+04 0.  0.
        1    1    3    3  502    0  0.28332472092E+03 -0.50926712387E+03  0.10927318140E+04  0.12384218660E+04  0.50400001928E-02 0.  1.
       -1    1    3    3    0  502 -0.28332472092E+03  0.50926712387E+03 -0.19203909527E+04  0.20068700287E+04  0.50400001928E-02 0. -1.
</event>
<event>
 5   0  0.7656332E-07  0.3098061E+04  0.7818609E-02  0.8216270E-01
        1   -1    0    0  501    0  0.00000000000E+00  0.00000000000E+00  0.16867886107E+04  0.16867886107E+04  0.50400001928E-02 0. -1.
       -1   -1    0    0    0  501  0.00000000000E+00  0.00000000000E+00 -0.14225226875E+04  0.14225226875E+04  0.50400001928E-02 0.  1.
    10030    2    1    2    0    0  0.00000000000E+00  0.00000000000E+00  0.26426592317E+03  0.31093112982E+04  0.30980607274E+04 0.  0.
        2    1    3    3  502    0  0.43479939455E+03 -0.65756020484E+03  0.14704141656E+04  0.16683985600E+04  0.25500000920E-02 0. -1.
       -2    1    3    3    0  502 -0.43479939455E+03  0.65756020484E+03 -0.12061482424E+04  0.14409127382E+04  0.25500000920E-02 0.  1.
</event>
<event>
 5   0  0.7561815E-07  0.3141676E+04  0.7818609E-02  0.8204392E-01
       -1   -1    0    0    0  501  0.00000000000E+00  0.00000000000E+00  0.85705231891E+03  0.85705231892E+03  0.50400001928E-02 0.  1.
        1   -1    0    0  501    0  0.00000000000E+00  0.00000000000E+00 -0.28790917603E+04  0.28790917603E+04  0.50400001928E-02 0. -1.
    10030    2    1    2    0    0  0.00000000000E+00  0.00000000000E+00 -0.20220394414E+04  0.37361440792E+04  0.31416761574E+04 0.  0.
        3    1    3    3  502    0 -0.98448387542E+02 -0.80407966572E+03  0.58948486052E+03  0.10018625678E+04  0.10100000352E+00 0.  1.
       -3    1    3    3    0  502  0.98448387542E+02  0.80407966572E+03 -0.26115243019E+04  0.27342815114E+04  0.10100000352E+00 0. -1.
</event>
<event>
 5   0  0.2133385E-06  0.3021380E+04  0.7818609E-02  0.8237652E-01
       -2   -1    0    0    0  501  0.00000000000E+00  0.00000000000E+00  0.13355474362E+04  0.13355474362E+04  0.25500000920E-02 0.  1.
        2   -1    0    0  501    0  0.00000000000E+00  0.00000000000E+00 -0.17088008458E+04  0.17088008458E+04  0.25500000920E-02 0. -1.
    10030    2    1    2    0    0  0.00000000000E+00  0.00000000000E+00 -0.37325340957E+03  0.30443482820E+04  0.30213802069E+04 0.  0.
        2    1    3    3  502    0  0.24489699424E+03 -0.13232844197E+04  0.50497904614E+03  0.14373795707E+04  0.25500000920E-02 0.  1.
       -2    1    3    3    0  502 -0.24489699424E+03  0.13232844197E+04 -0.87823245571E+03  0.16069687114E+04  0.25500000920E-02 0. -1.
</event>
<event>
 5   0  0.7726743E-07  0.3113574E+04  0.7818609E-02  0.8212023E-01
        1   -1    0    0  501    0  0.00000000000E+00  0.00000000000E+00  0.28702842158E+04  0.28702842158E+04  0.50400001928E-02 0. -1.
       -1   -1    0    0    0  501  0.00000000000E+00  0.00000000000E+00 -0.84437118435E+03  0.84437118436E+03  0.50400001928E-02 0.  1.
    10030    2    1    2    0    0  0.00000000000E+00  0.00000000000E+00  0.20259130314E+04  0.37146554002E+04  0.31135736913E+04 0.  0.
        1    1    3    3  502    0  0.10334529927E+04  0.77642588185E+03 -0.22130804637E+02  0.12928078012E+04  0.50400001928E-02 0.  1.
       -1    1    3    3    0  502 -0.10334529927E+04 -0.77642588185E+03  0.20480438361E+04  0.24218475990E+04  0.50400001928E-02 0. -1.
</event>
<event>
 5   0  0.7726743E-07  0.3101901E+04  0.7818609E-02  0.8215217E-01
       -1   -1    0    0    0  501  0.00000000000E+00  0.00000000000E+00  0.12764394987E+04  0.12764394987E+04  0.50400001928E-02 0. -1.
        1   -1    0    0  501    0  0.00000000000E+00  0.00000000000E+00 -0.18844972230E+04  0.18844972230E+04  0.50400001928E-02 0.  1.
    10030    2    1    2    0    0  0.00000000000E+00  0.00000000000E+00 -0.60805772437E+03  0.31609367217E+04  0.31019005081E+04 0.  0.
        1    1    3    3  502    0  0.58523254846E+03  0.34833690176E+03 -0.17239657612E+04  0.18536163785E+04  0.50400001928E-02 0.  1.
       -1    1    3    3    0  502 -0.58523254846E+03 -0.34833690176E+03  0.11159080368E+04  0.13073203432E+04  0.50400001928E-02 0. -1.
</event>
<event>
 5   0  0.7656332E-07  0.3078753E+04  0.7818609E-02  0.8221593E-01
       -1   -1    0    0    0  501  0.00000000000E+00  0.00000000000E+00  0.94572684664E+03  0.94572684665E+03  0.50400001928E-02 0. -1.
        1   -1    0    0  501    0  0.00000000000E+00  0.00000000000E+00 -0.25056708027E+04  0.25056708027E+04  0.50400001928E-02 0.  1.
    10030    2    1    2    0    0  0.00000000000E+00  0.00000000000E+00 -0.15599439561E+04  0.34513976494E+04  0.30787530898E+04 0.  0.
        2    1    3    3  502    0 -0.13137236564E+03 -0.71486490769E+02  0.93756251344E+03  0.94941691761E+03  0.25500000920E-02 0. -1.
       -2    1    3    3    0  502  0.13137236564E+03  0.71486490769E+02 -0.24975064695E+04  0.25019807318E+04  0.25500000920E-02 0.  1.
</event>
<event>
 5   0  0.2094135E-06  0.3077007E+04  0.7818609E-02  0.8222077E-01
        2   -1    0    0  501    0  0.00000000000E+00  0.00000000000E+00  0.20990954624E+04  0.20990954624E+04  0.25500000920E-02 0.  1.
       -2   -1    0    0    0  501  0.00000000000E+00  0.00000000000E+00 -0.11276254134E+04  0.11276254134E+04  0.25500000920E-02 0. -1.
    10030    2    1    2    0    0  0.00000000000E+00  0.00000000000E+00  0.97147004896E+03  0.32267208758E+04  0.30770072399E+04 0.  0.
        4    1    3    3  502    0  0.60575873818E+03  0.11627898618E+04 -0.35839551856E+03  0.13592177427E+04  0.12699999809E+01 0. -1.
       -4    1    3    3    0  502 -0.60575873818E+03 -0.11627898618E+04  0.13298655675E+04  0.18675031331E+04  0.12699999809E+01 0.  1.
</event>
<event>
 5   0  0.2226334E-06  0.3131759E+04  0.7818609E-02  0.8207076E-01
       -2   -1    0    0    0  501  0.00000000000E+00  0.00000000000E+00  0.10501332765E+04  0.10501332765E+04  0.25500000920E-02 0.  1.
        2   -1    0    0  501    0  0.00000000000E+00  0.00000000000E+00 -0.23349215450E+04  0.23349215450E+04  0.25500000920E-02 0. -1.
    10030    2    1    2    0    0  0.00000000000E+00  0.00000000000E+00 -0.12847882685E+04  0.33850548215E+04  0.31317591302E+04 0.  0.
        5    1    3    3  502    0 -0.56467565180E+03  0.11261428554E+04  0.36282420493E+03  0.13109995485E+04  0.46999998093E+01 0.  1.
       -5    1    3    3    0  502  0.56467565180E+03 -0.11261428554E+04 -0.16476124734E+04  0.20740552729E+04  0.46999998093E+01 0. -1.
</event>
<event>
 5   0  0.2094135E-06  0.3096870E+04  0.7818609E-02  0.8216597E-01
        2   -1    0    0  501    0  0.00000000000E+00  0.00000000000E+00  0.16374143467E+04  0.16374143467E+04  0.25500000920E-02 0. -1.
       -2   -1    0    0    0  501  0.00000000000E+00  0.00000000000E+00 -0.14642913172E+04  0.14642913172E+04  0.25500000920E-02 0.  1.
    10030    2    1    2    0    0  0.00000000000E+00  0.00000000000E+00  0.17312302950E+03  0.31017056639E+04  0.30968704271E+04 0.  0.
        4    1    3    3  502    0  0.12426818382E+04 -0.56610651336E+03 -0.64458872598E+03  0.15100433683E+04  0.12699999809E+01 0.  1.
       -4    1    3    3    0  502 -0.12426818382E+04  0.56610651336E+03  0.81771175548E+03  0.15916622957E+04  0.12699999809E+01 0. -1.
</event>
<event>
 5   0  0.2067926E-06  0.3108216E+04  0.7818609E-02  0.8213487E-01
        2   -1    0    0  501    0  0.00000000000E+00  0.00000000000E+00  0.16489721521E+04  0.16489721521E+04  0.25500000920E-02 0.  1.
       -2   -1    0    0    0  501  0.00000000000E+00  0.00000000000E+00 -0.14647012375E+04  0.14647012375E+04  0.25500000920E-02 0. -1.
    10030    2    1    2    0    0  0.00000000000E+00  0.00000000000E+00  0.18427091458E+03  0.31136733896E+04  0.31082159203E+04 0.  0.
        1    1    3    3  502    0  0.60429704852E+03  0.14307866538E+04  0.37946298449E+02  0.15536297156E+04  0.50400001928E-02 0. -1.
       -1    1    3    3    0  502 -0.60429704852E+03 -0.14307866538E+04  0.14632461614E+03  0.15600436740E+04  0.50400001928E-02 0.  1.
</event>
<event>
 5   0  0.2226334E-06  0.3096090E+04  0.7818609E-02  0.8216812E-01
       -2   -1    0    0    0  501  0.00000000000E+00  0.00000000000E+00  0.15629905019E+04  0.15629905019E+04  0.25500000920E-02 0.  1.
        2   -1    0    0  501    0  0.00000000000E+00  0.00000000000E+00 -0.15332429020E+04  0.15332429020E+04  0.25500000920E-02 0. -1.
    10030    2    1    2    0    0  0.00000000000E+00  0.00000000000E+00  0.29747599927E+02  0.30962334039E+04  0.30960904980E+04 0.  0.
        5    1    3    3  502    0  0.82004265141E+03 -0.44029464117E+02 -0.12974418741E+04  0.15355084013E+04  0.46999998093E+01 0. -1.
       -5    1    3    3    0  502 -0.82004265141E+03  0.44029464117E+02  0.13271894740E+04  0.15607250026E+04  0.46999998093E+01 0.  1.
</event>
<event>
 5   0  0.2078009E-06  0.3110885E+04  0.7818609E-02  0.8212757E-01
        2   -1    0    0  501    0  0.00000000000E+00  0.00000000000E+00  0.19473786269E+04  0.19473786269E+04  0.25500000920E-02 0. -1.
       -2   -1    0    0    0  501  0.00000000000E+00  0.00000000000E+00 -0.12423884764E+04  0.12423884764E+04  0.25500000920E-02 0.  1.
    10030    2    1    2    0    0  0.00000000000E+00  0.00000000000E+00  0.70499015056E+03  0.31897671033E+04  0.31108846107E+04 0.  0.
        3    1    3    3  502    0 -0.27291810258E+03 -0.78386768323E+03  0.17013239316E+04  0.18929965573E+04  0.10100000352E+00 0. -1.
       -3    1    3    3    0  502  0.27291810258E+03  0.78386768323E+03 -0.99633378105E+03  0.12967705460E+04  0.10100000352E+00 0.  1.
</event>
<event>
 5   0  0.2094135E-06  0.3188967E+04  0.7818609E-02  0.8191737E-01
       -2   -1    0    0    0  501  0.00000000000E+00  0.00000000000E+00  0.11394460969E+04  0.11394460969E+04  0.25500000920E-02 0.  1.
        2   -1    0    0  501    0  0.00000000000E+00  0.00000000000E+00 -0.22312399739E+04  0.22312399739E+04  0.25500000920E-02 0. -1.
    10030    2    1    2    0    0  0.00000000000E+00  0.00000000000E+00 -0.10917938769E+04  0.33706860708E+04  0.31889670300E+04 0.  0.
        4    1    3    3  502    0 -0.21347867766E+03 -0.14258940463E+04 -0.12656004401E+04  0.19184611187E+04  0.12699999809E+01 0.  1.
       -4    1    3    3    0  502  0.21347867766E+03  0.14258940463E+04  0.17380656311E+03  0.14522249521E+04  0.12699999809E+01 0. -1.
</event>
<event>
 5   0  0.7561815E-07  0.3099241E+04  0.7818609E-02  0.8215946E-01
        1   -1    0    0  501    0  0.00000000000E+00  0.00000000000E+00  0.19857215062E+04  0.19857215062E+04  0.50400001928E-02 0. -1.
       -1   -1    0    0    0  501  0.00000000000E+00  0.00000000000E+00 -0.12092950634E+04  0.12092950634E+04  0.50400001928E-02 0.  1.
    10030    2    1    2    0    0  0.00000000000E+00  0.00000000000E+00  0.77642644278E+03  0.31950165696E+04  0.30992406907E+04 0.  0.
        3    1    3    3  502    0  0.78520797750E+03  0.78096576881E+02 -0.98667000041E+03  0.12633955608E+04  0.10100000352E+00 0.  1.
       -3    1    3    3    0  502 -0.78520797750E+03 -0.78096576881E+02  0.17630964432E+04  0.19316210087E+04  0.10100000352E+00 0. -1.
</event>
<event>
 5   0  0.7656332E-07  0.3113062E+04  0.7818609E-02  0.8212162E-01
        1   -1    0    0  501    0  0.00000000000E+00  0.00000000000E+00  0.18104744503E+04  0.18104744503E+04  0.50400001928E-02 0.  1.
       -1   -1    0    0    0  501  0.00000000000E+00  0.00000000000E+00 -0.13382062541E+04  0.13382062542E+04  0.50400001928E-02 0. -1.
    10030    2    1    2    0    0  0.00000000000E+00  0.00000000000E+00  0.47226819614E+03  0.31486807045E+04  0.31130616649E+04 0.  0.
        2    1    3    3  502    0 -0.64006752899E+02 -0.15405145894E+04  0.20371565696E+02  0.15419782960E+04  0.25500000920E-02 0.  1.
       -2    1    3    3    0  502  0.64006752899E+02  0.15405145894E+04  0.45189663044E+03  0.16067024084E+04  0.25500000920E-02 0. -1.
</event>
<event>
 5   0  0.7413481E-07  0.3098687E+04  0.7818609E-02  0.8216098E-01
       -1   -1    0    0    0  501  0.00000000000E+00  0.00000000000E+00  0.14650394832E+04  0.14650394832E+04  0.50400001928E-02 0. -1.
        1   -1    0    0  501    0  0.00000000000E+00  0.00000000000E+00 -0.16384987726E+04  0.16384987726E+04  0.50400001928E-02 0.  1.
    10030    2    1    2    0    0  0.00000000000E+00  0.00000000000E+00 -0.17345928943E+03  0.31035382558E+04  0.30986870736E+04 0.  0.
        5    1    3    3  502    0  0.13008340331E+04 -0.58466102734E+03  0.51956557236E+03  0.15178827927E+04  0.46999998093E+01 0. -1.
       -5    1    3    3    0  502 -0.13008340331E+04  0.58466102734E+03 -0.69302486179E+03  0.15856554631E+04  0.46999998093E+01 0.  1.
</event>
<event>
 5   0  0.2094135E-06  0.3084723E+04  0.7818609E-02  0.8219943E-01
       -2   -1    0    0    0  501  0.00000000000E+00  0.00000000000E+00  0.16001816803E+04  0.16001816803E+04  0.25500000920E-02 0.  1.
        2   -1    0    0  501    0  0.00000000000E+00  0.00000000000E+00 -0.14866305114E+04  0.14866305115E+04  0.25500000920E-02 0. -1.
    10030    2    1    2    0    0  0.00000000000E+00  0.00000000000E+00  0.11355116881E+03  0.30868121917E+04  0.30847229436E+04 0.  0.
        4    1    3    3  502    0  0.95908962328E+03  0.96954957076E+03  0.77767868628E+03  0.15699251663E+04  0.12699999809E+01 0.  1.
       -4    1    3    3    0  502 -0.95908962328E+03 -0.96954957076E+03 -0.66412751747E+03  0.15168870255E+04  0.12699999809E+01 0. -1.
</event>
<event>
 5   0  0.7726743E-07  0.3132735E+04  0.7818609E-02  0.8206811E-01
        1   -1    0    0  501    0  0.00000000000E+00  0.00000000000E+00  0.10472579004E+04  0.10472579004E+04  0.50400001928E-02 0. -1.
       -1   -1    0    0    0  501  0.00000000000E+00  0.00000000000E+00 -0.23427916480E+04  0.23427916480E+04  0.50400001928E-02 0.  1.
    10030    2    1    2    0    0  0.00000000000E+00  0.00000000000E+00 -0.12955337476E+04  0.33900495484E+04  0.31327349472E+04 0.  0.
        1    1    3    3  502    0  0.83892717056E+03  0.11626006192E+04 -0.13305158583E+04  0.19559425980E+04  0.50400001928E-02 0.  1.
       -1    1    3    3    0  502 -0.83892717056E+03 -0.11626006192E+04  0.34982110744E+02  0.14341069504E+04  0.50400001928E-02 0. -1.
</event>
<event>
 5   0  0.7413481E-07  0.3102252E+04  0.7818609E-02  0.8215120E-01
       -1   -1    0    0    0  501  0.00000000000E+00  0.00000000000E+00  0.81984972280E+03  0.81984972281E+03  0.50400001928E-02 0.  1.
        1   -1    0    0  501    0  0.00000000000E+00  0.00000000000E+00 -0.29346740070E+04  0.29346740070E+04  0.50400001928E-02 0. -1.
    10030    2    1    2    0    0  0.00000000000E+00  0.00000000000E+00 -0.21148242842E+04  0.37545237298E+04  0.31022518732E+04 0.  0.
        5    1    3    3  502    0  0.97487416092E+03  0.11439439358E+04 -0.15214038342E+04  0.21386161588E+04  0.46999998093E+01 0. -1.
       -5    1    3    3    0  502 -0.97487416092E+03 -0.11439439358E+04 -0.59342045003E+03  0.16159075711E+04  0.46999998093E+01 0.  1.
</event>
<event>
 5   0  0.7726743E-07  0.3115801E+04  0.7818609E-02  0.8211415E-01
       -1   -1    0    0    0  501  0.00000000000E+00  0.00000000000E+00  0.20944255021E+04  0.20944255021E+04  0.50400001928E-02 0. -1.
        1   -1    0    0  501    0  0.00000000000E+00  0.00000000000E+00 -0.11588157203E+04  0.11588157204E+04  0.50400001928E-02 0.  1.
    10030    2    1    2    0    0  0.00000000000E+00  0.00000000000E+00  0.93560978176E+03  0.32532412225E+04  0.31158005051E+04 0.  0.
        1    1    3    3  502    0  0.58023268127E+03 -0.40975915051E+03  0.19155016905E+04  0.20429682455E+04  0.50400001928E-02 0. -1.
       -1    1    3    3    0  502 -0.58023268127E+03  0.40975915051E+03 -0.97989190875E+03  0.12102729769E+04  0.50400001928E-02 0.  1.
</event>
<event>
 5   0  0.7656332E-07  0.3074595E+04  0.7818609E-02  0.8222745E-01
       -1   -1    0    0    0  501  0.00000000000E+00  0.00000000000E+00  0.11531751140E+04  0.11531751140E+04  0.50400001928E-02 0. -1.
        1   -1    0    0  501    0  0.00000000000E+00  0.00000000000E+00 -0.20493709546E+04  0.20493709546E+04  0.50400001928E-02 0.  1.
    10030    2    1    2    0    0  0.00000000000E+00  0.00000000000E+00 -0.89619584063E+03  0.32025460687E+04  0.30745949875E+04 0.  0.
        2    1    3    3  502    0  0.14851512266E+04  0.38024033922E+03 -0.32921356037E+03  0.15680046077E+04  0.25500000920E-02 0. -1.
       -2    1    3    3    0  502 -0.14851512266E+04 -0.38024033922E+03 -0.56698228026E+03  0.16345414610E+04  0.25500000920E-02 0.  1.
</event>
<event>
 5   0  0.2226334E-06  0.3097494E+04  0.7818609E-02  0.8216426E-01
        2   -1    0    0  501    0  0.00000000000E+00  0.00000000000E+00  0.27629571271E+04  0.27629571271E+04  0.25500000920E-02 0. -1.
       -2   -1    0    0    0  501  0.00000000000E+00  0.00000000000E+00 -0.86813381221E+03  0.86813381221E+03  0.25500000920E-02 0.  1.
    10030    2    1    2    0    0  0.00000000000E+00  0.00000000000E+00  0.18948233149E+04  0.36310909393E+04  0.30974935052E+04 0.  0.
        5    1    3    3  502    0 -0.12759034544E+04  0.21054180602E+03 -0.51658039400E+02  0.12941978674E+04  0.46999998093E+01 0.  1.
       -5    1    3    3    0  502  0.12759034544E+04 -0.21054180602E+03  0.19464813543E+04  0.23368930719E+04  0.46999998093E+01 0. -1.
</event>
<event>
 5   0  0.2094135E-06  0.3096968E+04  0.7818609E-02  0.8216570E-01
        2   -1    0    0  501    0  0.00000000000E+00  0.00000000000E+00  0.16270231427E+04  0.16270231427E+04  0.25500000920E-02 0. -1.
       -2   -1    0    0    0  501  0.00000000000E+00  0.00000000000E+00 -0.14737362060E+04  0.14737362060E+04  0.25500000920E-02 0.  1.
    10030    2    1    2    0    0  0.00000000000E+00  0.00000000000E+00  0.15328693672E+03  0.31007593487E+04  0.30969681389E+04 0.  0.
        4    1    3    3  502    0 -0.88082932488E+03 -0.53778506533E+03 -0.10792082473E+04  0.14932398099E+04  0.12699999809E+01 0.  1.
       -4    1    3    3    0  502  0.88082932488E+03  0.53778506533E+03  0.12324951840E+04  0.16075195388E+04  0.12699999809E+01 0. -1.
</event>
<event>
 5   0  0.7561815E-07  0.3100249E+04  0.7818609E-02  0.8215670E-01
        1   -1    0    0  501    0  0.00000000000E+00  0.00000000000E+00  0.10377402731E+04  0.10377402731E+04  0.50400001928E-02 0.  1.
       -1   -1    0    0    0  501  0.00000000000E+00  0.00000000000E+00 -0.23154983203E+04  0.23154983203E+04  0.50400001928E-02 0. -1.
    10030    2    1    2    0    0  0.00000000000E+00  0.00000000000E+00 -0.12777580472E+04  0.33532385934E+04  0.31002489314E+04 0.  0.
        3    1    3    3  502    0 -0.40509833417E+03 -0.41463905769E+03 -0.21938524144E+04  0.22691449127E+04  0.10100000352E+00 0. -1.
       -3    1    3    3    0  502  0.40509833417E+03  0.41463905769E+03  0.91609436723E+03  0.10840936806E+04  0.10100000352E+00 0.  1.
</event>
<event>
 5   0  0.7656332E-07  0.3086203E+04  0.7818609E-02  0.8219535E-01
        1   -1    0    0  501    0  0.00000000000E+00  0.00000000000E+00  0.24776752782E+04  0.24776752782E+04  0.50400001928E-02 0. -1.
       -1   -1    0    0    0  501  0.00000000000E+00  0.00000000000E+00 -0.96104702922E+03  0.96104702924E+03  0.50400001928E-02 0.  1.
    10030    2    1    2    0    0  0.00000000000E+00  0.00000000000E+00  0.15166282490E+04  0.34387223074E+04  0.30862031466E+04 0.  0.
        2    1    3    3  502    0 -0.10018989975E+04  0.90639550303E+03 -0.72368287130E+02  0.13529935617E+04  0.25500000920E-02 0.  1.
       -2    1    3    3    0  502  0.10018989975E+04 -0.90639550303E+03  0.15889965361E+04  0.20857287457E+04  0.25500000920E-02 0. -1.
</event>
<event>
 5   0  0.2094135E-06  0.3096499E+04  0.7818609E-02  0.8216699E-01
       -2   -1    0    0    0  501  0.00000000000E+00  0.00000000000E+00  0.16371320798E+04  0.16371320798E+04  0.25500000920E-02 0.  1.
        2   -1    0    0  501    0  0.00000000000E+00  0.00000000000E+00 -0.14641921501E+04  0.14641921501E+04  0.25500000920E-02 0. -1.
    10030    2    1    2    0    0  0.00000000000E+00  0.00000000000E+00  0.17293992973E+03  0.31013242298E+04  0.30964986290E+04 0.  0.
        4    1    3    3  502    0  0.94679351667E+03 -0.12218871550E+04  0.17405992241E+03  0.15555464159E+04  0.12699999809E+01 0.  1.
       -4    1    3    3    0  502 -0.94679351667E+03  0.12218871550E+04 -0.11199926792E+01  0.15457778139E+04  0.12699999809E+01 0. -1.
</event>
<event>
 5   0  0.7726743E-07  0.3125134E+04  0.7818609E-02  0.8208874E-01
        1   -1    0    0  501    0  0.00000000000E+00  0.00000000000E+00  0.13046734929E+04  0.13046734930E+04  0.50400001928E-02 0. -1.
       -1   -1    0    0    0  501  0.00000000000E+00  0.00000000000E+00 -0.18714382553E+04  0.18714382553E+04  0.50400001928E-02 0.  1.
    10030    2    1    2    0    0  0.00000000000E+00  0.00000000000E+00 -0.56676476236E+03  0.31761117483E+04  0.31251341638E+04 0.  0.
        1    1    3    3  502    0  0.10158067907E+04  0.25134678500E+03  0.89596770461E+03  0.13776054479E+04  0.50400001928E-02 0. -1.
       -1    1    3    3    0  502 -0.10158067907E+04 -0.25134678500E+03 -0.14627324670E+04  0.17985063003E+04  0.50400001928E-02 0.  1.
</event>
<event>
 5   0  0.2067926E-06  0.3097080E+04  0.7818609E-02  0.8216540E-01
       -2   -1    0    0    0  501  0.00000000000E+00  0.00000000000E+00  0.14081883948E+04  0.14081883948E+04  0.25500000920E-02 0.  1.
        2   -1    0    0  501    0  0.00000000000E+00  0.00000000000E+00 -0.17028801740E+04  0.17028801740E+04  0.25500000920E-02 0. -1.
    10030    2    1    2    0    0  0.00000000000E+00  0.00000000000E+00 -0.29469177922E+03  0.31110685688E+04  0.30970799788E+04 0.  0.
        1    1    3    3  502    0  0.11170240438E+04 -0.67988228895E+03 -0.98054599578E+03  0.16344580420E+04  0.50400001928E-02 0.  1.
       -1    1    3    3    0  502 -0.11170240438E+04  0.67988228895E+03  0.68585421656E+03  0.14766105268E+04  0.50400001928E-02 0. -1.
</event>
<event>
 5   0  0.7726743E-07  0.3110510E+04  0.7818609E-02  0.8212860E-01
        1   -1    0    0  501    0  0.00000000000E+00  0.00000000000E+00  0.15787688510E+04  0.15787688510E+04  0.50400001928E-02 0. -1.
       -1   -1    0    0    0  501  0.00000000000E+00  0.00000000000E+00 -0.15320909136E+04  0.15320909136E+04  0.50400001928E-02 0.  1.
    10030    2    1    2    0    0  0.00000000000E+00  0.00000000000E+00  0.46677937390E+02  0.31108597646E+04  0.31105095475E+04 0.  0.
        1    1    3    3  502    0 -0.10289470874E+03  0.36364608289E+03  0.15321478235E+04  0.15780693102E+04  0.50400001928E-02 0. -1.
       -1    1    3    3    0  502  0.10289470874E+03 -0.36364608289E+03 -0.14854698861E+04  0.15327904544E+04  0.50400001928E-02 0.  1.
</event>
<event>
 5   0  0.7726743E-07  0.3113182E+04  0.7818609E-02  0.8212129E-01
       -1   -1    0    0    0  501  0.00000000000E+00  0.00000000000E+00  0.14023617001E+04  0.14023617001E+04  0.50400001928E-02 0.  1.
        1   -1    0    0  501    0  0.00000000000E+00  0.00000000000E+00 -0.17277825135E+04  0.17277825135E+04  0.50400001928E-02 0. -1.
    10030    2    1    2    0    0  0.00000000000E+00  0.00000000000E+00 -0.32542081336E+03  0.31301442136E+04  0.31131823095E+04 0.  0.
        1    1    3    3  502    0 -0.16842409151E+03  0.11975972508E+04 -0.11480345510E+04  0.16675098740E+04  0.50400001928E-02 0. -1.
       -1    1    3    3    0  502  0.16842409151E+03 -0.11975972508E+04  0.82261373765E+03  0.14626343395E+04  0.50400001928E-02 0.  1.
</event>
<event>
 5   0  0.2078009E-06  0.3123994E+04  0.7818609E-02  0.8209184E-01
        2   -1    0    0  501    0  0.00000000000E+00  0.00000000000E+00  0.24856919971E+04  0.24856919971E+04  0.25500000920E-02 0.  1.
       -2   -1    0    0    0  501  0.00000000000E+00  0.00000000000E+00 -0.98155175174E+03  0.98155175175E+03  0.25500000920E-02 0. -1.
    10030    2    1    2    0    0  0.00000000000E+00  0.00000000000E+00  0.15041402454E+04  0.34672437489E+04  0.31239944520E+04 0.  0.
        3    1    3    3  502    0  0.30328870768E+03  0.37148091169E+03  0.24019633270E+04  0.24493692948E+04  0.10100000352E+00 0.  1.
       -3    1    3    3    0  502 -0.30328870768E+03 -0.37148091169E+03 -0.89782308167E+03  0.10178744540E+04  0.10100000352E+00 0. -1.
</event>
<event>
 5   0  0.7413481E-07  0.3080305E+04  0.7818609E-02  0.8221164E-01
        1   -1    0    0  501    0  0.00000000000E+00  0.00000000000E+00  0.15575551801E+04  0.15575551801E+04  0.50400001928E-02 0. -1.
       -1   -1    0    0    0  501  0.00000000000E+00  0.00000000000E+00 -0.15229441844E+04  0.15229441844E+04  0.50400001928E-02 0.  1.
    10030    2    1    2    0    0  0.00000000000E+00  0.00000000000E+00  0.34610995735E+02  0.30804993645E+04  0.30803049222E+04 0.  0.
        5    1    3    3  502    0  0.12233296547E+04 -0.39602873123E+03  0.86510503069E+03  0.15497751463E+04  0.46999998093E+01 0. -1.
       -5    1    3    3    0  502 -0.12233296547E+04  0.39602873123E+03 -0.83049403496E+03  0.15307242182E+04  0.46999998093E+01 0.  1.
</event>
<event>
 5   0  0.2078009E-06  0.3107233E+04  0.7818609E-02  0.8213756E-01
        2   -1    0    0  501    0  0.00000000000E+00  0.00000000000E+00  0.16913613044E+04  0.16913613044E+04  0.25500000920E-02 0. -1.
       -2   -1    0    0    0  501  0.00000000000E+00  0.00000000000E+00 -0.14270897329E+04  0.14270897329E+04  0.25500000920E-02 0.  1.
    10030    2    1    2    0    0  0.00000000000E+00  0.00000000000E+00  0.26427157146E+03  0.31184510373E+04  0.31072330793E+04 0.  0.
        3    1    3    3  502    0  0.11169168685E+04  0.80722327194E+03 -0.58781846560E+03  0.14982133562E+04  0.10100000352E+00 0.  1.
       -3    1    3    3    0  502 -0.11169168685E+04 -0.80722327194E+03  0.85209003706E+03  0.16202376811E+04  0.10100000352E+00 0. -1.
</event>
<event>
 5   0  0.2094135E-06  0.3054977E+04  0.7818609E-02  0.8228204E-01
        2   -1    0    0  501    0  0.00000000000E+00  0.00000000000E+00  0.14310543021E+04  0.14310543021E+04  0.25500000920E-02 0. -1.
       -2   -1    0    0    0  501  0.00000000000E+00  0.00000000000E+00 -0.16304212426E+04  0.16304212426E+04  0.25500000920E-02 0.  1.
    10030    2    1    2    0    0  0.00000000000E+00  0.00000000000E+00 -0.19936694046E+03  0.30614755447E+04  0.30549771412E+04 0.  0.
        4    1    3    3  502    0 -0.13415344720E+03 -0.12696008192E+04 -0.94011890693E+03  0.15854679308E+04  0.12699999809E+01 0.  1.
       -4    1    3    3    0  502  0.13415344720E+03  0.12696008192E+04  0.74075196648E+03  0.14760076139E+04  0.12699999809E+01 0. -1.
</event>
<event>
 5   0  0.2078009E-06  0.3115671E+04  0.7818609E-02  0.8211450E-01
        2   -1    0    0  501    0  0.00000000000E+00  0.00000000000E+00  0.23878805257E+04  0.23878805257E+04  0.25500000920E-02 0.  1.
       -2   -1    0    0    0  501  0.00000000000E+00  0.00000000000E+00 -0.10163200268E+04  0.10163200269E+04  0.25500000920E-02 0. -1.
    10030    2    1    2    0    0  0.00000000000E+00  0.00000000000E+00  0.13715604988E+04  0.34042005525E+04  0.31156705859E+04 0.  0.
        3    1    3    3  502    0  0.11701078841E+04 -0.16742027493E+03 -0.42291548404E+03  0.12554041284E+04  0.10100000352E+00 0. -1.
       -3    1    3    3    0  502 -0.11701078841E+04  0.16742027493E+03  0.17944759829E+04  0.21487964241E+04  0.10100000352E+00 0.  1.
</event>
<event>
 5   0  0.2067926E-06  0.3113550E+04  0.7818609E-02  0.8212029E-01
        2   -1    0    0  501    0  0.00000000000E+00  0.00000000000E+00  0.20548211545E+04  0.20548211545E+04  0.25500000920E-02 0.  1.
       -2   -1    0    0    0  501  0.00000000000E+00  0.00000000000E+00 -0.11794446338E+04  0.11794446338E+04  0.25500000920E-02 0. -1.
    10030    2    1    2    0    0  0.00000000000E+00  0.00000000000E+00  0.87537652070E+03  0.32342657883E+04  0.31135496040E+04 0.  0.
        1    1    3    3  502    0  0.43877751080E+03  0.12424946191E+04 -0.42344570712E+03  0.13840609991E+04  0.50400001928E-02 0. -1.
       -1    1    3    3    0  502 -0.43877751080E+03 -0.12424946191E+04  0.12988222278E+04  0.18502047892E+04  0.50400001928E-02 0.  1.
</event>
<event>
 5   0  0.7656332E-07  0.3099195E+04  0.7818609E-02  0.8215959E-01
        1   -1    0    0  501    0  0.00000000000E+00  0.00000000000E+00  0.19530381958E+04  0.19530381958E+04  0.50400001928E-02 0.  1.
       -1   -1    0    0    0  501  0.00000000000E+00  0.00000000000E+00 -0.12294959096E+04  0.12294959096E+04  0.50400001928E-02 0. -1.
    10030    2    1    2    0    0  0.00000000000E+00  0.00000000000E+00  0.72354228624E+03  0.31825341054E+04  0.30991950394E+04 0.  0.
        2    1    3    3  502    0  0.65857478865E+03 -0.99277134454E+03 -0.65580266891E+03  0.13599238344E+04  0.25500000920E-02 0. -1.
       -2    1    3    3    0  502 -0.65857478865E+03  0.99277134454E+03  0.13793449552E+04  0.18226102710E+04  0.25500000920E-02 0.  1.
</event>
<event>
 5   0  0.7519202E-07  0.3101397E+04  0.7818609E-02  0.8215355E-01
       -1   -1    0    0    0  501  0.00000000000E+00  0.00000000000E+00  0.10516908405E+04  0.10516908405E+04  0.50400001928E-02 0.  1.
        1   -1    0    0  501    0  0.00000000000E+00  0.00000000000E+00 -0.22864757012E+04  0.22864757012E+04  0.50400001928E-02 0. -1.
    10030    2    1    2    0    0  0.00000000000E+00  0.00000000000E+00 -0.12347848607E+04  0.33381665417E+04  0.31013968156E+04 0.  0.
        4    1    3    3  502    0 -0.11538350906E+04  0.26512145375E+03 -0.16953696987E+04  0.20678261120E+04  0.12699999809E+01 0. -1.
       -4    1    3    3    0  502  0.11538350906E+04 -0.26512145375E+03  0.46058483797E+03  0.12703404297E+04  0.12699999809E+01 0.  1.
</event>
<event>
 5   0  0.2226334E-06  0.3106041E+04  0.7818609E-02  0.8214082E-01
       -2   -1    0    0    0  501  0.00000000000E+00  0.00000000000E+00  0.14295655406E+04  0.14295655406E+04  0.25500000920E-02 0.  1.
        2   -1    0    0  501    0  0.00000000000E+00  0.00000000000E+00 -0.16871365627E+04  0.16871365627E+04  0.25500000920E-02 0. -1.
    10030    2    1    2    0    0  0.00000000000E+00  0.00000000000E+00 -0.25757102204E+03  0.31167021033E+04  0.31060407546E+04 0.  0.
        5    1    3    3  502    0  0.15177440206E+04  0.56420613974E+02  0.19654952045E+03  0.15314646590E+04  0.46999998093E+01 0.  1.
       -5    1    3    3    0  502 -0.15177440206E+04 -0.56420613974E+02 -0.45412054249E+03  0.15852374443E+04  0.46999998093E+01 0. -1.
</event>
<event>
 5   0  0.7726743E-07  0.3108219E+04  0.7818609E-02  0.8213486E-01
        1   -1    0    0  501    0  0.00000000000E+00  0.00000000000E+00  0.22965517422E+04  0.22965517422E+04  0.50400001928E-02 0. -1.
       -1   -1    0    0    0  501  0.00000000000E+00  0.00000000000E+00 -0.10516885015E+04  0.10516885015E+04  0.50400001928E-02 0.  1.
    10030    2    1    2    0    0  0.00000000000E+00  0.00000000000E+00  0.12448632407E+04  0.33482402437E+04  0.31082194648E+04 0.  0.
        1    1    3    3  502    0 -0.26144124838E+03 -0.65859443096E+02 -0.10263040945E+04  0.10611263294E+04  0.50400001928E-02 0.  1.
       -1    1    3    3    0  502  0.26144124838E+03  0.65859443096E+02  0.22711673352E+04  0.22871139143E+04  0.50400001928E-02 0. -1.
</event>
<event>
 5   0  0.7519202E-07  0.3141468E+04  0.7818609E-02  0.8204449E-01
       -1   -1    0    0    0  501  0.00000000000E+00  0.00000000000E+00  0.19083937966E+04  0.19083937966E+04  0.50400001928E-02 0.  1.
        1   -1    0    0  501    0  0.00000000000E+00  0.00000000000E+00 -0.12928178292E+04  0.12928178292E+04  0.50400001928E-02 0. -1.
    10030    2    1    2    0    0  0.00000000000E+00  0.00000000000E+00  0.61557596746E+03  0.32012116258E+04  0.31414681443E+04 0.  0.
        4    1    3    3  502    0  0.38972500399E+03 -0.60688076018E+03  0.17296788714E+04  0.18740278672E+04  0.12699999809E+01 0.  1.
       -4    1    3    3    0  502 -0.38972500399E+03  0.60688076018E+03 -0.11141029039E+04  0.13271837587E+04  0.12699999809E+01 0. -1.
</event>
<event>
 5   0  0.7413481E-07  0.3095293E+04  0.7818609E-02  0.8217031E-01
        1   -1    0    0  501    0  0.00000000000E+00  0.00000000000E+00  0.16301490768E+04  0.16301490768E+04  0.50400001928E-02 0.  1.
       -1   -1    0    0    0  501  0.00000000000E+00  0.00000000000E+00 -0.14693190569E+04  0.14693190570E+04  0.50400001928E-02 0. -1.
    10030    2    1    2    0    0  0.00000000000E+00  0.00000000000E+00  0.16083001989E+03  0.30994681338E+04  0.30952926222E+04 0.  0.
        5    1    3    3  502    0  0.94692860287E+03 -0.53138389886E+03 -0.10238620060E+04  0.14924336248E+04  0.46999998093E+01 0. -1.
       -5    1    3    3    0  502 -0.94692860287E+03  0.53138389886E+03  0.11846920259E+04  0.16070345090E+04  0.46999998093E+01 0.  1.
</event>
<event>
 5   0  0.2094135E-06  0.3086886E+04  0.7818609E-02  0.8219346E-01
       -2   -1    0    0    0  501  0.00000000000E+00  0.00000000000E+00  0.12209569924E+04  0.12209569924E+04  0.25500000920E-02 0.  1.
        2   -1    0    0  501    0  0.00000000000E+00  0.00000000000E+00 -0.19511061615E+04  0.19511061615E+04  0.25500000920E-02 0. -1.
    10030    2    1    2    0    0  0.00000000000E+00  0.00000000000E+00 -0.73014916907E+03  0.31720631539E+04  0.30868862699E+04 0.  0.
        4    1    3    3  502    0 -0.15921446876E+03  0.33639460850E+03 -0.19043063856E+04  0.19403337349E+04  0.12699999809E+01 0. -1.
       -4    1    3    3    0  502  0.15921446876E+03 -0.33639460850E+03  0.11741572165E+04  0.12317294190E+04  0.12699999809E+01 0.  1.
</event>
<event>
 5   0  0.7726743E-07  0.3105235E+04  0.7818609E-02  0.8214303E-01
       -1   -1    0    0    0  501  0.00000000000E+00  0.00000000000E+00  0.11550338369E+04  0.11550338369E+04  0.50400001928E-02 0.  1.
        1   -1    0    0  501    0  0.00000000000E+00  0.00000000000E+00 -0.20870565713E+04  0.20870565713E+04  0.50400001928E-02 0. -1.
    10030    2    1    2    0    0  0.00000000000E+00  0.00000000000E+00 -0.93202273437E+03  0.32420904082E+04  0.31052349086E+04 0.  0.
        1    1    3    3  502    0  0.20845291541E+03  0.64084325051E+03 -0.19264028308E+04  0.20408724988E+04  0.50400001928E-02 0. -1.
       -1    1    3    3    0  502 -0.20845291541E+03 -0.64084325051E+03  0.99438009643E+03  0.12012179094E+04  0.50400001928E-02 0.  1.
</event>
<event>
 5   0  0.2133385E-06  0.3097124E+04  0.7818609E-02  0.8216528E-01
       -2   -1    0    0    0  501  0.00000000000E+00  0.00000000000E+00  0.91446860052E+03  0.91446860053E+03  0.25500000920E-02 0. -1.
        2   -1    0    0  501    0  0.00000000000E+00  0.00000000000E+00 -0.26223362189E+04  0.26223362189E+04  0.25500000920E-02 0.  1.
    10030    2    1    2    0    0  0.00000000000E+00  0.00000000000E+00 -0.17078676184E+04  0.35368048194E+04  0.30971239124E+04 0.  0.
        2    1    3    3  502    0  0.60347371229E+03 -0.14097104133E+04 -0.60747008509E+03  0.16493889399E+04  0.25500000920E-02 0. -1.
       -2    1    3    3    0  502 -0.60347371229E+03  0.14097104133E+04 -0.11003975333E+04  0.18874158795E+04  0.25500000920E-02 0.  1.
</event>
<event>
 5   0  0.2226334E-06  0.3080058E+04  0.7818609E-02  0.8221232E-01
        2   -1    0    0  501    0  0.00000000000E+00  0.00000000000E+00  0.12808051841E+04  0.12808051841E+04  0.25500000920E-02 0. -1.
       -2   -1    0    0    0  501  0.00000000000E+00  0.00000000000E+00 -0.18517174024E+04  0.18517174024E+04  0.25500000920E-02 0.  1.
    10030    2    1    2    0    0  0.00000000000E+00  0.00000000000E+00 -0.57091221830E+03  0.31325225866E+04  0.30800579531E+04 0.  0.
        5    1    3    3  502    0  0.25473597318E+03  0.11922344153E+04  0.67150383791E+03  0.13918522951E+04  0.46999998093E+01 0. -1.
       -5    1    3    3    0  502 -0.25473597318E+03 -0.11922344153E+04 -0.12424160562E+04  0.17406702915E+04  0.46999998093E+01 0.  1.
</event>
<event>
 5   0  0.7561815E-07  0.3094497E+04  0.7818609E-02  0.8217250E-01
       -1   -1    0    0    0  501  0.00000000000E+00  0.00000000000E+00  0.16279992282E+04  0.16279992282E+04  0.50400001928E-02 0. -1.
        1   -1    0    0  501    0  0.00000000000E+00  0.00000000000E+00 -0.14705032728E+04  0.14705032728E+04  0.50400001928E-02 0.  1.
    10030    2    1    2    0    0  0.00000000000E+00  0.00000000000E+00  0.15749595533E+03  0.30985025010E+04  0.30944971761E+04 0.  0.
        3    1    3    3  502    0 -0.11628706304E+04  0.43856046237E+03 -0.84406022552E+03  0.15023451856E+04  0.10100000352E+00 0. -1.
       -3    1    3    3    0  502  0.11628706304E+04 -0.43856046237E+03  0.10015561809E+04  0.15961573155E+04  0.10100000352E+00 0.  1.
</event>
<event>
 5   0  0.7413481E-07  0.3137875E+04  0.7818609E-02  0.8205420E-01
        1   -1    0    0  501    0  0.00000000000E+00  0.00000000000E+00  0.17658925923E+04  0.17658925923E+04  0.50400001928E-02 0. -1.
       -1   -1    0    0    0  501  0.00000000000E+00  0.00000000000E+00 -0.13939490919E+04  0.13939490919E+04  0.50400001928E-02 0.  1.
    10030    2    1    2    0    0  0.00000000000E+00  0.00000000000E+00  0.37194350043E+03  0.31598416842E+04  0.31378746791E+04 0.  0.
        5    1    3    3  502    0  0.33303801894E+02  0.12347773191E+04  0.11600896644E+04  0.16945838104E+04  0.46999998093E+01 0. -1.
       -5    1    3    3    0  502 -0.33303801894E+02 -0.12347773191E+04 -0.78814616393E+03  0.14652578738E+04  0.46999998093E+01 0.  1.
</event>
<event>
 5   0  0.2133385E-06  0.3067578E+04  0.7818609E-02  0.8224692E-01
       -2   -1    0    0    0  501  0.00000000000E+00  0.00000000000E+00  0.11746169105E+04  0.11746169105E+04  0.25500000920E-02 0.  1.
        2   -1    0    0  501    0  0.00000000000E+00  0.00000000000E+00 -0.20027883675E+04  0.20027883675E+04  0.25500000920E-02 0. -1.
    10030    2    1    2    0    0  0.00000000000E+00  0.00000000000E+00 -0.82817145695E+03  0.31774052780E+04  0.30675782530E+04 0.  0.
        2    1    3    3  502    0  0.28285532549E+03  0.77988341613E+03 -0.17503447680E+04  0.19369904710E+04  0.25500000920E-02 0. -1.
       -2    1    3    3    0  502 -0.28285532549E+03 -0.77988341613E+03  0.92217331100E+03  0.12404148070E+04  0.25500000920E-02 0.  1.
</event>
<event>
 5   0  0.7519202E-07  0.3106142E+04  0.7818609E-02  0.8214054E-01
        1   -1    0    0  501    0  0.00000000000E+00  0.00000000000E+00  0.27516945974E+04  0.27516945974E+04  0.50400001928E-02 0. -1.
       -1   -1    0    0    0  501  0.00000000000E+00  0.00000000000E+00 -0.87656154800E+03  0.87656154801E+03  0.50400001928E-02 0.  1.
    10030    2    1    2    0    0  0.00000000000E+00  0.00000000000E+00  0.18751330494E+04  0.36282561454E+04  0.31061420933E+04 0.  0.
        4    1    3    3  502    0  0.62471982868E+03 -0.14214882927E+04  0.89840093667E+03  0.17938867541E+04  0.12699999809E+01 0. -1.
       -4    1    3    3    0  502 -0.62471982868E+03  0.14214882927E+04  0.97673211272E+03  0.18343693913E+04  0.12699999809E+01 0.  1.
</event>
<event>
 5   0  0.2078009E-06  0.3096978E+04  0.7818609E-02  0.8216568E-01
       -2   -1    0    0    0  501  0.00000000000E+00  0.00000000000E+00  0.23225267565E+04  0.23225267565E+04  0.25500000920E-02 0.  1.
        2   -1    0    0  501    0  0.00000000000E+00  0.00000000000E+00 -0.10324180990E+04  0.10324180990E+04  0.25500000920E-02 0. -1.
    10030    2    1    2    0    0  0.00000000000E+00  0.00000000000E+00  0.12901086575E+04  0.33549448555E+04  0.30969783073E+04 0.  0.
        3    1    3    3  502    0  0.64521149235E+03  0.23154941780E+03  0.21492007349E+04  0.22558760631E+04  0.10100000352E+00 0.  1.
       -3    1    3    3    0  502 -0.64521149235E+03 -0.23154941780E+03 -0.85909207748E+03  0.10990687924E+04  0.10100000352E+00 0. -1.
</event>
<event>
 5   0  0.2226334E-06  0.3116143E+04  0.7818609E-02  0.8211321E-01
       -2   -1    0    0    0  501  0.00000000000E+00  0.00000000000E+00  0.97424506486E+03  0.97424506486E+03  0.25500000920E-02 0.  1.
        2   -1    0    0  501    0  0.00000000000E+00  0.00000000000E+00 -0.24917625507E+04  0.24917625507E+04  0.25500000920E-02 0. -1.
    10030    2    1    2    0    0  0.00000000000E+00  0.00000000000E+00 -0.15175174858E+04  0.34660076156E+04  0.31161433650E+04 0.  0.
        5    1    3    3  502    0 -0.50718418403E+03 -0.10256460507E+04  0.41751042203E+03  0.12179994501E+04  0.46999998093E+01 0.  1.
       -5    1    3    3    0  502  0.50718418403E+03  0.10256460507E+04 -0.19350279079E+04  0.22480081655E+04  0.46999998093E+01 0. -1.
</event>
<event>
 5   0  0.2094135E-06  0.3076900E+04  0.7818609E-02  0.8222106E-01
        2   -1    0    0  501    0  0.00000000000E+00  0.00000000000E+00  0.16340221890E+04  0.16340221890E+04  0.25500000920E-02 0.  1.
       -2   -1    0    0    0  501  0.00000000000E+00  0.00000000000E+00 -0.14484680582E+04  0.14484680582E+04  0.25500000920E-02 0. -1.
    10030    2    1    2    0    0  0.00000000000E+00  0.00000000000E+00  0.18555413078E+03  0.30824902472E+04  0.30769003540E+04 0.  0.
        4    1    3    3  502    0  0.87197294874E+03 -0.82107956775E+03 -0.87454370472E+03  0.14830161106E+04  0.12699999809E+01 0. -1.
       -4    1    3    3    0  502 -0.87197294874E+03  0.82107956775E+03  0.10600978355E+04  0.15994741366E+04  0.12699999809E+01 0.  1.
</event>
<event>
 5   0  0.7519202E-07  0.3101602E+04  0.7818609E-02  0.8215298E-01
       -1   -1    0    0    0  501  0.00000000000E+00  0.00000000000E+00  0.14340340112E+04  0.14340340112E+04  0.50400001928E-02 0.  1.
        1   -1    0    0  501    0  0.00000000000E+00  0.00000000000E+00 -0.16770757700E+04  0.16770757700E+04  0.50400001928E-02 0. -1.
    10030    2    1    2    0    0  0.00000000000E+00  0.00000000000E+00 -0.24304175883E+03  0.31111097812E+04  0.31016019690E+04 0.  0.
        4    1    3    3  502    0  0.16131796047E+03 -0.42594246709E+03  0.13654307395E+04  0.14393933399E+04  0.12699999809E+01 0.  1.
       -4    1    3    3    0  502 -0.16131796047E+03  0.42594246709E+03 -0.16084724983E+04  0.16717164414E+04  0.12699999809E+01 0. -1.
</event>
<event>
 5   0  0.2067926E-06  0.3114878E+04  0.7818609E-02  0.8211667E-01
       -2   -1    0    0    0  501  0.00000000000E+00  0.00000000000E+00  0.17521483978E+04  0.17521483978E+04  0.25500000920E-02 0.  1.
        2   -1    0    0  501    0  0.00000000000E+00  0.00000000000E+00 -0.13843666789E+04  0.13843666789E+04  0.25500000920E-02 0. -1.
    10030    2    1    2    0    0  0.00000000000E+00  0.00000000000E+00  0.36778171888E+03  0.31365150768E+04  0.31148777559E+04 0.  0.
        1    1    3    3  502    0  0.64429784563E+03  0.14122979242E+04  0.56876957018E+02  0.15533641327E+04  0.50400001928E-02 0.  1.
       -1    1    3    3    0  502 -0.64429784563E+03 -0.14122979242E+04  0.31090476186E+03  0.15831509440E+04  0.50400001928E-02 0. -1.
</event>
<event>
 5   0  0.7726743E-07  0.3090718E+04  0.7818609E-02  0.8218290E-01
        1   -1    0    0  501    0  0.00000000000E+00  0.00000000000E+00  0.18959698066E+04  0.18959698066E+04  0.50400001928E-02 0. -1.
       -1   -1    0    0    0  501  0.00000000000E+00  0.00000000000E+00 -0.12595843228E+04  0.12595843228E+04  0.50400001928E-02 0.  1.
    10030    2    1    2    0    0  0.00000000000E+00  0.00000000000E+00  0.63638548378E+03  0.31555541294E+04  0.30907176156E+04 0.  0.
        1    1    3    3  502    0 -0.56334972023E+03  0.13977193823E+04  0.66764686632E+03  0.16482520187E+04  0.50400001928E-02 0. -1.
       -1    1    3    3    0  502  0.56334972023E+03 -0.13977193823E+04 -0.31261382541E+02  0.15073021107E+04  0.50400001928E-02 0.  1.
</event>
<event>
 5   0  0.2094135E-06  0.3095287E+04  0.7818609E-02  0.8217033E-01
       -2   -1    0    0    0  501  0.00000000000E+00  0.00000000000E+00  0.12354257828E+04  0.12354257828E+04  0.25500000920E-02 0.  1.
        2   -1    0    0  501    0  0.00000000000E+00  0.00000000000E+00 -0.19387649720E+04  0.19387649720E+04  0.25500000920E-02 0. -1.
    10030    2    1    2    0    0  0.00000000000E+00  0.00000000000E+00 -0.70333918914E+03  0.31741907548E+04  0.30952868902E+04 0.  0.
        4    1    3    3  502    0 -0.10638533790E+04 -0.97963969975E+03 -0.91682682285E+03  0.17123232724E+04  0.12699999809E+01 0.  1.
       -4    1    3    3    0  502  0.10638533790E+04  0.97963969975E+03  0.21348763371E+03  0.14618674824E+04  0.12699999809E+01 0. -1.
</event>
<event>
 5   0  0.7726743E-07  0.3092089E+04  0.7818609E-02  0.8217912E-01
        1   -1    0    0  501    0  0.00000000000E+00  0.00000000000E+00  0.14983413217E+04  0.14983413218E+04  0.50400001928E-02 0. -1.
       -1   -1    0    0    0  501  0.00000000000E+00  0.00000000000E+00 -0.15952668886E+04  0.15952668886E+04  0.50400001928E-02 0.  1.
    10030    2    1    2    0    0  0.00000000000E+00  0.00000000000E+00 -0.96925566865E+02  0.30936082104E+04  0.30920894544E+04 0.  0.
        1    1    3    3  502    0  0.50055104451E+03 -0.14051230009E+04 -0.45527325119E+03  0.15595498482E+04  0.50400001928E-02 0. -1.
       -1    1    3    3    0  502 -0.50055104451E+03  0.14051230009E+04  0.35834768432E+03  0.15340583622E+04  0.50400001928E-02 0.  1.
</event>
<event>
 5   0  0.2226334E-06  0.3108664E+04  0.7818609E-02  0.8213364E-01
       -2   -1    0    0    0  501  0.00000000000E+00  0.00000000000E+00  0.15564149554E+04  0.15564149554E+04  0.25500000920E-02 0.  1.
        2   -1    0    0  501    0  0.00000000000E+00  0.00000000000E+00 -0.15522513677E+04  0.15522513677E+04  0.25500000920E-02 0. -1.
    10030    2    1    2    0    0  0.00000000000E+00  0.00000000000E+00  0.41635877274E+01  0.31086663232E+04  0.31086635349E+04 0.  0.
        5    1    3    3  502    0  0.11944114560E+04  0.84167026244E+03  0.53208000167E+03  0.15550430139E+04  0.46999998093E+01 0.  1.
       -5    1    3    3    0  502 -0.11944114560E+04 -0.84167026244E+03 -0.52791641394E+03  0.15536233093E+04  0.46999998093E+01 0. -1.
</event>
<event>
 5   0  0.2226334E-06  0.3093970E+04  0.7818609E-02  0.8217395E-01
        2   -1    0    0  501    0  0.00000000000E+00  0.00000000000E+00  0.25541659319E+04  0.25541659319E+04  0.25500000920E-02 0.  1.
       -2   -1    0    0    0  501  0.00000000000E+00  0.00000000000E+00 -0.93696446448E+03  0.93696446448E+03  0.25500000920E-02 0. -1.
    10030    2    1    2    0    0  0.00000000000E+00  0.00000000000E+00  0.16172014674E+04  0.34911303963E+04  0.30939700804E+04 0.  0.
        5    1    3    3  502    0 -0.63742556518E+03 -0.10421297033E+04 -0.26233382492E+03  0.12494746077E+04  0.46999998093E+01 0. -1.
       -5    1    3    3    0  502  0.63742556518E+03  0.10421297033E+04  0.18795352923E+04  0.22416557886E+04  0.46999998093E+01 0.  1.
</event>
<event>
 5   0  0.2133385E-06  0.3060779E+04  0.7818609E-02  0.8226585E-01
       -2   -1    0    0    0  501  0.00000000000E+00  0.00000000000E+00  0.12442875601E+04  0.12442875601E+04  0.25500000920E-02 0.  1.
        2   -1    0    0  501    0  0.00000000000E+00  0.00000000000E+00 -0.18822758335E+04  0.18822758335E+04  0.25500000920E-02 0. -1.
    10030    2    1    2    0    0  0.00000000000E+00  0.00000000000E+00 -0.63798827348E+03  0.31265633936E+04  0.30607792500E+04 0.  0.
        2    1    3    3  502    0 -0.15272734326E+04  0.79697476469E+02 -0.37656662839E+03  0.15750296033E+04  0.25500000920E-02 0.  1.
       -2    1    3    3    0  502  0.15272734326E+04 -0.79697476469E+02 -0.26142164509E+03  0.15515337903E+04  0.25500000920E-02 0. -1.
</event>
<event>
 5   0  0.2133385E-06  0.3093845E+04  0.7818609E-02  0.8217429E-01
        2   -1    0    0  501    0  0.00000000000E+00  0.00000000000E+00  0.23927232200E+04  0.23927232200E+04  0.25500000920E-02 0. -1.
       -2   -1    0    0    0  501  0.00000000000E+00  0.00000000000E+00 -0.10001027664E+04  0.10001027664E+04  0.25500000920E-02 0.  1.
    10030    2    1    2    0    0  0.00000000000E+00  0.00000000000E+00  0.13926204536E+04  0.33928259864E+04  0.30938449292E+04 0.  0.
        2    1    3    3  502    0  0.15387695837E+03  0.22399426318E+03 -0.97372036329E+03  0.10109316961E+04  0.25500000920E-02 0.  1.
       -2    1    3    3    0  502 -0.15387695837E+03 -0.22399426318E+03  0.23663408169E+04  0.23818942903E+04  0.25500000920E-02 0. -1.
</event>
<event>
 5   0  0.2067926E-06  0.3160576E+04  0.7818609E-02  0.8199307E-01
       -2   -1    0    0    0  501  0.00000000000E+00  0.00000000000E+00  0.98816176387E+03  0.98816176387E+03  0.25500000920E-02 0. -1.
        2   -1    0    0  501    0  0.00000000000E+00  0.00000000000E+00 -0.25272276134E+04  0.25272276134E+04  0.25500000920E-02 0.  1.
    10030    2    1    2    0    0  0.00000000000E+00  0.00000000000E+00 -0.15390658495E+04  0.35153893773E+04  0.31605757046E+04 0.  0.
        1    1    3    3  502    0  0.18696509142E+03 -0.48306898189E+02  0.97498957395E+03  0.99392865496E+03  0.50400001928E-02 0. -1.
       -1    1    3    3    0  502 -0.18696509142E+03  0.48306898189E+02 -0.25140554235E+04  0.25214607223E+04  0.50400001928E-02 0.  1.
</event>
<event>
 5   0  0.7413481E-07  0.3108949E+04  0.7818609E-02  0.8213286E-01
       -1   -1    0    0    0  501  0.00000000000E+00  0.00000000000E+00  0.11511212861E+04  0.11511212861E+04  0.50400001928E-02 0.  1.
        1   -1    0    0  501    0  0.00000000000E+00  0.00000000000E+00 -0.20991630955E+04  0.20991630955E+04  0.50400001928E-02 0. -1.
    10030    2    1    2    0    0  0.00000000000E+00  0.00000000000E+00 -0.94804180937E+03  0.32502843816E+04  0.31089492259E+04 0.  0.
        5    1    3    3  502    0  0.70126152291E+03 -0.51476287167E+03 -0.18208489537E+04  0.20179845242E+04  0.46999998093E+01 0. -1.
       -5    1    3    3    0  502 -0.70126152291E+03  0.51476287167E+03  0.87280714432E+03  0.12322998575E+04  0.46999998093E+01 0.  1.
</event>
<event>
 5   0  0.7561815E-07  0.3140677E+04  0.7818609E-02  0.8204662E-01
       -1   -1    0    0    0  501  0.00000000000E+00  0.00000000000E+00  0.14916298509E+04  0.14916298509E+04  0.50400001928E-02 0. -1.
        1   -1    0    0  501    0  0.00000000000E+00  0.00000000000E+00 -0.16532001373E+04  0.16532001373E+04  0.50400001928E-02 0.  1.
    10030    2    1    2    0    0  0.00000000000E+00  0.00000000000E+00 -0.16157028638E+03  0.31448299882E+04  0.31406767897E+04 0.  0.
        3    1    3    3  502    0 -0.10826553155E+04 -0.28387150804E+03 -0.11837121421E+04  0.16290794980E+04  0.10100000352E+00 0.  1.
       -3    1    3    3    0  502  0.10826553155E+04  0.28387150804E+03  0.10221418557E+04  0.15157504902E+04  0.10100000352E+00 0. -1.
</event>
<event>
 5   0  0.2078009E-06  0.3115033E+04  0.7818609E-02  0.8211624E-01
       -2   -1    0    0    0  501  0.00000000000E+00  0.00000000000E+00  0.92843343429E+03  0.92843343429E+03  0.25500000920E-02 0.  1.
        2   -1    0    0  501    0  0.00000000000E+00  0.00000000000E+00 -0.26128502720E+04  0.26128502720E+04  0.25500000920E-02 0. -1.
    10030    2    1    2    0    0  0.00000000000E+00  0.00000000000E+00 -0.16844168377E+04  0.35412837063E+04  0.31150329381E+04 0.  0.
        3    1    3    3  502    0 -0.15301715814E+03 -0.12235133221E+04 -0.19239719567E+04  0.22851842815E+04  0.10100000352E+00 0. -1.
       -3    1    3    3    0  502  0.15301715814E+03  0.12235133221E+04  0.23955511894E+03  0.12560994249E+04  0.10100000352E+00 0.  1.
</event>
<event>
 5   0  0.7726743E-07  0.3109099E+04  0.7818609E-02  0.8213245E-01
       -1   -1    0    0    0  501  0.00000000000E+00  0.00000000000E+00  0.18982518090E+04  0.18982518091E+04  0.50400001928E-02 0. -1.
        1   -1    0    0  501    0  0.00000000000E+00  0.00000000000E+00 -0.12730784858E+04  0.12730784858E+04  0.50400001928E-02 0.  1.
    10030    2    1    2    0    0  0.00000000000E+00  0.00000000000E+00  0.62517332325E+03  0.31713302949E+04  0.31090986081E+04 0.  0.
        1    1    3    3  502    0 -0.35455710339E+03  0.12657413382E+04 -0.53397232879E+03  0.14187805759E+04  0.50400001928E-02 0.  1.
       -1    1    3    3    0  502  0.35455710339E+03 -0.12657413382E+04  0.11591456520E+04  0.17525497189E+04  0.50400001928E-02 0. -1.
</event>
<event>
 5   0  0.2133385E-06  0.3113162E+04  0.7818609E-02  0.8212135E-01
        2   -1    0    0  501    0  0.00000000000E+00  0.00000000000E+00  0.14019223564E+04  0.14019223564E+04  0.25500000920E-02 0. -1.
       -2   -1    0    0    0  501  0.00000000000E+00  0.00000000000E+00 -0.17283016610E+04  0.17283016610E+04  0.25500000920E-02 0.  1.
    10030    2    1    2    0    0  0.00000000000E+00  0.00000000000E+00 -0.32637930465E+03  0.31302240174E+04  0.31131622105E+04 0.  0.
        2    1    3    3  502    0  0.11760752059E+04  0.10194165235E+04 -0.13893694950E+03  0.15625832503E+04  0.25500000920E-02 0.  1.
       -2    1    3    3    0  502 -0.11760752059E+04 -0.10194165235E+04 -0.18744235515E+03  0.15676407671E+04  0.25500000920E-02 0. -1.
</event>
<event>
 5   0  0.7519202E-07  0.3109041E+04  0.7818609E-02  0.8213261E-01
        1   -1    0    0  501    0  0.00000000000E+00  0.00000000000E+00  0.19634046690E+04  0.19634046690E+04  0.50400001928E-02 0. -1.
       -1   -1    0    0    0  501  0.00000000000E+00  0.00000000000E+00 -0.12307874886E+04  0.12307874887E+04  0.50400001928E-02 0.  1.
    10030    2    1    2    0    0  0.00000000000E+00  0.00000000000E+00  0.73261718040E+03  0.31941921577E+04  0.31090409466E+04 0.  0.
        4    1    3    3  502    0  0.43024576597E+03  0.10459427546E+03  0.18972484089E+04  0.19482311258E+04  0.12699999809E+01 0. -1.
       -4    1    3    3    0  502 -0.43024576597E+03 -0.10459427546E+03 -0.11646312285E+04  0.12459610319E+04  0.12699999809E+01 0.  1.
</event>
<event>
 5   0  0.7726743E-07  0.3216548E+04  0.7818609E-02  0.8184460E-01
       -1   -1    0    0    0  501  0.00000000000E+00  0.00000000000E+00  0.11637304083E+04  0.11637304083E+04  0.50400001928E-02 0. -1.
        1   -1    0    0  501    0  0.00000000000E+00  0.00000000000E+00 -0.22226332330E+04  0.22226332331E+04  0.50400001928E-02 0.  1.
    10030    2    1    2    0    0  0.00000000000E+00  0.00000000000E+00 -0.10589028248E+04  0.33863636414E+04  0.32165483860E+04 0.  0.
        1    1    3    3  502    0  0.94133543272E+03  0.76708969554E+03 -0.16396412338E+04  0.20403338877E+04  0.50400001928E-02 0.  1.
       -1    1    3    3    0  502 -0.94133543272E+03 -0.76708969554E+03  0.58073840902E+03  0.13460297536E+04  0.50400001928E-02 0. -1.
</event>
<event>
 5   0  0.7656332E-07  0.3052243E+04  0.7818609E-02  0.8228968E-01
        1   -1    0    0  501    0  0.00000000000E+00  0.00000000000E+00  0.11824907690E+04  0.11824907690E+04  0.50400001928E-02 0.  1.
       -1   -1    0    0    0  501  0.00000000000E+00  0.00000000000E+00 -0.19696109365E+04  0.19696109365E+04  0.50400001928E-02 0. -1.
    10030    2    1    2    0    0  0.00000000000E+00  0.00000000000E+00 -0.78712016754E+03  0.31521017056E+04  0.30522429464E+04 0.  0.
        2    1    3    3  502    0  0.91877588163E+03 -0.12512919856E+03  0.85821856990E+03  0.12634656904E+04  0.25500000920E-02 0.  1.
       -2    1    3    3    0  502 -0.91877588163E+03  0.12512919856E+03 -0.16453387374E+04  0.18886360152E+04  0.25500000920E-02 0. -1.
</event>
<event>
 5   0  0.7561815E-07  0.3066430E+04  0.7818609E-02  0.8225012E-01
        1   -1    0    0  501    0  0.00000000000E+00  0.00000000000E+00  0.16248480091E+04  0.16248480091E+04  0.50400001928E-02 0.  1.
       -1   -1    0    0    0  501  0.00000000000E+00  0.00000000000E+00 -0.14467500124E+04  0.14467500124E+04  0.50400001928E-02 0. -1.
    10030    2    1    2    0    0  0.00000000000E+00  0.00000000000E+00  0.17809799672E+03  0.30715980216E+04  0.30664304182E+04 0.  0.
        3    1    3    3  502    0  0.12414282345E+03 -0.55611117933E+03 -0.13367533378E+04  0.14531278611E+04  0.10100000352E+00 0. -1.
       -3    1    3    3    0  502 -0.12414282345E+03  0.55611117933E+03  0.15148513345E+04  0.16184701605E+04  0.10100000352E+00 0.  1.
</event>
<event>
 5   0  0.2094135E-06  0.3105834E+04  0.7818609E-02  0.8214139E-01
       -2   -1    0    0    0  501  0.00000000000E+00  0.00000000000E+00  0.84424805409E+03  0.84424805409E+03  0.25500000920E-02 0. -1.
        2   -1    0    0  501    0  0.00000000000E+00  0.00000000000E+00 -0.28564486884E+04  0.28564486884E+04  0.25500000920E-02 0.  1.
    10030    2    1    2    0    0  0.00000000000E+00  0.00000000000E+00 -0.20122006343E+04  0.37006967425E+04  0.31058340244E+04 0.  0.
        4    1    3    3  502    0 -0.13794031975E+04  0.59127717586E+03 -0.53069932700E+03  0.15918559196E+04  0.12699999809E+01 0. -1.
       -4    1    3    3    0  502  0.13794031975E+04 -0.59127717586E+03 -0.14815013073E+04  0.21088408230E+04  0.12699999809E+01 0.  1.
</event>
<event>
 5   0  0.2094135E-06  0.3091531E+04  0.7818609E-02  0.8218066E-01
        2   -1    0    0  501    0  0.00000000000E+00  0.00000000000E+00  0.28293628493E+04  0.28293628493E+04  0.25500000920E-02 0. -1.
       -2   -1    0    0    0  501  0.00000000000E+00  0.00000000000E+00 -0.84449814007E+03  0.84449814008E+03  0.25500000920E-02 0.  1.
    10030    2    1    2    0    0  0.00000000000E+00  0.00000000000E+00  0.19848647092E+04  0.36738609894E+04  0.30915314418E+04 0.  0.
        4    1    3    3  502    0  0.10743880751E+04  0.83044318203E+03  0.18700883218E+04  0.23110987774E+04  0.12699999809E+01 0. -1.
       -4    1    3    3    0  502 -0.10743880751E+04 -0.83044318203E+03  0.11477638738E+03  0.13627622120E+04  0.12699999809E+01 0.  1.
</event>
<event>
 5   0  0.7656332E-07  0.3113210E+04  0.7818609E-02  0.8212122E-01
        1   -1    0    0  501    0  0.00000000000E+00  0.00000000000E+00  0.20153682464E+04  0.20153682464E+04  0.50400001928E-02 0.  1.
       -1   -1    0    0    0  501  0.00000000000E+00  0.00000000000E+00 -0.12022713171E+04  0.12022713171E+04  0.50400001928E-02 0. -1.
    10030    2    1    2    0    0  0.00000000000E+00  0.00000000000E+00  0.81309692934E+03  0.32176395635E+04  0.31132101992E+04 0.  0.
        2    1    3    3  502    0 -0.12332461411E+04 -0.84649221513E+03  0.85178202138E+03  0.17213302201E+04  0.25500000920E-02 0.  1.
       -2    1    3    3    0  502  0.12332461411E+04  0.84649221513E+03 -0.38685092038E+02  0.14963093434E+04  0.25500000920E-02 0. -1.
</event>
<event>
 5   0  0.2094135E-06  0.3033754E+04  0.7818609E-02  0.8234157E-01
        2   -1    0    0  501    0  0.00000000000E+00  0.00000000000E+00  0.20398675882E+04  0.20398675882E+04  0.25500000920E-02 0. -1.
       -2   -1    0    0    0  501  0.00000000000E+00  0.00000000000E+00 -0.11279729669E+04  0.11279729669E+04  0.25500000920E-02 0.  1.
    10030    2    1    2    0    0  0.00000000000E+00  0.00000000000E+00  0.91189462127E+03  0.31678405551E+04  0.30337537775E+04 0.  0.
        4    1    3    3  502    0  0.12223340950E+04  0.46701252846E+03 -0.34524104383E+03  0.13532901879E+04  0.12699999809E+01 0.  1.
       -4    1    3    3    0  502 -0.12223340950E+04 -0.46701252846E+03  0.12571356651E+04  0.18145503671E+04  0.12699999809E+01 0. -1.
</event>
<event>
 5   0  0.2067926E-06  0.3122660E+04  0.7818609E-02  0.8209546E-01
       -2   -1    0    0    0  501  0.00000000000E+00  0.00000000000E+00  0.14257559257E+04  0.14257559257E+04  0.25500000920E-02 0.  1.
        2   -1    0    0  501    0  0.00000000000E+00  0.00000000000E+00 -0.17097958660E+04  0.17097958660E+04  0.25500000920E-02 0. -1.
    10030    2    1    2    0    0  0.00000000000E+00  0.00000000000E+00 -0.28403994032E+03  0.31355517917E+04  0.31226601401E+04 0.  0.
        1    1    3    3  502    0  0.19244854213E+03 -0.12017388829E+04  0.84004575773E+03  0.14788135985E+04  0.50400001928E-02 0.  1.
       -1    1    3    3    0  502 -0.19244854213E+03  0.12017388829E+04 -0.11240856980E+04  0.16567381931E+04  0.50400001928E-02 0. -1.
</event>
<event>
 5   0  0.2094135E-06  0.3179444E+04  0.7818609E-02  0.8194267E-01
        2   -1    0    0  501    0  0.00000000000E+00  0.00000000000E+00  0.14082415369E+04  0.14082415369E+04  0.25500000920E-02 0. -1.
       -2   -1    0    0    0  501  0.00000000000E+00  0.00000000000E+00 -0.17945894807E+04  0.17945894807E+04  0.25500000920E-02 0.  1.
    10030    2    1    2    0    0  0.00000000000E+00  0.00000000000E+00 -0.38634794378E+03  0.32028310176E+04  0.31794436295E+04 0.  0.
        4    1    3    3  502    0  0.86296770529E+03  0.64163408139E+03 -0.13726006281E+04  0.17436862252E+04  0.12699999809E+01 0.  1.
       -4    1    3    3    0  502 -0.86296770529E+03 -0.64163408139E+03  0.98625268434E+03  0.14591447924E+04  0.12699999809E+01 0. -1.
</event>
<event>
 5   0  0.7413481E-07  0.3097949E+04  0.7818609E-02  0.8216301E-01
        1   -1    0    0  501    0  0.00000000000E+00  0.00000000000E+00  0.25881570160E+04  0.25881570160E+04  0.50400001928E-02 0.  1.
       -1   -1    0    0    0  501  0.00000000000E+00  0.00000000000E+00 -0.92703860585E+03  0.92703860586E+03  0.50400001928E-02 0. -1.
    10030    2    1    2    0    0  0.00000000000E+00  0.00000000000E+00  0.16611184101E+04  0.35151956219E+04  0.30979486580E+04 0.  0.
        5    1    3    3  502    0  0.12924235508E+04 -0.47446970342E+02  0.17978336965E+04  0.22146868717E+04  0.46999998093E+01 0.  1.
       -5    1    3    3    0  502 -0.12924235508E+04  0.47446970342E+02 -0.13671528635E+03  0.13005087501E+04  0.46999998093E+01 0. -1.
</event>
<event>
 5   0  0.2226334E-06  0.3114467E+04  0.7818609E-02  0.8211779E-01
        2   -1    0    0  501    0  0.00000000000E+00  0.00000000000E+00  0.20734183381E+04  0.20734183381E+04  0.25500000920E-02 0. -1.
       -2   -1    0    0    0  501  0.00000000000E+00  0.00000000000E+00 -0.11695549881E+04  0.11695549881E+04  0.25500000920E-02 0.  1.
    10030    2    1    2    0    0  0.00000000000E+00  0.00000000000E+00  0.90386335004E+03  0.32429733262E+04  0.31144673765E+04 0.  0.
        5    1    3    3  502    0 -0.46569213893E+03  0.34029568906E+03 -0.10542242803E+04  0.12016993166E+04  0.46999998093E+01 0.  1.
       -5    1    3    3    0  502  0.46569213893E+03 -0.34029568906E+03  0.19580876304E+04  0.20412740097E+04  0.46999998093E+01 0. -1.
</event>
<event>
 5   0  0.7413481E-07  0.3117789E+04  0.7818609E-02  0.8210873E-01
        1   -1    0    0  501    0  0.00000000000E+00  0.00000000000E+00  0.16672947189E+04  0.16672947189E+04  0.50400001928E-02 0. -1.
       -1   -1    0    0    0  501  0.00000000000E+00  0.00000000000E+00 -0.14575419184E+04  0.14575419184E+04  0.50400001928E-02 0.  1.
    10030    2    1    2    0    0  0.00000000000E+00  0.00000000000E+00  0.20975280054E+03  0.31248366373E+04  0.31177889237E+04 0.  0.
        5    1    3    3  502    0 -0.64830813244E+03 -0.78922912660E+03  0.12852243241E+04  0.16416484709E+04  0.46999998093E+01 0. -1.
       -5    1    3    3    0  502  0.64830813244E+03  0.78922912660E+03 -0.10754715236E+04  0.14831881664E+04  0.46999998093E+01 0.  1.
</event>
<event>
 5   0  0.7561815E-07  0.2990287E+04  0.7818609E-02  0.8246510E-01
        1   -1    0    0  501    0  0.00000000000E+00  0.00000000000E+00  0.27599634545E+04  0.27599634545E+04  0.50400001928E-02 0. -1.
       -1   -1    0    0    0  501  0.00000000000E+00  0.00000000000E+00 -0.80995792144E+03  0.80995792146E+03  0.50400001928E-02 0.  1.
    10030    2    1    2    0    0  0.00000000000E+00  0.00000000000E+00  0.19500055331E+04  0.35699213760E+04  0.29902871186E+04 0.  0.
        3    1    3    3  502    0  0.78905599131E+03  0.50519673604E+02  0.24899523069E+04  0.26124747072E+04  0.10100000352E+00 0. -1.
       -3    1    3    3    0  502 -0.78905599131E+03 -0.50519673604E+02 -0.53994677382E+03  0.95744666880E+03  0.10100000352E+00 0.  1.
</event>
<event>
 5   0  0.2078009E-06  0.3070847E+04  0.7818609E-02  0.8223784E-01
       -2   -1    0    0    0  501  0.00000000000E+00  0.00000000000E+00  0.13679318584E+04  0.13679318584E+04  0.25500000920E-02 0.  1.
        2   -1    0    0  501    0  0.00000000000E+00  0.00000000000E+00 -0.17234233919E+04  0.17234233919E+04  0.25500000920E-02 0. -1.
    10030    2    1    2    0    0  0.00000000000E+00  0.00000000000E+00 -0.35549153346E+03  0.30913552504E+04  0.30708472859E+04 0.  0.
        3    1    3    3  502    0  0.75196786826E+03 -0.13282932667E+04 -0.10179712251E+02  0.15264083051E+04  0.10100000352E+00 0.  1.
       -3    1    3    3    0  502 -0.75196786826E+03  0.13282932667E+04 -0.34531182121E+03  0.15649469452E+04  0.10100000352E+00 0. -1.
</event>
<event>
 5   0  0.7726743E-07  0.3068222E+04  0.7818609E-02  0.8224514E-01
       -1   -1    0    0    0  501  0.00000000000E+00  0.00000000000E+00  0.12104032492E+04  0.12104032492E+04  0.50400001928E-02 0.  1.
        1   -1    0    0  501    0  0.00000000000E+00  0.00000000000E+00 -0.19443898820E+04  0.19443898820E+04  0.50400001928E-02 0. -1.
    10030    2    1    2    0    0  0.00000000000E+00  0.00000000000E+00 -0.73398663278E+03  0.31547931312E+04  0.30682215245E+04 0.  0.
        1    1    3    3  502    0 -0.10794728899E+04  0.15459689558E+03 -0.14764821800E+04  0.18355275939E+04  0.50400001928E-02 0. -1.
       -1    1    3    3    0  502  0.10794728899E+04 -0.15459689558E+03  0.74249554717E+03  0.13192655373E+04  0.50400001928E-02 0.  1.
</event>
<event>
 5   0  0.7519202E-07  0.3094159E+04  0.7818609E-02  0.8217343E-01
       -1   -1    0    0    0  501  0.00000000000E+00  0.00000000000E+00  0.21184511695E+04  0.21184511695E+04  0.50400001928E-02 0. -1.
        1   -1    0    0  501    0  0.00000000000E+00  0.00000000000E+00 -0.11298139294E+04  0.11298139294E+04  0.50400001928E-02 0.  1.
    10030    2    1    2    0    0  0.00000000000E+00  0.00000000000E+00  0.98863724010E+03  0.32482650989E+04  0.30941594271E+04 0.  0.
        4    1    3    3  502    0 -0.11185652093E+04  0.67868220611E+03 -0.37242673977E+03  0.13603311926E+04  0.12699999809E+01 0.  1.
       -4    1    3    3    0  502  0.11185652093E+04 -0.67868220611E+03  0.13610639799E+04  0.18879339063E+04  0.12699999809E+01 0. -1.
</event>
<event>
 5   0  0.7413481E-07  0.3073237E+04  0.7818609E-02  0.8223121E-01
       -1   -1    0    0    0  501  0.00000000000E+00  0.00000000000E+00  0.14653944120E+04  0.14653944120E+04  0.50400001928E-02 0. -1.
        1   -1    0    0  501    0  0.00000000000E+00  0.00000000000E+00 -0.16113045655E+04  0.16113045655E+04  0.50400001928E-02 0.  1.
    10030    2    1    2    0    0  0.00000000000E+00  0.00000000000E+00 -0.14591015345E+03  0.30766989775E+04  0.30732371899E+04 0.  0.
        5    1    3    3  502    0 -0.13668845663E+04  0.48977619825E+03  0.43052341319E+03  0.15144723970E+04  0.46999998093E+01 0.  1.
       -5    1    3    3    0  502  0.13668845663E+04 -0.48977619825E+03 -0.57643356664E+03  0.15622265805E+04  0.46999998093E+01 0. -1.
</event>
<event>
 5   0  0.7519202E-07  0.3325661E+04  0.7818609E-02  0.8156397E-01
        1   -1    0    0  501    0  0.00000000000E+00  0.00000000000E+00  0.15202888344E+04  0.15202888344E+04  0.50400001928E-02 0.  1.
       -1   -1    0    0    0  501  0.00000000000E+00  0.00000000000E+00 -0.18187366296E+04  0.18187366296E+04  0.50400001928E-02 0. -1.
    10030    2    1    2    0    0  0.00000000000E+00  0.00000000000E+00 -0.29844779523E+03  0.33390254640E+04  0.33256608310E+04 0.  0.
        4    1    3    3  502    0 -0.10030927443E+04 -0.14458366532E+03 -0.14728174808E+04  0.17878177857E+04  0.12699999809E+01 0. -1.
       -4    1    3    3    0  502  0.10030927443E+04  0.14458366532E+03  0.11743696856E+04  0.15512076784E+04  0.12699999809E+01 0.  1.
</event>
<event>
 5   0  0.7726743E-07  0.3082965E+04  0.7818609E-02  0.8220429E-01
       -1   -1    0    0    0  501  0.00000000000E+00  0.00000000000E+00  0.11191134839E+04  0.11191134839E+04  0.50400001928E-02 0. -1.
        1   -1    0    0  501    0  0.00000000000E+00  0.00000000000E+00 -0.21232588204E+04  0.21232588204E+04  0.50400001928E-02 0.  1.
    10030    2    1    2    0    0  0.00000000000E+00  0.00000000000E+00 -0.10041453365E+04  0.32423723043E+04  0.30829645316E+04 0.  0.
        1    1    3    3  502    0 -0.89129631540E+03  0.45302143773E+03  0.73184788426E+03  0.12390475659E+04  0.50400001928E-02 0. -1.
       -1    1    3    3    0  502  0.89129631540E+03 -0.45302143773E+03 -0.17359932207E+04  0.20033247384E+04  0.50400001928E-02 0.  1.
</event>
<event>
 5   0  0.2094135E-06  0.3098918E+04  0.7818609E-02  0.8216035E-01
       -2   -1    0    0    0  501  0.00000000000E+00  0.00000000000E+00  0.13810439800E+04  0.13810439800E+04  0.25500000920E-02 0.  1.
        2   -1    0    0  501    0  0.00000000000E+00  0.00000000000E+00 -0.17384123400E+04  0.17384123400E+04  0.25500000920E-02 0. -1.
    10030    2    1    2    0    0  0.00000000000E+00  0.00000000000E+00 -0.35736835999E+03  0.31194563201E+04  0.30989184546E+04 0.  0.
        4    1    3    3  502    0  0.70715448049E+03 -0.13227183591E+04 -0.57006808008E+03  0.16045655317E+04  0.12699999809E+01 0.  1.
       -4    1    3    3    0  502 -0.70715448049E+03  0.13227183591E+04  0.21269972009E+03  0.15148907883E+04  0.12699999809E+01 0. -1.
</event>
<event>
 5   0  0.7519202E-07  0.2979387E+04  0.7818609E-02  0.8249642E-01
       -1   -1    0    0    0  501  0.00000000000E+00  0.00000000000E+00  0.16455866449E+04  0.16455866449E+04  0.50400001928E-02 0. -1.
        1   -1    0    0  501    0  0.00000000000E+00  0.00000000000E+00 -0.13485683150E+04  0.13485683150E+04  0.50400001928E-02 0.  1.
    10030    2    1    2    0    0  0.00000000000E+00  0.00000000000E+00  0.29701832998E+03  0.29941549599E+04  0.29793865200E+04 0.  0.
        4    1    3    3  502    0 -0.37954796967E+03 -0.14357478505E+04  0.30642484242E+02  0.14853851777E+04  0.12699999809E+01 0.  1.
       -4    1    3    3    0  502  0.37954796967E+03  0.14357478505E+04  0.26637584574E+03  0.15087697822E+04  0.12699999809E+01 0. -1.
</event>
<event>
 5   0  0.7726743E-07  0.3097598E+04  0.7818609E-02  0.8216397E-01
       -1   -1    0    0    0  501  0.00000000000E+00  0.00000000000E+00  0.13182095508E+04  0.13182095509E+04  0.50400001928E-02 0.  1.
        1   -1    0    0  501    0  0.00000000000E+00  0.00000000000E+00 -0.18197250671E+04  0.18197250671E+04  0.50400001928E-02 0. -1.
    10030    2    1    2    0    0  0.00000000000E+00  0.00000000000E+00 -0.50151551625E+03  0.31379346180E+04  0.30975984009E+04 0.  0.
        1    1    3    3  502    0 -0.58621813707E+03  0.58156270093E+03 -0.15781302329E+04  0.17811125488E+04  0.50400001928E-02 0. -1.
       -1    1    3    3    0  502  0.58621813707E+03 -0.58156270093E+03  0.10766147167E+04  0.13568220692E+04  0.50400001928E-02 0.  1.
</event>
<event>
 5   0  0.7561815E-07  0.3104677E+04  0.7818609E-02  0.8214456E-01
        1   -1    0    0  501    0  0.00000000000E+00  0.00000000000E+00  0.15618321440E+04  0.15618321440E+04  0.50400001928E-02 0. -1.
       -1   -1    0    0    0  501  0.00000000000E+00  0.00000000000E+00 -0.15429023344E+04  0.15429023344E+04  0.50400001928E-02 0.  1.
    10030    2    1    2    0    0  0.00000000000E+00  0.00000000000E+00  0.18929809546E+02  0.31047344784E+04  0.31046767696E+04 0.  0.
        3    1    3    3  502    0  0.79686190832E+03 -0.10403542224E+04 -0.82267353523E+03  0.15472936259E+04  0.10100000352E+00 0.  1.
       -3    1    3    3    0  502 -0.79686190832E+03  0.10403542224E+04  0.84160334478E+03  0.15574408525E+04  0.10100000352E+00 0. -1.
</event>
<event>
 5   0  0.7561815E-07  0.3069766E+04  0.7818609E-02  0.8224085E-01
       -1   -1    0    0    0  501  0.00000000000E+00  0.00000000000E+00  0.21067441971E+04  0.21067441971E+04  0.50400001928E-02 0.  1.
        1   -1    0    0  501    0  0.00000000000E+00  0.00000000000E+00 -0.11182492297E+04  0.11182492297E+04  0.50400001928E-02 0. -1.
    10030    2    1    2    0    0  0.00000000000E+00  0.00000000000E+00  0.98849496745E+03  0.32249934268E+04  0.30697655126E+04 0.  0.
        3    1    3    3  502    0  0.28247313621E+03  0.93379687181E+02  0.20761631190E+04  0.20973707697E+04  0.10100000352E+00 0.  1.
       -3    1    3    3    0  502 -0.28247313621E+03 -0.93379687181E+02 -0.10876681516E+04  0.11276226571E+04  0.10100000352E+00 0. -1.
</event>
<event>
 5   0  0.2094135E-06  0.3103374E+04  0.7818609E-02  0.8214812E-01
        2   -1    0    0  501    0  0.00000000000E+00  0.00000000000E+00  0.11680910490E+04  0.11680910490E+04  0.25500000920E-02 0.  1.
       -2   -1    0    0    0  501  0.00000000000E+00  0.00000000000E+00 -0.20612544839E+04  0.20612544839E+04  0.25500000920E-02 0. -1.
    10030    2    1    2    0    0  0.00000000000E+00  0.00000000000E+00 -0.89316343491E+03  0.32293455330E+04  0.31033742362E+04 0.  0.
        4    1    3    3  502    0 -0.56656081033E+03  0.13399105400E+04  0.11512569529E+03  0.14593172875E+04  0.12699999809E+01 0.  1.
       -4    1    3    3    0  502  0.56656081033E+03 -0.13399105400E+04 -0.10082891302E+04  0.17700282455E+04  0.12699999809E+01 0. -1.
</event>
<event>
 5   0  0.7656332E-07  0.3074335E+04  0.7818609E-02  0.8222817E-01
       -1   -1    0    0    0  501  0.00000000000E+00  0.00000000000E+00  0.13354329422E+04  0.13354329423E+04  0.50400001928E-02 0.  1.
        1   -1    0    0  501    0  0.00000000000E+00  0.00000000000E+00 -0.17693769182E+04  0.17693769182E+04  0.50400001928E-02 0. -1.
    10030    2    1    2    0    0  0.00000000000E+00  0.00000000000E+00 -0.43394397596E+03  0.31048098605E+04  0.30743351957E+04 0.  0.
        2    1    3    3  502    0 -0.48710534957E+03  0.11833891212E+04  0.64305786226E+03  0.14322027957E+04  0.25500000920E-02 0.  1.
       -2    1    3    3    0  502  0.48710534957E+03 -0.11833891212E+04 -0.10770018382E+04  0.16726070648E+04  0.25500000920E-02 0. -1.
</event>
<event>
 5   0  0.7519202E-07  0.3100765E+04  0.7818609E-02  0.8215528E-01
        1   -1    0    0  501    0  0.00000000000E+00  0.00000000000E+00  0.11536777957E+04  0.11536777957E+04  0.50400001928E-02 0. -1.
       -1   -1    0    0    0  501  0.00000000000E+00  0.00000000000E+00 -0.20834987446E+04  0.20834987446E+04  0.50400001928E-02 0.  1.
    10030    2    1    2    0    0  0.00000000000E+00  0.00000000000E+00 -0.92982094891E+03  0.32371765404E+04  0.31007652211E+04 0.  0.
        4    1    3    3  502    0  0.82926804744E+03 -0.10938695598E+04  0.28752412193E+03  0.14024649165E+04  0.12699999809E+01 0. -1.
       -4    1    3    3    0  502 -0.82926804744E+03  0.10938695598E+04 -0.12173450708E+04  0.18347116239E+04  0.12699999809E+01 0.  1.
</event>
<event>
 5   0  0.2094135E-06  0.3116080E+04  0.7818609E-02  0.8211339E-01
       -2   -1    0    0    0  501  0.00000000000E+00  0.00000000000E+00  0.10658199713E+04  0.10658199713E+04  0.25500000920E-02 0.  1.
        2   -1    0    0  501    0  0.00000000000E+00  0.00000000000E+00 -0.22775784616E+04  0.22775784616E+04  0.25500000920E-02 0. -1.
    10030    2    1    2    0    0  0.00000000000E+00  0.00000000000E+00 -0.12117584903E+04  0.33433984329E+04  0.31160799801E+04 0.  0.
        4    1    3    3  502    0  0.10312712651E+04 -0.10916315506E+04 -0.16049877771E+03  0.15102785621E+04  0.12699999809E+01 0.  1.
       -4    1    3    3    0  502 -0.10312712651E+04  0.10916315506E+04 -0.10512597126E+04  0.18331198708E+04  0.12699999809E+01 0. -1.
</event>
<event>
 5   0  0.2226334E-06  0.3028314E+04  0.7818609E-02  0.8235692E-01
       -2   -1    0    0    0  501  0.00000000000E+00  0.00000000000E+00  0.14878646856E+04  0.14878646856E+04  0.25500000920E-02 0.  1.
        2   -1    0    0  501    0  0.00000000000E+00  0.00000000000E+00 -0.15409138933E+04  0.15409138933E+04  0.25500000920E-02 0. -1.
    10030    2    1    2    0    0  0.00000000000E+00  0.00000000000E+00 -0.53049207750E+02  0.30287785789E+04  0.30283139635E+04 0.  0.
        5    1    3    3  502    0 -0.16614186368E+03  0.91624227783E+03  0.11676209919E+04  0.14934737698E+04  0.46999998093E+01 0.  1.
       -5    1    3    3    0  502  0.16614186368E+03 -0.91624227783E+03 -0.12206701996E+04  0.15353048091E+04  0.46999998093E+01 0. -1.
</event>
<event>
 5   0  0.7519202E-07  0.3106553E+04  0.7818609E-02  0.8213942E-01
        1   -1    0    0  501    0  0.00000000000E+00  0.00000000000E+00  0.18876219185E+04  0.18876219185E+04  0.50400001928E-02 0.  1.
       -1   -1    0    0    0  501  0.00000000000E+00  0.00000000000E+00 -0.12781520578E+04  0.12781520578E+04  0.50400001928E-02 0. -1.
    10030    2    1    2    0    0  0.00000000000E+00  0.00000000000E+00  0.60946986075E+03  0.31657739763E+04  0.31065529704E+04 0.  0.
        4    1    3    3  502    0 -0.38137290183E+03  0.84643234741E+03  0.15737748610E+04  0.18272005733E+04  0.12699999809E+01 0.  1.
       -4    1    3    3    0  502  0.38137290183E+03 -0.84643234741E+03 -0.96430500022E+03  0.13385734030E+04  0.12699999809E+01 0. -1.
</event>
<event>
 5   0  0.2094135E-06  0.3056372E+04  0.7818609E-02  0.8227814E-01
        2   -1    0    0  501    0  0.00000000000E+00  0.00000000000E+00  0.17244887659E+04  0.17244887659E+04  0.25500000920E-02 0.  1.
       -2   -1    0    0    0  501  0.00000000000E+00  0.00000000000E+00 -0.13542286798E+04  0.13542286798E+04  0.25500000920E-02 0. -1.
    10030    2    1    2    0    0  0.00000000000E+00  0.00000000000E+00  0.37026008618E+03  0.30787174457E+04  0.30563717999E+04 0.  0.
        4    1    3    3  502    0  0.54128150074E+02  0.17264524449E+02  0.17234240164E+04  0.17243607145E+04  0.12699999809E+01 0.  1.
       -4    1    3    3    0  502 -0.54128150074E+02 -0.17264524449E+02 -0.13531639302E+04  0.13543567312E+04  0.12699999809E+01 0. -1.
</event>
<event>
 5   0  0.2078009E-06  0.3078670E+04  0.7818609E-02  0.8221616E-01
        2   -1    0    0  501    0  0.00000000000E+00  0.00000000000E+00  0.14751521193E+04  0.14751521193E+04  0.25500000920E-02 0.  1.
       -2   -1    0    0    0  501  0.00000000000E+00  0.00000000000E+00 -0.16063103184E+04  0.16063103184E+04  0.25500000920E-02 0. -1.
    10030    2    1    2    0    0  0.00000000000E+00  0.00000000000E+00 -0.13115819915E+03  0.30814624377E+04  0.30786698884E+04 0.  0.
        3    1    3    3  502    0 -0.11921369019E+04  0.70537678889E+02 -0.10377407640E+04  0.15821099394E+04  0.10100000352E+00 0. -1.
       -3    1    3    3    0  502  0.11921369019E+04 -0.70537678889E+02  0.90658256482E+03  0.14993524983E+04  0.10100000352E+00 0.  1.
</event>
<event>
 5   0  0.7413481E-07  0.3195958E+04  0.7818609E-02  0.8189885E-01
        1   -1    0    0  501    0  0.00000000000E+00  0.00000000000E+00  0.13913604708E+04  0.13913604708E+04  0.50400001928E-02 0. -1.
       -1   -1    0    0    0  501  0.00000000000E+00  0.00000000000E+00 -0.18352805787E+04  0.18352805787E+04  0.50400001928E-02 0.  1.
    10030    2    1    2    0    0  0.00000000000E+00  0.00000000000E+00 -0.44392010787E+03  0.32266410495E+04  0.31959579784E+04 0.  0.
        5    1    3    3  502    0  0.13356921436E+04 -0.36682457825E+03 -0.10264039387E+04  0.17239956233E+04  0.46999998093E+01 0.  1.
       -5    1    3    3    0  502 -0.13356921436E+04  0.36682457825E+03  0.58248383088E+03  0.15026454262E+04  0.46999998093E+01 0. -1.
</event>
<event>
 5   0  0.2133385E-06  0.3048930E+04  0.7818609E-02  0.8229895E-01
        2   -1    0    0  501    0  0.00000000000E+00  0.00000000000E+00  0.14819406401E+04  0.14819406401E+04  0.25500000920E-02 0. -1.
       -2   -1    0    0    0  501  0.00000000000E+00  0.00000000000E+00 -0.15682095825E+04  0.15682095825E+04  0.25500000920E-02 0.  1.
    10030    2    1    2    0    0  0.00000000000E+00  0.00000000000E+00 -0.86268942383E+02  0.30501502227E+04  0.30489299845E+04 0.  0.
        2    1    3    3  502    0  0.31997074030E+03  0.34498560085E+03  0.14074793666E+04  0.14840466660E+04  0.25500000920E-02 0. -1.
       -2    1    3    3    0  502 -0.31997074030E+03 -0.34498560085E+03 -0.14937483090E+04  0.15661035566E+04  0.25500000920E-02 0.  1.
</event>
<event>
 5   0  0.6979625E-07  0.3111215E+04  0.7818609E-02  0.8212667E-01
        3   -1    0    0  501    0  0.00000000000E+00  0.00000000000E+00  0.19808988993E+04  0.19808989019E+04  0.10100000352E+00 0.  1.
       -3   -1    0    0    0  501  0.00000000000E+00  0.00000000000E+00 -0.12216244449E+04  0.12216244490E+04  0.10100000352E+00 0. -1.
    10030    2    1    2    0    0  0.00000000000E+00  0.00000000000E+00  0.75927445446E+03  0.32025233509E+04  0.31112148939E+04 0.  0.
        2    1    3    3  502    0 -0.89937072337E+03  0.10294791644E+04 -0.38459363992E+03  0.14200729967E+04  0.25500000920E-02 0. -1.
       -2    1    3    3    0  502  0.89937072337E+03 -0.10294791644E+04  0.11438680944E+04  0.17824503542E+04  0.25500000920E-02 0.  1.
</event>
<event>
 5   0  0.2133385E-06  0.3089078E+04  0.7818609E-02  0.8218742E-01
        2   -1    0    0  501    0  0.00000000000E+00  0.00000000000E+00  0.25260257614E+04  0.25260257614E+04  0.25500000920E-02 0.  1.
       -2   -1    0    0    0  501  0.00000000000E+00  0.00000000000E+00 -0.94440880172E+03  0.94440880172E+03  0.25500000920E-02 0. -1.
    10030    2    1    2    0    0  0.00000000000E+00  0.00000000000E+00  0.15816169597E+04  0.34704345631E+04  0.30890781553E+04 0.  0.
        2    1    3    3  502    0  0.11384796167E+03  0.93621167165E+03 -0.58336683149E+03  0.11089501849E+04  0.25500000920E-02 0. -1.
       -2    1    3    3    0  502 -0.11384796167E+03 -0.93621167165E+03  0.21649837912E+04  0.23614843782E+04  0.25500000920E-02 0.  1.
</event>
<event>
 5   0  0.7561815E-07  0.3099383E+04  0.7818609E-02  0.8215907E-01
        1   -1    0    0  501    0  0.00000000000E+00  0.00000000000E+00  0.15837479480E+04  0.15837479480E+04  0.50400001928E-02 0. -1.
       -1   -1    0    0    0  501  0.00000000000E+00  0.00000000000E+00 -0.15163669209E+04  0.15163669209E+04  0.50400001928E-02 0.  1.
    10030    2    1    2    0    0  0.00000000000E+00  0.00000000000E+00  0.67381027073E+02  0.31001148689E+04  0.30993825188E+04 0.  0.
        3    1    3    3  502    0 -0.41091823391E+03  0.87331324340E+03  0.12464179979E+04  0.15764160782E+04  0.10100000352E+00 0. -1.
       -3    1    3    3    0  502  0.41091823391E+03 -0.87331324340E+03 -0.11790369708E+04  0.15236987907E+04  0.10100000352E+00 0.  1.
</event>
<event>
 5   0  0.2078009E-06  0.3094858E+04  0.7818609E-02  0.8217150E-01
        2   -1    0    0  501    0  0.00000000000E+00  0.00000000000E+00  0.31673360631E+04  0.31673360631E+04  0.25500000920E-02 0.  1.
       -2   -1    0    0    0  501  0.00000000000E+00  0.00000000000E+00 -0.75600967120E+03  0.75600967120E+03  0.25500000920E-02 0. -1.
    10030    2    1    2    0    0  0.00000000000E+00  0.00000000000E+00  0.24113263919E+04  0.39233457343E+04  0.30948581199E+04 0.  0.
        3    1    3    3  502    0  0.15013993770E+04  0.35449028059E+03  0.13592234434E+04  0.20560524866E+04  0.10100000352E+00 0.  1.
       -3    1    3    3    0  502 -0.15013993770E+04 -0.35449028059E+03  0.10521029485E+04  0.18672932477E+04  0.10100000352E+00 0. -1.
</event>
<event>
 5   0  0.7519202E-07  0.3114751E+04  0.7818609E-02  0.8211701E-01
       -1   -1    0    0    0  501  0.00000000000E+00  0.00000000000E+00  0.13981057114E+04  0.13981057114E+04  0.50400001928E-02 0. -1.
        1   -1    0    0  501    0  0.00000000000E+00  0.00000000000E+00 -0.17347887683E+04  0.17347887683E+04  0.50400001928E-02 0.  1.
    10030    2    1    2    0    0  0.00000000000E+00  0.00000000000E+00 -0.33668305691E+03  0.31328944797E+04  0.31147507669E+04 0.  0.
        4    1    3    3  502    0  0.42210313913E+02  0.12719173749E+04  0.73458522782E+03  0.14694123277E+04  0.12699999809E+01 0.  1.
       -4    1    3    3    0  502 -0.42210313913E+02 -0.12719173749E+04 -0.10712682847E+04  0.16634821519E+04  0.12699999809E+01 0. -1.
</event>
<event>
 5   0  0.7726743E-07  0.3087572E+04  0.7818609E-02  0.8219157E-01
        1   -1    0    0  501    0  0.00000000000E+00  0.00000000000E+00  0.20045752849E+04  0.20045752849E+04  0.50400001928E-02 0. -1.
       -1   -1    0    0    0  501  0.00000000000E+00  0.00000000000E+00 -0.11889176273E+04  0.11889176273E+04  0.50400001928E-02 0.  1.
    10030    2    1    2    0    0  0.00000000000E+00  0.00000000000E+00  0.81565765767E+03  0.31934929122E+04  0.30875717912E+04 0.  0.
        1    1    3    3  502    0 -0.38889607005E+03  0.22082609259E+03  0.19361079253E+04  0.19870878730E+04  0.50400001928E-02 0. -1.
       -1    1    3    3    0  502  0.38889607005E+03 -0.22082609259E+03 -0.11204502676E+04  0.12064050392E+04  0.50400001928E-02 0.  1.
</event>
<event>
 5   0  0.2133385E-06  0.3073155E+04  0.7818609E-02  0.8223144E-01
       -2   -1    0    0    0  501  0.00000000000E+00  0.00000000000E+00  0.10926058589E+04  0.10926058589E+04  0.25500000920E-02 0.  1.
        2   -1    0    0  501    0  0.00000000000E+00  0.00000000000E+00 -0.21609531447E+04  0.21609531447E+04  0.25500000920E-02 0. -1.
    10030    2    1    2    0    0  0.00000000000E+00  0.00000000000E+00 -0.10683472858E+04  0.32535590036E+04  0.30731547743E+04 0.  0.
        2    1    3    3  502    0 -0.33984242678E+03 -0.13989271838E+04 -0.11029051819E+04  0.18135297022E+04  0.25500000920E-02 0. -1.
       -2    1    3    3    0  502  0.33984242678E+03  0.13989271838E+04  0.34557896080E+02  0.14400293014E+04  0.25500000920E-02 0.  1.
</event>
<event>
 5   0  0.7561815E-07  0.3116310E+04  0.7818609E-02  0.8211276E-01
        1   -1    0    0  501    0  0.00000000000E+00  0.00000000000E+00  0.22640744319E+04  0.22640744320E+04  0.50400001928E-02 0.  1.
       -1   -1    0    0    0  501  0.00000000000E+00  0.00000000000E+00 -0.10723352443E+04  0.10723352443E+04  0.50400001928E-02 0. -1.
    10030    2    1    2    0    0  0.00000000000E+00  0.00000000000E+00  0.11917391876E+04  0.33364096763E+04  0.31163098749E+04 0.  0.
        3    1    3    3  502    0 -0.96271556608E+03 -0.95157650376E+03  0.14220782065E+04  0.19633200297E+04  0.10100000352E+00 0.  1.
       -3    1    3    3    0  502  0.96271556608E+03  0.95157650376E+03 -0.23033901883E+03  0.13730896466E+04  0.10100000352E+00 0. -1.
</event>
<event>
 5   0  0.2094135E-06  0.3037129E+04  0.7818609E-02  0.8233207E-01
        2   -1    0    0  501    0  0.00000000000E+00  0.00000000000E+00  0.11564015551E+04  0.11564015551E+04  0.25500000920E-02 0.  1.
       -2   -1    0    0    0  501  0.00000000000E+00  0.00000000000E+00 -0.19941505060E+04  0.19941505060E+04  0.25500000920E-02 0. -1.
    10030    2    1    2    0    0  0.00000000000E+00  0.00000000000E+00 -0.83774895095E+03  0.31505520611E+04  0.30371293987E+04 0.  0.
        4    1    3    3  502    0 -0.50492022644E+03  0.14277069393E+04 -0.30176193513E+03  0.15441351683E+04  0.12699999809E+01 0.  1.
       -4    1    3    3    0  502  0.50492022644E+03 -0.14277069393E+04 -0.53598701582E+03  0.16064168928E+04  0.12699999809E+01 0. -1.
</event>
<event>
 5   0  0.2078009E-06  0.3090389E+04  0.7818609E-02  0.8218380E-01
       -2   -1    0    0    0  501  0.00000000000E+00  0.00000000000E+00  0.12056708552E+04  0.12056708552E+04  0.25500000920E-02 0.  1.
        2   -1    0    0  501    0  0.00000000000E+00  0.00000000000E+00 -0.19803302097E+04  0.19803302097E+04  0.25500000920E-02 0. -1.
    10030    2    1    2    0    0  0.00000000000E+00  0.00000000000E+00 -0.77465935450E+03  0.31860010649E+04  0.30903892424E+04 0.  0.
        3    1    3    3  502    0 -0.35228761799E+03  0.10352620358E+04 -0.15127784796E+04  0.18666474726E+04  0.10100000352E+00 0. -1.
       -3    1    3    3    0  502  0.35228761799E+03 -0.10352620358E+04  0.73811912506E+03  0.13193535923E+04  0.10100000352E+00 0.  1.
</event>
<event>
 5   0  0.2226334E-06  0.3060807E+04  0.7818609E-02  0.8226577E-01
       -2   -1    0    0    0  501  0.00000000000E+00  0.00000000000E+00  0.19149897894E+04  0.19149897894E+04  0.25500000920E-02 0. -1.
        2   -1    0    0  501    0  0.00000000000E+00  0.00000000000E+00 -0.12230532262E+04  0.12230532262E+04  0.25500000920E-02 0.  1.
    10030    2    1    2    0    0  0.00000000000E+00  0.00000000000E+00  0.69193656314E+03  0.31380430156E+04  0.30608067172E+04 0.  0.
        5    1    3    3  502    0 -0.82483939424E+03  0.26407187752E+03  0.16395593957E+04  0.18542575563E+04  0.46999998093E+01 0. -1.
       -5    1    3    3    0  502  0.82483939424E+03 -0.26407187752E+03 -0.94762283259E+03  0.12837854593E+04  0.46999998093E+01 0.  1.
</event>
<event>
 5   0  0.7519202E-07  0.3106149E+04  0.7818609E-02  0.8214052E-01
        1   -1    0    0  501    0  0.00000000000E+00  0.00000000000E+00  0.14936061057E+04  0.14936061057E+04  0.50400001928E-02 0.  1.
       -1   -1    0    0    0  501  0.00000000000E+00  0.00000000000E+00 -0.16149110951E+04  0.16149110951E+04  0.50400001928E-02 0. -1.
    10030    2    1    2    0    0  0.00000000000E+00  0.00000000000E+00 -0.12130498936E+03  0.31085172008E+04  0.31061494309E+04 0.  0.
        4    1    3    3  502    0 -0.12038569947E+04 -0.85476543475E+03  0.42152786693E+03  0.15354422710E+04  0.12699999809E+01 0.  1.
       -4    1    3    3    0  502  0.12038569947E+04  0.85476543475E+03 -0.54283285629E+03  0.15730749298E+04  0.12699999809E+01 0. -1.
</event>
<event>
 5   0  0.7561815E-07  0.3131253E+04  0.7818609E-02  0.8207213E-01
       -1   -1    0    0    0  501  0.00000000000E+00  0.00000000000E+00  0.13664126265E+04  0.13664126265E+04  0.50400001928E-02 0.  1.
        1   -1    0    0  501    0  0.00000000000E+00  0.00000000000E+00 -0.17938844945E+04  0.17938844945E+04  0.50400001928E-02 0. -1.
    10030    2    1    2    0    0  0.00000000000E+00  0.00000000000E+00 -0.42747186804E+03  0.31602971210E+04  0.31312530551E+04 0.  0.
        3    1    3    3  502    0 -0.11447123524E+04  0.48215305235E+03 -0.11756493788E+04  0.17102600410E+04  0.10100000352E+00 0. -1.
       -3    1    3    3    0  502  0.11447123524E+04 -0.48215305235E+03  0.74817751079E+03  0.14500370801E+04  0.10100000352E+00 0.  1.
</event>
<event>
 5   0  0.7413481E-07  0.3101994E+04  0.7818609E-02  0.8215191E-01
       -1   -1    0    0    0  501  0.00000000000E+00  0.00000000000E+00  0.90986280614E+03  0.90986280615E+03  0.50400001928E-02 0.  1.
        1   -1    0    0  501    0  0.00000000000E+00  0.00000000000E+00 -0.26439059214E+04  0.26439059214E+04  0.50400001928E-02 0. -1.
    10030    2    1    2    0    0  0.00000000000E+00  0.00000000000E+00 -0.17340431153E+04  0.35537687276E+04  0.31019939786E+04 0.  0.
        5    1    3    3  502    0 -0.64978957879E+03  0.66800243464E+03  0.55334849595E+03  0.10838221244E+04  0.46999998093E+01 0.  1.
       -5    1    3    3    0  502  0.64978957879E+03 -0.66800243464E+03 -0.22873916112E+04  0.24699466032E+04  0.46999998093E+01 0. -1.
</event>
<event>
 5   0  0.2094135E-06  0.3013462E+04  0.7818609E-02  0.8239897E-01
        2   -1    0    0  501    0  0.00000000000E+00  0.00000000000E+00  0.21609066626E+04  0.21609066626E+04  0.25500000920E-02 0. -1.
       -2   -1    0    0    0  501  0.00000000000E+00  0.00000000000E+00 -0.10505952816E+04  0.10505952816E+04  0.25500000920E-02 0.  1.
    10030    2    1    2    0    0  0.00000000000E+00  0.00000000000E+00  0.11103113809E+04  0.32115019442E+04  0.30134620248E+04 0.  0.
        4    1    3    3  502    0  0.42615085314E+03 -0.12079823039E+04 -0.29033651477E+03  0.13134392643E+04  0.12699999809E+01 0.  1.
       -4    1    3    3    0  502 -0.42615085314E+03  0.12079823039E+04  0.14006478957E+04  0.18980626799E+04  0.12699999809E+01 0. -1.
</event>
<event>
 5   0  0.2067926E-06  0.3064496E+04  0.7818609E-02  0.8225550E-01
        2   -1    0    0  501    0  0.00000000000E+00  0.00000000000E+00  0.18133410036E+04  0.18133410036E+04  0.25500000920E-02 0.  1.
       -2   -1    0    0    0  501  0.00000000000E+00  0.00000000000E+00 -0.12947284124E+04  0.12947284124E+04  0.25500000920E-02 0. -1.
    10030    2    1    2    0    0  0.00000000000E+00  0.00000000000E+00  0.51861259124E+03  0.31080694160E+04  0.30644961208E+04 0.  0.
        1    1    3    3  502    0 -0.13797660600E+03  0.15182211705E+04  0.41561136452E+03  0.15801157782E+04  0.50400001928E-02 0.  1.
       -1    1    3    3    0  502  0.13797660600E+03 -0.15182211705E+04  0.10300122672E+03  0.15279536377E+04  0.50400001928E-02 0. -1.
</event>
<event>
 5   0  0.2226334E-06  0.3106501E+04  0.7818609E-02  0.8213956E-01
       -2   -1    0    0    0  501  0.00000000000E+00  0.00000000000E+00  0.16010903028E+04  0.16010903028E+04  0.25500000920E-02 0.  1.
        2   -1    0    0  501    0  0.00000000000E+00  0.00000000000E+00 -0.15068405774E+04  0.15068405774E+04  0.25500000920E-02 0. -1.
    10030    2    1    2    0    0  0.00000000000E+00  0.00000000000E+00  0.94249725413E+02  0.31079308801E+04  0.31065014638E+04 0.  0.
        5    1    3    3  502    0 -0.12966842072E+04 -0.85205006592E+03 -0.24925622157E+02  0.15517804692E+04  0.46999998093E+01 0. -1.
       -5    1    3    3    0  502  0.12966842072E+04  0.85205006592E+03  0.11917534757E+03  0.15561504109E+04  0.46999998093E+01 0.  1.
</event>
<event>
 5   0  0.2094135E-06  0.3044107E+04  0.7818609E-02  0.8231247E-01
        2   -1    0    0  501    0  0.00000000000E+00  0.00000000000E+00  0.20613055919E+04  0.20613055919E+04  0.25500000920E-02 0. -1.
       -2   -1    0    0    0  501  0.00000000000E+00  0.00000000000E+00 -0.11238737153E+04  0.11238737153E+04  0.25500000920E-02 0.  1.
    10030    2    1    2    0    0  0.00000000000E+00  0.00000000000E+00  0.93743187659E+03  0.31851793072E+04  0.30441072083E+04 0.  0.
        4    1    3    3  502    0 -0.11399202963E+04 -0.89872523437E+03  0.94766235184E+03  0.17335486364E+04  0.12699999809E+01 0.  1.
       -4    1    3    3    0  502  0.11399202963E+04  0.89872523437E+03 -0.10230475251E+02  0.14516306708E+04  0.12699999809E+01 0. -1.
</event>
<event>
 5   0  0.2133385E-06  0.3110513E+04  0.7818609E-02  0.8212859E-01
       -2   -1    0    0    0  501  0.00000000000E+00  0.00000000000E+00  0.98422776382E+03  0.98422776382E+03  0.25500000920E-02 0.  1.
        2   -1    0    0  501    0  0.00000000000E+00  0.00000000000E+00 -0.24575837930E+04  0.24575837930E+04  0.25500000920E-02 0. -1.
    10030    2    1    2    0    0  0.00000000000E+00  0.00000000000E+00 -0.14733560292E+04  0.34418115568E+04  0.31105126272E+04 0.  0.
        2    1    3    3  502    0 -0.17627501494E+03  0.35449504051E+03  0.92753666340E+03  0.10084958486E+04  0.25500000920E-02 0.  1.
       -2    1    3    3    0  502  0.17627501494E+03 -0.35449504051E+03 -0.24008926926E+04  0.24333157083E+04  0.25500000920E-02 0. -1.
</event>
<event>
 5   0  0.2226334E-06  0.3102869E+04  0.7818609E-02  0.8214951E-01
        2   -1    0    0  501    0  0.00000000000E+00  0.00000000000E+00  0.19962176115E+04  0.19962176115E+04  0.25500000920E-02 0. -1.
       -2   -1    0    0    0  501  0.00000000000E+00  0.00000000000E+00 -0.12057550141E+04  0.12057550141E+04  0.25500000920E-02 0.  1.
    10030    2    1    2    0    0  0.00000000000E+00  0.00000000000E+00  0.79046259741E+03  0.32019726257E+04  0.31028692492E+04 0.  0.
        5    1    3    3  502    0 -0.14685878245E+04 -0.24496472384E+03 -0.54781065493E+02  0.14898929389E+04  0.46999998093E+01 0.  1.
       -5    1    3    3    0  502  0.14685878245E+04  0.24496472384E+03  0.84524366290E+03  0.17120796868E+04  0.46999998093E+01 0. -1.
</event>
<event>
 5   0  0.2226334E-06  0.2975165E+04  0.7818609E-02  0.8250858E-01
        2   -1    0    0  501    0  0.00000000000E+00  0.00000000000E+00  0.17985293833E+04  0.17985293833E+04  0.25500000920E-02 0.  1.
       -2   -1    0    0    0  501  0.00000000000E+00  0.00000000000E+00 -0.12303950072E+04  0.12303950072E+04  0.25500000920E-02 0. -1.
    10030    2    1    2    0    0  0.00000000000E+00  0.00000000000E+00  0.56813437612E+03  0.30289243904E+04  0.29751649187E+04 0.  0.
        5    1    3    3  502    0  0.68412480618E+03 -0.92920000930E+03 -0.67174768493E+03  0.13351803061E+04  0.46999998093E+01 0. -1.
       -5    1    3    3    0  502 -0.68412480618E+03  0.92920000930E+03  0.12398820610E+04  0.16937440843E+04  0.46999998093E+01 0.  1.
</event>
<event>
 5   0  0.7656332E-07  0.3114186E+04  0.7818609E-02  0.8211855E-01
       -1   -1    0    0    0  501  0.00000000000E+00  0.00000000000E+00  0.28169129252E+04  0.28169129252E+04  0.50400001928E-02 0. -1.
        1   -1    0    0  501    0  0.00000000000E+00  0.00000000000E+00 -0.86070792277E+03  0.86070792278E+03  0.50400001928E-02 0.  1.
    10030    2    1    2    0    0  0.00000000000E+00  0.00000000000E+00  0.19562050024E+04  0.36776208480E+04  0.31141864251E+04 0.  0.
        2    1    3    3  502    0 -0.10609756880E+04 -0.70749812359E+03 -0.77036885510E+02  0.12775592695E+04  0.25500000920E-02 0.  1.
       -2    1    3    3    0  502  0.10609756880E+04  0.70749812359E+03  0.20332418879E+04  0.24000615785E+04  0.25500000920E-02 0. -1.
</event>
<event>
 5   0  0.7656332E-07  0.3092133E+04  0.7818609E-02  0.8217900E-01
        1   -1    0    0  501    0  0.00000000000E+00  0.00000000000E+00  0.31155153873E+04  0.31155153873E+04  0.50400001928E-02 0.  1.
       -1   -1    0    0    0  501  0.00000000000E+00  0.00000000000E+00 -0.76723151724E+03  0.76723151726E+03  0.50400001928E-02 0. -1.
    10030    2    1    2    0    0  0.00000000000E+00  0.00000000000E+00  0.23482838701E+04  0.38827469046E+04  0.30921329840E+04 0.  0.
        2    1    3    3  502    0  0.10499002349E+03 -0.39925176563E+03  0.30450278418E+04  0.30728845462E+04  0.25500000920E-02 0.  1.
       -2    1    3    3    0  502 -0.10499002349E+03  0.39925176563E+03 -0.69674397168E+03  0.80986235835E+03  0.25500000920E-02 0. -1.
</event>
<event>
 5   0  0.6979625E-07  0.3094770E+04  0.7818609E-02  0.8217175E-01
        4   -1    0    0  501    0  0.00000000000E+00  0.00000000000E+00  0.26649956636E+04  0.26649959662E+04  0.12699999809E+01 0. -1.
       -4   -1    0    0    0  501  0.00000000000E+00  0.00000000000E+00 -0.89846210368E+03  0.89846300127E+03  0.12699999809E+01 0.  1.
    10030    2    1    2    0    0  0.00000000000E+00  0.00000000000E+00  0.17665335599E+04  0.35634589675E+04  0.30947696190E+04 0.  0.
        5    1    3    3  502    0 -0.99492920572E+03 -0.84973043963E+03 -0.67949779219E+02  0.13101775479E+04  0.46999998093E+01 0.  1.
       -5    1    3    3    0  502  0.99492920572E+03  0.84973043963E+03  0.18344833391E+04  0.22532814196E+04  0.46999998093E+01 0. -1.
</event>
<event>
 5   0  0.7413481E-07  0.3091868E+04  0.7818609E-02  0.8217973E-01
       -1   -1    0    0    0  501  0.00000000000E+00  0.00000000000E+00  0.90852215943E+03  0.90852215944E+03  0.50400001928E-02 0. -1.
        1   -1    0    0  501    0  0.00000000000E+00  0.00000000000E+00 -0.26305485999E+04  0.26305485999E+04  0.50400001928E-02 0.  1.
    10030    2    1    2    0    0  0.00000000000E+00  0.00000000000E+00 -0.17220264404E+04  0.35390707593E+04  0.30918678461E+04 0.  0.
        5    1    3    3  502    0  0.10551200781E+04 -0.54646817555E+03 -0.19929812057E+04  0.23203236892E+04  0.46999998093E+01 0.  1.
       -5    1    3    3    0  502 -0.10551200781E+04  0.54646817555E+03  0.27095476529E+03  0.12187470701E+04  0.46999998093E+01 0. -1.
</event>
<event>
 5   0  0.2078009E-06  0.3095620E+04  0.7818609E-02  0.8216941E-01
       -2   -1    0    0    0  501  0.00000000000E+00  0.00000000000E+00  0.89141326418E+03  0.89141326419E+03  0.25500000920E-02 0.  1.
        2   -1    0    0  501    0  0.00000000000E+00  0.00000000000E+00 -0.26875486904E+04  0.26875486904E+04  0.25500000920E-02 0. -1.
    10030    2    1    2    0    0  0.00000000000E+00  0.00000000000E+00 -0.17961354263E+04  0.35789619546E+04  0.30956204876E+04 0.  0.
        3    1    3    3  502    0  0.51562450329E+03 -0.10158230997E+04 -0.21095049435E+04  0.23974520465E+04  0.10100000352E+00 0. -1.
       -3    1    3    3    0  502 -0.51562450329E+03  0.10158230997E+04  0.31336951729E+03  0.11815099081E+04  0.10100000352E+00 0.  1.
</event>
<event>
 5   0  0.7726743E-07  0.3034623E+04  0.7818609E-02  0.8233913E-01
       -1   -1    0    0    0  501  0.00000000000E+00  0.00000000000E+00  0.13172670559E+04  0.13172670559E+04  0.50400001928E-02 0.  1.
        1   -1    0    0  501    0  0.00000000000E+00  0.00000000000E+00 -0.17477347671E+04  0.17477347671E+04  0.50400001928E-02 0. -1.
    10030    2    1    2    0    0  0.00000000000E+00  0.00000000000E+00 -0.43046771121E+03  0.30650018230E+04  0.30346225012E+04 0.  0.
        1    1    3    3  502    0  0.39969619260E+03 -0.40482730612E+03  0.12054717829E+04  0.13329682718E+04  0.50400001928E-02 0.  1.
       -1    1    3    3    0  502 -0.39969619260E+03  0.40482730612E+03 -0.16359394941E+04  0.17320335512E+04  0.50400001928E-02 0. -1.
</event>
<event>
 5   0  0.7656332E-07  0.3086218E+04  0.7818609E-02  0.8219530E-01
        1   -1    0    0  501    0  0.00000000000E+00  0.00000000000E+00  0.13545672098E+04  0.13545672098E+04  0.50400001928E-02 0.  1.
       -1   -1    0    0    0  501  0.00000000000E+00  0.00000000000E+00 -0.17578938488E+04  0.17578938488E+04  0.50400001928E-02 0. -1.
    10030    2    1    2    0    0  0.00000000000E+00  0.00000000000E+00 -0.40332663903E+03  0.31124610586E+04  0.30862179871E+04 0.  0.
        2    1    3    3  502    0 -0.14683919490E+04 -0.82384791156E+02 -0.67277924430E+03  0.16172798401E+04  0.25500000920E-02 0.  1.
       -2    1    3    3    0  502  0.14683919490E+04  0.82384791156E+02  0.26945260526E+03  0.14951812185E+04  0.25500000920E-02 0. -1.
</event>
<event>
 5   0  0.7413481E-07  0.3098035E+04  0.7818609E-02  0.8216277E-01
       -1   -1    0    0    0  501  0.00000000000E+00  0.00000000000E+00  0.12459552575E+04  0.12459552575E+04  0.50400001928E-02 0. -1.
        1   -1    0    0  501    0  0.00000000000E+00  0.00000000000E+00 -0.19257961714E+04  0.19257961714E+04  0.50400001928E-02 0.  1.
    10030    2    1    2    0    0  0.00000000000E+00  0.00000000000E+00 -0.67984091389E+03  0.31717514289E+04  0.30980354192E+04 0.  0.
        5    1    3    3  502    0 -0.53756777476E+03  0.61122789396E+03 -0.16891770927E+04  0.18750786627E+04  0.46999998093E+01 0.  1.
       -5    1    3    3    0  502  0.53756777476E+03 -0.61122789396E+03  0.10093361788E+04  0.12966727662E+04  0.46999998093E+01 0. -1.
</event>
<event>
 5   0  0.2133385E-06  0.3105093E+04  0.7818609E-02  0.8214342E-01
        2   -1    0    0  501    0  0.00000000000E+00  0.00000000000E+00  0.14832520654E+04  0.14832520654E+04  0.25500000920E-02 0.  1.
       -2   -1    0    0    0  501  0.00000000000E+00  0.00000000000E+00 -0.16250779371E+04  0.16250779371E+04  0.25500000920E-02 0. -1.
    10030    2    1    2    0    0  0.00000000000E+00  0.00000000000E+00 -0.14182587162E+03  0.31083300025E+04  0.31050927243E+04 0.  0.
        2    1    3    3  502    0  0.13978952224E+04  0.63252342588E+03 -0.30823238784E+03  0.15649933361E+04  0.25500000920E-02 0.  1.
       -2    1    3    3    0  502 -0.13978952224E+04 -0.63252342588E+03  0.16640651622E+03  0.15433366664E+04  0.25500000920E-02 0. -1.
</event>
<event>
 5   0  0.2094135E-06  0.3095792E+04  0.7818609E-02  0.8216894E-01
       -2   -1    0    0    0  501  0.00000000000E+00  0.00000000000E+00  0.12264414379E+04  0.12264414379E+04  0.25500000920E-02 0.  1.
        2   -1    0    0  501    0  0.00000000000E+00  0.00000000000E+00 -0.19536052511E+04  0.19536052511E+04  0.25500000920E-02 0. -1.
    10030    2    1    2    0    0  0.00000000000E+00  0.00000000000E+00 -0.72716381315E+03  0.31800466890E+04  0.30957922626E+04 0.  0.
        4    1    3    3  502    0 -0.10315334495E+02 -0.78492280223E+03 -0.17339703927E+04  0.19033825541E+04  0.12699999809E+01 0. -1.
       -4    1    3    3    0  502  0.10315334495E+02  0.78492280223E+03  0.10068065796E+04  0.12766641348E+04  0.12699999809E+01 0.  1.
</event>
<event>
 5   0  0.7561815E-07  0.3098657E+04  0.7818609E-02  0.8216107E-01
        1   -1    0    0  501    0  0.00000000000E+00  0.00000000000E+00  0.12751673792E+04  0.12751673792E+04  0.50400001928E-02 0.  1.
       -1   -1    0    0    0  501  0.00000000000E+00  0.00000000000E+00 -0.18824345225E+04  0.18824345225E+04  0.50400001928E-02 0. -1.
    10030    2    1    2    0    0  0.00000000000E+00  0.00000000000E+00 -0.60726714329E+03  0.31576019018E+04  0.30986571909E+04 0.  0.
        3    1    3    3  502    0  0.81644635480E+02  0.92963739649E+03 -0.15639003697E+04  0.18211743222E+04  0.10100000352E+00 0. -1.
       -3    1    3    3    0  502 -0.81644635480E+02 -0.92963739649E+03  0.95663322637E+03  0.13364275796E+04  0.10100000352E+00 0.  1.
</event>
<event>
 5   0  0.2133385E-06  0.3089235E+04  0.7818609E-02  0.8218699E-01
        2   -1    0    0  501    0  0.00000000000E+00  0.00000000000E+00  0.19064457089E+04  0.19064457089E+04  0.25500000920E-02 0.  1.
       -2   -1    0    0    0  501  0.00000000000E+00  0.00000000000E+00 -0.12514610102E+04  0.12514610102E+04  0.25500000920E-02 0. -1.
    10030    2    1    2    0    0  0.00000000000E+00  0.00000000000E+00  0.65498469865E+03  0.31579067191E+04  0.30892345154E+04 0.  0.
        2    1    3    3  502    0 -0.47318473276E+03  0.11706409760E+04 -0.58196934046E+03  0.13903209699E+04  0.25500000920E-02 0. -1.
       -2    1    3    3    0  502  0.47318473276E+03 -0.11706409760E+04  0.12369540391E+04  0.17675857492E+04  0.25500000920E-02 0.  1.
</event>
<event>
 5   0  0.7413481E-07  0.3050492E+04  0.7818609E-02  0.8229458E-01
       -1   -1    0    0    0  501  0.00000000000E+00  0.00000000000E+00  0.11917914165E+04  0.11917914165E+04  0.50400001928E-02 0.  1.
        1   -1    0    0  501    0  0.00000000000E+00  0.00000000000E+00 -0.19519993173E+04  0.19519993173E+04  0.50400001928E-02 0. -1.
    10030    2    1    2    0    0  0.00000000000E+00  0.00000000000E+00 -0.76020790074E+03  0.31437907338E+04  0.30504924399E+04 0.  0.
        5    1    3    3  502    0 -0.13672128687E+03 -0.15024553401E+04 -0.61121513464E+03  0.16277809404E+04  0.46999998093E+01 0.  1.
       -5    1    3    3    0  502  0.13672128687E+03  0.15024553401E+04 -0.14899276610E+03  0.15160097934E+04  0.46999998093E+01 0. -1.
</event>
<event>
 5   0  0.7519202E-07  0.3085987E+04  0.7818609E-02  0.8219594E-01
       -1   -1    0    0    0  501  0.00000000000E+00  0.00000000000E+00  0.93109362588E+03  0.93109362589E+03  0.50400001928E-02 0. -1.
        1   -1    0    0  501    0  0.00000000000E+00  0.00000000000E+00 -0.25570240216E+04  0.25570240216E+04  0.50400001928E-02 0.  1.
    10030    2    1    2    0    0  0.00000000000E+00  0.00000000000E+00 -0.16259303957E+04  0.34881176475E+04  0.30859868877E+04 0.  0.
        4    1    3    3  502    0  0.24613866616E+03 -0.14861512376E+03  0.90054559364E+03  0.94533310379E+03  0.12699999809E+01 0. -1.
       -4    1    3    3    0  502 -0.24613866616E+03  0.14861512376E+03 -0.25264759893E+04  0.25427845437E+04  0.12699999809E+01 0.  1.
</event>
<event>
 5   0  0.7656332E-07  0.3099159E+04  0.7818609E-02  0.8215969E-01
       -1   -1    0    0    0  501  0.00000000000E+00  0.00000000000E+00  0.23014159778E+04  0.23014159778E+04  0.50400001928E-02 0.  1.
        1   -1    0    0  501    0  0.00000000000E+00  0.00000000000E+00 -0.10433559965E+04  0.10433559965E+04  0.50400001928E-02 0. -1.
    10030    2    1    2    0    0  0.00000000000E+00  0.00000000000E+00  0.12580599812E+04  0.33447719743E+04  0.30991586993E+04 0.  0.
        2    1    3    3  502    0  0.15015966852E+04  0.19926017691E+03  0.98156540217E+03  0.18049841722E+04  0.25500000920E-02 0.  1.
       -2    1    3    3    0  502 -0.15015966852E+04 -0.19926017691E+03  0.27649457907E+03  0.15397878021E+04  0.25500000920E-02 0. -1.
</event>
<event>
 5   0  0.7413481E-07  0.3145421E+04  0.7818609E-02  0.8203382E-01
        1   -1    0    0  501    0  0.00000000000E+00  0.00000000000E+00  0.16819384049E+04  0.16819384049E+04  0.50400001928E-02 0.  1.
       -1   -1    0    0    0  501  0.00000000000E+00  0.00000000000E+00 -0.14705763518E+04  0.14705763519E+04  0.50400001928E-02 0. -1.
    10030    2    1    2    0    0  0.00000000000E+00  0.00000000000E+00  0.21136205310E+03  0.31525147568E+04  0.31454213349E+04 0.  0.
        5    1    3    3  502    0 -0.14584741139E+03  0.92482441857E+03  0.13721862131E+04  0.16611709021E+04  0.46999998093E+01 0.  1.
       -5    1    3    3    0  502  0.14584741139E+03 -0.92482441857E+03 -0.11608241600E+04  0.14913438547E+04  0.46999998093E+01 0. -1.
</event>
<event>
 5   0  0.7726743E-07  0.3092424E+04  0.7818609E-02  0.8217820E-01
        1   -1    0    0  501    0  0.00000000000E+00  0.00000000000E+00  0.30542051321E+04  0.30542051321E+04  0.50400001928E-02 0.  1.
       -1   -1    0    0    0  501  0.00000000000E+00  0.00000000000E+00 -0.78278038668E+03  0.78278038669E+03  0.50400001928E-02 0. -1.
    10030    2    1    2    0    0  0.00000000000E+00  0.00000000000E+00  0.22714247454E+04  0.38369855188E+04  0.30924242104E+04 0.  0.
        1    1    3    3  502    0 -0.13651737955E+04 -0.57506800076E+03  0.16855415155E+04  0.22439814834E+04  0.50400001928E-02 0.  1.
       -1    1    3    3    0  502  0.13651737955E+04  0.57506800076E+03  0.58588322992E+03  0.15930040353E+04  0.50400001928E-02 0. -1.
</event>
<event>
 5   0  0.2078009E-06  0.3110411E+04  0.7818609E-02  0.8212886E-01
       -2   -1    0    0    0  501  0.00000000000E+00  0.00000000000E+00  0.10089909932E+04  0.10089909932E+04  0.25500000920E-02 0.  1.
        2   -1    0    0  501    0  0.00000000000E+00  0.00000000000E+00 -0.23971121995E+04  0.23971121995E+04  0.25500000920E-02 0. -1.
    10030    2    1    2    0    0  0.00000000000E+00  0.00000000000E+00 -0.13881212063E+04  0.34061031927E+04  0.31104113034E+04 0.  0.
        3    1    3    3  502    0 -0.96703119033E+03  0.75490914992E+03  0.35264500794E+03  0.12764778335E+04  0.10100000352E+00 0.  1.
       -3    1    3    3    0  502  0.96703119033E+03 -0.75490914992E+03 -0.17407662142E+04  0.21296253592E+04  0.10100000352E+00 0. -1.
</event>
<event>
 5   0  0.2078009E-06  0.3017496E+04  0.7818609E-02  0.8238752E-01
       -2   -1    0    0    0  501  0.00000000000E+00  0.00000000000E+00  0.12686574627E+04  0.12686574627E+04  0.25500000920E-02 0. -1.
        2   -1    0    0  501    0  0.00000000000E+00  0.00000000000E+00 -0.17942755627E+04  0.17942755627E+04  0.25500000920E-02 0.  1.
    10030    2    1    2    0    0  0.00000000000E+00  0.00000000000E+00 -0.52561810000E+03  0.30629330254E+04  0.30174963680E+04 0.  0.
        3    1    3    3  502    0 -0.95787579331E+03 -0.85598786044E+03 -0.10659755713E+04  0.16692948156E+04  0.10100000352E+00 0.  1.
       -3    1    3    3    0  502  0.95787579331E+03  0.85598786044E+03  0.54035747133E+03  0.13936382097E+04  0.10100000352E+00 0. -1.
</event>
<event>
 5   0  0.7413481E-07  0.3085323E+04  0.7818609E-02  0.8219778E-01
       -1   -1    0    0    0  501  0.00000000000E+00  0.00000000000E+00  0.20177662846E+04  0.20177662846E+04  0.50400001928E-02 0.  1.
        1   -1    0    0  501    0  0.00000000000E+00  0.00000000000E+00 -0.11794250646E+04  0.11794250646E+04  0.50400001928E-02 0. -1.
    10030    2    1    2    0    0  0.00000000000E+00  0.00000000000E+00  0.83834121995E+03  0.31971913492E+04  0.30853227582E+04 0.  0.
        5    1    3    3  502    0 -0.10952408349E+04 -0.10040141059E+04 -0.10826932110E+02  0.14858452557E+04  0.46999998093E+01 0. -1.
       -5    1    3    3    0  502  0.10952408349E+04  0.10040141059E+04  0.84916815206E+03  0.17113460935E+04  0.46999998093E+01 0.  1.
</event>
<event>
 5   0  0.7561815E-07  0.3145843E+04  0.7818609E-02  0.8203268E-01
       -1   -1    0    0    0  501  0.00000000000E+00  0.00000000000E+00  0.12878740507E+04  0.12878740507E+04  0.50400001928E-02 0. -1.
        1   -1    0    0  501    0  0.00000000000E+00  0.00000000000E+00 -0.19210587636E+04  0.19210587636E+04  0.50400001928E-02 0.  1.
    10030    2    1    2    0    0  0.00000000000E+00  0.00000000000E+00 -0.63318471288E+03  0.32089328143E+04  0.31458428006E+04 0.  0.
        3    1    3    3  502    0 -0.91667683772E+03 -0.54382463460E+03  0.86334286735E+03  0.13716422911E+04  0.10100000352E+00 0. -1.
       -3    1    3    3    0  502  0.91667683772E+03  0.54382463460E+03 -0.14965275802E+04  0.18372905232E+04  0.10100000352E+00 0.  1.
</event>
<event>
 5   0  0.7561815E-07  0.3023714E+04  0.7818609E-02  0.8236992E-01
       -1   -1    0    0    0  501  0.00000000000E+00  0.00000000000E+00  0.87742292218E+03  0.87742292219E+03  0.50400001928E-02 0. -1.
        1   -1    0    0  501    0  0.00000000000E+00  0.00000000000E+00 -0.26050277748E+04  0.26050277748E+04  0.50400001928E-02 0.  1.
    10030    2    1    2    0    0  0.00000000000E+00  0.00000000000E+00 -0.17276048526E+04  0.34824506969E+04  0.30237136654E+04 0.  0.
        3    1    3    3  502    0 -0.83959973970E+03  0.16414146573E+03  0.57184432413E+03  0.10290170479E+04  0.10100000352E+00 0. -1.
       -3    1    3    3    0  502  0.83959973970E+03 -0.16414146573E+03 -0.22994491767E+04  0.24534336490E+04  0.10100000352E+00 0.  1.
</event>
<event>
 5   0  0.2133385E-06  0.3176846E+04  0.7818609E-02  0.8194959E-01
       -2   -1    0    0    0  501  0.00000000000E+00  0.00000000000E+00  0.98910177494E+03  0.98910177494E+03  0.25500000920E-02 0.  1.
        2   -1    0    0  501    0  0.00000000000E+00  0.00000000000E+00 -0.25508883977E+04  0.25508883977E+04  0.25500000920E-02 0. -1.
    10030    2    1    2    0    0  0.00000000000E+00  0.00000000000E+00 -0.15617866227E+04  0.35399901726E+04  0.31768463871E+04 0.  0.
        2    1    3    3  502    0  0.49518874319E+03  0.96867564106E+03  0.50879364872E+03  0.12010059808E+04  0.25500000920E-02 0.  1.
       -2    1    3    3    0  502 -0.49518874319E+03 -0.96867564106E+03 -0.20705802714E+04  0.23389841918E+04  0.25500000920E-02 0. -1.
</event>
<event>
 5   0  0.2133385E-06  0.3100856E+04  0.7818609E-02  0.8215503E-01
       -2   -1    0    0    0  501  0.00000000000E+00  0.00000000000E+00  0.12842330429E+04  0.12842330429E+04  0.25500000920E-02 0. -1.
        2   -1    0    0  501    0  0.00000000000E+00  0.00000000000E+00 -0.18718001394E+04  0.18718001394E+04  0.25500000920E-02 0.  1.
    10030    2    1    2    0    0  0.00000000000E+00  0.00000000000E+00 -0.58756709647E+03  0.31560331822E+04  0.31008563905E+04 0.  0.
        2    1    3    3  502    0 -0.12964918558E+04  0.30867410161E+03  0.51256166313E+03  0.14278971573E+04  0.25500000920E-02 0. -1.
       -2    1    3    3    0  502  0.12964918558E+04 -0.30867410161E+03 -0.11001287596E+04  0.17281360250E+04  0.25500000920E-02 0.  1.
</event>
<event>
 5   0  0.7519202E-07  0.3120336E+04  0.7818609E-02  0.8210179E-01
        1   -1    0    0  501    0  0.00000000000E+00  0.00000000000E+00  0.17210984204E+04  0.17210984204E+04  0.50400001928E-02 0.  1.
       -1   -1    0    0    0  501  0.00000000000E+00  0.00000000000E+00 -0.14142849160E+04  0.14142849160E+04  0.50400001928E-02 0. -1.
    10030    2    1    2    0    0  0.00000000000E+00  0.00000000000E+00  0.30681350436E+03  0.31353833364E+04  0.31203355813E+04 0.  0.
        4    1    3    3  502    0  0.73125248622E+02 -0.91686055228E+03 -0.11128854104E+04  0.14437784192E+04  0.12699999809E+01 0. -1.
       -4    1    3    3    0  502 -0.73125248622E+02  0.91686055228E+03  0.14196989148E+04  0.16916049172E+04  0.12699999809E+01 0.  1.
</event>
<event>
 5   0  0.2067926E-06  0.3106241E+04  0.7818609E-02  0.8214027E-01
       -2   -1    0    0    0  501  0.00000000000E+00  0.00000000000E+00  0.14510385269E+04  0.14510385269E+04  0.25500000920E-02 0.  1.
        2   -1    0    0  501    0  0.00000000000E+00  0.00000000000E+00 -0.16623843627E+04  0.16623843627E+04  0.25500000920E-02 0. -1.
    10030    2    1    2    0    0  0.00000000000E+00  0.00000000000E+00 -0.21134583582E+03  0.31134228895E+04  0.31062413021E+04 0.  0.
        1    1    3    3  502    0 -0.12692221223E+04 -0.12501404779E+03  0.78273429838E+03  0.14964044539E+04  0.50400001928E-02 0.  1.
       -1    1    3    3    0  502  0.12692221223E+04  0.12501404779E+03 -0.99408013420E+03  0.16170184356E+04  0.50400001928E-02 0. -1.
</event>
<event>
 5   0  0.2226334E-06  0.3095107E+04  0.7818609E-02  0.8217082E-01
       -2   -1    0    0    0  501  0.00000000000E+00  0.00000000000E+00  0.13032285273E+04  0.13032285273E+04  0.25500000920E-02 0.  1.
        2   -1    0    0  501    0  0.00000000000E+00  0.00000000000E+00 -0.18376834320E+04  0.18376834320E+04  0.25500000920E-02 0. -1.
    10030    2    1    2    0    0  0.00000000000E+00  0.00000000000E+00 -0.53445490473E+03  0.31409119593E+04  0.30951067657E+04 0.  0.
        5    1    3    3  502    0 -0.15218593629E+04 -0.14269640719E+03 -0.21819711099E+02  0.15286976074E+04  0.46999998093E+01 0.  1.
       -5    1    3    3    0  502  0.15218593629E+04  0.14269640719E+03 -0.51263519363E+03  0.16122143520E+04  0.46999998093E+01 0. -1.
</event>
<event>
 5   0  0.2226334E-06  0.3098246E+04  0.7818609E-02  0.8216220E-01
        2   -1    0    0  501    0  0.00000000000E+00  0.00000000000E+00  0.20594358290E+04  0.20594358290E+04  0.25500000920E-02 0. -1.
       -2   -1    0    0    0  501  0.00000000000E+00  0.00000000000E+00 -0.11652615082E+04  0.11652615082E+04  0.25500000920E-02 0.  1.
    10030    2    1    2    0    0  0.00000000000E+00  0.00000000000E+00  0.89417432083E+03  0.32246973372E+04  0.30982455035E+04 0.  0.
        5    1    3    3  502    0  0.44568817614E+03  0.13130827747E+04  0.11658782362E+04  0.18116617993E+04  0.46999998093E+01 0. -1.
       -5    1    3    3    0  502 -0.44568817614E+03 -0.13130827747E+04 -0.27170391535E+03  0.14130355378E+04  0.46999998093E+01 0.  1.
</event>
<event>
 5   0  0.2133385E-06  0.2986865E+04  0.7818609E-02  0.8247492E-01
       -2   -1    0    0    0  501  0.00000000000E+00  0.00000000000E+00  0.14370312202E+04  0.14370312202E+04  0.25500000920E-02 0. -1.
        2   -1    0    0  501    0  0.00000000000E+00  0.00000000000E+00 -0.15520474440E+04  0.15520474440E+04  0.25500000920E-02 0.  1.
    10030    2    1    2    0    0  0.00000000000E+00  0.00000000000E+00 -0.11501622381E+03  0.29890786642E+04  0.29868650001E+04 0.  0.
        2    1    3    3  502    0  0.12236805641E+04 -0.38231352403E+03 -0.82409337724E+03  0.15240366295E+04  0.25500000920E-02 0. -1.
       -2    1    3    3    0  502 -0.12236805641E+04  0.38231352403E+03  0.70907715343E+03  0.14650420346E+04  0.25500000920E-02 0.  1.
</event>
<event>
 5   0  0.7413481E-07  0.3078320E+04  0.7818609E-02  0.8221713E-01
        1   -1    0    0  501    0  0.00000000000E+00  0.00000000000E+00  0.15156582367E+04  0.15156582367E+04  0.50400001928E-02 0.  1.
       -1   -1    0    0    0  501  0.00000000000E+00  0.00000000000E+00 -0.15630261612E+04  0.15630261612E+04  0.50400001928E-02 0. -1.
    10030    2    1    2    0    0  0.00000000000E+00  0.00000000000E+00 -0.47367924483E+02  0.30786843980E+04  0.30783199804E+04 0.  0.
        5    1    3    3  502    0  0.17873629828E+03  0.15726344957E+03  0.14971251754E+04  0.15159433821E+04  0.46999998093E+01 0.  1.
       -5    1    3    3    0  502 -0.17873629828E+03 -0.15726344957E+03 -0.15444930999E+04  0.15627410158E+04  0.46999998093E+01 0. -1.
</event>
<event>
 5   0  0.2078009E-06  0.3105793E+04  0.7818609E-02  0.8214150E-01
        2   -1    0    0  501    0  0.00000000000E+00  0.00000000000E+00  0.22685459878E+04  0.22685459878E+04  0.25500000920E-02 0.  1.
       -2   -1    0    0    0  501  0.00000000000E+00  0.00000000000E+00 -0.10630099810E+04  0.10630099810E+04  0.25500000920E-02 0. -1.
    10030    2    1    2    0    0  0.00000000000E+00  0.00000000000E+00  0.12055360068E+04  0.33315559688E+04  0.31057926701E+04 0.  0.
        3    1    3    3  502    0  0.84005269884E+03  0.12252367710E+04  0.11756844814E+03  0.14902067078E+04  0.10100000352E+00 0.  1.
       -3    1    3    3    0  502 -0.84005269884E+03 -0.12252367710E+04  0.10879675587E+04  0.18413492609E+04  0.10100000352E+00 0. -1.
</event>
<event>
 5   0  0.7561815E-07  0.3088607E+04  0.7818609E-02  0.8218871E-01
       -1   -1    0    0    0  501  0.00000000000E+00  0.00000000000E+00  0.32677556279E+04  0.32677556279E+04  0.50400001928E-02 0. -1.
        1   -1    0    0  501    0  0.00000000000E+00  0.00000000000E+00 -0.72982010723E+03  0.72982010724E+03  0.50400001928E-02 0.  1.
    10030    2    1    2    0    0  0.00000000000E+00  0.00000000000E+00  0.25379355206E+04  0.39975757351E+04  0.30886072996E+04 0.  0.
        3    1    3    3  502    0  0.80051063044E+03 -0.10282805664E+04  0.23415142516E+04  0.26797140133E+04  0.10100000352E+00 0. -1.
       -3    1    3    3    0  502 -0.80051063044E+03  0.10282805664E+04  0.19642126910E+03  0.13178617218E+04  0.10100000352E+00 0.  1.
</event>
<event>
 5   0  0.2094135E-06  0.2925260E+04  0.7818609E-02  0.8265401E-01
        2   -1    0    0  501    0  0.00000000000E+00  0.00000000000E+00  0.25797623558E+04  0.25797623558E+04  0.25500000920E-02 0. -1.
       -2   -1    0    0    0  501  0.00000000000E+00  0.00000000000E+00 -0.82925733481E+03  0.82925733481E+03  0.25500000920E-02 0.  1.
    10030    2    1    2    0    0  0.00000000000E+00  0.00000000000E+00  0.17505050210E+04  0.34090196906E+04  0.29252602316E+04 0.  0.
        4    1    3    3  502    0  0.11258314517E+04 -0.77941664132E+03  0.27613455019E+03  0.13968674458E+04  0.12699999809E+01 0.  1.
       -4    1    3    3    0  502 -0.11258314517E+04  0.77941664132E+03  0.14743704708E+04  0.20121522448E+04  0.12699999809E+01 0. -1.
</event>
<event>
 5   0  0.7656332E-07  0.3110834E+04  0.7818609E-02  0.8212771E-01
       -1   -1    0    0    0  501  0.00000000000E+00  0.00000000000E+00  0.13788889646E+04  0.13788889647E+04  0.50400001928E-02 0.  1.
        1   -1    0    0  501    0  0.00000000000E+00  0.00000000000E+00 -0.17545443811E+04  0.17545443811E+04  0.50400001928E-02 0. -1.
    10030    2    1    2    0    0  0.00000000000E+00  0.00000000000E+00 -0.37565541647E+03  0.31334333458E+04  0.31108338979E+04 0.  0.
        2    1    3    3  502    0 -0.28352859249E+03  0.24546585259E+03 -0.17083237800E+04  0.17490031689E+04  0.25500000920E-02 0. -1.
       -2    1    3    3    0  502  0.28352859249E+03 -0.24546585259E+03  0.13326683635E+04  0.13844301769E+04  0.25500000920E-02 0.  1.
</event>
<event>
 5   0  0.7726743E-07  0.3108212E+04  0.7818609E-02  0.8213488E-01
       -1   -1    0    0    0  501  0.00000000000E+00  0.00000000000E+00  0.20684992002E+04  0.20684992002E+04  0.50400001928E-02 0.  1.
        1   -1    0    0  501    0  0.00000000000E+00  0.00000000000E+00 -0.11676315659E+04  0.11676315659E+04  0.50400001928E-02 0. -1.
    10030    2    1    2    0    0  0.00000000000E+00  0.00000000000E+00  0.90086763435E+03  0.32361307661E+04  0.31082116789E+04 0.  0.
        1    1    3    3  502    0  0.70183314902E+03 -0.92530691100E+03  0.15256413609E+04  0.19173795166E+04  0.50400001928E-02 0. -1.
       -1    1    3    3    0  502 -0.70183314902E+03  0.92530691100E+03 -0.62477372657E+03  0.13187512495E+04  0.50400001928E-02 0.  1.
</event>
<event>
 5   0  0.2226334E-06  0.3101045E+04  0.7818609E-02  0.8215451E-01
       -2   -1    0    0    0  501  0.00000000000E+00  0.00000000000E+00  0.13068407865E+04  0.13068407865E+04  0.25500000920E-02 0.  1.
        2   -1    0    0  501    0  0.00000000000E+00  0.00000000000E+00 -0.18396421314E+04  0.18396421314E+04  0.25500000920E-02 0. -1.
    10030    2    1    2    0    0  0.00000000000E+00  0.00000000000E+00 -0.53280134487E+03  0.31464829179E+04  0.31010445788E+04 0.  0.
        5    1    3    3  502    0  0.12542024738E+03  0.34739694143E+03  0.12615470105E+04  0.13145104880E+04  0.46999998093E+01 0.  1.
       -5    1    3    3    0  502 -0.12542024738E+03 -0.34739694143E+03 -0.17943483554E+04  0.18319724299E+04  0.46999998093E+01 0. -1.
</event>
<event>
 5   0  0.7413481E-07  0.3156517E+04  0.7818609E-02  0.8200396E-01
       -1   -1    0    0    0  501  0.00000000000E+00  0.00000000000E+00  0.12615193806E+04  0.12615193806E+04  0.50400001928E-02 0.  1.
        1   -1    0    0  501    0  0.00000000000E+00  0.00000000000E+00 -0.19745238518E+04  0.19745238518E+04  0.50400001928E-02 0. -1.
    10030    2    1    2    0    0  0.00000000000E+00  0.00000000000E+00 -0.71300447118E+03  0.32360432324E+04  0.31565171354E+04 0.  0.
        5    1    3    3  502    0 -0.54082977249E+03 -0.31985567428E+03  0.11277558369E+04  0.12909917942E+04  0.46999998093E+01 0.  1.
       -5    1    3    3    0  502  0.54082977249E+03  0.31985567428E+03 -0.18407603081E+04  0.19450514381E+04  0.46999998093E+01 0. -1.
</event>
<event>
 5   0  0.2078009E-06  0.3257658E+04  0.7818609E-02  0.8173754E-01
       -2   -1    0    0    0  501  0.00000000000E+00  0.00000000000E+00  0.17545625171E+04  0.17545625171E+04  0.25500000920E-02 0. -1.
        2   -1    0    0  501    0  0.00000000000E+00  0.00000000000E+00 -0.15121059153E+04  0.15121059153E+04  0.25500000920E-02 0.  1.
    10030    2    1    2    0    0  0.00000000000E+00  0.00000000000E+00  0.24245660172E+03  0.32666684324E+04  0.32576582761E+04 0.  0.
        3    1    3    3  502    0  0.11137718048E+04  0.33292072546E+02  0.13125750390E+04  0.17217576016E+04  0.10100000352E+00 0. -1.
       -3    1    3    3    0  502 -0.11137718048E+04 -0.33292072546E+02 -0.10701184373E+04  0.15449108309E+04  0.10100000352E+00 0.  1.
</event>
<event>
 5   0  0.2067926E-06  0.3110435E+04  0.7818609E-02  0.8212880E-01
        2   -1    0    0  501    0  0.00000000000E+00  0.00000000000E+00  0.23277933417E+04  0.23277933417E+04  0.25500000920E-02 0.  1.
       -2   -1    0    0    0  501  0.00000000000E+00  0.00000000000E+00 -0.10390534580E+04  0.10390534580E+04  0.25500000920E-02 0. -1.
    10030    2    1    2    0    0  0.00000000000E+00  0.00000000000E+00  0.12887398837E+04  0.33668467997E+04  0.31104351600E+04 0.  0.
        1    1    3    3  502    0 -0.49644332711E+03 -0.70003497011E+03  0.20482842560E+04  0.22208046582E+04  0.50400001928E-02 0.  1.
       -1    1    3    3    0  502  0.49644332711E+03  0.70003497011E+03 -0.75954437238E+03  0.11460421415E+04  0.50400001928E-02 0. -1.
</event>
<event>
 5   0  0.7656332E-07  0.3053443E+04  0.7818609E-02  0.8228632E-01
       -1   -1    0    0    0  501  0.00000000000E+00  0.00000000000E+00  0.11104901051E+04  0.11104901051E+04  0.50400001928E-02 0. -1.
        1   -1    0    0  501    0  0.00000000000E+00  0.00000000000E+00 -0.20989641471E+04  0.20989641471E+04  0.50400001928E-02 0.  1.
    10030    2    1    2    0    0  0.00000000000E+00  0.00000000000E+00 -0.98847404199E+03  0.32094542521E+04  0.30534432474E+04 0.  0.
        2    1    3    3  502    0  0.13022301153E+04 -0.74709637440E+03 -0.78575708910E+03  0.16945118675E+04  0.25500000920E-02 0. -1.
       -2    1    3    3    0  502 -0.13022301153E+04  0.74709637440E+03 -0.20271695289E+03  0.15149423847E+04  0.25500000920E-02 0.  1.
</event>
<event>
 5   0  0.7656332E-07  0.3099702E+04  0.7818609E-02  0.8215820E-01
       -1   -1    0    0    0  501  0.00000000000E+00  0.00000000000E+00  0.10591532614E+04  0.10591532614E+04  0.50400001928E-02 0. -1.
        1   -1    0    0  501    0  0.00000000000E+00  0.00000000000E+00 -0.22678852588E+04  0.22678852589E+04  0.50400001928E-02 0.  1.
    10030    2    1    2    0    0  0.00000000000E+00  0.00000000000E+00 -0.12087319974E+04  0.33270385203E+04  0.30997019653E+04 0.  0.
        2    1    3    3  502    0  0.81123413809E+03  0.20404407585E+03  0.79604771660E+03  0.11547410007E+04  0.25500000920E-02 0. -1.
       -2    1    3    3    0  502 -0.81123413809E+03 -0.20404407585E+03 -0.20047797140E+04  0.21722975195E+04  0.25500000920E-02 0.  1.
</event>
<event>
 5   0  0.2078009E-06  0.3407259E+04  0.7818609E-02  0.8136127E-01
       -2   -1    0    0    0  501  0.00000000000E+00  0.00000000000E+00  0.14877874118E+04  0.14877874118E+04  0.25500000920E-02 0. -1.
        2   -1    0    0  501    0  0.00000000000E+00  0.00000000000E+00 -0.19507849840E+04  0.19507849840E+04  0.25500000920E-02 0.  1.
    10030    2    1    2    0    0  0.00000000000E+00  0.00000000000E+00 -0.46299757219E+03  0.34385723957E+04  0.34072589231E+04 0.  0.
        3    1    3    3  502    0 -0.17779591720E+03  0.11097085439E+04  0.10606150674E+04  0.15453053976E+04  0.10100000352E+00 0. -1.
       -3    1    3    3    0  502  0.17779591720E+03 -0.11097085439E+04 -0.15236126396E+04  0.18932669981E+04  0.10100000352E+00 0.  1.
</event>
<event>
 5   0  0.2078009E-06  0.3099560E+04  0.7818609E-02  0.8215859E-01
        2   -1    0    0  501    0  0.00000000000E+00  0.00000000000E+00  0.12447548486E+04  0.12447548486E+04  0.25500000920E-02 0. -1.
       -2   -1    0    0    0  501  0.00000000000E+00  0.00000000000E+00 -0.19295505497E+04  0.19295505497E+04  0.25500000920E-02 0.  1.
    10030    2    1    2    0    0  0.00000000000E+00  0.00000000000E+00 -0.68479570113E+03  0.31743053983E+04  0.30995595831E+04 0.  0.
        3    1    3    3  502    0 -0.23793328915E+01 -0.25604752668E+03 -0.19077372095E+04  0.19248447386E+04  0.10100000352E+00 0.  1.
       -3    1    3    3    0  502  0.23793328915E+01  0.25604752668E+03  0.12229415083E+04  0.12494606597E+04  0.10100000352E+00 0. -1.
</event>
<event>
 5   0  0.7519202E-07  0.3096267E+04  0.7818609E-02  0.8216763E-01
       -1   -1    0    0    0  501  0.00000000000E+00  0.00000000000E+00  0.16626266093E+04  0.16626266093E+04  0.50400001928E-02 0. -1.
        1   -1    0    0  501    0  0.00000000000E+00  0.00000000000E+00 -0.14415248662E+04  0.14415248662E+04  0.50400001928E-02 0.  1.
    10030    2    1    2    0    0  0.00000000000E+00  0.00000000000E+00  0.22110174308E+03  0.31041514756E+04  0.30962671723E+04 0.  0.
        4    1    3    3  502    0  0.39861553061E+03  0.87693950507E+02 -0.13866142649E+04  0.14454360251E+04  0.12699999809E+01 0.  1.
       -4    1    3    3    0  502 -0.39861553061E+03 -0.87693950507E+02  0.16077160080E+04  0.16587154504E+04  0.12699999809E+01 0. -1.
</event>
<event>
 5   0  0.7519202E-07  0.3125829E+04  0.7818609E-02  0.8208685E-01
       -1   -1    0    0    0  501  0.00000000000E+00  0.00000000000E+00  0.10851710419E+04  0.10851710419E+04  0.50400001928E-02 0.  1.
        1   -1    0    0  501    0  0.00000000000E+00  0.00000000000E+00 -0.22509838590E+04  0.22509838590E+04  0.50400001928E-02 0. -1.
    10030    2    1    2    0    0  0.00000000000E+00  0.00000000000E+00 -0.11658128171E+04  0.33361549009E+04  0.31258294896E+04 0.  0.
        4    1    3    3  502    0 -0.48978147524E+03  0.74426395502E+03 -0.19533976338E+04  0.21469929336E+04  0.12699999809E+01 0. -1.
       -4    1    3    3    0  502  0.48978147524E+03 -0.74426395502E+03  0.78758481664E+03  0.11891619673E+04  0.12699999809E+01 0.  1.
</event>
<event>
 5   0  0.7726743E-07  0.3001108E+04  0.7818609E-02  0.8243415E-01
       -1   -1    0    0    0  501  0.00000000000E+00  0.00000000000E+00  0.12554569128E+04  0.12554569128E+04  0.50400001928E-02 0. -1.
        1   -1    0    0  501    0  0.00000000000E+00  0.00000000000E+00 -0.17935002178E+04  0.17935002178E+04  0.50400001928E-02 0.  1.
    10030    2    1    2    0    0  0.00000000000E+00  0.00000000000E+00 -0.53804330500E+03  0.30489571307E+04  0.30011079599E+04 0.  0.
        1    1    3    3  502    0  0.96698489799E+03  0.11303858716E+04 -0.46921733575E+03  0.15598066931E+04  0.50400001928E-02 0. -1.
       -1    1    3    3    0  502 -0.96698489799E+03 -0.11303858716E+04 -0.68825969251E+02  0.14891504376E+04  0.50400001928E-02 0.  1.
</event>
<event>
 5   0  0.7726743E-07  0.3135644E+04  0.7818609E-02  0.8206023E-01
       -1   -1    0    0    0  501  0.00000000000E+00  0.00000000000E+00  0.16397218793E+04  0.16397218793E+04  0.50400001928E-02 0. -1.
        1   -1    0    0  501    0  0.00000000000E+00  0.00000000000E+00 -0.14990751065E+04  0.14990751065E+04  0.50400001928E-02 0.  1.
    10030    2    1    2    0    0  0.00000000000E+00  0.00000000000E+00  0.14064677273E+03  0.31387969858E+04  0.31356442724E+04 0.  0.
        1    1    3    3  502    0 -0.84049543321E+03  0.10805901636E+04 -0.69461676875E+03  0.15351221875E+04  0.50400001928E-02 0.  1.
       -1    1    3    3    0  502  0.84049543321E+03 -0.10805901636E+04  0.83526354148E+03  0.16036747983E+04  0.50400001928E-02 0. -1.
</event>
<event>
 5   0  0.7656332E-07  0.3103398E+04  0.7818609E-02  0.8214806E-01
        1   -1    0    0  501    0  0.00000000000E+00  0.00000000000E+00  0.22337252915E+04  0.22337252915E+04  0.50400001928E-02 0.  1.
       -1   -1    0    0    0  501  0.00000000000E+00  0.00000000000E+00 -0.10779168531E+04  0.10779168531E+04  0.50400001928E-02 0. -1.
    10030    2    1    2    0    0  0.00000000000E+00  0.00000000000E+00  0.11558084384E+04  0.33116421445E+04  0.31033982257E+04 0.  0.
        2    1    3    3  502    0  0.19333585429E+03  0.19452410586E+03  0.22076562762E+04  0.22246268483E+04  0.25500000920E-02 0.  1.
       -2    1    3    3    0  502 -0.19333585429E+03 -0.19452410586E+03 -0.10518478378E+04  0.10870152962E+04  0.25500000920E-02 0. -1.
</event>
<event>
 5   0  0.7413481E-07  0.3113734E+04  0.7818609E-02  0.8211979E-01
       -1   -1    0    0    0  501  0.00000000000E+00  0.00000000000E+00  0.10009808660E+04  0.10009808660E+04  0.50400001928E-02 0.  1.
        1   -1    0    0  501    0  0.00000000000E+00  0.00000000000E+00 -0.24214602073E+04  0.24214602073E+04  0.50400001928E-02 0. -1.
    10030    2    1    2    0    0  0.00000000000E+00  0.00000000000E+00 -0.14204793413E+04  0.34224410733E+04  0.31137343081E+04 0.  0.
        5    1    3    3  502    0 -0.97045270154E+03  0.11172189263E+04 -0.17870780214E+03  0.14906089842E+04  0.46999998093E+01 0.  1.
       -5    1    3    3    0  502  0.97045270154E+03 -0.11172189263E+04 -0.12417715392E+04  0.19318320891E+04  0.46999998093E+01 0. -1.
</event>
<event>
 5   0  0.7656332E-07  0.3043055E+04  0.7818609E-02  0.8231542E-01
       -1   -1    0    0    0  501  0.00000000000E+00  0.00000000000E+00  0.11918855723E+04  0.11918855724E+04  0.50400001928E-02 0.  1.
        1   -1    0    0  501    0  0.00000000000E+00  0.00000000000E+00 -0.19423391302E+04  0.19423391302E+04  0.50400001928E-02 0. -1.
    10030    2    1    2    0    0  0.00000000000E+00  0.00000000000E+00 -0.75045355781E+03  0.31342247025E+04  0.30430550346E+04 0.  0.
        2    1    3    3  502    0  0.10514154638E+04 -0.22641530273E+03  0.73326449564E+03  0.13016970413E+04  0.25500000920E-02 0.  1.
       -2    1    3    3    0  502 -0.10514154638E+04  0.22641530273E+03 -0.14837180535E+04  0.18325276612E+04  0.25500000920E-02 0. -1.
</event>
<event>
 5   0  0.2067926E-06  0.3130799E+04  0.7818609E-02  0.8207336E-01
        2   -1    0    0  501    0  0.00000000000E+00  0.00000000000E+00  0.10369279168E+04  0.10369279168E+04  0.25500000920E-02 0. -1.
       -2   -1    0    0    0  501  0.00000000000E+00  0.00000000000E+00 -0.23632069244E+04  0.23632069244E+04  0.25500000920E-02 0.  1.
    10030    2    1    2    0    0  0.00000000000E+00  0.00000000000E+00 -0.13262790076E+04  0.34001348413E+04  0.31307987691E+04 0.  0.
        1    1    3    3  502    0 -0.10436591769E+04  0.78990343134E+03  0.26939322328E+03  0.13363175585E+04  0.50400001928E-02 0. -1.
       -1    1    3    3    0  502  0.10436591769E+04 -0.78990343134E+03 -0.15956722309E+04  0.20638172828E+04  0.50400001928E-02 0.  1.
</event>
<event>
 5   0  0.2067926E-06  0.3090318E+04  0.7818609E-02  0.8218400E-01
       -2   -1    0    0    0  501  0.00000000000E+00  0.00000000000E+00  0.15997309248E+04  0.15997309248E+04  0.25500000920E-02 0. -1.
        2   -1    0    0  501    0  0.00000000000E+00  0.00000000000E+00 -0.14924486362E+04  0.14924486362E+04  0.25500000920E-02 0.  1.
    10030    2    1    2    0    0  0.00000000000E+00  0.00000000000E+00  0.10728228862E+03  0.30921795610E+04  0.30903179364E+04 0.  0.
        1    1    3    3  502    0 -0.11692445703E+04  0.95348723207E+03  0.38737687847E+03  0.15576686467E+04  0.50400001928E-02 0. -1.
       -1    1    3    3    0  502  0.11692445703E+04 -0.95348723207E+03 -0.28009458985E+03  0.15345109143E+04  0.50400001928E-02 0.  1.
</event>
<event>
 5   0  0.2133385E-06  0.3106607E+04  0.7818609E-02  0.8213927E-01
        2   -1    0    0  501    0  0.00000000000E+00  0.00000000000E+00  0.12840843814E+04  0.12840843814E+04  0.25500000920E-02 0.  1.
       -2   -1    0    0    0  501  0.00000000000E+00  0.00000000000E+00 -0.18789661232E+04  0.18789661232E+04  0.25500000920E-02 0. -1.
    10030    2    1    2    0    0  0.00000000000E+00  0.00000000000E+00 -0.59488174174E+03  0.31630505046E+04  0.31066065422E+04 0.  0.
        2    1    3    3  502    0 -0.80839113803E+03 -0.13245564982E+04 -0.22686403333E+03  0.15682517140E+04  0.25500000920E-02 0.  1.
       -2    1    3    3    0  502  0.80839113803E+03  0.13245564982E+04 -0.36801770841E+03  0.15947987906E+04  0.25500000920E-02 0. -1.
</event>
<event>
 5   0  0.7519202E-07  0.3093397E+04  0.7818609E-02  0.8217552E-01
        1   -1    0    0  501    0  0.00000000000E+00  0.00000000000E+00  0.31099306408E+04  0.31099306408E+04  0.50400001928E-02 0. -1.
       -1   -1    0    0    0  501  0.00000000000E+00  0.00000000000E+00 -0.76923775745E+03  0.76923775747E+03  0.50400001928E-02 0.  1.
    10030    2    1    2    0    0  0.00000000000E+00  0.00000000000E+00  0.23406928833E+04  0.38791683982E+04  0.30933968850E+04 0.  0.
        4    1    3    3  502    0  0.95891151750E+03 -0.10295964615E+04  0.36475059633E+03  0.14534871112E+04  0.12699999809E+01 0.  1.
       -4    1    3    3    0  502 -0.95891151750E+03  0.10295964615E+04  0.19759422870E+04  0.24256812871E+04  0.12699999809E+01 0. -1.
</event>
<event>
 5   0  0.7519202E-07  0.3102001E+04  0.7818609E-02  0.8215189E-01
        1   -1    0    0  501    0  0.00000000000E+00  0.00000000000E+00  0.15803112918E+04  0.15803112918E+04  0.50400001928E-02 0. -1.
       -1   -1    0    0    0  501  0.00000000000E+00  0.00000000000E+00 -0.15222331009E+04  0.15222331009E+04  0.50400001928E-02 0.  1.
    10030    2    1    2    0    0  0.00000000000E+00  0.00000000000E+00  0.58078190905E+02  0.31025443928E+04  0.31020007468E+04 0.  0.
        4    1    3    3  502    0 -0.10878546473E+04 -0.22235257327E+03 -0.10540782753E+04  0.15309967420E+04  0.12699999809E+01 0.  1.
       -4    1    3    3    0  502  0.10878546473E+04  0.22235257327E+03  0.11121564662E+04  0.15715476508E+04  0.12699999809E+01 0. -1.
</event>
<event>
 5   0  0.7726743E-07  0.3077771E+04  0.7818609E-02  0.8221865E-01
       -1   -1    0    0    0  501  0.00000000000E+00  0.00000000000E+00  0.21812270281E+04  0.21812270281E+04  0.50400001928E-02 0.  1.
        1   -1    0    0  501    0  0.00000000000E+00  0.00000000000E+00 -0.10857049997E+04  0.10857049997E+04  0.50400001928E-02 0. -1.
    10030    2    1    2    0    0  0.00000000000E+00  0.00000000000E+00  0.10955220284E+04  0.32669320278E+04  0.30777713299E+04 0.  0.
        1    1    3    3  502    0  0.26885111226E+03 -0.10979184730E+04 -0.56067149559E+03  0.12617679739E+04  0.50400001928E-02 0. -1.
       -1    1    3    3    0  502 -0.26885111226E+03  0.10979184730E+04  0.16561935240E+04  0.20051640539E+04  0.50400001928E-02 0.  1.
</event>
<event>
 5   0  0.7656332E-07  0.3106589E+04  0.7818609E-02  0.8213932E-01
        1   -1    0    0  501    0  0.00000000000E+00  0.00000000000E+00  0.16581179489E+04  0.16581179489E+04  0.50400001928E-02 0.  1.
       -1   -1    0    0    0  501  0.00000000000E+00  0.00000000000E+00 -0.14550979446E+04  0.14550979446E+04  0.50400001928E-02 0. -1.
    10030    2    1    2    0    0  0.00000000000E+00  0.00000000000E+00  0.20302000435E+03  0.31132158935E+04  0.31065891388E+04 0.  0.
        2    1    3    3  502    0 -0.21559621021E+03 -0.12921574925E+04 -0.73487880111E+03  0.15020650996E+04  0.25500000920E-02 0. -1.
       -2    1    3    3    0  502  0.21559621021E+03  0.12921574925E+04  0.93789880546E+03  0.16111507939E+04  0.25500000920E-02 0.  1.
</event>
<event>
 5   0  0.7656332E-07  0.3134536E+04  0.7818609E-02  0.8206323E-01
        1   -1    0    0  501    0  0.00000000000E+00  0.00000000000E+00  0.21356662591E+04  0.21356662591E+04  0.50400001928E-02 0. -1.
       -1   -1    0    0    0  501  0.00000000000E+00  0.00000000000E+00 -0.11501462361E+04  0.11501462361E+04  0.50400001928E-02 0.  1.
    10030    2    1    2    0    0  0.00000000000E+00  0.00000000000E+00  0.98552002297E+03  0.32858124952E+04  0.31345356974E+04 0.  0.
        2    1    3    3  502    0 -0.25999670522E+03  0.14986076555E+04  0.96487678654E+02  0.15240515293E+04  0.25500000920E-02 0.  1.
       -2    1    3    3    0  502  0.25999670522E+03 -0.14986076555E+04  0.88903234431E+03  0.17617609659E+04  0.25500000920E-02 0. -1.
</event>
<event>
 5   0  0.2078009E-06  0.3096718E+04  0.7818609E-02  0.8216639E-01
        2   -1    0    0  501    0  0.00000000000E+00  0.00000000000E+00  0.15870340444E+04  0.15870340444E+04  0.25500000920E-02 0. -1.
       -2   -1    0    0    0  501  0.00000000000E+00  0.00000000000E+00 -0.15106267635E+04  0.15106267635E+04  0.25500000920E-02 0.  1.
    10030    2    1    2    0    0  0.00000000000E+00  0.00000000000E+00  0.76407280962E+02  0.30976608079E+04  0.30967183288E+04 0.  0.
        3    1    3    3  502    0 -0.13863915588E+04 -0.55513755699E+03  0.44717624752E+03  0.15589181724E+04  0.10100000352E+00 0.  1.
       -3    1    3    3    0  502  0.13863915588E+04  0.55513755699E+03 -0.37076896656E+03  0.15387426355E+04  0.10100000352E+00 0. -1.
</event>
<event>
 5   0  0.2067926E-06  0.3108109E+04  0.7818609E-02  0.8213516E-01
       -2   -1    0    0    0  501  0.00000000000E+00  0.00000000000E+00  0.34828299443E+04  0.34828299443E+04  0.25500000920E-02 0.  1.
        2   -1    0    0  501    0  0.00000000000E+00  0.00000000000E+00 -0.69342602670E+03  0.69342602670E+03  0.25500000920E-02 0. -1.
    10030    2    1    2    0    0  0.00000000000E+00  0.00000000000E+00  0.27894039177E+04  0.41762559710E+04  0.31081087046E+04 0.  0.
        1    1    3    3  502    0  0.11707577314E+04  0.30006663733E+03  0.82050002504E+02  0.12113817959E+04  0.50400001928E-02 0. -1.
       -1    1    3    3    0  502 -0.11707577314E+04 -0.30006663733E+03  0.27073539151E+04  0.29648741751E+04  0.50400001928E-02 0.  1.
</event>
<event>
 5   0  0.2078009E-06  0.3103964E+04  0.7818609E-02  0.8214651E-01
       -2   -1    0    0    0  501  0.00000000000E+00  0.00000000000E+00  0.11897018554E+04  0.11897018554E+04  0.25500000920E-02 0.  1.
        2   -1    0    0  501    0  0.00000000000E+00  0.00000000000E+00 -0.20245819267E+04  0.20245819267E+04  0.25500000920E-02 0. -1.
    10030    2    1    2    0    0  0.00000000000E+00  0.00000000000E+00 -0.83488007129E+03  0.32142837820E+04  0.31039644808E+04 0.  0.
        3    1    3    3  502    0 -0.21880181051E+02  0.15422158828E+04 -0.59602302763E+03  0.16535271486E+04  0.10100000352E+00 0. -1.
       -3    1    3    3    0  502  0.21880181051E+02 -0.15422158828E+04 -0.23885704366E+03  0.15607566335E+04  0.10100000352E+00 0.  1.
</event>
<event>
 5   0  0.7726743E-07  0.3103219E+04  0.7818609E-02  0.8214855E-01
        1   -1    0    0  501    0  0.00000000000E+00  0.00000000000E+00  0.20962058020E+04  0.20962058020E+04  0.50400001928E-02 0.  1.
       -1   -1    0    0    0  501  0.00000000000E+00  0.00000000000E+00 -0.11485001237E+04  0.11485001237E+04  0.50400001928E-02 0. -1.
    10030    2    1    2    0    0  0.00000000000E+00  0.00000000000E+00  0.94770567829E+03  0.32447059257E+04  0.31032193754E+04 0.  0.
        1    1    3    3  502    0 -0.66607078036E+03  0.23690390861E+03  0.19180286025E+04  0.20441642465E+04  0.50400001928E-02 0.  1.
       -1    1    3    3    0  502  0.66607078036E+03 -0.23690390861E+03 -0.97032292424E+03  0.12005416793E+04  0.50400001928E-02 0. -1.
</event>
<event>
 5   0  0.2133385E-06  0.3149681E+04  0.7818609E-02  0.8202234E-01
       -2   -1    0    0    0  501  0.00000000000E+00  0.00000000000E+00  0.81641062215E+03  0.81641062215E+03  0.25500000920E-02 0. -1.
        2   -1    0    0  501    0  0.00000000000E+00  0.00000000000E+00 -0.30378376902E+04  0.30378376902E+04  0.25500000920E-02 0.  1.
    10030    2    1    2    0    0  0.00000000000E+00  0.00000000000E+00 -0.22214270680E+04  0.38542483123E+04  0.31496812274E+04 0.  0.
        2    1    3    3  502    0 -0.30744704625E+03  0.16368492755E+03 -0.29901136460E+04  0.30103315528E+04  0.25500000920E-02 0.  1.
       -2    1    3    3    0  502  0.30744704625E+03 -0.16368492755E+03  0.76868657801E+03  0.84391675950E+03  0.25500000920E-02 0. -1.
</event>
<event>
 5   0  0.2133385E-06  0.3114147E+04  0.7818609E-02  0.8211866E-01
        2   -1    0    0  501    0  0.00000000000E+00  0.00000000000E+00  0.11224526817E+04  0.11224526817E+04  0.25500000920E-02 0. -1.
       -2   -1    0    0    0  501  0.00000000000E+00  0.00000000000E+00 -0.21599822097E+04  0.21599822097E+04  0.25500000920E-02 0.  1.
    10030    2    1    2    0    0  0.00000000000E+00  0.00000000000E+00 -0.10375295280E+04  0.32824348914E+04  0.31141469610E+04 0.  0.
        2    1    3    3  502    0  0.12796306340E+04 -0.25315873579E+03  0.37743807940E+03  0.13579408709E+04  0.25500000920E-02 0. -1.
       -2    1    3    3    0  502 -0.12796306340E+04  0.25315873579E+03 -0.14149676074E+04  0.19244940205E+04  0.25500000920E-02 0.  1.
</event>
<event>
 5   0  0.7726743E-07  0.3102386E+04  0.7818609E-02  0.8215083E-01
        1   -1    0    0  501    0  0.00000000000E+00  0.00000000000E+00  0.15409452512E+04  0.15409452512E+04  0.50400001928E-02 0.  1.
       -1   -1    0    0    0  501  0.00000000000E+00  0.00000000000E+00 -0.15615085640E+04  0.15615085640E+04  0.50400001928E-02 0. -1.
    10030    2    1    2    0    0  0.00000000000E+00  0.00000000000E+00 -0.20563312777E+02  0.31024538153E+04  0.31023856669E+04 0.  0.
        1    1    3    3  502    0 -0.16249046173E+03 -0.85746331308E+03 -0.12927109815E+04  0.15597269521E+04  0.50400001928E-02 0. -1.
       -1    1    3    3    0  502  0.16249046173E+03  0.85746331308E+03  0.12721476687E+04  0.15427268632E+04  0.50400001928E-02 0.  1.
</event>
<event>
 5   0  0.7519202E-07  0.3108917E+04  0.7818609E-02  0.8213295E-01
       -1   -1    0    0    0  501  0.00000000000E+00  0.00000000000E+00  0.13931543026E+04  0.13931543027E+04  0.50400001928E-02 0.  1.
        1   -1    0    0  501    0  0.00000000000E+00  0.00000000000E+00 -0.17344395816E+04  0.17344395816E+04  0.50400001928E-02 0. -1.
    10030    2    1    2    0    0  0.00000000000E+00  0.00000000000E+00 -0.34128527897E+03  0.31275938843E+04  0.31089174745E+04 0.  0.
        4    1    3    3  502    0 -0.19747989434E+03 -0.54782341534E+03 -0.16205612236E+04  0.17220130938E+04  0.12699999809E+01 0. -1.
       -4    1    3    3    0  502  0.19747989434E+03  0.54782341534E+03  0.12792759446E+04  0.14055807904E+04  0.12699999809E+01 0.  1.
</event>
<event>
 5   0  0.7413481E-07  0.3125142E+04  0.7818609E-02  0.8208872E-01
        1   -1    0    0  501    0  0.00000000000E+00  0.00000000000E+00  0.14161754292E+04  0.14161754292E+04  0.50400001928E-02 0. -1.
       -1   -1    0    0    0  501  0.00000000000E+00  0.00000000000E+00 -0.17240995675E+04  0.17240995676E+04  0.50400001928E-02 0.  1.
    10030    2    1    2    0    0  0.00000000000E+00  0.00000000000E+00 -0.30792413837E+03  0.31402749967E+04  0.31251415616E+04 0.  0.
        5    1    3    3  502    0  0.61949063374E+03  0.73294433173E+03 -0.13930715108E+04  0.16916401399E+04  0.46999998093E+01 0.  1.
       -5    1    3    3    0  502 -0.61949063374E+03 -0.73294433173E+03  0.10851473724E+04  0.14486348569E+04  0.46999998093E+01 0. -1.
</event>
<event>
 5   0  0.2094135E-06  0.2955186E+04  0.7818609E-02  0.8256645E-01
        2   -1    0    0  501    0  0.00000000000E+00  0.00000000000E+00  0.90313366481E+03  0.90313366481E+03  0.25500000920E-02 0. -1.
       -2   -1    0    0    0  501  0.00000000000E+00  0.00000000000E+00 -0.24174499153E+04  0.24174499153E+04  0.25500000920E-02 0.  1.
    10030    2    1    2    0    0  0.00000000000E+00  0.00000000000E+00 -0.15143162505E+04  0.33205835802E+04  0.29551855451E+04 0.  0.
        4    1    3    3  502    0 -0.83943458890E+03 -0.46134554754E+03 -0.20213420396E+04  0.22368092000E+04  0.12699999809E+01 0.  1.
       -4    1    3    3    0  502  0.83943458890E+03  0.46134554754E+03  0.50702578910E+03  0.10837743801E+04  0.12699999809E+01 0. -1.
</event>
<event>
 5   0  0.7413481E-07  0.3063570E+04  0.7818609E-02  0.8225808E-01
       -1   -1    0    0    0  501  0.00000000000E+00  0.00000000000E+00  0.19614336596E+04  0.19614336596E+04  0.50400001928E-02 0. -1.
        1   -1    0    0  501    0  0.00000000000E+00  0.00000000000E+00 -0.11962498167E+04  0.11962498167E+04  0.50400001928E-02 0.  1.
    10030    2    1    2    0    0  0.00000000000E+00  0.00000000000E+00  0.76518384288E+03  0.31576834763E+04  0.30635695884E+04 0.  0.
        5    1    3    3  502    0  0.37498204082E+03  0.12891163894E+04 -0.37756692558E+03  0.13946366802E+04  0.46999998093E+01 0. -1.
       -5    1    3    3    0  502 -0.37498204082E+03 -0.12891163894E+04  0.11427507685E+04  0.17630467961E+04  0.46999998093E+01 0.  1.
</event>
<event>
 5   0  0.2067926E-06  0.3100350E+04  0.7818609E-02  0.8215642E-01
       -2   -1    0    0    0  501  0.00000000000E+00  0.00000000000E+00  0.17344021128E+04  0.17344021128E+04  0.25500000920E-02 0.  1.
        2   -1    0    0  501    0  0.00000000000E+00  0.00000000000E+00 -0.13855167425E+04  0.13855167425E+04  0.25500000920E-02 0. -1.
    10030    2    1    2    0    0  0.00000000000E+00  0.00000000000E+00  0.34888537028E+03  0.31199188553E+04  0.31003504096E+04 0.  0.
        1    1    3    3  502    0 -0.13190959184E+04 -0.71339426027E+03  0.56947322286E+03  0.16041337738E+04  0.50400001928E-02 0.  1.
       -1    1    3    3    0  502  0.13190959184E+04  0.71339426027E+03 -0.22058785258E+03  0.15157850815E+04  0.50400001928E-02 0. -1.
</event>
<event>
 5   0  0.7413481E-07  0.3092044E+04  0.7818609E-02  0.8217925E-01
       -1   -1    0    0    0  501  0.00000000000E+00  0.00000000000E+00  0.97335376837E+03  0.97335376838E+03  0.50400001928E-02 0.  1.
        1   -1    0    0  501    0  0.00000000000E+00  0.00000000000E+00 -0.24556167722E+04  0.24556167722E+04  0.50400001928E-02 0. -1.
    10030    2    1    2    0    0  0.00000000000E+00  0.00000000000E+00 -0.14822630038E+04  0.34289705406E+04  0.30920438800E+04 0.  0.
        5    1    3    3  502    0  0.86949772270E+03  0.19458744544E+03 -0.21422389527E+04  0.23201509399E+04  0.46999998093E+01 0. -1.
       -5    1    3    3    0  502 -0.86949772270E+03 -0.19458744544E+03  0.65997594886E+03  0.11088196006E+04  0.46999998093E+01 0.  1.
</event>
<event>
 5   0  0.7561815E-07  0.3101201E+04  0.7818609E-02  0.8215408E-01
       -1   -1    0    0    0  501  0.00000000000E+00  0.00000000000E+00  0.28460516359E+04  0.28460516359E+04  0.50400001928E-02 0. -1.
        1   -1    0    0  501    0  0.00000000000E+00  0.00000000000E+00 -0.84480612416E+03  0.84480612417E+03  0.50400001928E-02 0.  1.
    10030    2    1    2    0    0  0.00000000000E+00  0.00000000000E+00  0.20012455117E+04  0.36908577601E+04  0.31012009620E+04 0.  0.
        3    1    3    3  502    0 -0.48621186244E+03  0.18100960709E+03  0.27396893383E+04  0.27883801989E+04  0.10100000352E+00 0. -1.
       -3    1    3    3    0  502  0.48621186244E+03 -0.18100960709E+03 -0.73844382662E+03  0.90247756111E+03  0.10100000352E+00 0.  1.
</event>
<event>
 5   0  0.7561815E-07  0.3057884E+04  0.7818609E-02  0.8227392E-01
        1   -1    0    0  501    0  0.00000000000E+00  0.00000000000E+00  0.11554753239E+04  0.11554753239E+04  0.50400001928E-02 0.  1.
       -1   -1    0    0    0  501  0.00000000000E+00  0.00000000000E+00 -0.20231188787E+04  0.20231188787E+04  0.50400001928E-02 0. -1.
    10030    2    1    2    0    0  0.00000000000E+00  0.00000000000E+00 -0.86764355483E+03  0.31785942026E+04  0.30578841977E+04 0.  0.
        3    1    3    3  502    0  0.15058504442E+04  0.21062313638E+03 -0.60051502319E+03  0.16347984491E+04  0.10100000352E+00 0. -1.
       -3    1    3    3    0  502 -0.15058504442E+04 -0.21062313638E+03 -0.26712853164E+03  0.15437957535E+04  0.10100000352E+00 0.  1.
</event>
<event>
 5   0  0.7413481E-07  0.3097678E+04  0.7818609E-02  0.8216375E-01
        1   -1    0    0  501    0  0.00000000000E+00  0.00000000000E+00  0.16397527339E+04  0.16397527339E+04  0.50400001928E-02 0. -1.
       -1   -1    0    0    0  501  0.00000000000E+00  0.00000000000E+00 -0.14629659267E+04  0.14629659267E+04  0.50400001928E-02 0.  1.
    10030    2    1    2    0    0  0.00000000000E+00  0.00000000000E+00  0.17678680722E+03  0.31027186606E+04  0.30976780839E+04 0.  0.
        5    1    3    3  502    0 -0.12799993958E+04 -0.56835391761E+03 -0.57408714926E+03  0.15136124913E+04  0.46999998093E+01 0.  1.
       -5    1    3    3    0  502  0.12799993958E+04  0.56835391761E+03  0.75087395648E+03  0.15891061693E+04  0.46999998093E+01 0. -1.
</event>
<event>
 5   0  0.2094135E-06  0.3112578E+04  0.7818609E-02  0.8212294E-01
        2   -1    0    0  501    0  0.00000000000E+00  0.00000000000E+00  0.21303655093E+04  0.21303655093E+04  0.25500000920E-02 0. -1.
       -2   -1    0    0    0  501  0.00000000000E+00  0.00000000000E+00 -0.11369110496E+04  0.11369110496E+04  0.25500000920E-02 0.  1.
    10030    2    1    2    0    0  0.00000000000E+00  0.00000000000E+00  0.99345445965E+03  0.32672765589E+04  0.31125784085E+04 0.  0.
        4    1    3    3  502    0  0.59499752534E+03  0.13679039241E+04  0.96245776280E+03  0.17752492103E+04  0.12699999809E+01 0.  1.
       -4    1    3    3    0  502 -0.59499752534E+03 -0.13679039241E+04  0.30996696849E+02  0.14920273486E+04  0.12699999809E+01 0. -1.
</event>
<event>
 5   0  0.2078009E-06  0.3075876E+04  0.7818609E-02  0.8222390E-01
       -2   -1    0    0    0  501  0.00000000000E+00  0.00000000000E+00  0.23237976443E+04  0.23237976443E+04  0.25500000920E-02 0.  1.
        2   -1    0    0  501    0  0.00000000000E+00  0.00000000000E+00 -0.10178395276E+04  0.10178395276E+04  0.25500000920E-02 0. -1.
    10030    2    1    2    0    0  0.00000000000E+00  0.00000000000E+00  0.13059581167E+04  0.33416371719E+04  0.30758758730E+04 0.  0.
        3    1    3    3  502    0 -0.95054390826E+03 -0.10119333088E+04  0.13717390459E+04  0.19517199500E+04  0.10100000352E+00 0.  1.
       -3    1    3    3    0  502  0.95054390826E+03  0.10119333088E+04 -0.65780929211E+02  0.13899172219E+04  0.10100000352E+00 0. -1.
</event>
<event>
 5   0  0.2133385E-06  0.3095450E+04  0.7818609E-02  0.8216988E-01
        2   -1    0    0  501    0  0.00000000000E+00  0.00000000000E+00  0.18332200366E+04  0.18332200366E+04  0.25500000920E-02 0.  1.
       -2   -1    0    0    0  501  0.00000000000E+00  0.00000000000E+00 -0.13066915926E+04  0.13066915926E+04  0.25500000920E-02 0. -1.
    10030    2    1    2    0    0  0.00000000000E+00  0.00000000000E+00  0.52652844395E+03  0.31399116292E+04  0.30954503448E+04 0.  0.
        2    1    3    3  502    0  0.14240624970E+04 -0.25962203442E+02 -0.35109608964E+03  0.14669343869E+04  0.25500000920E-02 0. -1.
       -2    1    3    3    0  502 -0.14240624970E+04  0.25962203442E+02  0.87762453359E+03  0.16729772423E+04  0.25500000920E-02 0.  1.
</event>
<event>
 5   0  0.2067926E-06  0.3053660E+04  0.7818609E-02  0.8228572E-01
        2   -1    0    0  501    0  0.00000000000E+00  0.00000000000E+00  0.14616794150E+04  0.14616794150E+04  0.25500000920E-02 0.  1.
       -2   -1    0    0    0  501  0.00000000000E+00  0.00000000000E+00 -0.15948839977E+04  0.15948839977E+04  0.25500000920E-02 0. -1.
    10030    2    1    2    0    0  0.00000000000E+00  0.00000000000E+00 -0.13320458271E+03  0.30565634127E+04  0.30536595153E+04 0.  0.
        1    1    3    3  502    0 -0.96721180565E+03  0.10369588818E+04 -0.63320305275E+03  0.15529740840E+04  0.50400001928E-02 0. -1.
       -1    1    3    3    0  502  0.96721180565E+03 -0.10369588818E+04  0.49999847003E+03  0.15035893287E+04  0.50400001928E-02 0.  1.
</event>
<event>
 5   0  0.2226334E-06  0.3138420E+04  0.7818609E-02  0.8205272E-01
       -2   -1    0    0    0  501  0.00000000000E+00  0.00000000000E+00  0.87128107021E+03  0.87128107021E+03  0.25500000920E-02 0.  1.
        2   -1    0    0  501    0  0.00000000000E+00  0.00000000000E+00 -0.28262067904E+04  0.28262067904E+04  0.25500000920E-02 0. -1.
    10030    2    1    2    0    0  0.00000000000E+00  0.00000000000E+00 -0.19549257202E+04  0.36974878606E+04  0.31384202886E+04 0.  0.
        5    1    3    3  502    0 -0.90867049162E+02 -0.34798951411E+03  0.82205930090E+03  0.89730547014E+03  0.46999998093E+01 0.  1.
       -5    1    3    3    0  502  0.90867049162E+02  0.34798951411E+03 -0.27769850211E+04  0.28001823905E+04  0.46999998093E+01 0. -1.
</event>
<event>
 5   0  0.2078009E-06  0.3109699E+04  0.7818609E-02  0.8213081E-01
        2   -1    0    0  501    0  0.00000000000E+00  0.00000000000E+00  0.18889529482E+04  0.18889529482E+04  0.25500000920E-02 0. -1.
       -2   -1    0    0    0  501  0.00000000000E+00  0.00000000000E+00 -0.12798393480E+04  0.12798393480E+04  0.25500000920E-02 0.  1.
    10030    2    1    2    0    0  0.00000000000E+00  0.00000000000E+00  0.60911360022E+03  0.31687922963E+04  0.31096985769E+04 0.  0.
        3    1    3    3  502    0 -0.76434104678E+03  0.95269188162E+03 -0.67586882818E+03  0.13959361519E+04  0.10100000352E+00 0.  1.
       -3    1    3    3    0  502  0.76434104678E+03 -0.95269188162E+03  0.12849824284E+04  0.17728561444E+04  0.10100000352E+00 0. -1.
</event>
<event>
 5   0  0.7726743E-07  0.3104073E+04  0.7818609E-02  0.8214621E-01
       -1   -1    0    0    0  501  0.00000000000E+00  0.00000000000E+00  0.15866461093E+04  0.15866461093E+04  0.50400001928E-02 0. -1.
        1   -1    0    0  501    0  0.00000000000E+00  0.00000000000E+00 -0.15181822950E+04  0.15181822950E+04  0.50400001928E-02 0.  1.
    10030    2    1    2    0    0  0.00000000000E+00  0.00000000000E+00  0.68463814290E+02  0.31048284043E+04  0.31040734731E+04 0.  0.
        1    1    3    3  502    0 -0.17265385670E+03 -0.12625244223E+04 -0.85200883962E+03  0.15328719235E+04  0.50400001928E-02 0.  1.
       -1    1    3    3    0  502  0.17265385670E+03  0.12625244223E+04  0.92047265391E+03  0.15719564808E+04  0.50400001928E-02 0. -1.
</event>
<event>
 5   0  0.7561815E-07  0.3110573E+04  0.7818609E-02  0.8212842E-01
       -1   -1    0    0    0  501  0.00000000000E+00  0.00000000000E+00  0.14827043752E+04  0.14827043753E+04  0.50400001928E-02 0. -1.
        1   -1    0    0  501    0  0.00000000000E+00  0.00000000000E+00 -0.16314217424E+04  0.16314217424E+04  0.50400001928E-02 0.  1.
    10030    2    1    2    0    0  0.00000000000E+00  0.00000000000E+00 -0.14871736713E+03  0.31141261176E+04  0.31105730374E+04 0.  0.
        3    1    3    3  502    0  0.31249015615E+03  0.15235646737E+04 -0.70263458925E+02  0.15568674884E+04  0.10100000352E+00 0. -1.
       -3    1    3    3    0  502 -0.31249015615E+03 -0.15235646737E+04 -0.78453908202E+02  0.15572586293E+04  0.10100000352E+00 0.  1.
</event>
<event>
 5   0  0.7413481E-07  0.3152255E+04  0.7818609E-02  0.8201542E-01
        1   -1    0    0  501    0  0.00000000000E+00  0.00000000000E+00  0.21829862831E+04  0.21829862831E+04  0.50400001928E-02 0.  1.
       -1   -1    0    0    0  501  0.00000000000E+00  0.00000000000E+00 -0.11379721964E+04  0.11379721964E+04  0.50400001928E-02 0. -1.
    10030    2    1    2    0    0  0.00000000000E+00  0.00000000000E+00  0.10450140867E+04  0.33209584794E+04  0.31522548724E+04 0.  0.
        5    1    3    3  502    0 -0.17206899970E+03  0.58743627036E+03 -0.10076233327E+04  0.11789893905E+04  0.46999998093E+01 0. -1.
       -5    1    3    3    0  502  0.17206899970E+03 -0.58743627036E+03  0.20526374194E+04  0.21419690889E+04  0.46999998093E+01 0.  1.
</event>
<event>
 5   0  0.7561815E-07  0.3224726E+04  0.7818609E-02  0.8182317E-01
       -1   -1    0    0    0  501  0.00000000000E+00  0.00000000000E+00  0.13922725677E+04  0.13922725677E+04  0.50400001928E-02 0.  1.
        1   -1    0    0  501    0  0.00000000000E+00  0.00000000000E+00 -0.18672454760E+04  0.18672454760E+04  0.50400001928E-02 0. -1.
    10030    2    1    2    0    0  0.00000000000E+00  0.00000000000E+00 -0.47497290830E+03  0.32595180437E+04  0.32247261300E+04 0.  0.
        3    1    3    3  502    0 -0.92665668567E+03 -0.77454128921E+03  0.84226523932E+03  0.14724189504E+04  0.10100000352E+00 0.  1.
       -3    1    3    3    0  502  0.92665668567E+03  0.77454128921E+03 -0.13172381476E+04  0.17870990934E+04  0.10100000352E+00 0. -1.
</event>
<event>
 5   0  0.2133385E-06  0.3323034E+04  0.7818609E-02  0.8157059E-01
        2   -1    0    0  501    0  0.00000000000E+00  0.00000000000E+00  0.16590485479E+04  0.16590485479E+04  0.25500000920E-02 0. -1.
       -2   -1    0    0    0  501  0.00000000000E+00  0.00000000000E+00 -0.16639889015E+04  0.16639889015E+04  0.25500000920E-02 0.  1.
    10030    2    1    2    0    0  0.00000000000E+00  0.00000000000E+00 -0.49403535801E+01  0.33230374494E+04  0.33230337770E+04 0.  0.
        2    1    3    3  502    0 -0.31853957854E+03 -0.14485474044E+04 -0.75139111025E+03  0.16626321440E+04  0.25500000920E-02 0.  1.
       -2    1    3    3    0  502  0.31853957854E+03  0.14485474044E+04  0.74645075667E+03  0.16604053053E+04  0.25500000920E-02 0. -1.
</event>
<event>
 5   0  0.2078009E-06  0.3099280E+04  0.7818609E-02  0.8215935E-01
       -2   -1    0    0    0  501  0.00000000000E+00  0.00000000000E+00  0.15689177439E+04  0.15689177439E+04  0.25500000920E-02 0.  1.
        2   -1    0    0  501    0  0.00000000000E+00  0.00000000000E+00 -0.15305993821E+04  0.15305993821E+04  0.25500000920E-02 0. -1.
    10030    2    1    2    0    0  0.00000000000E+00  0.00000000000E+00  0.38318361773E+02  0.30995171260E+04  0.30992802580E+04 0.  0.
        3    1    3    3  502    0  0.15444515023E+04 -0.36842880994E+02 -0.10207994136E+03  0.15482597216E+04  0.10100000352E+00 0. -1.
       -3    1    3    3    0  502 -0.15444515023E+04  0.36842880994E+02  0.14039830313E+03  0.15512574044E+04  0.10100000352E+00 0.  1.
</event>
<event>
 5   0  0.7561815E-07  0.3099096E+04  0.7818609E-02  0.8215986E-01
       -1   -1    0    0    0  501  0.00000000000E+00  0.00000000000E+00  0.25076122985E+04  0.25076122985E+04  0.50400001928E-02 0. -1.
        1   -1    0    0  501    0  0.00000000000E+00  0.00000000000E+00 -0.95752416971E+03  0.95752416972E+03  0.50400001928E-02 0.  1.
    10030    2    1    2    0    0  0.00000000000E+00  0.00000000000E+00  0.15500881287E+04  0.34651364682E+04  0.30990962451E+04 0.  0.
        3    1    3    3  502    0 -0.44225232920E+03 -0.14017120260E+04  0.13236208688E+04  0.19779676289E+04  0.10100000352E+00 0. -1.
       -3    1    3    3    0  502  0.44225232920E+03  0.14017120260E+04  0.22646725997E+03  0.14871688393E+04  0.10100000352E+00 0.  1.
</event>
<event>
 5   0  0.7656332E-07  0.3068129E+04  0.7818609E-02  0.8224539E-01
       -1   -1    0    0    0  501  0.00000000000E+00  0.00000000000E+00  0.11161483960E+04  0.11161483961E+04  0.50400001928E-02 0.  1.
        1   -1    0    0  501    0  0.00000000000E+00  0.00000000000E+00 -0.21084599111E+04  0.21084599112E+04  0.50400001928E-02 0. -1.
    10030    2    1    2    0    0  0.00000000000E+00  0.00000000000E+00 -0.99231151511E+03  0.32246083072E+04  0.30681291681E+04 0.  0.
        2    1    3    3  502    0 -0.37087338489E+03 -0.65659071017E+03  0.90790344415E+03  0.11802317960E+04  0.25500000920E-02 0.  1.
       -2    1    3    3    0  502  0.37087338489E+03  0.65659071017E+03 -0.19002149593E+04  0.20443765112E+04  0.25500000920E-02 0. -1.
</event>
<event>
 5   0  0.2133385E-06  0.2791819E+04  0.7818609E-02  0.8305813E-01
       -2   -1    0    0    0  501  0.00000000000E+00  0.00000000000E+00  0.98676191926E+03  0.98676191926E+03  0.25500000920E-02 0. -1.
        2   -1    0    0  501    0  0.00000000000E+00  0.00000000000E+00 -0.19747046094E+04  0.19747046094E+04  0.25500000920E-02 0.  1.
    10030    2    1    2    0    0  0.00000000000E+00  0.00000000000E+00 -0.98794269013E+03  0.29614665287E+04  0.27918189843E+04 0.  0.
        2    1    3    3  502    0 -0.58483035758E+03 -0.12500596630E+04 -0.71619510892E+03  0.15548669211E+04  0.25500000920E-02 0.  1.
       -2    1    3    3    0  502  0.58483035758E+03  0.12500596630E+04 -0.27174758121E+03  0.14065996076E+04  0.25500000920E-02 0. -1.
</event>
<event>
 5   0  0.7519202E-07  0.3109668E+04  0.7818609E-02  0.8213090E-01
       -1   -1    0    0    0  501  0.00000000000E+00  0.00000000000E+00  0.12233590158E+04  0.12233590158E+04  0.50400001928E-02 0.  1.
        1   -1    0    0  501    0  0.00000000000E+00  0.00000000000E+00 -0.19761236203E+04  0.19761236203E+04  0.50400001928E-02 0. -1.
    10030    2    1    2    0    0  0.00000000000E+00  0.00000000000E+00 -0.75276460445E+03  0.31994826361E+04  0.31096679226E+04 0.  0.
        4    1    3    3  502    0  0.39155673700E+03 -0.14280384034E+04 -0.86431200933E+03  0.17145399448E+04  0.12699999809E+01 0. -1.
       -4    1    3    3    0  502 -0.39155673700E+03  0.14280384034E+04  0.11154740489E+03  0.14849426913E+04  0.12699999809E+01 0.  1.
</event>
<event>
 5   0  0.2067926E-06  0.3227047E+04  0.7818609E-02  0.8181710E-01
        2   -1    0    0  501    0  0.00000000000E+00  0.00000000000E+00  0.17122599779E+04  0.17122599779E+04  0.25500000920E-02 0.  1.
       -2   -1    0    0    0  501  0.00000000000E+00  0.00000000000E+00 -0.15204806016E+04  0.15204806016E+04  0.25500000920E-02 0. -1.
    10030    2    1    2    0    0  0.00000000000E+00  0.00000000000E+00  0.19177937627E+03  0.32327405796E+04  0.32270469977E+04 0.  0.
        1    1    3    3  502    0  0.13499824693E+04  0.22560018448E+03  0.95186197500E+03  0.16671500623E+04  0.50400001928E-02 0.  1.
       -1    1    3    3    0  502 -0.13499824693E+04 -0.22560018448E+03 -0.76008259873E+03  0.15655905172E+04  0.50400001928E-02 0. -1.
</event>
<event>
 5   0  0.7519202E-07  0.3111570E+04  0.7818609E-02  0.8212570E-01
        1   -1    0    0  501    0  0.00000000000E+00  0.00000000000E+00  0.13837045872E+04  0.13837045872E+04  0.50400001928E-02 0. -1.
       -1   -1    0    0    0  501  0.00000000000E+00  0.00000000000E+00 -0.17492660712E+04  0.17492660712E+04  0.50400001928E-02 0.  1.
    10030    2    1    2    0    0  0.00000000000E+00  0.00000000000E+00 -0.36556148394E+03  0.31329706584E+04  0.31115703347E+04 0.  0.
        4    1    3    3  502    0 -0.10426199205E+04 -0.24340218398E+03  0.95377183949E+03  0.14338700278E+04  0.12699999809E+01 0. -1.
       -4    1    3    3    0  502  0.10426199205E+04  0.24340218398E+03 -0.13193333234E+04  0.16991006306E+04  0.12699999809E+01 0.  1.
</event>
<event>
 5   0  0.7561815E-07  0.3042876E+04  0.7818609E-02  0.8231592E-01
        1   -1    0    0  501    0  0.00000000000E+00  0.00000000000E+00  0.22053477435E+04  0.22053477435E+04  0.50400001928E-02 0. -1.
       -1   -1    0    0    0  501  0.00000000000E+00  0.00000000000E+00 -0.10496184505E+04  0.10496184505E+04  0.50400001928E-02 0.  1.
    10030    2    1    2    0    0  0.00000000000E+00  0.00000000000E+00  0.11557292930E+04  0.32549661940E+04  0.30428760615E+04 0.  0.
        3    1    3    3  502    0 -0.14959197870E+04 -0.27260903863E+03  0.63326206357E+03  0.16471528613E+04  0.10100000352E+00 0.  1.
       -3    1    3    3    0  502  0.14959197870E+04  0.27260903863E+03  0.52246722938E+03  0.16078133327E+04  0.10100000352E+00 0. -1.
</event>
<event>
 5   0  0.7656332E-07  0.3078129E+04  0.7818609E-02  0.8221766E-01
       -1   -1    0    0    0  501  0.00000000000E+00  0.00000000000E+00  0.11899738509E+04  0.11899738509E+04  0.50400001928E-02 0.  1.
        1   -1    0    0  501    0  0.00000000000E+00  0.00000000000E+00 -0.19905637997E+04  0.19905637998E+04  0.50400001928E-02 0. -1.
    10030    2    1    2    0    0  0.00000000000E+00  0.00000000000E+00 -0.80058994885E+03  0.31805376507E+04  0.30781285680E+04 0.  0.
        2    1    3    3  502    0 -0.55140348413E+03 -0.35898983690E+03  0.10373245323E+04  0.12283980180E+04  0.25500000920E-02 0.  1.
       -2    1    3    3    0  502  0.55140348413E+03  0.35898983690E+03 -0.18379144812E+04  0.19521396326E+04  0.25500000920E-02 0. -1.
</event>
<event>
 5   0  0.2067926E-06  0.2711573E+04  0.7818609E-02  0.8331260E-01
       -2   -1    0    0    0  501  0.00000000000E+00  0.00000000000E+00  0.11167804658E+04  0.11167804658E+04  0.25500000920E-02 0.  1.
        2   -1    0    0  501    0  0.00000000000E+00  0.00000000000E+00 -0.16459435330E+04  0.16459435330E+04  0.25500000920E-02 0. -1.
    10030    2    1    2    0    0  0.00000000000E+00  0.00000000000E+00 -0.52916306721E+03  0.27627239989E+04  0.27115734071E+04 0.  0.
        1    1    3    3  502    0  0.92562607561E+02 -0.83619098657E+02 -0.16400844981E+04  0.16448213128E+04  0.50400001928E-02 0. -1.
       -1    1    3    3    0  502 -0.92562607561E+02  0.83619098657E+02  0.11109214309E+04  0.11179026861E+04  0.50400001928E-02 0.  1.
</event>
<event>
 5   0  0.2226334E-06  0.3063179E+04  0.7818609E-02  0.8225916E-01
       -2   -1    0    0    0  501  0.00000000000E+00  0.00000000000E+00  0.11299089550E+04  0.11299089550E+04  0.25500000920E-02 0.  1.
        2   -1    0    0  501    0  0.00000000000E+00  0.00000000000E+00 -0.20760663856E+04  0.20760663856E+04  0.25500000920E-02 0. -1.
    10030    2    1    2    0    0  0.00000000000E+00  0.00000000000E+00 -0.94615743058E+03  0.32059753406E+04  0.30631787413E+04 0.  0.
        5    1    3    3  502    0 -0.47640300979E+03  0.15713422715E+03 -0.19876363767E+04  0.20499686459E+04  0.46999998093E+01 0. -1.
       -5    1    3    3    0  502  0.47640300979E+03 -0.15713422715E+03  0.10414789461E+04  0.11560066947E+04  0.46999998093E+01 0.  1.
</event>
<event>
 5   0  0.7413481E-07  0.3088714E+04  0.7818609E-02  0.8218842E-01
       -1   -1    0    0    0  501  0.00000000000E+00  0.00000000000E+00  0.15853662538E+04  0.15853662538E+04  0.50400001928E-02 0. -1.
        1   -1    0    0  501    0  0.00000000000E+00  0.00000000000E+00 -0.15044085597E+04  0.15044085597E+04  0.50400001928E-02 0.  1.
    10030    2    1    2    0    0  0.00000000000E+00  0.00000000000E+00  0.80957694067E+02  0.30897748135E+04  0.30887140124E+04 0.  0.
        5    1    3    3  502    0 -0.67187730468E+03 -0.83950684953E+02 -0.13479998869E+04  0.15085067501E+04  0.46999998093E+01 0.  1.
       -5    1    3    3    0  502  0.67187730468E+03  0.83950684953E+02  0.14289575810E+04  0.15812680634E+04  0.46999998093E+01 0. -1.
</event>
<event>
 5   0  0.2094135E-06  0.2808152E+04  0.7818609E-02  0.8300742E-01
        2   -1    0    0  501    0  0.00000000000E+00  0.00000000000E+00  0.14510866009E+04  0.14510866009E+04  0.25500000920E-02 0.  1.
       -2   -1    0    0    0  501  0.00000000000E+00  0.00000000000E+00 -0.13585879389E+04  0.13585879389E+04  0.25500000920E-02 0. -1.
    10030    2    1    2    0    0  0.00000000000E+00  0.00000000000E+00  0.92498662011E+02  0.28096745398E+04  0.28081515303E+04 0.  0.
        4    1    3    3  502    0  0.71413797886E+03 -0.77997167065E+03  0.97037262992E+03  0.14352607825E+04  0.12699999809E+01 0.  1.
       -4    1    3    3    0  502 -0.71413797886E+03  0.77997167065E+03 -0.87787396791E+03  0.13744137573E+04  0.12699999809E+01 0. -1.
</event>
<event>
 5   0  0.7726743E-07  0.3118727E+04  0.7818609E-02  0.8210617E-01
        1   -1    0    0  501    0  0.00000000000E+00  0.00000000000E+00  0.16835906758E+04  0.16835906758E+04  0.50400001928E-02 0.  1.
       -1   -1    0    0    0  501  0.00000000000E+00  0.00000000000E+00 -0.14443027991E+04  0.14443027991E+04  0.50400001928E-02 0. -1.
    10030    2    1    2    0    0  0.00000000000E+00  0.00000000000E+00  0.23928787675E+03  0.31278934749E+04  0.31187271286E+04 0.  0.
        1    1    3    3  502    0 -0.88676863855E+03 -0.12466947673E+04  0.42220636322E+03  0.15870931524E+04  0.50400001928E-02 0.  1.
       -1    1    3    3    0  502  0.88676863855E+03  0.12466947673E+04 -0.18291848647E+03  0.15408003225E+04  0.50400001928E-02 0. -1.
</event>
<event>
 5   0  0.7413481E-07  0.3110235E+04  0.7818609E-02  0.8212934E-01
       -1   -1    0    0    0  501  0.00000000000E+00  0.00000000000E+00  0.16799762757E+04  0.16799762757E+04  0.50400001928E-02 0.  1.
        1   -1    0    0  501    0  0.00000000000E+00  0.00000000000E+00 -0.14395388861E+04  0.14395388861E+04  0.50400001928E-02 0. -1.
    10030    2    1    2    0    0  0.00000000000E+00  0.00000000000E+00  0.24043738966E+03  0.31195151618E+04  0.31102354744E+04 0.  0.
        5    1    3    3  502    0  0.45866201799E+03  0.64413109239E+03  0.14632782882E+04  0.16632742256E+04  0.46999998093E+01 0.  1.
       -5    1    3    3    0  502 -0.45866201799E+03 -0.64413109239E+03 -0.12228408986E+04  0.14562409361E+04  0.46999998093E+01 0. -1.
</event>
<event>
 5   0  0.7656332E-07  0.3147124E+04  0.7818609E-02  0.8202923E-01
       -1   -1    0    0    0  501  0.00000000000E+00  0.00000000000E+00  0.17506163034E+04  0.17506163034E+04  0.50400001928E-02 0.  1.
        1   -1    0    0  501    0  0.00000000000E+00  0.00000000000E+00 -0.14144149335E+04  0.14144149335E+04  0.50400001928E-02 0. -1.
    10030    2    1    2    0    0  0.00000000000E+00  0.00000000000E+00  0.33620136990E+03  0.31650312369E+04  0.31471243015E+04 0.  0.
        2    1    3    3  502    0  0.13513623824E+04 -0.55127816249E+03  0.75967375068E+03  0.16453547060E+04  0.25500000920E-02 0.  1.
       -2    1    3    3    0  502 -0.13513623824E+04  0.55127816249E+03 -0.42347238079E+03  0.15196765308E+04  0.25500000920E-02 0. -1.
</event>
<event>
 5   0  0.7656332E-07  0.3095499E+04  0.7818609E-02  0.8216974E-01
        1   -1    0    0  501    0  0.00000000000E+00  0.00000000000E+00  0.87970528640E+03  0.87970528642E+03  0.50400001928E-02 0. -1.
       -1   -1    0    0    0  501  0.00000000000E+00  0.00000000000E+00 -0.27231026065E+04  0.27231026065E+04  0.50400001928E-02 0.  1.
    10030    2    1    2    0    0  0.00000000000E+00  0.00000000000E+00 -0.18433973201E+04  0.36028078929E+04  0.30954985113E+04 0.  0.
        2    1    3    3  502    0 -0.19274228650E+03 -0.14580384782E+04 -0.14829066174E+04  0.20885492163E+04  0.25500000920E-02 0. -1.
       -2    1    3    3    0  502  0.19274228650E+03  0.14580384782E+04 -0.36049070263E+03  0.15142586766E+04  0.25500000920E-02 0.  1.
</event>
<event>
 5   0  0.7413481E-07  0.3174890E+04  0.7818609E-02  0.8195480E-01
       -1   -1    0    0    0  501  0.00000000000E+00  0.00000000000E+00  0.26480217051E+04  0.26480217051E+04  0.50400001928E-02 0. -1.
        1   -1    0    0  501    0  0.00000000000E+00  0.00000000000E+00 -0.95164701420E+03  0.95164701422E+03  0.50400001928E-02 0.  1.
    10030    2    1    2    0    0  0.00000000000E+00  0.00000000000E+00  0.16963746909E+04  0.35996687193E+04  0.31748902024E+04 0.  0.
        5    1    3    3  502    0  0.23608242940E+03  0.15328320433E+04  0.46428346139E+03  0.16189163688E+04  0.46999998093E+01 0. -1.
       -5    1    3    3    0  502 -0.23608242940E+03 -0.15328320433E+04  0.12320912295E+04  0.19807523506E+04  0.46999998093E+01 0.  1.
</event>
<event>
 5   0  0.7413481E-07  0.3121167E+04  0.7818609E-02  0.8209953E-01
       -1   -1    0    0    0  501  0.00000000000E+00  0.00000000000E+00  0.17366398389E+04  0.17366398389E+04  0.50400001928E-02 0.  1.
        1   -1    0    0  501    0  0.00000000000E+00  0.00000000000E+00 -0.14023748815E+04  0.14023748815E+04  0.50400001928E-02 0. -1.
    10030    2    1    2    0    0  0.00000000000E+00  0.00000000000E+00  0.33426495740E+03  0.31390147204E+04  0.31211665052E+04 0.  0.
        5    1    3    3  502    0 -0.77019261422E+03 -0.30913588995E+03  0.14962936940E+04  0.17110460456E+04  0.46999998093E+01 0.  1.
       -5    1    3    3    0  502  0.77019261422E+03  0.30913588995E+03 -0.11620287366E+04  0.14279686748E+04  0.46999998093E+01 0. -1.
</event>
<event>
 5   0  0.7656332E-07  0.3090380E+04  0.7818609E-02  0.8218383E-01
       -1   -1    0    0    0  501  0.00000000000E+00  0.00000000000E+00  0.16401789366E+04  0.16401789366E+04  0.50400001928E-02 0.  1.
        1   -1    0    0  501    0  0.00000000000E+00  0.00000000000E+00 -0.14557019376E+04  0.14557019377E+04  0.50400001928E-02 0. -1.
    10030    2    1    2    0    0  0.00000000000E+00  0.00000000000E+00  0.18447699896E+03  0.30958808743E+04  0.30903796894E+04 0.  0.
        2    1    3    3  502    0  0.12439386273E+04  0.32511580950E+03  0.95081025090E+03  0.15991009134E+04  0.25500000920E-02 0.  1.
       -2    1    3    3    0  502 -0.12439386273E+04 -0.32511580950E+03 -0.76633325194E+03  0.14967799608E+04  0.25500000920E-02 0. -1.
</event>
<event>
 5   0  0.7656332E-07  0.3103985E+04  0.7818609E-02  0.8214645E-01
       -1   -1    0    0    0  501  0.00000000000E+00  0.00000000000E+00  0.24535660599E+04  0.24535660599E+04  0.50400001928E-02 0. -1.
        1   -1    0    0  501    0  0.00000000000E+00  0.00000000000E+00 -0.98170614741E+03  0.98170614742E+03  0.50400001928E-02 0.  1.
    10030    2    1    2    0    0  0.00000000000E+00  0.00000000000E+00  0.14718599125E+04  0.34352722073E+04  0.31039851057E+04 0.  0.
        2    1    3    3  502    0 -0.40405459593E+02 -0.13928922298E+04 -0.20298891758E+02  0.13936259936E+04  0.25500000920E-02 0.  1.
       -2    1    3    3    0  502  0.40405459593E+02  0.13928922298E+04  0.14921588043E+04  0.20416462138E+04  0.25500000920E-02 0. -1.
</event>
<event>
 5   0  0.6979625E-07  0.3097795E+04  0.7818609E-02  0.8216343E-01
       -4   -1    0    0    0  501  0.00000000000E+00  0.00000000000E+00  0.18582170569E+04  0.18582174909E+04  0.12699999809E+01 0. -1.
        4   -1    0    0  501    0  0.00000000000E+00  0.00000000000E+00 -0.12910663131E+04  0.12910669377E+04  0.12699999809E+01 0.  1.
    10030    2    1    2    0    0  0.00000000000E+00  0.00000000000E+00  0.56715074380E+03  0.31492844286E+04  0.30977947715E+04 0.  0.
        5    1    3    3  502    0 -0.45198092650E+03 -0.33899198615E+03  0.17497177895E+04  0.18386779918E+04  0.46999998093E+01 0. -1.
       -5    1    3    3    0  502  0.45198092650E+03  0.33899198615E+03 -0.11825670457E+04  0.13106064368E+04  0.46999998093E+01 0.  1.
</event>
<event>
 5   0  0.2067926E-06  0.3097842E+04  0.7818609E-02  0.8216330E-01
        2   -1    0    0  501    0  0.00000000000E+00  0.00000000000E+00  0.18176806437E+04  0.18176806437E+04  0.25500000920E-02 0.  1.
       -2   -1    0    0    0  501  0.00000000000E+00  0.00000000000E+00 -0.13198997443E+04  0.13198997443E+04  0.25500000920E-02 0. -1.
    10030    2    1    2    0    0  0.00000000000E+00  0.00000000000E+00  0.49778089932E+03  0.31375803880E+04  0.30978419694E+04 0.  0.
        1    1    3    3  502    0  0.31208494175E+03 -0.30125436409E+02  0.17852041828E+04  0.18125282141E+04  0.50400001928E-02 0.  1.
       -1    1    3    3    0  502 -0.31208494175E+03  0.30125436409E+02 -0.12874232834E+04  0.13250521739E+04  0.50400001928E-02 0. -1.
</event>
<event>
 5   0  0.7413481E-07  0.3111410E+04  0.7818609E-02  0.8212613E-01
        1   -1    0    0  501    0  0.00000000000E+00  0.00000000000E+00  0.19095273192E+04  0.19095273192E+04  0.50400001928E-02 0.  1.
       -1   -1    0    0    0  501  0.00000000000E+00  0.00000000000E+00 -0.12674438425E+04  0.12674438425E+04  0.50400001928E-02 0. -1.
    10030    2    1    2    0    0  0.00000000000E+00  0.00000000000E+00  0.64208347662E+03  0.31769711617E+04  0.31114103830E+04 0.  0.
        5    1    3    3  502    0 -0.49139442913E+03 -0.35330039431E+01 -0.11861074573E+04  0.12838823767E+04  0.46999998093E+01 0. -1.
       -5    1    3    3    0  502  0.49139442913E+03  0.35330039431E+01  0.18281909339E+04  0.18930887850E+04  0.46999998093E+01 0.  1.
</event>
<event>
 5   0  0.7656332E-07  0.3086452E+04  0.7818609E-02  0.8219466E-01
       -1   -1    0    0    0  501  0.00000000000E+00  0.00000000000E+00  0.12345536779E+04  0.12345536779E+04  0.50400001928E-02 0. -1.
        1   -1    0    0  501    0  0.00000000000E+00  0.00000000000E+00 -0.19290748877E+04  0.19290748877E+04  0.50400001928E-02 0.  1.
    10030    2    1    2    0    0  0.00000000000E+00  0.00000000000E+00 -0.69452120988E+03  0.31636285656E+04  0.30864520068E+04 0.  0.
        2    1    3    3  502    0  0.14703206959E+04  0.43993129366E+03 -0.18146306726E+03  0.15454162341E+04  0.25500000920E-02 0. -1.
       -2    1    3    3    0  502 -0.14703206959E+04 -0.43993129366E+03 -0.51305814262E+03  0.16182123315E+04  0.25500000920E-02 0.  1.
</event>
<event>
 5   0  0.7726743E-07  0.3099679E+04  0.7818609E-02  0.8215826E-01
        1   -1    0    0  501    0  0.00000000000E+00  0.00000000000E+00  0.84501760035E+03  0.84501760036E+03  0.50400001928E-02 0.  1.
       -1   -1    0    0    0  501  0.00000000000E+00  0.00000000000E+00 -0.28425478767E+04  0.28425478767E+04  0.50400001928E-02 0. -1.
    10030    2    1    2    0    0  0.00000000000E+00  0.00000000000E+00 -0.19975302764E+04  0.36875654771E+04  0.30996793290E+04 0.  0.
        1    1    3    3  502    0  0.70709412237E+03  0.95309334212E+03 -0.21846326970E+04  0.24861594956E+04  0.50400001928E-02 0. -1.
       -1    1    3    3    0  502 -0.70709412237E+03 -0.95309334212E+03  0.18710242057E+03  0.12014059815E+04  0.50400001928E-02 0.  1.
</event>
<event>
 5   0  0.2226334E-06  0.3109184E+04  0.7818609E-02  0.8213222E-01
       -2   -1    0    0    0  501  0.00000000000E+00  0.00000000000E+00  0.16149754103E+04  0.16149754103E+04  0.25500000920E-02 0. -1.
        2   -1    0    0  501    0  0.00000000000E+00  0.00000000000E+00 -0.14964665912E+04  0.14964665912E+04  0.25500000920E-02 0.  1.
    10030    2    1    2    0    0  0.00000000000E+00  0.00000000000E+00  0.11850881913E+03  0.31114420015E+04  0.31091842963E+04 0.  0.
        5    1    3    3  502    0 -0.95450565978E+03 -0.51092141832E+02  0.12861312696E+04  0.16024503718E+04  0.46999998093E+01 0. -1.
       -5    1    3    3    0  502  0.95450565978E+03  0.51092141832E+02 -0.11676224505E+04  0.15089916296E+04  0.46999998093E+01 0.  1.
</event>
<event>
 5   0  0.2226334E-06  0.3080598E+04  0.7818609E-02  0.8221083E-01
       -2   -1    0    0    0  501  0.00000000000E+00  0.00000000000E+00  0.80653134091E+03  0.80653134092E+03  0.25500000920E-02 0.  1.
        2   -1    0    0  501    0  0.00000000000E+00  0.00000000000E+00 -0.29416360750E+04  0.29416360750E+04  0.25500000920E-02 0. -1.
    10030    2    1    2    0    0  0.00000000000E+00  0.00000000000E+00 -0.21351047341E+04  0.37481674159E+04  0.30805984406E+04 0.  0.
        5    1    3    3  502    0 -0.27956599629E+03 -0.80973278771E+03 -0.26250605558E+04  0.27613021105E+04  0.46999998093E+01 0. -1.
       -5    1    3    3    0  502  0.27956599629E+03  0.80973278771E+03  0.48995582174E+03  0.98686530541E+03  0.46999998093E+01 0.  1.
</event>
<event>
 5   0  0.2094135E-06  0.3116241E+04  0.7818609E-02  0.8211295E-01
       -2   -1    0    0    0  501  0.00000000000E+00  0.00000000000E+00  0.11179636626E+04  0.11179636626E+04  0.25500000920E-02 0.  1.
        2   -1    0    0  501    0  0.00000000000E+00  0.00000000000E+00 -0.21715734020E+04  0.21715734020E+04  0.25500000920E-02 0. -1.
    10030    2    1    2    0    0  0.00000000000E+00  0.00000000000E+00 -0.10536097394E+04  0.32895370645E+04  0.31162414245E+04 0.  0.
        4    1    3    3  502    0 -0.34635169929E+03 -0.45173852493E+03  0.10042711781E+04  0.11543783637E+04  0.12699999809E+01 0.  1.
       -4    1    3    3    0  502  0.34635169929E+03  0.45173852493E+03 -0.20578809175E+04  0.21351587009E+04  0.12699999809E+01 0. -1.
</event>
<event>
 5   0  0.7413481E-07  0.3135874E+04  0.7818609E-02  0.8205961E-01
        1   -1    0    0  501    0  0.00000000000E+00  0.00000000000E+00  0.16850318652E+04  0.16850318652E+04  0.50400001928E-02 0.  1.
       -1   -1    0    0    0  501  0.00000000000E+00  0.00000000000E+00 -0.14589790650E+04  0.14589790650E+04  0.50400001928E-02 0. -1.
    10030    2    1    2    0    0  0.00000000000E+00  0.00000000000E+00  0.22605280022E+03  0.31440109302E+04  0.31358738591E+04 0.  0.
        5    1    3    3  502    0 -0.67292598094E+03  0.21917885663E+03  0.15157763835E+04  0.16728624814E+04  0.46999998093E+01 0.  1.
       -5    1    3    3    0  502  0.67292598094E+03 -0.21917885663E+03 -0.12897235833E+04  0.14711484487E+04  0.46999998093E+01 0. -1.
</event>
<event>
 5   0  0.2133385E-06  0.2987562E+04  0.7818609E-02  0.8247292E-01
        2   -1    0    0  501    0  0.00000000000E+00  0.00000000000E+00  0.19324688609E+04  0.19324688609E+04  0.25500000920E-02 0. -1.
       -2   -1    0    0    0  501  0.00000000000E+00  0.00000000000E+00 -0.11546793957E+04  0.11546793957E+04  0.25500000920E-02 0.  1.
    10030    2    1    2    0    0  0.00000000000E+00  0.00000000000E+00  0.77778946517E+03  0.30871482567E+04  0.29875622013E+04 0.  0.
        2    1    3    3  502    0  0.53386737839E+03 -0.54250896383E+03 -0.93927120290E+03  0.12089502662E+04  0.25500000920E-02 0.  1.
       -2    1    3    3    0  502 -0.53386737839E+03  0.54250896383E+03  0.17170606681E+04  0.18781979905E+04  0.25500000920E-02 0. -1.
</event>
<event>
 5   0  0.7656332E-07  0.3118286E+04  0.7818609E-02  0.8210737E-01
        1   -1    0    0  501    0  0.00000000000E+00  0.00000000000E+00  0.23485204409E+04  0.23485204409E+04  0.50400001928E-02 0.  1.
       -1   -1    0    0    0  501  0.00000000000E+00  0.00000000000E+00 -0.10350885181E+04  0.10350885181E+04  0.50400001928E-02 0. -1.
    10030    2    1    2    0    0  0.00000000000E+00  0.00000000000E+00  0.13134319228E+04  0.33836089591E+04  0.31182857746E+04 0.  0.
        2    1    3    3  502    0 -0.69687211647E+03 -0.53012544902E+03 -0.74311374692E+03  0.11484257831E+04  0.25500000920E-02 0. -1.
       -2    1    3    3    0  502  0.69687211647E+03  0.53012544902E+03  0.20565456697E+04  0.22351831760E+04  0.25500000920E-02 0.  1.
</event>
<event>
 5   0  0.2133385E-06  0.3116033E+04  0.7818609E-02  0.8211352E-01
        2   -1    0    0  501    0  0.00000000000E+00  0.00000000000E+00  0.20436676783E+04  0.20436676783E+04  0.25500000920E-02 0.  1.
       -2   -1    0    0    0  501  0.00000000000E+00  0.00000000000E+00 -0.11877737285E+04  0.11877737285E+04  0.25500000920E-02 0. -1.
    10030    2    1    2    0    0  0.00000000000E+00  0.00000000000E+00  0.85589394978E+03  0.32314414068E+04  0.31160325917E+04 0.  0.
        2    1    3    3  502    0 -0.57857004174E+03  0.11894457277E+04 -0.42588815366E+03  0.13895701320E+04  0.25500000920E-02 0. -1.
       -2    1    3    3    0  502  0.57857004174E+03 -0.11894457277E+04  0.12817821034E+04  0.18418712748E+04  0.25500000920E-02 0.  1.
</event>
<event>
 5   0  0.7413481E-07  0.3109956E+04  0.7818609E-02  0.8213011E-01
       -1   -1    0    0    0  501  0.00000000000E+00  0.00000000000E+00  0.14085205853E+04  0.14085205853E+04  0.50400001928E-02 0.  1.
        1   -1    0    0  501    0  0.00000000000E+00  0.00000000000E+00 -0.17166636523E+04  0.17166636523E+04  0.50400001928E-02 0. -1.
    10030    2    1    2    0    0  0.00000000000E+00  0.00000000000E+00 -0.30814306707E+03  0.31251842376E+04  0.31099556860E+04 0.  0.
        5    1    3    3  502    0  0.46592535294E+03 -0.10619517174E+04 -0.11950524304E+04  0.16652328023E+04  0.46999998093E+01 0. -1.
       -5    1    3    3    0  502 -0.46592535294E+03  0.10619517174E+04  0.88690936334E+03  0.14599514353E+04  0.46999998093E+01 0.  1.
</event>
<event>
 5   0  0.2094135E-06  0.3097445E+04  0.7818609E-02  0.8216439E-01
        2   -1    0    0  501    0  0.00000000000E+00  0.00000000000E+00  0.20916168342E+04  0.20916168342E+04  0.25500000920E-02 0.  1.
       -2   -1    0    0    0  501  0.00000000000E+00  0.00000000000E+00 -0.11467403311E+04  0.11467403311E+04  0.25500000920E-02 0. -1.
    10030    2    1    2    0    0  0.00000000000E+00  0.00000000000E+00  0.94487650305E+03  0.32383571653E+04  0.30974449993E+04 0.  0.
        4    1    3    3  502    0  0.99889122227E+03  0.54408953909E+03  0.15713119420E+04  0.19398040964E+04  0.12699999809E+01 0.  1.
       -4    1    3    3    0  502 -0.99889122227E+03 -0.54408953909E+03 -0.62643543900E+03  0.12985530688E+04  0.12699999809E+01 0. -1.
</event>
<event>
 5   0  0.7726743E-07  0.3104274E+04  0.7818609E-02  0.8214566E-01
       -1   -1    0    0    0  501  0.00000000000E+00  0.00000000000E+00  0.13415902298E+04  0.13415902298E+04  0.50400001928E-02 0.  1.
        1   -1    0    0  501    0  0.00000000000E+00  0.00000000000E+00 -0.17957266596E+04  0.17957266596E+04  0.50400001928E-02 0. -1.
    10030    2    1    2    0    0  0.00000000000E+00  0.00000000000E+00 -0.45413642985E+03  0.31373168894E+04  0.31042740484E+04 0.  0.
        1    1    3    3  502    0  0.72032985561E+03  0.13703676191E+04 -0.11476917074E+03  0.15524028069E+04  0.50400001928E-02 0. -1.
       -1    1    3    3    0  502 -0.72032985561E+03 -0.13703676191E+04 -0.33936725912E+03  0.15849140825E+04  0.50400001928E-02 0.  1.
</event>
<event>
 5   0  0.7413481E-07  0.3097383E+04  0.7818609E-02  0.8216457E-01
       -1   -1    0    0    0  501  0.00000000000E+00  0.00000000000E+00  0.10993260394E+04  0.10993260395E+04  0.50400001928E-02 0. -1.
        1   -1    0    0  501    0  0.00000000000E+00  0.00000000000E+00 -0.21817412582E+04  0.21817412582E+04  0.50400001928E-02 0.  1.
    10030    2    1    2    0    0  0.00000000000E+00  0.00000000000E+00 -0.10824152188E+04  0.32810672977E+04  0.30973827510E+04 0.  0.
        5    1    3    3  502    0  0.90747299834E+03  0.12508859866E+04 -0.43422380047E+03  0.16052399799E+04  0.46999998093E+01 0. -1.
       -5    1    3    3    0  502 -0.90747299834E+03 -0.12508859866E+04 -0.64819141829E+03  0.16758273178E+04  0.46999998093E+01 0.  1.
</event>
<event>
 5   0  0.7726743E-07  0.3099602E+04  0.7818609E-02  0.8215847E-01
       -1   -1    0    0    0  501  0.00000000000E+00  0.00000000000E+00  0.15632321592E+04  0.15632321593E+04  0.50400001928E-02 0.  1.
        1   -1    0    0  501    0  0.00000000000E+00  0.00000000000E+00 -0.15364855335E+04  0.15364855335E+04  0.50400001928E-02 0. -1.
    10030    2    1    2    0    0  0.00000000000E+00  0.00000000000E+00  0.26746625741E+02  0.30997176928E+04  0.30996022959E+04 0.  0.
        1    1    3    3  502    0 -0.60340633955E+03  0.13256655145E+03  0.14347673198E+04  0.15621236709E+04  0.50400001928E-02 0.  1.
       -1    1    3    3    0  502  0.60340633955E+03 -0.13256655145E+03 -0.14080206941E+04  0.15375940219E+04  0.50400001928E-02 0. -1.
</event>
<event>
 5   0  0.2133385E-06  0.3090599E+04  0.7818609E-02  0.8218323E-01
       -2   -1    0    0    0  501  0.00000000000E+00  0.00000000000E+00  0.14919467504E+04  0.14919467504E+04  0.25500000920E-02 0. -1.
        2   -1    0    0  501    0  0.00000000000E+00  0.00000000000E+00 -0.16005602883E+04  0.16005602883E+04  0.25500000920E-02 0.  1.
    10030    2    1    2    0    0  0.00000000000E+00  0.00000000000E+00 -0.10861353788E+03  0.30925070387E+04  0.30905991141E+04 0.  0.
        2    1    3    3  502    0  0.96309846054E+03 -0.57271566966E+03  0.10104877598E+04  0.15088563204E+04  0.25500000920E-02 0. -1.
       -2    1    3    3    0  502 -0.96309846054E+03  0.57271566966E+03 -0.11191012977E+04  0.15836507183E+04  0.25500000920E-02 0.  1.
</event>
<event>
 5   0  0.2067926E-06  0.3098675E+04  0.7818609E-02  0.8216102E-01
        2   -1    0    0  501    0  0.00000000000E+00  0.00000000000E+00  0.20746683905E+04  0.20746683905E+04  0.25500000920E-02 0. -1.
       -2   -1    0    0    0  501  0.00000000000E+00  0.00000000000E+00 -0.11570268401E+04  0.11570268402E+04  0.25500000920E-02 0.  1.
    10030    2    1    2    0    0  0.00000000000E+00  0.00000000000E+00  0.91764155036E+03  0.32316952307E+04  0.30986752087E+04 0.  0.
        1    1    3    3  502    0  0.20868530631E+03  0.70768352919E+03  0.18796859117E+04  0.20193030137E+04  0.50400001928E-02 0. -1.
       -1    1    3    3    0  502 -0.20868530631E+03 -0.70768352919E+03 -0.96204436132E+03  0.12123922170E+04  0.50400001928E-02 0.  1.
</event>
<event>
 5   0  0.7413481E-07  0.3087054E+04  0.7818609E-02  0.8219300E-01
        1   -1    0    0  501    0  0.00000000000E+00  0.00000000000E+00  0.12396259519E+04  0.12396259519E+04  0.50400001928E-02 0. -1.
       -1   -1    0    0    0  501  0.00000000000E+00  0.00000000000E+00 -0.19219311297E+04  0.19219311297E+04  0.50400001928E-02 0.  1.
    10030    2    1    2    0    0  0.00000000000E+00  0.00000000000E+00 -0.68230517783E+03  0.31615570816E+04  0.30870540689E+04 0.  0.
        5    1    3    3  502    0 -0.12849334840E+03 -0.28295258552E+03 -0.18895541184E+04  0.19149437492E+04  0.46999998093E+01 0.  1.
       -5    1    3    3    0  502  0.12849334840E+03  0.28295258552E+03  0.12072489405E+04  0.12466133325E+04  0.46999998093E+01 0. -1.
</event>
<event>
 5   0  0.2226334E-06  0.3204603E+04  0.7818609E-02  0.8187603E-01
        2   -1    0    0  501    0  0.00000000000E+00  0.00000000000E+00  0.16653775372E+04  0.16653775372E+04  0.25500000920E-02 0. -1.
       -2   -1    0    0    0  501  0.00000000000E+00  0.00000000000E+00 -0.15416147949E+04  0.15416147949E+04  0.25500000920E-02 0.  1.
    10030    2    1    2    0    0  0.00000000000E+00  0.00000000000E+00  0.12376274227E+03  0.32069923321E+04  0.32046033455E+04 0.  0.
        5    1    3    3  502    0  0.26164659110E+03 -0.74808759052E+03 -0.13317279824E+04  0.15497146482E+04  0.46999998093E+01 0.  1.
       -5    1    3    3    0  502 -0.26164659110E+03  0.74808759052E+03  0.14554907247E+04  0.16572776839E+04  0.46999998093E+01 0. -1.
</event>
<event>
 5   0  0.2226334E-06  0.3104143E+04  0.7818609E-02  0.8214602E-01
        2   -1    0    0  501    0  0.00000000000E+00  0.00000000000E+00  0.23752156977E+04  0.23752156977E+04  0.25500000920E-02 0. -1.
       -2   -1    0    0    0  501  0.00000000000E+00  0.00000000000E+00 -0.10141922913E+04  0.10141922913E+04  0.25500000920E-02 0.  1.
    10030    2    1    2    0    0  0.00000000000E+00  0.00000000000E+00  0.13610234064E+04  0.33894079891E+04  0.31041426842E+04 0.  0.
        5    1    3    3  502    0 -0.76251392469E+02  0.11296810356E+04  0.18396273260E+04  0.21601491396E+04  0.46999998093E+01 0. -1.
       -5    1    3    3    0  502  0.76251392469E+02 -0.11296810356E+04 -0.47860391960E+03  0.12292588494E+04  0.46999998093E+01 0.  1.
</event>
<event>
 5   0  0.2226334E-06  0.3081855E+04  0.7818609E-02  0.8220735E-01
        2   -1    0    0  501    0  0.00000000000E+00  0.00000000000E+00  0.23725369918E+04  0.23725369918E+04  0.25500000920E-02 0.  1.
       -2   -1    0    0    0  501  0.00000000000E+00  0.00000000000E+00 -0.10008096847E+04  0.10008096847E+04  0.25500000920E-02 0. -1.
    10030    2    1    2    0    0  0.00000000000E+00  0.00000000000E+00  0.13717273070E+04  0.33733466765E+04  0.30818552846E+04 0.  0.
        5    1    3    3  502    0 -0.62915877247E+03  0.60515462936E+03 -0.70403406594E+03  0.11214896087E+04  0.46999998093E+01 0. -1.
       -5    1    3    3    0  502  0.62915877247E+03 -0.60515462936E+03  0.20757613730E+04  0.22518570678E+04  0.46999998093E+01 0.  1.
</event>
<event>
 5   0  0.7726743E-07  0.3082834E+04  0.7818609E-02  0.8220465E-01
        1   -1    0    0  501    0  0.00000000000E+00  0.00000000000E+00  0.11089988233E+04  0.11089988233E+04  0.50400001928E-02 0.  1.
       -1   -1    0    0    0  501  0.00000000000E+00  0.00000000000E+00 -0.21424429658E+04  0.21424429659E+04  0.50400001928E-02 0. -1.
    10030    2    1    2    0    0  0.00000000000E+00  0.00000000000E+00 -0.10334441425E+04  0.32514417892E+04  0.30828342337E+04 0.  0.
        1    1    3    3  502    0  0.10929191358E+04 -0.70837401204E+03  0.35280815761E+03  0.13493478330E+04  0.50400001928E-02 0.  1.
       -1    1    3    3    0  502 -0.10929191358E+04  0.70837401204E+03 -0.13862523001E+04  0.19020939562E+04  0.50400001928E-02 0. -1.
</event>
<event>
 5   0  0.2094135E-06  0.3083745E+04  0.7818609E-02  0.8220213E-01
        2   -1    0    0  501    0  0.00000000000E+00  0.00000000000E+00  0.21931920458E+04  0.21931920458E+04  0.25500000920E-02 0. -1.
       -2   -1    0    0    0  501  0.00000000000E+00  0.00000000000E+00 -0.10839778219E+04  0.10839778219E+04  0.25500000920E-02 0.  1.
    10030    2    1    2    0    0  0.00000000000E+00  0.00000000000E+00  0.11092142239E+04  0.32771698677E+04  0.30837454738E+04 0.  0.
        4    1    3    3  502    0  0.60250359768E+03 -0.14162342750E+04  0.45582627616E+03  0.16051508695E+04  0.12699999809E+01 0. -1.
       -4    1    3    3    0  502 -0.60250359768E+03  0.14162342750E+04  0.65338794775E+03  0.16720189981E+04  0.12699999809E+01 0.  1.
</event>
<event>
 5   0  0.7726743E-07  0.3054519E+04  0.7818609E-02  0.8228332E-01
        1   -1    0    0  501    0  0.00000000000E+00  0.00000000000E+00  0.19523064741E+04  0.19523064741E+04  0.50400001928E-02 0.  1.
       -1   -1    0    0    0  501  0.00000000000E+00  0.00000000000E+00 -0.11947515274E+04  0.11947515274E+04  0.50400001928E-02 0. -1.
    10030    2    1    2    0    0  0.00000000000E+00  0.00000000000E+00  0.75755494668E+03  0.31470580015E+04  0.30545187129E+04 0.  0.
        1    1    3    3  502    0 -0.78615164923E+03  0.11853351679E+04  0.95192881872E+03  0.17114971083E+04  0.50400001928E-02 0. -1.
       -1    1    3    3    0  502  0.78615164923E+03 -0.11853351679E+04 -0.19437387205E+03  0.14355608932E+04  0.50400001928E-02 0.  1.
</event>
<event>
 5   0  0.7561815E-07  0.3124164E+04  0.7818609E-02  0.8209137E-01
        1   -1    0    0  501    0  0.00000000000E+00  0.00000000000E+00  0.23908847805E+04  0.23908847805E+04  0.50400001928E-02 0.  1.
       -1   -1    0    0    0  501  0.00000000000E+00  0.00000000000E+00 -0.10205845075E+04  0.10205845075E+04  0.50400001928E-02 0. -1.
    10030    2    1    2    0    0  0.00000000000E+00  0.00000000000E+00  0.13703002730E+04  0.34114692880E+04  0.31241638665E+04 0.  0.
        3    1    3    3  502    0 -0.11435629070E+04  0.20648507733E+03  0.18250499044E+04  0.21636033309E+04  0.10100000352E+00 0.  1.
       -3    1    3    3    0  502  0.11435629070E+04 -0.20648507733E+03 -0.45474963139E+03  0.12478659571E+04  0.10100000352E+00 0. -1.
</event>
<event>
 5   0  0.7656332E-07  0.3253460E+04  0.7818609E-02  0.8174840E-01
        1   -1    0    0  501    0  0.00000000000E+00  0.00000000000E+00  0.19385749270E+04  0.19385749270E+04  0.50400001928E-02 0.  1.
       -1   -1    0    0    0  501  0.00000000000E+00  0.00000000000E+00 -0.13650489982E+04  0.13650489982E+04  0.50400001928E-02 0. -1.
    10030    2    1    2    0    0  0.00000000000E+00  0.00000000000E+00  0.57352592874E+03  0.33036239252E+04  0.32534595508E+04 0.  0.
        2    1    3    3  502    0  0.11671761239E+04 -0.97286963679E+03  0.87664553131E+03  0.17542185787E+04  0.25500000920E-02 0.  1.
       -2    1    3    3    0  502 -0.11671761239E+04  0.97286963679E+03 -0.30311960256E+03  0.15494053465E+04  0.25500000920E-02 0. -1.
</event>
<event>
 5   0  0.2094135E-06  0.3091981E+04  0.7818609E-02  0.8217942E-01
       -2   -1    0    0    0  501  0.00000000000E+00  0.00000000000E+00  0.11142565838E+04  0.11142565838E+04  0.25500000920E-02 0. -1.
        2   -1    0    0  501    0  0.00000000000E+00  0.00000000000E+00 -0.21450059988E+04  0.21450059988E+04  0.25500000920E-02 0.  1.
    10030    2    1    2    0    0  0.00000000000E+00  0.00000000000E+00 -0.10307494150E+04  0.32592625826E+04  0.30919812784E+04 0.  0.
        4    1    3    3  502    0  0.28404354382E+03  0.15075468837E+04 -0.31341834239E+03  0.15657621185E+04  0.12699999809E+01 0. -1.
       -4    1    3    3    0  502 -0.28404354382E+03 -0.15075468837E+04 -0.71733107261E+03  0.16935004641E+04  0.12699999809E+01 0.  1.
</event>
<event>
 5   0  0.7519202E-07  0.3096062E+04  0.7818609E-02  0.8216820E-01
       -1   -1    0    0    0  501  0.00000000000E+00  0.00000000000E+00  0.12962161222E+04  0.12962161222E+04  0.50400001928E-02 0.  1.
        1   -1    0    0  501    0  0.00000000000E+00  0.00000000000E+00 -0.18487655526E+04  0.18487655526E+04  0.50400001928E-02 0. -1.
    10030    2    1    2    0    0  0.00000000000E+00  0.00000000000E+00 -0.55254943037E+03  0.31449816748E+04  0.30960618311E+04 0.  0.
        4    1    3    3  502    0 -0.96194448218E+03  0.11823382542E+04 -0.55098667369E+03  0.16207556453E+04  0.12699999809E+01 0. -1.
       -4    1    3    3    0  502  0.96194448218E+03 -0.11823382542E+04 -0.15627566837E+01  0.15242260296E+04  0.12699999809E+01 0.  1.
</event>
<event>
 5   0  0.7561815E-07  0.3098635E+04  0.7818609E-02  0.8216113E-01
        1   -1    0    0  501    0  0.00000000000E+00  0.00000000000E+00  0.16687471613E+04  0.16687471614E+04  0.50400001928E-02 0.  1.
       -1   -1    0    0    0  501  0.00000000000E+00  0.00000000000E+00 -0.14384354788E+04  0.14384354788E+04  0.50400001928E-02 0. -1.
    10030    2    1    2    0    0  0.00000000000E+00  0.00000000000E+00  0.23031168258E+03  0.31071826401E+04  0.30986352622E+04 0.  0.
        3    1    3    3  502    0  0.10196699833E+04 -0.11550191901E+04 -0.48355005862E+02  0.15414715116E+04  0.10100000352E+00 0. -1.
       -3    1    3    3    0  502 -0.10196699833E+04  0.11550191901E+04  0.27866668844E+03  0.15657111285E+04  0.10100000352E+00 0.  1.
</event>
<event>
 5   0  0.2067926E-06  0.3099796E+04  0.7818609E-02  0.8215794E-01
        2   -1    0    0  501    0  0.00000000000E+00  0.00000000000E+00  0.12820767444E+04  0.12820767444E+04  0.25500000920E-02 0.  1.
       -2   -1    0    0    0  501  0.00000000000E+00  0.00000000000E+00 -0.18736659428E+04  0.18736659428E+04  0.25500000920E-02 0. -1.
    10030    2    1    2    0    0  0.00000000000E+00  0.00000000000E+00 -0.59158919833E+03  0.31557426872E+04  0.30997958204E+04 0.  0.
        1    1    3    3  502    0 -0.28291699995E+03 -0.12538712332E+04 -0.11774202092E+04  0.17431447006E+04  0.50400001928E-02 0. -1.
       -1    1    3    3    0  502  0.28291699995E+03  0.12538712332E+04  0.58583101084E+03  0.14125979866E+04  0.50400001928E-02 0.  1.
</event>
<event>
 5   0  0.2226334E-06  0.3099905E+04  0.7818609E-02  0.8215764E-01
       -2   -1    0    0    0  501  0.00000000000E+00  0.00000000000E+00  0.11662238451E+04  0.11662238451E+04  0.25500000920E-02 0.  1.
        2   -1    0    0  501    0  0.00000000000E+00  0.00000000000E+00 -0.20599416018E+04  0.20599416019E+04  0.25500000920E-02 0. -1.
    10030    2    1    2    0    0  0.00000000000E+00  0.00000000000E+00 -0.89371775680E+03  0.32261654469E+04  0.30999051698E+04 0.  0.
        5    1    3    3  502    0 -0.10127900554E+04 -0.11086292524E+04 -0.84659745162E+03  0.17238189727E+04  0.46999998093E+01 0. -1.
       -5    1    3    3    0  502  0.10127900554E+04  0.11086292524E+04 -0.47120305178E+02  0.15023464742E+04  0.46999998093E+01 0.  1.
</event>
<event>
 5   0  0.7519202E-07  0.3102853E+04  0.7818609E-02  0.8214955E-01
       -1   -1    0    0    0  501  0.00000000000E+00  0.00000000000E+00  0.86449511114E+03  0.86449511116E+03  0.50400001928E-02 0.  1.
        1   -1    0    0  501    0  0.00000000000E+00  0.00000000000E+00 -0.27841957159E+04  0.27841957159E+04  0.50400001928E-02 0. -1.
    10030    2    1    2    0    0  0.00000000000E+00  0.00000000000E+00 -0.19197006047E+04  0.36486908270E+04  0.31028526132E+04 0.  0.
        4    1    3    3  502    0  0.13155337305E+04  0.82189811117E+03 -0.92708316983E+03  0.18071055083E+04  0.12699999809E+01 0. -1.
       -4    1    3    3    0  502 -0.13155337305E+04 -0.82189811117E+03 -0.99261743488E+03  0.18415853188E+04  0.12699999809E+01 0.  1.
</event>
<event>
 5   0  0.2094135E-06  0.3090184E+04  0.7818609E-02  0.8218437E-01
        2   -1    0    0  501    0  0.00000000000E+00  0.00000000000E+00  0.24165642859E+04  0.24165642859E+04  0.25500000920E-02 0.  1.
       -2   -1    0    0    0  501  0.00000000000E+00  0.00000000000E+00 -0.98789382679E+03  0.98789382680E+03  0.25500000920E-02 0. -1.
    10030    2    1    2    0    0  0.00000000000E+00  0.00000000000E+00  0.14286704591E+04  0.34044581127E+04  0.30901837746E+04 0.  0.
        4    1    3    3  502    0 -0.15077209466E+04  0.18366188510E+03  0.10266303788E+04  0.18332827628E+04  0.12699999809E+01 0.  1.
       -4    1    3    3    0  502  0.15077209466E+04 -0.18366188510E+03  0.40204008037E+03  0.15711753499E+04  0.12699999809E+01 0. -1.
</event>
<event>
 5   0  0.2133385E-06  0.2975304E+04  0.7818609E-02  0.8250818E-01
        2   -1    0    0  501    0  0.00000000000E+00  0.00000000000E+00  0.22409688174E+04  0.22409688174E+04  0.25500000920E-02 0.  1.
       -2   -1    0    0    0  501  0.00000000000E+00  0.00000000000E+00 -0.98756791171E+03  0.98756791171E+03  0.25500000920E-02 0. -1.
    10030    2    1    2    0    0  0.00000000000E+00  0.00000000000E+00  0.12534009057E+04  0.32285367291E+04  0.29753042838E+04 0.  0.
        2    1    3    3  502    0  0.76020173006E+03  0.98472515135E+03  0.15119270278E+04  0.19579360642E+04  0.25500000920E-02 0.  1.
       -2    1    3    3    0  502 -0.76020173006E+03 -0.98472515135E+03 -0.25852612203E+03  0.12706006650E+04  0.25500000920E-02 0. -1.
</event>
<event>
 5   0  0.7726743E-07  0.3051190E+04  0.7818609E-02  0.8229262E-01
        1   -1    0    0  501    0  0.00000000000E+00  0.00000000000E+00  0.22992906169E+04  0.22992906169E+04  0.50400001928E-02 0. -1.
       -1   -1    0    0    0  501  0.00000000000E+00  0.00000000000E+00 -0.10122428001E+04  0.10122428001E+04  0.50400001928E-02 0.  1.
    10030    2    1    2    0    0  0.00000000000E+00  0.00000000000E+00  0.12870478168E+04  0.33115334170E+04  0.30511901758E+04 0.  0.
        1    1    3    3  502    0  0.74020744624E+03  0.10013104100E+04  0.16001570796E+04  0.20275680704E+04  0.50400001928E-02 0. -1.
       -1    1    3    3    0  502 -0.74020744624E+03 -0.10013104100E+04 -0.31310926277E+03  0.12839653466E+04  0.50400001928E-02 0.  1.
</event>
<event>
 5   0  0.2133385E-06  0.3088281E+04  0.7818609E-02  0.8218962E-01
       -2   -1    0    0    0  501  0.00000000000E+00  0.00000000000E+00  0.10866369309E+04  0.10866369309E+04  0.25500000920E-02 0.  1.
        2   -1    0    0  501    0  0.00000000000E+00  0.00000000000E+00 -0.21942650255E+04  0.21942650255E+04  0.25500000920E-02 0. -1.
    10030    2    1    2    0    0  0.00000000000E+00  0.00000000000E+00 -0.11076280945E+04  0.32809019564E+04  0.30882806951E+04 0.  0.
        2    1    3    3  502    0  0.93477896709E+02  0.15100458288E+04 -0.88193539774E+03  0.17512243055E+04  0.25500000920E-02 0. -1.
       -2    1    3    3    0  502 -0.93477896709E+02 -0.15100458288E+04 -0.22569269678E+03  0.15296776509E+04  0.25500000920E-02 0.  1.
</event>
<event>
 5   0  0.7656332E-07  0.3128328E+04  0.7818609E-02  0.8208006E-01
       -1   -1    0    0    0  501  0.00000000000E+00  0.00000000000E+00  0.15584994296E+04  0.15584994296E+04  0.50400001928E-02 0. -1.
        1   -1    0    0  501    0  0.00000000000E+00  0.00000000000E+00 -0.15698491614E+04  0.15698491614E+04  0.50400001928E-02 0.  1.
    10030    2    1    2    0    0  0.00000000000E+00  0.00000000000E+00 -0.11349731865E+02  0.31283485910E+04  0.31283280024E+04 0.  0.
        2    1    3    3  502    0 -0.53658924911E+03  0.14508821497E+04 -0.23724060979E+03  0.15650144222E+04  0.25500000920E-02 0.  1.
       -2    1    3    3    0  502  0.53658924911E+03 -0.14508821497E+04  0.22589087793E+03  0.15633341688E+04  0.25500000920E-02 0. -1.
</event>
<event>
 5   0  0.7519202E-07  0.3096812E+04  0.7818609E-02  0.8216613E-01
        1   -1    0    0  501    0  0.00000000000E+00  0.00000000000E+00  0.13765094341E+04  0.13765094341E+04  0.50400001928E-02 0. -1.
       -1   -1    0    0    0  501  0.00000000000E+00  0.00000000000E+00 -0.17417682566E+04  0.17417682566E+04  0.50400001928E-02 0.  1.
    10030    2    1    2    0    0  0.00000000000E+00  0.00000000000E+00 -0.36525882252E+03  0.31182776907E+04  0.30968115456E+04 0.  0.
        4    1    3    3  502    0 -0.15198367635E+04  0.11538249589E+03  0.91917704991E+02  0.15269798248E+04  0.12699999809E+01 0. -1.
       -4    1    3    3    0  502  0.15198367635E+04 -0.11538249589E+03 -0.45717652751E+03  0.15912978659E+04  0.12699999809E+01 0.  1.
</event>
<event>
 5   0  0.2067926E-06  0.3104364E+04  0.7818609E-02  0.8214541E-01
        2   -1    0    0  501    0  0.00000000000E+00  0.00000000000E+00  0.21726366353E+04  0.21726366353E+04  0.25500000920E-02 0.  1.
       -2   -1    0    0    0  501  0.00000000000E+00  0.00000000000E+00 -0.11089144734E+04  0.11089144734E+04  0.25500000920E-02 0. -1.
    10030    2    1    2    0    0  0.00000000000E+00  0.00000000000E+00  0.10637221619E+04  0.32815511087E+04  0.31043635163E+04 0.  0.
        1    1    3    3  502    0  0.14562747073E+04  0.49429997207E+03  0.30962407192E+03  0.15687369287E+04  0.50400001928E-02 0. -1.
       -1    1    3    3    0  502 -0.14562747073E+04 -0.49429997207E+03  0.75409809003E+03  0.17128141800E+04  0.50400001928E-02 0.  1.
</event>
<event>
 5   0  0.2133385E-06  0.2957332E+04  0.7818609E-02  0.8256021E-01
       -2   -1    0    0    0  501  0.00000000000E+00  0.00000000000E+00  0.11020178527E+04  0.11020178527E+04  0.25500000920E-02 0.  1.
        2   -1    0    0  501    0  0.00000000000E+00  0.00000000000E+00 -0.19840448141E+04  0.19840448141E+04  0.25500000920E-02 0. -1.
    10030    2    1    2    0    0  0.00000000000E+00  0.00000000000E+00 -0.88202696142E+03  0.30860626668E+04  0.29573317742E+04 0.  0.
        2    1    3    3  502    0 -0.41901866053E+03  0.31531662657E+03  0.10017207740E+04  0.11306837409E+04  0.25500000920E-02 0.  1.
       -2    1    3    3    0  502  0.41901866053E+03 -0.31531662657E+03 -0.18837477354E+04  0.19553789258E+04  0.25500000920E-02 0. -1.
</event>
<event>
 5   0  0.7726743E-07  0.3090523E+04  0.7818609E-02  0.8218344E-01
        1   -1    0    0  501    0  0.00000000000E+00  0.00000000000E+00  0.18357411857E+04  0.18357411857E+04  0.50400001928E-02 0. -1.
       -1   -1    0    0    0  501  0.00000000000E+00  0.00000000000E+00 -0.13007456587E+04  0.13007456587E+04  0.50400001928E-02 0.  1.
    10030    2    1    2    0    0  0.00000000000E+00  0.00000000000E+00  0.53499552697E+03  0.31364868444E+04  0.30905225304E+04 0.  0.
        1    1    3    3  502    0  0.73870649991E+03  0.88156888380E+03 -0.77982987666E+03  0.13895990884E+04  0.50400001928E-02 0.  1.
       -1    1    3    3    0  502 -0.73870649991E+03 -0.88156888380E+03  0.13148254036E+04  0.17468877560E+04  0.50400001928E-02 0. -1.
</event>
<event>
 5   0  0.7656332E-07  0.3052726E+04  0.7818609E-02  0.8228833E-01
        1   -1    0    0  501    0  0.00000000000E+00  0.00000000000E+00  0.20310292492E+04  0.20310292492E+04  0.50400001928E-02 0. -1.
       -1   -1    0    0    0  501  0.00000000000E+00  0.00000000000E+00 -0.11470955103E+04  0.11470955103E+04  0.50400001928E-02 0.  1.
    10030    2    1    2    0    0  0.00000000000E+00  0.00000000000E+00  0.88393373885E+03  0.31781247595E+04  0.30527263441E+04 0.  0.
        2    1    3    3  502    0 -0.79413631319E+03  0.12948437689E+04  0.59816896629E+03  0.16325069623E+04  0.25500000920E-02 0. -1.
       -2    1    3    3    0  502  0.79413631319E+03 -0.12948437689E+04  0.28576477256E+03  0.15456177972E+04  0.25500000920E-02 0.  1.
</event>
<event>
 5   0  0.2067926E-06  0.3086856E+04  0.7818609E-02  0.8219354E-01
        2   -1    0    0  501    0  0.00000000000E+00  0.00000000000E+00  0.23804190729E+04  0.23804190729E+04  0.25500000920E-02 0.  1.
       -2   -1    0    0    0  501  0.00000000000E+00  0.00000000000E+00 -0.10007358170E+04  0.10007358170E+04  0.25500000920E-02 0. -1.
    10030    2    1    2    0    0  0.00000000000E+00  0.00000000000E+00  0.13796832558E+04  0.33811548899E+04  0.30868564112E+04 0.  0.
        1    1    3    3  502    0  0.60338596674E+03 -0.75805620545E+03  0.20058208355E+04  0.22275639294E+04  0.50400001928E-02 0.  1.
       -1    1    3    3    0  502 -0.60338596674E+03  0.75805620545E+03 -0.62613757965E+03  0.11535909605E+04  0.50400001928E-02 0. -1.
</event>
<event>
 5   0  0.7656332E-07  0.3097949E+04  0.7818609E-02  0.8216301E-01
       -1   -1    0    0    0  501  0.00000000000E+00  0.00000000000E+00  0.11796810702E+04  0.11796810702E+04  0.50400001928E-02 0. -1.
        1   -1    0    0  501    0  0.00000000000E+00  0.00000000000E+00 -0.20338733194E+04  0.20338733194E+04  0.50400001928E-02 0.  1.
    10030    2    1    2    0    0  0.00000000000E+00  0.00000000000E+00 -0.85419224915E+03  0.32135543896E+04  0.30979489048E+04 0.  0.
        2    1    3    3  502    0 -0.71063393198E+03 -0.28926333196E+03  0.96872066550E+03  0.12357562819E+04  0.25500000920E-02 0. -1.
       -2    1    3    3    0  502  0.71063393198E+03  0.28926333196E+03 -0.18229129146E+04  0.19777981077E+04  0.25500000920E-02 0.  1.
</event>
<event>
 5   0  0.7561815E-07  0.3070792E+04  0.7818609E-02  0.8223800E-01
       -1   -1    0    0    0  501  0.00000000000E+00  0.00000000000E+00  0.15020974307E+04  0.15020974307E+04  0.50400001928E-02 0.  1.
        1   -1    0    0  501    0  0.00000000000E+00  0.00000000000E+00 -0.15694329350E+04  0.15694329350E+04  0.50400001928E-02 0. -1.
    10030    2    1    2    0    0  0.00000000000E+00  0.00000000000E+00 -0.67335504315E+02  0.30715303657E+04  0.30707921971E+04 0.  0.
        3    1    3    3  502    0  0.63405147845E+03  0.12155679783E+04  0.65773960044E+03  0.15206078322E+04  0.10100000352E+00 0. -1.
       -3    1    3    3    0  502 -0.63405147845E+03 -0.12155679783E+04 -0.72507510476E+03  0.15509225335E+04  0.10100000352E+00 0.  1.
</event>
<event>
 5   0  0.2094135E-06  0.3084856E+04  0.7818609E-02  0.8219906E-01
       -2   -1    0    0    0  501  0.00000000000E+00  0.00000000000E+00  0.16299850003E+04  0.16299850003E+04  0.25500000920E-02 0. -1.
        2   -1    0    0  501    0  0.00000000000E+00  0.00000000000E+00 -0.14595745230E+04  0.14595745230E+04  0.25500000920E-02 0.  1.
    10030    2    1    2    0    0  0.00000000000E+00  0.00000000000E+00  0.17041047728E+03  0.30895595234E+04  0.30848562880E+04 0.  0.
        4    1    3    3  502    0 -0.11922279595E+04  0.15375200646E+03 -0.88272350416E+03  0.14913918280E+04  0.12699999809E+01 0.  1.
       -4    1    3    3    0  502  0.11922279595E+04 -0.15375200646E+03  0.10531339814E+04  0.15981676954E+04  0.12699999809E+01 0. -1.
</event>
<event>
 5   0  0.2094135E-06  0.3162473E+04  0.7818609E-02  0.8198799E-01
       -2   -1    0    0    0  501  0.00000000000E+00  0.00000000000E+00  0.14145802573E+04  0.14145802573E+04  0.25500000920E-02 0.  1.
        2   -1    0    0  501    0  0.00000000000E+00  0.00000000000E+00 -0.17675272624E+04  0.17675272624E+04  0.25500000920E-02 0. -1.
    10030    2    1    2    0    0  0.00000000000E+00  0.00000000000E+00 -0.35294700513E+03  0.31821075197E+04  0.31624731901E+04 0.  0.
        4    1    3    3  502    0  0.12282741175E+04  0.27030737260E+03  0.78790490198E+03  0.14840886533E+04  0.12699999809E+01 0.  1.
       -4    1    3    3    0  502 -0.12282741175E+04 -0.27030737260E+03 -0.11408519071E+04  0.16980188663E+04  0.12699999809E+01 0. -1.
</event>
<event>
 5   0  0.2094135E-06  0.3101425E+04  0.7818609E-02  0.8215347E-01
       -2   -1    0    0    0  501  0.00000000000E+00  0.00000000000E+00  0.11798059867E+04  0.11798059867E+04  0.25500000920E-02 0. -1.
        2   -1    0    0  501    0  0.00000000000E+00  0.00000000000E+00 -0.20382240436E+04  0.20382240436E+04  0.25500000920E-02 0.  1.
    10030    2    1    2    0    0  0.00000000000E+00  0.00000000000E+00 -0.85841805686E+03  0.32180300303E+04  0.31014247879E+04 0.  0.
        4    1    3    3  502    0  0.98983667993E+03  0.11659192558E+04 -0.16352950176E+03  0.15381442958E+04  0.12699999809E+01 0.  1.
       -4    1    3    3    0  502 -0.98983667993E+03 -0.11659192558E+04 -0.69488855510E+03  0.16798857344E+04  0.12699999809E+01 0. -1.
</event>
<event>
 5   0  0.2078009E-06  0.3099876E+04  0.7818609E-02  0.8215772E-01
       -2   -1    0    0    0  501  0.00000000000E+00  0.00000000000E+00  0.93065201298E+03  0.93065201298E+03  0.25500000920E-02 0. -1.
        2   -1    0    0  501    0  0.00000000000E+00  0.00000000000E+00 -0.25813176766E+04  0.25813176766E+04  0.25500000920E-02 0.  1.
    10030    2    1    2    0    0  0.00000000000E+00  0.00000000000E+00 -0.16506656636E+04  0.35119696896E+04  0.30998764439E+04 0.  0.
        3    1    3    3  502    0 -0.14189971557E+04 -0.24075586088E+03 -0.17372846646E+03  0.14497233883E+04  0.10100000352E+00 0. -1.
       -3    1    3    3    0  502  0.14189971557E+04  0.24075586088E+03 -0.14769371971E+04  0.20622463012E+04  0.10100000352E+00 0.  1.
</event>
<event>
 5   0  0.7726743E-07  0.3120915E+04  0.7818609E-02  0.8210021E-01
        1   -1    0    0  501    0  0.00000000000E+00  0.00000000000E+00  0.92753916593E+03  0.92753916595E+03  0.50400001928E-02 0. -1.
       -1   -1    0    0    0  501  0.00000000000E+00  0.00000000000E+00 -0.26252564264E+04  0.26252564265E+04  0.50400001928E-02 0.  1.
    10030    2    1    2    0    0  0.00000000000E+00  0.00000000000E+00 -0.16977172605E+04  0.35527955924E+04  0.31209153505E+04 0.  0.
        1    1    3    3  502    0  0.10915662045E+04 -0.10363537927E+04 -0.13175104098E+04  0.20003448808E+04  0.50400001928E-02 0. -1.
       -1    1    3    3    0  502 -0.10915662045E+04  0.10363537927E+04 -0.38020685076E+03  0.15524507116E+04  0.50400001928E-02 0.  1.
</event>
<event>
 5   0  0.2133385E-06  0.3008444E+04  0.7818609E-02  0.8241324E-01
       -2   -1    0    0    0  501  0.00000000000E+00  0.00000000000E+00  0.16020635002E+04  0.16020635002E+04  0.25500000920E-02 0. -1.
        2   -1    0    0  501    0  0.00000000000E+00  0.00000000000E+00 -0.14123563288E+04  0.14123563288E+04  0.25500000920E-02 0.  1.
    10030    2    1    2    0    0  0.00000000000E+00  0.00000000000E+00  0.18970717139E+03  0.30144198290E+04  0.30084444643E+04 0.  0.
        2    1    3    3  502    0  0.87328115030E+03  0.51555381686E+03  0.12080367200E+04  0.15772661229E+04  0.25500000920E-02 0. -1.
       -2    1    3    3    0  502 -0.87328115030E+03 -0.51555381686E+03 -0.10183295486E+04  0.14371537062E+04  0.25500000920E-02 0.  1.
</event>
<event>
 5   0  0.2067926E-06  0.3101827E+04  0.7818609E-02  0.8215237E-01
        2   -1    0    0  501    0  0.00000000000E+00  0.00000000000E+00  0.15698771312E+04  0.15698771312E+04  0.25500000920E-02 0.  1.
       -2   -1    0    0    0  501  0.00000000000E+00  0.00000000000E+00 -0.15321789724E+04  0.15321789724E+04  0.25500000920E-02 0. -1.
    10030    2    1    2    0    0  0.00000000000E+00  0.00000000000E+00  0.37698158822E+02  0.31020561036E+04  0.31018270291E+04 0.  0.
        1    1    3    3  502    0  0.19032401056E+03 -0.14855882423E+04  0.42154129948E+03  0.15559218238E+04  0.50400001928E-02 0.  1.
       -1    1    3    3    0  502 -0.19032401056E+03  0.14855882423E+04 -0.38384314066E+03  0.15461342798E+04  0.50400001928E-02 0. -1.
</event>
<event>
 5   0  0.7656332E-07  0.3113421E+04  0.7818609E-02  0.8212064E-01
        1   -1    0    0  501    0  0.00000000000E+00  0.00000000000E+00  0.12519421152E+04  0.12519421152E+04  0.50400001928E-02 0. -1.
       -1   -1    0    0    0  501  0.00000000000E+00  0.00000000000E+00 -0.19356701928E+04  0.19356701928E+04  0.50400001928E-02 0.  1.
    10030    2    1    2    0    0  0.00000000000E+00  0.00000000000E+00 -0.68372807757E+03  0.31876123080E+04  0.31134206497E+04 0.  0.
        2    1    3    3  502    0  0.12629137381E+04 -0.89337169391E+03 -0.52003081690E+03  0.16320221028E+04  0.25500000920E-02 0.  1.
       -2    1    3    3    0  502 -0.12629137381E+04  0.89337169391E+03 -0.16369726067E+03  0.15555902052E+04  0.25500000920E-02 0. -1.
</event>
<event>
 5   0  0.7656332E-07  0.3093716E+04  0.7818609E-02  0.8217465E-01
       -1   -1    0    0    0  501  0.00000000000E+00  0.00000000000E+00  0.97927455554E+03  0.97927455555E+03  0.50400001928E-02 0. -1.
        1   -1    0    0  501    0  0.00000000000E+00  0.00000000000E+00 -0.24434098275E+04  0.24434098276E+04  0.50400001928E-02 0.  1.
    10030    2    1    2    0    0  0.00000000000E+00  0.00000000000E+00 -0.14641352720E+04  0.34226843831E+04  0.30937156126E+04 0.  0.
        2    1    3    3  502    0 -0.12681553421E+04  0.13650142418E+03 -0.17002958492E+04  0.21255250140E+04  0.25500000920E-02 0.  1.
       -2    1    3    3    0  502  0.12681553421E+04 -0.13650142418E+03  0.23616057716E+03  0.12971593691E+04  0.25500000920E-02 0. -1.
</event>
<event>
 5   0  0.2094135E-06  0.3010066E+04  0.7818609E-02  0.8240862E-01
        2   -1    0    0  501    0  0.00000000000E+00  0.00000000000E+00  0.87114911876E+03  0.87114911876E+03  0.25500000920E-02 0.  1.
       -2   -1    0    0    0  501  0.00000000000E+00  0.00000000000E+00 -0.26001570989E+04  0.26001570989E+04  0.25500000920E-02 0. -1.
    10030    2    1    2    0    0  0.00000000000E+00  0.00000000000E+00 -0.17290079801E+04  0.34713062176E+04  0.30100661556E+04 0.  0.
        4    1    3    3  502    0 -0.10278548839E+04  0.81094100482E+03 -0.84573935713E+01  0.13092685424E+04  0.12699999809E+01 0.  1.
       -4    1    3    3    0  502  0.10278548839E+04 -0.81094100482E+03 -0.17205505865E+04  0.21620376753E+04  0.12699999809E+01 0. -1.
</event>
<event>
 5   0  0.2094135E-06  0.3102719E+04  0.7818609E-02  0.8214992E-01
       -2   -1    0    0    0  501  0.00000000000E+00  0.00000000000E+00  0.12936881996E+04  0.12936881996E+04  0.25500000920E-02 0.  1.
        2   -1    0    0  501    0  0.00000000000E+00  0.00000000000E+00 -0.18603525939E+04  0.18603525939E+04  0.25500000920E-02 0. -1.
    10030    2    1    2    0    0  0.00000000000E+00  0.00000000000E+00 -0.56666439430E+03  0.31540407935E+04  0.31027189353E+04 0.  0.
        4    1    3    3  502    0  0.69869122001E+03  0.58652618926E+02  0.11234315535E+04  0.13242770174E+04  0.12699999809E+01 0.  1.
       -4    1    3    3    0  502 -0.69869122001E+03 -0.58652618926E+02 -0.16900959478E+04  0.18297637761E+04  0.12699999809E+01 0. -1.
</event>
<event>
 5   0  0.2094135E-06  0.3150842E+04  0.7818609E-02  0.8201922E-01
       -2   -1    0    0    0  501  0.00000000000E+00  0.00000000000E+00  0.10040737525E+04  0.10040737525E+04  0.25500000920E-02 0. -1.
        2   -1    0    0  501    0  0.00000000000E+00  0.00000000000E+00 -0.24718809764E+04  0.24718809764E+04  0.25500000920E-02 0.  1.
    10030    2    1    2    0    0  0.00000000000E+00  0.00000000000E+00 -0.14678072239E+04  0.34759547289E+04  0.31508416702E+04 0.  0.
        4    1    3    3  502    0 -0.95840535555E+02 -0.75682028374E+03  0.78672384530E+03  0.10958550870E+04  0.12699999809E+01 0. -1.
       -4    1    3    3    0  502  0.95840535555E+02  0.75682028374E+03 -0.22545310692E+04  0.23800996418E+04  0.12699999809E+01 0.  1.
</event>
<event>
 5   0  0.7561815E-07  0.2988614E+04  0.7818609E-02  0.8246990E-01
       -1   -1    0    0    0  501  0.00000000000E+00  0.00000000000E+00  0.17893666813E+04  0.17893666813E+04  0.50400001928E-02 0.  1.
        1   -1    0    0  501    0  0.00000000000E+00  0.00000000000E+00 -0.12479016045E+04  0.12479016045E+04  0.50400001928E-02 0. -1.
    10030    2    1    2    0    0  0.00000000000E+00  0.00000000000E+00  0.54146507677E+03  0.30372682858E+04  0.29886140953E+04 0.  0.
        3    1    3    3  502    0 -0.11186669033E+04  0.23348598260E+03 -0.70776194566E+03  0.13441943038E+04  0.10100000352E+00 0. -1.
       -3    1    3    3    0  502  0.11186669033E+04 -0.23348598260E+03  0.12492270224E+04  0.16930739819E+04  0.10100000352E+00 0.  1.
</event>
<event>
 5   0  0.7413481E-07  0.2778722E+04  0.7818609E-02  0.8309905E-01
        1   -1    0    0  501    0  0.00000000000E+00  0.00000000000E+00  0.20046537392E+04  0.20046537392E+04  0.50400001928E-02 0. -1.
       -1   -1    0    0    0  501  0.00000000000E+00  0.00000000000E+00 -0.96292146587E+03  0.96292146589E+03  0.50400001928E-02 0.  1.
    10030    2    1    2    0    0  0.00000000000E+00  0.00000000000E+00  0.10417322733E+04  0.29675752051E+04  0.27787220927E+04 0.  0.
        5    1    3    3  502    0  0.37081319618E+03  0.76508360042E+03  0.16943864230E+04  0.18957380574E+04  0.46999998093E+01 0. -1.
       -5    1    3    3    0  502 -0.37081319618E+03 -0.76508360042E+03 -0.65265414963E+03  0.10718371477E+04  0.46999998093E+01 0.  1.
</event>
<event>
 5   0  0.2133385E-06  0.3105924E+04  0.7818609E-02  0.8214114E-01
       -2   -1    0    0    0  501  0.00000000000E+00  0.00000000000E+00  0.14223520280E+04  0.14223520280E+04  0.25500000920E-02 0.  1.
        2   -1    0    0  501    0  0.00000000000E+00  0.00000000000E+00 -0.16955655552E+04  0.16955655552E+04  0.25500000920E-02 0. -1.
    10030    2    1    2    0    0  0.00000000000E+00  0.00000000000E+00 -0.27321352725E+03  0.31179175832E+04  0.31059240854E+04 0.  0.
        2    1    3    3  502    0 -0.83312030822E+03  0.93256323012E+03 -0.10609923174E+04  0.16399598543E+04  0.25500000920E-02 0. -1.
       -2    1    3    3    0  502  0.83312030822E+03 -0.93256323012E+03  0.78777879017E+03  0.14779577289E+04  0.25500000920E-02 0.  1.
</event>
<event>
 5   0  0.7656332E-07  0.3088611E+04  0.7818609E-02  0.8218870E-01
        1   -1    0    0  501    0  0.00000000000E+00  0.00000000000E+00  0.13271687033E+04  0.13271687033E+04  0.50400001928E-02 0. -1.
       -1   -1    0    0    0  501  0.00000000000E+00  0.00000000000E+00 -0.17969683183E+04  0.17969683183E+04  0.50400001928E-02 0.  1.
    10030    2    1    2    0    0  0.00000000000E+00  0.00000000000E+00 -0.46979961504E+03  0.31241370216E+04  0.30886114116E+04 0.  0.
        2    1    3    3  502    0  0.14563810745E+04 -0.51328839280E+03 -0.25433814837E+03  0.15649915980E+04  0.25500000920E-02 0.  1.
       -2    1    3    3    0  502 -0.14563810745E+04  0.51328839280E+03 -0.21546146667E+03  0.15591454236E+04  0.25500000920E-02 0. -1.
</event>
<event>
 5   0  0.7656332E-07  0.3102273E+04  0.7818609E-02  0.8215115E-01
        1   -1    0    0  501    0  0.00000000000E+00  0.00000000000E+00  0.22928097895E+04  0.22928097895E+04  0.50400001928E-02 0. -1.
       -1   -1    0    0    0  501  0.00000000000E+00  0.00000000000E+00 -0.10493778117E+04  0.10493778117E+04  0.50400001928E-02 0.  1.
    10030    2    1    2    0    0  0.00000000000E+00  0.00000000000E+00  0.12434319778E+04  0.33421876012E+04  0.31022725345E+04 0.  0.
        2    1    3    3  502    0 -0.62861215197E+03  0.11086721786E+04 -0.33080709720E+03  0.13167158284E+04  0.25500000920E-02 0.  1.
       -2    1    3    3    0  502  0.62861215197E+03 -0.11086721786E+04  0.15742390750E+04  0.20254717728E+04  0.25500000920E-02 0. -1.
</event>
<event>
 5   0  0.7726743E-07  0.3123907E+04  0.7818609E-02  0.8209207E-01
        1   -1    0    0  501    0  0.00000000000E+00  0.00000000000E+00  0.21772228783E+04  0.21772228784E+04  0.50400001928E-02 0.  1.
       -1   -1    0    0    0  501  0.00000000000E+00  0.00000000000E+00 -0.11205554922E+04  0.11205554922E+04  0.50400001928E-02 0. -1.
    10030    2    1    2    0    0  0.00000000000E+00  0.00000000000E+00  0.10566673862E+04  0.32977783706E+04  0.31239072035E+04 0.  0.
        1    1    3    3  502    0  0.98674828130E+03  0.52081782319E+03 -0.62556193345E+03  0.12791603137E+04  0.50400001928E-02 0. -1.
       -1    1    3    3    0  502 -0.98674828130E+03 -0.52081782319E+03  0.16822293196E+04  0.20186180568E+04  0.50400001928E-02 0.  1.
</event>
<event>
 5   0  0.2133385E-06  0.3092098E+04  0.7818609E-02  0.8217910E-01
       -2   -1    0    0    0  501  0.00000000000E+00  0.00000000000E+00  0.31610422012E+04  0.31610422012E+04  0.25500000920E-02 0. -1.
        2   -1    0    0  501    0  0.00000000000E+00  0.00000000000E+00 -0.75616429144E+03  0.75616429144E+03  0.25500000920E-02 0.  1.
    10030    2    1    2    0    0  0.00000000000E+00  0.00000000000E+00  0.24048779098E+04  0.39172064927E+04  0.30920978227E+04 0.  0.
        2    1    3    3  502    0 -0.37042919174E+03 -0.14755797853E+04  0.85385241624E+03  0.17445966403E+04  0.25500000920E-02 0.  1.
       -2    1    3    3    0  502  0.37042919174E+03  0.14755797853E+04  0.15510254936E+04  0.21726098523E+04  0.25500000920E-02 0. -1.
</event>
<event>
 5   0  0.2094135E-06  0.2997055E+04  0.7818609E-02  0.8244572E-01
        2   -1    0    0  501    0  0.00000000000E+00  0.00000000000E+00  0.13769758864E+04  0.13769758864E+04  0.25500000920E-02 0. -1.
       -2   -1    0    0    0  501  0.00000000000E+00  0.00000000000E+00 -0.16308089566E+04  0.16308089566E+04  0.25500000920E-02 0.  1.
    10030    2    1    2    0    0  0.00000000000E+00  0.00000000000E+00 -0.25383307014E+03  0.30077848430E+04  0.29970549602E+04 0.  0.
        4    1    3    3  502    0  0.82587709626E+03  0.10602146555E+04  0.53837073865E+03  0.14477474776E+04  0.12699999809E+01 0. -1.
       -4    1    3    3    0  502 -0.82587709626E+03 -0.10602146555E+04 -0.79220380879E+03  0.15600373654E+04  0.12699999809E+01 0.  1.
</event>
<event>
 5   0  0.7726743E-07  0.3104083E+04  0.7818609E-02  0.8214618E-01
        1   -1    0    0  501    0  0.00000000000E+00  0.00000000000E+00  0.18770863537E+04  0.18770863537E+04  0.50400001928E-02 0.  1.
       -1   -1    0    0    0  501  0.00000000000E+00  0.00000000000E+00 -0.12832828451E+04  0.12832828451E+04  0.50400001928E-02 0. -1.
    10030    2    1    2    0    0  0.00000000000E+00  0.00000000000E+00  0.59380350867E+03  0.31603691988E+04  0.31040829348E+04 0.  0.
        1    1    3    3  502    0  0.12389907921E+04 -0.29847025744E+03  0.11987687721E+04  0.17496368899E+04  0.50400001928E-02 0.  1.
       -1    1    3    3    0  502 -0.12389907921E+04  0.29847025744E+03 -0.60496526344E+03  0.14107323089E+04  0.50400001928E-02 0. -1.
</event>
<event>
 5   0  0.2067926E-06  0.3091215E+04  0.7818609E-02  0.8218153E-01
       -2   -1    0    0    0  501  0.00000000000E+00  0.00000000000E+00  0.11997830841E+04  0.11997830841E+04  0.25500000920E-02 0. -1.
        2   -1    0    0  501    0  0.00000000000E+00  0.00000000000E+00 -0.19911123543E+04  0.19911123543E+04  0.25500000920E-02 0.  1.
    10030    2    1    2    0    0  0.00000000000E+00  0.00000000000E+00 -0.79132927016E+03  0.31908954385E+04  0.30912152441E+04 0.  0.
        1    1    3    3  502    0 -0.18333855290E+03 -0.12857463764E+04 -0.12606267516E+04  0.18099548548E+04  0.50400001928E-02 0.  1.
       -1    1    3    3    0  502  0.18333855290E+03  0.12857463764E+04  0.46929748143E+03  0.13809405837E+04  0.50400001928E-02 0. -1.
</event>
<event>
 5   0  0.7656332E-07  0.3107498E+04  0.7818609E-02  0.8213683E-01
        1   -1    0    0  501    0  0.00000000000E+00  0.00000000000E+00  0.19424744796E+04  0.19424744796E+04  0.50400001928E-02 0.  1.
       -1   -1    0    0    0  501  0.00000000000E+00  0.00000000000E+00 -0.12428150842E+04  0.12428150842E+04  0.50400001928E-02 0. -1.
    10030    2    1    2    0    0  0.00000000000E+00  0.00000000000E+00  0.69965939543E+03  0.31852895638E+04  0.31074984048E+04 0.  0.
        2    1    3    3  502    0 -0.39943990234E+03 -0.15012837754E+04  0.37755062617E+03  0.15987337756E+04  0.25500000920E-02 0.  1.
       -2    1    3    3    0  502  0.39943990234E+03  0.15012837754E+04  0.32210876926E+03  0.15865557882E+04  0.25500000920E-02 0. -1.
</event>
<event>
 5   0  0.7726743E-07  0.3112250E+04  0.7818609E-02  0.8212384E-01
        1   -1    0    0  501    0  0.00000000000E+00  0.00000000000E+00  0.17311466871E+04  0.17311466871E+04  0.50400001928E-02 0. -1.
       -1   -1    0    0    0  501  0.00000000000E+00  0.00000000000E+00 -0.13987980362E+04  0.13987980362E+04  0.50400001928E-02 0.  1.
    10030    2    1    2    0    0  0.00000000000E+00  0.00000000000E+00  0.33234865088E+03  0.31299447233E+04  0.31122497241E+04 0.  0.
        1    1    3    3  502    0 -0.14185870945E+04  0.63954307477E+03  0.15516232188E+03  0.15638030680E+04  0.50400001928E-02 0. -1.
       -1    1    3    3    0  502  0.14185870945E+04 -0.63954307477E+03  0.17718632900E+03  0.15661416553E+04  0.50400001928E-02 0.  1.
</event>
<event>
 5   0  0.7561815E-07  0.3130883E+04  0.7818609E-02  0.8207313E-01
        1   -1    0    0  501    0  0.00000000000E+00  0.00000000000E+00  0.19783226836E+04  0.19783226836E+04  0.50400001928E-02 0. -1.
       -1   -1    0    0    0  501  0.00000000000E+00  0.00000000000E+00 -0.12387297111E+04  0.12387297111E+04  0.50400001928E-02 0.  1.
    10030    2    1    2    0    0  0.00000000000E+00  0.00000000000E+00  0.73959297252E+03  0.32170523947E+04  0.31308829976E+04 0.  0.
        3    1    3    3  502    0  0.84583263850E+03  0.11729790794E+04 -0.24611238773E+03  0.14669301588E+04  0.10100000352E+00 0.  1.
       -3    1    3    3    0  502 -0.84583263850E+03 -0.11729790794E+04  0.98570536025E+03  0.17501222359E+04  0.10100000352E+00 0. -1.
</event>
<event>
 5   0  0.7726743E-07  0.3084710E+04  0.7818609E-02  0.8219947E-01
       -1   -1    0    0    0  501  0.00000000000E+00  0.00000000000E+00  0.13089957732E+04  0.13089957732E+04  0.50400001928E-02 0.  1.
        1   -1    0    0  501    0  0.00000000000E+00  0.00000000000E+00 -0.18173153994E+04  0.18173153994E+04  0.50400001928E-02 0. -1.
    10030    2    1    2    0    0  0.00000000000E+00  0.00000000000E+00 -0.50831962623E+03  0.31263111726E+04  0.30847095010E+04 0.  0.
        1    1    3    3  502    0  0.10880828705E+04  0.19547167750E+03  0.83585633021E+03  0.13859254362E+04  0.50400001928E-02 0.  1.
       -1    1    3    3    0  502 -0.10880828705E+04 -0.19547167750E+03 -0.13441759564E+04  0.17403857365E+04  0.50400001928E-02 0. -1.
</event>
<event>
 5   0  0.7726743E-07  0.3098399E+04  0.7818609E-02  0.8216177E-01
        1   -1    0    0  501    0  0.00000000000E+00  0.00000000000E+00  0.25454512261E+04  0.25454512261E+04  0.50400001928E-02 0.  1.
       -1   -1    0    0    0  501  0.00000000000E+00  0.00000000000E+00 -0.94286572735E+03  0.94286572736E+03  0.50400001928E-02 0. -1.
    10030    2    1    2    0    0  0.00000000000E+00  0.00000000000E+00  0.16025854988E+04  0.34883169535E+04  0.30983987618E+04 0.  0.
        1    1    3    3  502    0 -0.97041185793E+03 -0.91789172814E+03 -0.82186734345E+02  0.13382746571E+04  0.50400001928E-02 0. -1.
       -1    1    3    3    0  502  0.97041185793E+03  0.91789172814E+03  0.16847722331E+04  0.21500422964E+04  0.50400001928E-02 0.  1.
</event>
<event>
 5   0  0.7656332E-07  0.3101800E+04  0.7818609E-02  0.8215244E-01
       -1   -1    0    0    0  501  0.00000000000E+00  0.00000000000E+00  0.22236299881E+04  0.22236299881E+04  0.50400001928E-02 0. -1.
        1   -1    0    0  501    0  0.00000000000E+00  0.00000000000E+00 -0.10816957655E+04  0.10816957655E+04  0.50400001928E-02 0.  1.
    10030    2    1    2    0    0  0.00000000000E+00  0.00000000000E+00  0.11419342226E+04  0.33053257535E+04  0.31018002141E+04 0.  0.
        2    1    3    3  502    0  0.77784173859E+03 -0.40738356940E+03  0.19332436372E+04  0.21233064083E+04  0.25500000920E-02 0. -1.
       -2    1    3    3    0  502 -0.77784173859E+03  0.40738356940E+03 -0.79130941458E+03  0.11820193452E+04  0.25500000920E-02 0.  1.
</event>
<event>
 5   0  0.7726743E-07  0.3097492E+04  0.7818609E-02  0.8216426E-01
        1   -1    0    0  501    0  0.00000000000E+00  0.00000000000E+00  0.22215626619E+04  0.22215626619E+04  0.50400001928E-02 0.  1.
       -1   -1    0    0    0  501  0.00000000000E+00  0.00000000000E+00 -0.10796969482E+04  0.10796969482E+04  0.50400001928E-02 0. -1.
    10030    2    1    2    0    0  0.00000000000E+00  0.00000000000E+00  0.11418657137E+04  0.33012596102E+04  0.30974921640E+04 0.  0.
        1    1    3    3  502    0  0.52825152494E+03 -0.14549811621E+04  0.51664505835E+03  0.16318523131E+04  0.50400001928E-02 0.  1.
       -1    1    3    3    0  502 -0.52825152494E+03  0.14549811621E+04  0.62522065536E+03  0.16694072971E+04  0.50400001928E-02 0. -1.
</event>
<event>
 5   0  0.2133385E-06  0.3085035E+04  0.7818609E-02  0.8219857E-01
       -2   -1    0    0    0  501  0.00000000000E+00  0.00000000000E+00  0.21040056951E+04  0.21040056951E+04  0.25500000920E-02 0.  1.
        2   -1    0    0  501    0  0.00000000000E+00  0.00000000000E+00 -0.11308716982E+04  0.11308716982E+04  0.25500000920E-02 0. -1.
    10030    2    1    2    0    0  0.00000000000E+00  0.00000000000E+00  0.97313399693E+03  0.32348773933E+04  0.30850351658E+04 0.  0.
        2    1    3    3  502    0  0.11594239660E+04  0.10151639594E+04  0.55720904222E+03  0.16386896333E+04  0.25500000920E-02 0.  1.
       -2    1    3    3    0  502 -0.11594239660E+04 -0.10151639594E+04  0.41592495471E+03  0.15961877601E+04  0.25500000920E-02 0. -1.
</event>
<event>
 5   0  0.7656332E-07  0.3108046E+04  0.7818609E-02  0.8213533E-01
        1   -1    0    0  501    0  0.00000000000E+00  0.00000000000E+00  0.15129961699E+04  0.15129961699E+04  0.50400001928E-02 0. -1.
       -1   -1    0    0    0  501  0.00000000000E+00  0.00000000000E+00 -0.15961621707E+04  0.15961621707E+04  0.50400001928E-02 0.  1.
    10030    2    1    2    0    0  0.00000000000E+00  0.00000000000E+00 -0.83166000783E+02  0.31091583405E+04  0.31080458495E+04 0.  0.
        2    1    3    3  502    0 -0.61215652640E+03 -0.13951825839E+04  0.26465922003E+03  0.15463875834E+04  0.25500000920E-02 0. -1.
       -2    1    3    3    0  502  0.61215652640E+03  0.13951825839E+04 -0.34782522081E+03  0.15627707572E+04  0.25500000920E-02 0.  1.
</event>
<event>
 5   0  0.7413481E-07  0.3089362E+04  0.7818609E-02  0.8218663E-01
        1   -1    0    0  501    0  0.00000000000E+00  0.00000000000E+00  0.14816260359E+04  0.14816260359E+04  0.50400001928E-02 0. -1.
       -1   -1    0    0    0  501  0.00000000000E+00  0.00000000000E+00 -0.16104199444E+04  0.16104199444E+04  0.50400001928E-02 0.  1.
    10030    2    1    2    0    0  0.00000000000E+00  0.00000000000E+00 -0.12879390844E+03  0.30920459803E+04  0.30893624704E+04 0.  0.
        5    1    3    3  502    0 -0.64063681479E+03 -0.14040207823E+04  0.14488133275E+01  0.15432802969E+04  0.46999998093E+01 0. -1.
       -5    1    3    3    0  502  0.64063681479E+03  0.14040207823E+04 -0.13024272176E+03  0.15487656834E+04  0.46999998093E+01 0.  1.
</event>
<event>
 5   0  0.2067926E-06  0.3137707E+04  0.7818609E-02  0.8205465E-01
        2   -1    0    0  501    0  0.00000000000E+00  0.00000000000E+00  0.17287322207E+04  0.17287322207E+04  0.25500000920E-02 0.  1.
       -2   -1    0    0    0  501  0.00000000000E+00  0.00000000000E+00 -0.14237609963E+04  0.14237609963E+04  0.25500000920E-02 0. -1.
    10030    2    1    2    0    0  0.00000000000E+00  0.00000000000E+00  0.30497122443E+03  0.31524932170E+04  0.31377071303E+04 0.  0.
        1    1    3    3  502    0  0.11899075024E+04  0.20115675000E+03  0.11596854033E+04  0.16736828066E+04  0.50400001928E-02 0.  1.
       -1    1    3    3    0  502 -0.11899075024E+04 -0.20115675000E+03 -0.85471417889E+03  0.14788104104E+04  0.50400001928E-02 0. -1.
</event>
<event>
 5   0  0.2067926E-06  0.3096283E+04  0.7818609E-02  0.8216759E-01
        2   -1    0    0  501    0  0.00000000000E+00  0.00000000000E+00  0.19937549413E+04  0.19937549413E+04  0.25500000920E-02 0. -1.
       -2   -1    0    0    0  501  0.00000000000E+00  0.00000000000E+00 -0.12021244290E+04  0.12021244290E+04  0.25500000920E-02 0.  1.
    10030    2    1    2    0    0  0.00000000000E+00  0.00000000000E+00  0.79163051229E+03  0.31958793703E+04  0.30962826230E+04 0.  0.
        1    1    3    3  502    0  0.82618147309E+02  0.95696537936E+03 -0.85737820675E+03  0.12875192756E+04  0.50400001928E-02 0.  1.
       -1    1    3    3    0  502 -0.82618147309E+02 -0.95696537936E+03  0.16490087190E+04  0.19083600947E+04  0.50400001928E-02 0. -1.
</event>
<event>
 5   0  0.2133385E-06  0.3136041E+04  0.7818609E-02  0.8205916E-01
       -2   -1    0    0    0  501  0.00000000000E+00  0.00000000000E+00  0.11296899547E+04  0.11296899547E+04  0.25500000920E-02 0. -1.
        2   -1    0    0  501    0  0.00000000000E+00  0.00000000000E+00 -0.21764274351E+04  0.21764274351E+04  0.25500000920E-02 0.  1.
    10030    2    1    2    0    0  0.00000000000E+00  0.00000000000E+00 -0.10467374804E+04  0.33061173899E+04  0.31360409504E+04 0.  0.
        2    1    3    3  502    0  0.79662140537E+03  0.95403693691E+03 -0.15311933285E+04  0.19721422742E+04  0.25500000920E-02 0.  1.
       -2    1    3    3    0  502 -0.79662140537E+03 -0.95403693691E+03  0.48445584808E+03  0.13339751157E+04  0.25500000920E-02 0. -1.
</event>
<event>
 5   0  0.2226334E-06  0.3098387E+04  0.7818609E-02  0.8216181E-01
        2   -1    0    0  501    0  0.00000000000E+00  0.00000000000E+00  0.18024102325E+04  0.18024102325E+04  0.25500000920E-02 0.  1.
       -2   -1    0    0    0  501  0.00000000000E+00  0.00000000000E+00 -0.13315506070E+04  0.13315506070E+04  0.25500000920E-02 0. -1.
    10030    2    1    2    0    0  0.00000000000E+00  0.00000000000E+00  0.47085962546E+03  0.31339608395E+04  0.30983869605E+04 0.  0.
        5    1    3    3  502    0  0.29978449909E+03  0.24374127295E+03 -0.12820275666E+04  0.13389911596E+04  0.46999998093E+01 0. -1.
       -5    1    3    3    0  502 -0.29978449909E+03 -0.24374127295E+03  0.17528871920E+04  0.17949696800E+04  0.46999998093E+01 0.  1.
</event>
<event>
 5   0  0.7519202E-07  0.2717997E+04  0.7818609E-02  0.8329189E-01
       -1   -1    0    0    0  501  0.00000000000E+00  0.00000000000E+00  0.98058649736E+03  0.98058649738E+03  0.50400001928E-02 0.  1.
        1   -1    0    0  501    0  0.00000000000E+00  0.00000000000E+00 -0.18834408864E+04  0.18834408865E+04  0.50400001928E-02 0. -1.
    10030    2    1    2    0    0  0.00000000000E+00  0.00000000000E+00 -0.90285438908E+03  0.28640273838E+04  0.27179968373E+04 0.  0.
        4    1    3    3  502    0  0.78981493811E+03 -0.89684616069E+03  0.23043646964E+03  0.12170633722E+04  0.12699999809E+01 0. -1.
       -4    1    3    3    0  502 -0.78981493811E+03  0.89684616069E+03 -0.11332908587E+04  0.16469640117E+04  0.12699999809E+01 0.  1.
</event>
<event>
 5   0  0.2067926E-06  0.3086903E+04  0.7818609E-02  0.8219341E-01
        2   -1    0    0  501    0  0.00000000000E+00  0.00000000000E+00  0.22849446699E+04  0.22849446699E+04  0.25500000920E-02 0.  1.
       -2   -1    0    0    0  501  0.00000000000E+00  0.00000000000E+00 -0.10425824510E+04  0.10425824510E+04  0.25500000920E-02 0. -1.
    10030    2    1    2    0    0  0.00000000000E+00  0.00000000000E+00  0.12423622189E+04  0.33275271208E+04  0.30869034415E+04 0.  0.
        1    1    3    3  502    0  0.50351970553E+03  0.23382818400E+03  0.21735918966E+04  0.22433701091E+04  0.50400001928E-02 0.  1.
       -1    1    3    3    0  502 -0.50351970553E+03 -0.23382818400E+03 -0.93122967767E+03  0.10841570117E+04  0.50400001928E-02 0. -1.
</event>
<event>
 5   0  0.7726743E-07  0.2946333E+04  0.7818609E-02  0.8259224E-01
        1   -1    0    0  501    0  0.00000000000E+00  0.00000000000E+00  0.11566085333E+04  0.11566085333E+04  0.50400001928E-02 0.  1.
       -1   -1    0    0    0  501  0.00000000000E+00  0.00000000000E+00 -0.18763644155E+04  0.18763644155E+04  0.50400001928E-02 0. -1.
    10030    2    1    2    0    0  0.00000000000E+00  0.00000000000E+00 -0.71975588222E+03  0.30329729488E+04  0.29463326999E+04 0.  0.
        1    1    3    3  502    0  0.50260589907E+03  0.10472543697E+04 -0.12925361956E+04  0.17378159343E+04  0.50400001928E-02 0. -1.
       -1    1    3    3    0  502 -0.50260589907E+03 -0.10472543697E+04  0.57278031337E+03  0.12951570145E+04  0.50400001928E-02 0.  1.
</event>
<event>
 5   0  0.7656332E-07  0.3118014E+04  0.7818609E-02  0.8210811E-01
        1   -1    0    0  501    0  0.00000000000E+00  0.00000000000E+00  0.12797701411E+04  0.12797701411E+04  0.50400001928E-02 0.  1.
       -1   -1    0    0    0  501  0.00000000000E+00  0.00000000000E+00 -0.18991714279E+04  0.18991714279E+04  0.50400001928E-02 0. -1.
    10030    2    1    2    0    0  0.00000000000E+00  0.00000000000E+00 -0.61940128674E+03  0.31789415690E+04  0.31180140386E+04 0.  0.
        2    1    3    3  502    0 -0.15334317788E+03 -0.15477068281E+04 -0.41947220798E+03  0.16108592394E+04  0.25500000920E-02 0. -1.
       -2    1    3    3    0  502  0.15334317788E+03  0.15477068281E+04 -0.19992907876E+03  0.15680823296E+04  0.25500000920E-02 0.  1.
</event>
<event>
 5   0  0.7726743E-07  0.3096278E+04  0.7818609E-02  0.8216760E-01
        1   -1    0    0  501    0  0.00000000000E+00  0.00000000000E+00  0.11875698576E+04  0.11875698576E+04  0.50400001928E-02 0.  1.
       -1   -1    0    0    0  501  0.00000000000E+00  0.00000000000E+00 -0.20181839480E+04  0.20181839480E+04  0.50400001928E-02 0. -1.
    10030    2    1    2    0    0  0.00000000000E+00  0.00000000000E+00 -0.83061409041E+03  0.32057538056E+04  0.30962780390E+04 0.  0.
        1    1    3    3  502    0 -0.57267693580E+03 -0.14019762479E+04 -0.74797450589E+03  0.16890713822E+04  0.50400001928E-02 0. -1.
       -1    1    3    3    0  502  0.57267693580E+03  0.14019762479E+04 -0.82639584519E+02  0.15166824234E+04  0.50400001928E-02 0.  1.
</event>
<event>
 5   0  0.7413481E-07  0.3110055E+04  0.7818609E-02  0.8212984E-01
        1   -1    0    0  501    0  0.00000000000E+00  0.00000000000E+00  0.16496924178E+04  0.16496924178E+04  0.50400001928E-02 0.  1.
       -1   -1    0    0    0  501  0.00000000000E+00  0.00000000000E+00 -0.14657944576E+04  0.14657944577E+04  0.50400001928E-02 0. -1.
    10030    2    1    2    0    0  0.00000000000E+00  0.00000000000E+00  0.18389796012E+03  0.31154868754E+04  0.31100546637E+04 0.  0.
        5    1    3    3  502    0  0.10461041124E+04  0.10367395530E+04 -0.40784651164E+03  0.15282419906E+04  0.46999998093E+01 0.  1.
       -5    1    3    3    0  502 -0.10461041124E+04 -0.10367395530E+04  0.59174447176E+03  0.15872448849E+04  0.46999998093E+01 0. -1.
</event>
<event>
 5   0  0.7656332E-07  0.3100374E+04  0.7818609E-02  0.8215635E-01
        1   -1    0    0  501    0  0.00000000000E+00  0.00000000000E+00  0.12869007945E+04  0.12869007945E+04  0.50400001928E-02 0. -1.
       -1   -1    0    0    0  501  0.00000000000E+00  0.00000000000E+00 -0.18673393543E+04  0.18673393543E+04  0.50400001928E-02 0.  1.
    10030    2    1    2    0    0  0.00000000000E+00  0.00000000000E+00 -0.58043855978E+03  0.31542401488E+04  0.31003744926E+04 0.  0.
        2    1    3    3  502    0 -0.27107572461E+03  0.18935400390E+03  0.12506046926E+04  0.12935799489E+04  0.25500000920E-02 0. -1.
       -2    1    3    3    0  502  0.27107572461E+03 -0.18935400390E+03 -0.18310432523E+04  0.18606601998E+04  0.25500000920E-02 0.  1.
</event>
<event>
 5   0  0.2067926E-06  0.3169692E+04  0.7818609E-02  0.8196868E-01
        2   -1    0    0  501    0  0.00000000000E+00  0.00000000000E+00  0.14960517237E+04  0.14960517237E+04  0.25500000920E-02 0. -1.
       -2   -1    0    0    0  501  0.00000000000E+00  0.00000000000E+00 -0.16789105094E+04  0.16789105094E+04  0.25500000920E-02 0.  1.
    10030    2    1    2    0    0  0.00000000000E+00  0.00000000000E+00 -0.18285878563E+03  0.31749622331E+04  0.31696920743E+04 0.  0.
        1    1    3    3  502    0 -0.59349322657E+03 -0.12120433781E+04 -0.92374634309E+03  0.16354175818E+04  0.50400001928E-02 0.  1.
       -1    1    3    3    0  502  0.59349322657E+03  0.12120433781E+04  0.74088755746E+03  0.15395446513E+04  0.50400001928E-02 0. -1.
</event>
<event>
 5   0  0.2078009E-06  0.3063125E+04  0.7818609E-02  0.8225931E-01
       -2   -1    0    0    0  501  0.00000000000E+00  0.00000000000E+00  0.11738056515E+04  0.11738056515E+04  0.25500000920E-02 0. -1.
        2   -1    0    0  501    0  0.00000000000E+00  0.00000000000E+00 -0.19983578928E+04  0.19983578928E+04  0.25500000920E-02 0.  1.
    10030    2    1    2    0    0  0.00000000000E+00  0.00000000000E+00 -0.82455224130E+03  0.31721635444E+04  0.30631250633E+04 0.  0.
        3    1    3    3  502    0  0.12503711252E+04  0.55401562044E+02 -0.13264136713E+04  0.18236969379E+04  0.10100000352E+00 0.  1.
       -3    1    3    3    0  502 -0.12503711252E+04 -0.55401562044E+02  0.50186142997E+03  0.13484666065E+04  0.10100000352E+00 0. -1.
</event>
<event>
 5   0  0.7726743E-07  0.3139501E+04  0.7818609E-02  0.8204980E-01
       -1   -1    0    0    0  501  0.00000000000E+00  0.00000000000E+00  0.21731192699E+04  0.21731192700E+04  0.50400001928E-02 0.  1.
        1   -1    0    0  501    0  0.00000000000E+00  0.00000000000E+00 -0.11339079603E+04  0.11339079603E+04  0.50400001928E-02 0. -1.
    10030    2    1    2    0    0  0.00000000000E+00  0.00000000000E+00  0.10392113097E+04  0.33070272303E+04  0.31395013865E+04 0.  0.
        1    1    3    3  502    0 -0.10125714876E+04 -0.66665729438E+03 -0.53079314120E+03  0.13234327804E+04  0.50400001928E-02 0. -1.
       -1    1    3    3    0  502  0.10125714876E+04  0.66665729438E+03  0.15700044508E+04  0.19835944498E+04  0.50400001928E-02 0.  1.
</event>
<event>
 5   0  0.7656332E-07  0.3095298E+04  0.7818609E-02  0.8217029E-01
        1   -1    0    0  501    0  0.00000000000E+00  0.00000000000E+00  0.20392845375E+04  0.20392845375E+04  0.50400001928E-02 0. -1.
       -1   -1    0    0    0  501  0.00000000000E+00  0.00000000000E+00 -0.11745383126E+04  0.11745383126E+04  0.50400001928E-02 0.  1.
    10030    2    1    2    0    0  0.00000000000E+00  0.00000000000E+00  0.86474622484E+03  0.32138228501E+04  0.30952982536E+04 0.  0.
        2    1    3    3  502    0 -0.21277021576E+03  0.10944119171E+04  0.15468860207E+04  0.19067944226E+04  0.25500000920E-02 0. -1.
       -2    1    3    3    0  502  0.21277021576E+03 -0.10944119171E+04 -0.68213979589E+03  0.13070284275E+04  0.25500000920E-02 0.  1.
</event>
<event>
 5   0  0.7726743E-07  0.3112582E+04  0.7818609E-02  0.8212293E-01
       -1   -1    0    0    0  501  0.00000000000E+00  0.00000000000E+00  0.19722130754E+04  0.19722130754E+04  0.50400001928E-02 0.  1.
        1   -1    0    0  501    0  0.00000000000E+00  0.00000000000E+00 -0.12280829543E+04  0.12280829543E+04  0.50400001928E-02 0. -1.
    10030    2    1    2    0    0  0.00000000000E+00  0.00000000000E+00  0.74413012110E+03  0.32002960296E+04  0.31125817323E+04 0.  0.
        1    1    3    3  502    0  0.96703041401E+03 -0.57871829945E+03 -0.73148385466E+03  0.13435517561E+04  0.50400001928E-02 0. -1.
       -1    1    3    3    0  502 -0.96703041401E+03  0.57871829945E+03  0.14756139758E+04  0.18567442735E+04  0.50400001928E-02 0.  1.
</event>
<event>
 5   0  0.7656332E-07  0.3096318E+04  0.7818609E-02  0.8216749E-01
       -1   -1    0    0    0  501  0.00000000000E+00  0.00000000000E+00  0.11797550556E+04  0.11797550556E+04  0.50400001928E-02 0.  1.
        1   -1    0    0  501    0  0.00000000000E+00  0.00000000000E+00 -0.20316052589E+04  0.20316052589E+04  0.50400001928E-02 0. -1.
    10030    2    1    2    0    0  0.00000000000E+00  0.00000000000E+00 -0.85185020330E+03  0.32113603146E+04  0.30963181847E+04 0.  0.
        2    1    3    3  502    0 -0.17704471261E+03  0.57210777638E+03 -0.19066041518E+04  0.19984472797E+04  0.25500000920E-02 0. -1.
       -2    1    3    3    0  502  0.17704471261E+03 -0.57210777638E+03  0.10547539485E+04  0.12129130348E+04  0.25500000920E-02 0.  1.
</event>
<event>
 5   0  0.7561815E-07  0.3108765E+04  0.7818609E-02  0.8213336E-01
        1   -1    0    0  501    0  0.00000000000E+00  0.00000000000E+00  0.11020106005E+04  0.11020106005E+04  0.50400001928E-02 0.  1.
       -1   -1    0    0    0  501  0.00000000000E+00  0.00000000000E+00 -0.21924520117E+04  0.21924520117E+04  0.50400001928E-02 0. -1.
    10030    2    1    2    0    0  0.00000000000E+00  0.00000000000E+00 -0.10904414112E+04  0.32944626123E+04  0.31087652585E+04 0.  0.
        3    1    3    3  502    0 -0.15334841684E+04 -0.18977469414E+03 -0.72417834223E+03  0.17064648871E+04  0.10100000352E+00 0. -1.
       -3    1    3    3    0  502  0.15334841684E+04  0.18977469414E+03 -0.36626306900E+03  0.15879977252E+04  0.10100000352E+00 0.  1.
</event>
<event>
 5   0  0.2067926E-06  0.3178736E+04  0.7818609E-02  0.8194456E-01
        2   -1    0    0  501    0  0.00000000000E+00  0.00000000000E+00  0.15298197796E+04  0.15298197796E+04  0.25500000920E-02 0. -1.
       -2   -1    0    0    0  501  0.00000000000E+00  0.00000000000E+00 -0.16512344249E+04  0.16512344249E+04  0.25500000920E-02 0.  1.
    10030    2    1    2    0    0  0.00000000000E+00  0.00000000000E+00 -0.12141464529E+03  0.31810542044E+04  0.31787362796E+04 0.  0.
        1    1    3    3  502    0  0.13916117206E+04 -0.24006318974E+03  0.66912384797E+03  0.15626708675E+04  0.50400001928E-02 0. -1.
       -1    1    3    3    0  502 -0.13916117206E+04  0.24006318974E+03 -0.79053849326E+03  0.16183833370E+04  0.50400001928E-02 0.  1.
</event>
<event>
 5   0  0.7413481E-07  0.3094917E+04  0.7818609E-02  0.8217134E-01
        1   -1    0    0  501    0  0.00000000000E+00  0.00000000000E+00  0.14325130335E+04  0.14325130335E+04  0.50400001928E-02 0.  1.
       -1   -1    0    0    0  501  0.00000000000E+00  0.00000000000E+00 -0.16716273369E+04  0.16716273369E+04  0.50400001928E-02 0. -1.
    10030    2    1    2    0    0  0.00000000000E+00  0.00000000000E+00 -0.23911430341E+03  0.31041403703E+04  0.30949170892E+04 0.  0.
        5    1    3    3  502    0  0.43916795792E+03 -0.13167517301E+04 -0.80562946972E+03  0.16049188598E+04  0.46999998093E+01 0. -1.
       -5    1    3    3    0  502 -0.43916795792E+03  0.13167517301E+04  0.56651516631E+03  0.14992215106E+04  0.46999998093E+01 0.  1.
</event>
<event>
 5   0  0.2133385E-06  0.3084906E+04  0.7818609E-02  0.8219893E-01
        2   -1    0    0  501    0  0.00000000000E+00  0.00000000000E+00  0.98365766799E+03  0.98365766800E+03  0.25500000920E-02 0.  1.
       -2   -1    0    0    0  501  0.00000000000E+00  0.00000000000E+00 -0.24186884858E+04  0.24186884858E+04  0.25500000920E-02 0. -1.
    10030    2    1    2    0    0  0.00000000000E+00  0.00000000000E+00 -0.14350308178E+04  0.34023461538E+04  0.30849061415E+04 0.  0.
        2    1    3    3  502    0 -0.10462500010E+04  0.45704398390E+03 -0.18613642650E+04  0.21836220357E+04  0.25500000920E-02 0. -1.
       -2    1    3    3    0  502  0.10462500010E+04 -0.45704398390E+03  0.42633344721E+03  0.12187241181E+04  0.25500000920E-02 0.  1.
</event>
<event>
 5   0  0.7656332E-07  0.3384315E+04  0.7818609E-02  0.8141767E-01
       -1   -1    0    0    0  501  0.00000000000E+00  0.00000000000E+00  0.13462116513E+04  0.13462116513E+04  0.50400001928E-02 0.  1.
        1   -1    0    0  501    0  0.00000000000E+00  0.00000000000E+00 -0.21270041880E+04  0.21270041880E+04  0.50400001928E-02 0. -1.
    10030    2    1    2    0    0  0.00000000000E+00  0.00000000000E+00 -0.78079253665E+03  0.34732158393E+04  0.33843154819E+04 0.  0.
        2    1    3    3  502    0 -0.64896217994E+03 -0.13119997256E+02 -0.19941597572E+04  0.20971402392E+04  0.25500000920E-02 0. -1.
       -2    1    3    3    0  502  0.64896217994E+03  0.13119997256E+02  0.12133672206E+04  0.13760756001E+04  0.25500000920E-02 0.  1.
</event>
<event>
 5   0  0.2078009E-06  0.3149626E+04  0.7818609E-02  0.8202249E-01
        2   -1    0    0  501    0  0.00000000000E+00  0.00000000000E+00  0.21637677768E+04  0.21637677768E+04  0.25500000920E-02 0. -1.
       -2   -1    0    0    0  501  0.00000000000E+00  0.00000000000E+00 -0.11461655525E+04  0.11461655525E+04  0.25500000920E-02 0.  1.
    10030    2    1    2    0    0  0.00000000000E+00  0.00000000000E+00  0.10176022244E+04  0.33099333293E+04  0.31496260663E+04 0.  0.
        3    1    3    3  502    0  0.14563602684E+04 -0.15883299588E+03  0.11159823324E+04  0.18416377842E+04  0.10100000352E+00 0. -1.
       -3    1    3    3    0  502 -0.14563602684E+04  0.15883299588E+03 -0.98380107982E+02  0.14682955451E+04  0.10100000352E+00 0.  1.
</event>
<event>
 5   0  0.7726743E-07  0.3108741E+04  0.7818609E-02  0.8213343E-01
        1   -1    0    0  501    0  0.00000000000E+00  0.00000000000E+00  0.16090165352E+04  0.16090165352E+04  0.50400001928E-02 0.  1.
       -1   -1    0    0    0  501  0.00000000000E+00  0.00000000000E+00 -0.15015806549E+04  0.15015806549E+04  0.50400001928E-02 0. -1.
    10030    2    1    2    0    0  0.00000000000E+00  0.00000000000E+00  0.10743588032E+03  0.31105971901E+04  0.31087412904E+04 0.  0.
        1    1    3    3  502    0  0.79063053920E+03  0.13323087760E+04 -0.72550813803E+02  0.15509374406E+04  0.50400001928E-02 0. -1.
       -1    1    3    3    0  502 -0.79063053920E+03 -0.13323087760E+04  0.17998669412E+03  0.15596597495E+04  0.50400001928E-02 0.  1.
</event>
<event>
 5   0  0.2078009E-06  0.3094531E+04  0.7818609E-02  0.8217240E-01
        2   -1    0    0  501    0  0.00000000000E+00  0.00000000000E+00  0.25080737680E+04  0.25080737680E+04  0.25500000920E-02 0.  1.
       -2   -1    0    0    0  501  0.00000000000E+00  0.00000000000E+00 -0.95452960957E+03  0.95452960958E+03  0.25500000920E-02 0. -1.
    10030    2    1    2    0    0  0.00000000000E+00  0.00000000000E+00  0.15535441584E+04  0.34626033776E+04  0.30945310951E+04 0.  0.
        3    1    3    3  502    0  0.19378660406E+03  0.36753344991E+03  0.24444836683E+04  0.24795432038E+04  0.10100000352E+00 0.  1.
       -3    1    3    3    0  502 -0.19378660406E+03 -0.36753344991E+03 -0.89093950990E+03  0.98306017375E+03  0.10100000352E+00 0. -1.
</event>
<event>
 5   0  0.7561815E-07  0.3086082E+04  0.7818609E-02  0.8219568E-01
        1   -1    0    0  501    0  0.00000000000E+00  0.00000000000E+00  0.18962565515E+04  0.18962565515E+04  0.50400001928E-02 0.  1.
       -1   -1    0    0    0  501  0.00000000000E+00  0.00000000000E+00 -0.12556191753E+04  0.12556191753E+04  0.50400001928E-02 0. -1.
    10030    2    1    2    0    0  0.00000000000E+00  0.00000000000E+00  0.64063737620E+03  0.31518757269E+04  0.30860823628E+04 0.  0.
        3    1    3    3  502    0 -0.14673549994E+04  0.12263366621E+03 -0.15082554756E+03  0.14801750120E+04  0.10100000352E+00 0.  1.
       -3    1    3    3    0  502  0.14673549994E+04 -0.12263366621E+03  0.79146292376E+03  0.16717007149E+04  0.10100000352E+00 0. -1.
</event>
<event>
 5   0  0.7413481E-07  0.3101945E+04  0.7818609E-02  0.8215204E-01
        1   -1    0    0  501    0  0.00000000000E+00  0.00000000000E+00  0.22587546252E+04  0.22587546252E+04  0.50400001928E-02 0.  1.
       -1   -1    0    0    0  501  0.00000000000E+00  0.00000000000E+00 -0.10649742327E+04  0.10649742327E+04  0.50400001928E-02 0. -1.
    10030    2    1    2    0    0  0.00000000000E+00  0.00000000000E+00  0.11937803925E+04  0.33237288579E+04  0.31019448569E+04 0.  0.
        5    1    3    3  502    0  0.92102445588E+03  0.10767953467E+04  0.12726303836E+04  0.19045693608E+04  0.46999998093E+01 0.  1.
       -5    1    3    3    0  502 -0.92102445588E+03 -0.10767953467E+04 -0.78849991106E+02  0.14191594970E+04  0.46999998093E+01 0. -1.
</event>
<event>
 5   0  0.7561815E-07  0.3144002E+04  0.7818609E-02  0.8203765E-01
        1   -1    0    0  501    0  0.00000000000E+00  0.00000000000E+00  0.22190842045E+04  0.22190842045E+04  0.50400001928E-02 0. -1.
       -1   -1    0    0    0  501  0.00000000000E+00  0.00000000000E+00 -0.11136069447E+04  0.11136069447E+04  0.50400001928E-02 0.  1.
    10030    2    1    2    0    0  0.00000000000E+00  0.00000000000E+00  0.11054772598E+04  0.33326911492E+04  0.31440022780E+04 0.  0.
        3    1    3    3  502    0 -0.91225708959E+03  0.10028550640E+04 -0.29079416836E+03  0.13865397706E+04  0.10100000352E+00 0. -1.
       -3    1    3    3    0  502  0.91225708959E+03 -0.10028550640E+04  0.13962714282E+04  0.19461513786E+04  0.10100000352E+00 0.  1.
</event>
<event>
 5   0  0.2226334E-06  0.3093049E+04  0.7818609E-02  0.8217648E-01
        2   -1    0    0  501    0  0.00000000000E+00  0.00000000000E+00  0.14550249240E+04  0.14550249240E+04  0.25500000920E-02 0.  1.
       -2   -1    0    0    0  501  0.00000000000E+00  0.00000000000E+00 -0.16437785458E+04  0.16437785458E+04  0.25500000920E-02 0. -1.
    10030    2    1    2    0    0  0.00000000000E+00  0.00000000000E+00 -0.18875362181E+03  0.30988034698E+04  0.30930494686E+04 0.  0.
        5    1    3    3  502    0  0.38871466686E+02  0.12611668697E+04 -0.99027959409E+03  0.16039727643E+04  0.46999998093E+01 0. -1.
       -5    1    3    3    0  502 -0.38871466686E+02 -0.12611668697E+04  0.80152597228E+03  0.14948307056E+04  0.46999998093E+01 0.  1.
</event>
<event>
 5   0  0.2067926E-06  0.3091138E+04  0.7818609E-02  0.8218174E-01
       -2   -1    0    0    0  501  0.00000000000E+00  0.00000000000E+00  0.12129534509E+04  0.12129534509E+04  0.25500000920E-02 0.  1.
        2   -1    0    0  501    0  0.00000000000E+00  0.00000000000E+00 -0.19693944105E+04  0.19693944105E+04  0.25500000920E-02 0. -1.
    10030    2    1    2    0    0  0.00000000000E+00  0.00000000000E+00 -0.75644095957E+03  0.31823478615E+04  0.30911381376E+04 0.  0.
        1    1    3    3  502    0 -0.32037789334E+03  0.14049308750E+04 -0.95355822848E+03  0.17279311482E+04  0.50400001928E-02 0. -1.
       -1    1    3    3    0  502  0.32037789334E+03 -0.14049308750E+04  0.19711726891E+03  0.14544167132E+04  0.50400001928E-02 0.  1.
</event>
<event>
 5   0  0.2067926E-06  0.3214761E+04  0.7818609E-02  0.8184930E-01
       -2   -1    0    0    0  501  0.00000000000E+00  0.00000000000E+00  0.13692905456E+04  0.13692905456E+04  0.25500000920E-02 0. -1.
        2   -1    0    0  501    0  0.00000000000E+00  0.00000000000E+00 -0.18868692860E+04  0.18868692860E+04  0.25500000920E-02 0.  1.
    10030    2    1    2    0    0  0.00000000000E+00  0.00000000000E+00 -0.51757874036E+03  0.32561598315E+04  0.32147611258E+04 0.  0.
        1    1    3    3  502    0  0.12547175131E+04 -0.51456226002E+03  0.61521428464E+03  0.14891537776E+04  0.50400001928E-02 0. -1.
       -1    1    3    3    0  502 -0.12547175131E+04  0.51456226002E+03 -0.11327930250E+04  0.17670060540E+04  0.50400001928E-02 0.  1.
</event>
<event>
 5   0  0.7656332E-07  0.3115588E+04  0.7818609E-02  0.8211473E-01
        1   -1    0    0  501    0  0.00000000000E+00  0.00000000000E+00  0.12563711363E+04  0.12563711363E+04  0.50400001928E-02 0. -1.
       -1   -1    0    0    0  501  0.00000000000E+00  0.00000000000E+00 -0.19315324409E+04  0.19315324409E+04  0.50400001928E-02 0.  1.
    10030    2    1    2    0    0  0.00000000000E+00  0.00000000000E+00 -0.67516130456E+03  0.31879035772E+04  0.31155876541E+04 0.  0.
        2    1    3    3  502    0 -0.18696868057E+03  0.14128238496E+04 -0.98122274160E+03  0.17302677788E+04  0.25500000920E-02 0.  1.
       -2    1    3    3    0  502  0.18696868057E+03 -0.14128238496E+04  0.30606143704E+03  0.14576357984E+04  0.25500000920E-02 0. -1.
</event>
<event>
 5   0  0.2226334E-06  0.3121178E+04  0.7818609E-02  0.8209950E-01
        2   -1    0    0  501    0  0.00000000000E+00  0.00000000000E+00  0.22490348406E+04  0.22490348406E+04  0.25500000920E-02 0.  1.
       -2   -1    0    0    0  501  0.00000000000E+00  0.00000000000E+00 -0.10828816901E+04  0.10828816901E+04  0.25500000920E-02 0. -1.
    10030    2    1    2    0    0  0.00000000000E+00  0.00000000000E+00  0.11661531505E+04  0.33319165307E+04  0.31211783988E+04 0.  0.
        5    1    3    3  502    0 -0.71852825871E+03  0.13609051376E+04  0.85954313639E+03  0.17627200985E+04  0.46999998093E+01 0.  1.
       -5    1    3    3    0  502  0.71852825871E+03 -0.13609051376E+04  0.30661001413E+03  0.15691964322E+04  0.46999998093E+01 0. -1.
</event>
<event>
 5   0  0.2133385E-06  0.3108873E+04  0.7818609E-02  0.8213307E-01
       -2   -1    0    0    0  501  0.00000000000E+00  0.00000000000E+00  0.10051413591E+04  0.10051413591E+04  0.25500000920E-02 0. -1.
        2   -1    0    0  501    0  0.00000000000E+00  0.00000000000E+00 -0.24039134712E+04  0.24039134712E+04  0.25500000920E-02 0.  1.
    10030    2    1    2    0    0  0.00000000000E+00  0.00000000000E+00 -0.13987721121E+04  0.34090548302E+04  0.31088730135E+04 0.  0.
        2    1    3    3  502    0 -0.15319504384E+04 -0.49000473066E+02 -0.41555016732E+03  0.15880664764E+04  0.25500000920E-02 0.  1.
       -2    1    3    3    0  502  0.15319504384E+04  0.49000473066E+02 -0.98322194480E+03  0.18209883538E+04  0.25500000920E-02 0. -1.
</event>
<event>
 5   0  0.7413481E-07  0.3106932E+04  0.7818609E-02  0.8213838E-01
        1   -1    0    0  501    0  0.00000000000E+00  0.00000000000E+00  0.13949786368E+04  0.13949786368E+04  0.50400001928E-02 0.  1.
       -1   -1    0    0    0  501  0.00000000000E+00  0.00000000000E+00 -0.17299591320E+04  0.17299591320E+04  0.50400001928E-02 0. -1.
    10030    2    1    2    0    0  0.00000000000E+00  0.00000000000E+00 -0.33498049523E+03  0.31249377688E+04  0.31069316257E+04 0.  0.
        5    1    3    3  502    0  0.85968988075E+03 -0.12920195764E+04 -0.23755503706E+03  0.15699795421E+04  0.46999998093E+01 0. -1.
       -5    1    3    3    0  502 -0.85968988075E+03  0.12920195764E+04 -0.97425458171E+02  0.15549582267E+04  0.46999998093E+01 0.  1.
</event>
<event>
 5   0  0.7519202E-07  0.3071108E+04  0.7818609E-02  0.8223712E-01
        1   -1    0    0  501    0  0.00000000000E+00  0.00000000000E+00  0.22607849987E+04  0.22607849987E+04  0.50400001928E-02 0.  1.
       -1   -1    0    0    0  501  0.00000000000E+00  0.00000000000E+00 -0.10429677023E+04  0.10429677023E+04  0.50400001928E-02 0. -1.
    10030    2    1    2    0    0  0.00000000000E+00  0.00000000000E+00  0.12178172964E+04  0.33037527011E+04  0.30711077712E+04 0.  0.
        4    1    3    3  502    0 -0.10821698225E+04 -0.54108312123E+03 -0.40826759519E+03  0.12769285458E+04  0.12699999809E+01 0. -1.
       -4    1    3    3    0  502  0.10821698225E+04  0.54108312123E+03  0.16260848916E+04  0.20268241553E+04  0.12699999809E+01 0.  1.
</event>
<event>
 5   0  0.7561815E-07  0.3059544E+04  0.7818609E-02  0.8226929E-01
       -1   -1    0    0    0  501  0.00000000000E+00  0.00000000000E+00  0.22170404021E+04  0.22170404021E+04  0.50400001928E-02 0.  1.
        1   -1    0    0  501    0  0.00000000000E+00  0.00000000000E+00 -0.10555524474E+04  0.10555524474E+04  0.50400001928E-02 0. -1.
    10030    2    1    2    0    0  0.00000000000E+00  0.00000000000E+00  0.11614879547E+04  0.32725928495E+04  0.30595440330E+04 0.  0.
        3    1    3    3  502    0  0.73275281650E+03 -0.11312994961E+04 -0.19312520076E+03  0.13616396709E+04  0.10100000352E+00 0. -1.
       -3    1    3    3    0  502 -0.73275281650E+03  0.11312994961E+04  0.13546131555E+04  0.19109531787E+04  0.10100000352E+00 0.  1.
</event>
<event>
 5   0  0.7413481E-07  0.3102101E+04  0.7818609E-02  0.8215162E-01
        1   -1    0    0  501    0  0.00000000000E+00  0.00000000000E+00  0.15417254572E+04  0.15417254572E+04  0.50400001928E-02 0. -1.
       -1   -1    0    0    0  501  0.00000000000E+00  0.00000000000E+00 -0.15604316866E+04  0.15604316866E+04  0.50400001928E-02 0.  1.
    10030    2    1    2    0    0  0.00000000000E+00  0.00000000000E+00 -0.18706229363E+02  0.31021571438E+04  0.31021007433E+04 0.  0.
        5    1    3    3  502    0 -0.90556898459E+03  0.90596137782E+03  0.86525638453E+03  0.15458046141E+04  0.46999998093E+01 0. -1.
       -5    1    3    3    0  502  0.90556898459E+03 -0.90596137782E+03 -0.88396261389E+03  0.15563525297E+04  0.46999998093E+01 0.  1.
</event>
<event>
 5   0  0.2133385E-06  0.3403410E+04  0.7818609E-02  0.8137070E-01
       -2   -1    0    0    0  501  0.00000000000E+00  0.00000000000E+00  0.14545484063E+04  0.14545484063E+04  0.25500000920E-02 0. -1.
        2   -1    0    0  501    0  0.00000000000E+00  0.00000000000E+00 -0.19908580413E+04  0.19908580413E+04  0.25500000920E-02 0.  1.
    10030    2    1    2    0    0  0.00000000000E+00  0.00000000000E+00 -0.53630963494E+03  0.34454064476E+04  0.34034096968E+04 0.  0.
        2    1    3    3  502    0 -0.15881833286E+04  0.16157792015E+03  0.32849523743E+03  0.16298290802E+04  0.25500000920E-02 0. -1.
       -2    1    3    3    0  502  0.15881833286E+04 -0.16157792015E+03 -0.86480487237E+03  0.18155773674E+04  0.25500000920E-02 0.  1.
</event>
<event>
 5   0  0.2133385E-06  0.3130537E+04  0.7818609E-02  0.8207407E-01
        2   -1    0    0  501    0  0.00000000000E+00  0.00000000000E+00  0.10715185434E+04  0.10715185434E+04  0.25500000920E-02 0. -1.
       -2   -1    0    0    0  501  0.00000000000E+00  0.00000000000E+00 -0.22865353988E+04  0.22865353988E+04  0.25500000920E-02 0.  1.
    10030    2    1    2    0    0  0.00000000000E+00  0.00000000000E+00 -0.12150168553E+04  0.33580539422E+04  0.31305367463E+04 0.  0.
        2    1    3    3  502    0  0.13148743779E+04 -0.84066187626E+03 -0.73648887394E+03  0.17256948981E+04  0.25500000920E-02 0. -1.
       -2    1    3    3    0  502 -0.13148743779E+04  0.84066187626E+03 -0.47852798141E+03  0.16323590441E+04  0.25500000920E-02 0.  1.
</event>
<event>
 5   0  0.7519202E-07  0.3113493E+04  0.7818609E-02  0.8212045E-01
        1   -1    0    0  501    0  0.00000000000E+00  0.00000000000E+00  0.27032568230E+04  0.27032568230E+04  0.50400001928E-02 0.  1.
       -1   -1    0    0    0  501  0.00000000000E+00  0.00000000000E+00 -0.89649619627E+03  0.89649619628E+03  0.50400001928E-02 0. -1.
    10030    2    1    2    0    0  0.00000000000E+00  0.00000000000E+00  0.18067606267E+04  0.35997530193E+04  0.31134928677E+04 0.  0.
        4    1    3    3  502    0  0.11310842043E+04 -0.81051813235E+01 -0.33326615709E+03  0.11791883291E+04  0.12699999809E+01 0. -1.
       -4    1    3    3    0  502 -0.11310842043E+04  0.81051813235E+01  0.21400267838E+04  0.24205646902E+04  0.12699999809E+01 0.  1.
</event>
<event>
 5   0  0.7726743E-07  0.3122622E+04  0.7818609E-02  0.8209557E-01
        1   -1    0    0  501    0  0.00000000000E+00  0.00000000000E+00  0.19512106334E+04  0.19512106334E+04  0.50400001928E-02 0.  1.
       -1   -1    0    0    0  501  0.00000000000E+00  0.00000000000E+00 -0.12493226536E+04  0.12493226536E+04  0.50400001928E-02 0. -1.
    10030    2    1    2    0    0  0.00000000000E+00  0.00000000000E+00  0.70188797986E+03  0.32005332870E+04  0.31226217486E+04 0.  0.
        1    1    3    3  502    0  0.66487183360E+03  0.92696572699E+03  0.14435489306E+04  0.18398786724E+04  0.50400001928E-02 0.  1.
       -1    1    3    3    0  502 -0.66487183360E+03 -0.92696572699E+03 -0.74166095078E+03  0.13606546145E+04  0.50400001928E-02 0. -1.
</event>
<event>
 5   0  0.7726743E-07  0.3106889E+04  0.7818609E-02  0.8213850E-01
       -1   -1    0    0    0  501  0.00000000000E+00  0.00000000000E+00  0.11447429823E+04  0.11447429823E+04  0.50400001928E-02 0.  1.
        1   -1    0    0  501    0  0.00000000000E+00  0.00000000000E+00 -0.21080623722E+04  0.21080623722E+04  0.50400001928E-02 0. -1.
    10030    2    1    2    0    0  0.00000000000E+00  0.00000000000E+00 -0.96331938992E+03  0.32528053546E+04  0.31068888663E+04 0.  0.
        1    1    3    3  502    0  0.14285685311E+04 -0.43560720533E+03 -0.34239126251E+02  0.14938989267E+04  0.50400001928E-02 0.  1.
       -1    1    3    3    0  502 -0.14285685311E+04  0.43560720533E+03 -0.92908026367E+03  0.17589064278E+04  0.50400001928E-02 0. -1.
</event>
<event>
 5   0  0.7413481E-07  0.2713580E+04  0.7818609E-02  0.8330612E-01
       -1   -1    0    0    0  501  0.00000000000E+00  0.00000000000E+00  0.15791857840E+04  0.15791857840E+04  0.50400001928E-02 0.  1.
        1   -1    0    0  501    0  0.00000000000E+00  0.00000000000E+00 -0.11657141206E+04  0.11657141207E+04  0.50400001928E-02 0. -1.
    10030    2    1    2    0    0  0.00000000000E+00  0.00000000000E+00  0.41347166333E+03  0.27448999046E+04  0.27135800468E+04 0.  0.
        5    1    3    3  502    0 -0.49458016979E+03  0.20519417073E+03 -0.10543055758E+04  0.11824958897E+04  0.46999998093E+01 0. -1.
       -5    1    3    3    0  502  0.49458016979E+03 -0.20519417073E+03  0.14677772391E+04  0.15624040149E+04  0.46999998093E+01 0.  1.
</event>
<event>
 5   0  0.2094135E-06  0.2936957E+04  0.7818609E-02  0.8261966E-01
       -2   -1    0    0    0  501  0.00000000000E+00  0.00000000000E+00  0.10451700618E+04  0.10451700618E+04  0.25500000920E-02 0.  1.
        2   -1    0    0  501    0  0.00000000000E+00  0.00000000000E+00 -0.20632332402E+04  0.20632332402E+04  0.25500000920E-02 0. -1.
    10030    2    1    2    0    0  0.00000000000E+00  0.00000000000E+00 -0.10180631784E+04  0.31084033020E+04  0.29369573461E+04 0.  0.
        4    1    3    3  502    0 -0.96984308610E+03 -0.33133912188E+03  0.60404864128E+03  0.11896459975E+04  0.12699999809E+01 0.  1.
       -4    1    3    3    0  502  0.96984308610E+03  0.33133912188E+03 -0.16221118197E+04  0.19187573046E+04  0.12699999809E+01 0. -1.
</event>
<event>
 5   0  0.2078009E-06  0.3068288E+04  0.7818609E-02  0.8224495E-01
        2   -1    0    0  501    0  0.00000000000E+00  0.00000000000E+00  0.14761429266E+04  0.14761429266E+04  0.25500000920E-02 0.  1.
       -2   -1    0    0    0  501  0.00000000000E+00  0.00000000000E+00 -0.15944237448E+04  0.15944237448E+04  0.25500000920E-02 0. -1.
    10030    2    1    2    0    0  0.00000000000E+00  0.00000000000E+00 -0.11828081818E+03  0.30705666714E+04  0.30682876872E+04 0.  0.
        3    1    3    3  502    0  0.36703309576E+03 -0.69380847092E+03  0.12599865316E+04  0.14844694533E+04  0.10100000352E+00 0.  1.
       -3    1    3    3    0  502 -0.36703309576E+03  0.69380847092E+03 -0.13782673498E+04  0.15860972181E+04  0.10100000352E+00 0. -1.
</event>
<event>
 5   0  0.2067926E-06  0.3086839E+04  0.7818609E-02  0.8219359E-01
        2   -1    0    0  501    0  0.00000000000E+00  0.00000000000E+00  0.25522425402E+04  0.25522425402E+04  0.25500000920E-02 0.  1.
       -2   -1    0    0    0  501  0.00000000000E+00  0.00000000000E+00 -0.93335342224E+03  0.93335342224E+03  0.25500000920E-02 0. -1.
    10030    2    1    2    0    0  0.00000000000E+00  0.00000000000E+00  0.16188891179E+04  0.34855959624E+04  0.30868393604E+04 0.  0.
        1    1    3    3  502    0 -0.55810618185E+03 -0.13541634654E+04  0.13590466720E+04  0.19980613249E+04  0.50400001928E-02 0.  1.
       -1    1    3    3    0  502  0.55810618185E+03  0.13541634654E+04  0.25984244590E+03  0.14875346375E+04  0.50400001928E-02 0. -1.
</event>
<event>
 5   0  0.2078009E-06  0.3085863E+04  0.7818609E-02  0.8219628E-01
       -2   -1    0    0    0  501  0.00000000000E+00  0.00000000000E+00  0.90908629171E+03  0.90908629171E+03  0.25500000920E-02 0.  1.
        2   -1    0    0  501    0  0.00000000000E+00  0.00000000000E+00 -0.26187145509E+04  0.26187145509E+04  0.25500000920E-02 0. -1.
    10030    2    1    2    0    0  0.00000000000E+00  0.00000000000E+00 -0.17096282591E+04  0.35278008426E+04  0.30858629264E+04 0.  0.
        3    1    3    3  502    0  0.31930562185E+03  0.15040567632E+04 -0.70798942059E+03  0.16927468378E+04  0.10100000352E+00 0.  1.
       -3    1    3    3    0  502 -0.31930562185E+03 -0.15040567632E+04 -0.10016388386E+04  0.18350540047E+04  0.10100000352E+00 0. -1.
</event>
<event>
 5   0  0.2226334E-06  0.3110560E+04  0.7818609E-02  0.8212846E-01
       -2   -1    0    0    0  501  0.00000000000E+00  0.00000000000E+00  0.13627011609E+04  0.13627011609E+04  0.25500000920E-02 0. -1.
        2   -1    0    0  501    0  0.00000000000E+00  0.00000000000E+00 -0.17750741345E+04  0.17750741345E+04  0.25500000920E-02 0.  1.
    10030    2    1    2    0    0  0.00000000000E+00  0.00000000000E+00 -0.41237297362E+03  0.31377752954E+04  0.31105598106E+04 0.  0.
        5    1    3    3  502    0  0.18611348340E+03 -0.36510948308E+03  0.13072503816E+04  0.13699886180E+04  0.46999998093E+01 0. -1.
       -5    1    3    3    0  502 -0.18611348340E+03  0.36510948308E+03 -0.17196233552E+04  0.17677866775E+04  0.46999998093E+01 0.  1.
</event>
<event>
 5   0  0.2226334E-06  0.3101025E+04  0.7818609E-02  0.8215457E-01
        2   -1    0    0  501    0  0.00000000000E+00  0.00000000000E+00  0.14062166637E+04  0.14062166637E+04  0.25500000920E-02 0. -1.
       -2   -1    0    0    0  501  0.00000000000E+00  0.00000000000E+00 -0.17096147919E+04  0.17096147919E+04  0.25500000920E-02 0.  1.
    10030    2    1    2    0    0  0.00000000000E+00  0.00000000000E+00 -0.30339812821E+03  0.31158314555E+04  0.31010248685E+04 0.  0.
        5    1    3    3  502    0  0.14747988143E+04  0.18753978497E+03 -0.59410128521E+03  0.16009937978E+04  0.46999998093E+01 0.  1.
       -5    1    3    3    0  502 -0.14747988143E+04 -0.18753978497E+03  0.29070315699E+03  0.15148376577E+04  0.46999998093E+01 0. -1.
</event>
<event>
 5   0  0.7561815E-07  0.3106828E+04  0.7818609E-02  0.8213866E-01
        1   -1    0    0  501    0  0.00000000000E+00  0.00000000000E+00  0.21476635596E+04  0.21476635596E+04  0.50400001928E-02 0. -1.
       -1   -1    0    0    0  501  0.00000000000E+00  0.00000000000E+00 -0.11235908980E+04  0.11235908980E+04  0.50400001928E-02 0.  1.
    10030    2    1    2    0    0  0.00000000000E+00  0.00000000000E+00  0.10240726616E+04  0.32712544577E+04  0.31068281109E+04 0.  0.
        3    1    3    3  502    0  0.51554671255E+03 -0.50252917200E+03 -0.93732107175E+03  0.11819030346E+04  0.10100000352E+00 0.  1.
       -3    1    3    3    0  502 -0.51554671255E+03  0.50252917200E+03  0.19613937333E+04  0.20893514230E+04  0.10100000352E+00 0. -1.
</event>
<event>
 5   0  0.2067926E-06  0.3088187E+04  0.7818609E-02  0.8218987E-01
       -2   -1    0    0    0  501  0.00000000000E+00  0.00000000000E+00  0.18595397734E+04  0.18595397734E+04  0.25500000920E-02 0. -1.
        2   -1    0    0  501    0  0.00000000000E+00  0.00000000000E+00 -0.12821586208E+04  0.12821586209E+04  0.25500000920E-02 0.  1.
    10030    2    1    2    0    0  0.00000000000E+00  0.00000000000E+00  0.57738115254E+03  0.31416983942E+04  0.30881871389E+04 0.  0.
        1    1    3    3  502    0  0.69161954878E+03  0.21057760417E+03 -0.10993353635E+04  0.13157578687E+04  0.50400001928E-02 0.  1.
       -1    1    3    3    0  502 -0.69161954878E+03 -0.21057760417E+03  0.16767165160E+04  0.18259405255E+04  0.50400001928E-02 0. -1.
</event>
<event>
 5   0  0.7561815E-07  0.3162958E+04  0.7818609E-02  0.8198669E-01
        1   -1    0    0  501    0  0.00000000000E+00  0.00000000000E+00  0.12918666560E+04  0.12918666560E+04  0.50400001928E-02 0. -1.
       -1   -1    0    0    0  501  0.00000000000E+00  0.00000000000E+00 -0.19360174699E+04  0.19360174699E+04  0.50400001928E-02 0.  1.
    10030    2    1    2    0    0  0.00000000000E+00  0.00000000000E+00 -0.64415081386E+03  0.32278841259E+04  0.31629583714E+04 0.  0.
        3    1    3    3  502    0  0.14018343342E+04 -0.72462344132E+03 -0.42841495902E+03  0.16351629948E+04  0.10100000352E+00 0.  1.
       -3    1    3    3    0  502 -0.14018343342E+04  0.72462344132E+03 -0.21573585485E+03  0.15927211311E+04  0.10100000352E+00 0. -1.
</event>
<event>
 5   0  0.7656332E-07  0.3094740E+04  0.7818609E-02  0.8217183E-01
       -1   -1    0    0    0  501  0.00000000000E+00  0.00000000000E+00  0.12624927546E+04  0.12624927547E+04  0.50400001928E-02 0.  1.
        1   -1    0    0  501    0  0.00000000000E+00  0.00000000000E+00 -0.18965288067E+04  0.18965288067E+04  0.50400001928E-02 0. -1.
    10030    2    1    2    0    0  0.00000000000E+00  0.00000000000E+00 -0.63403605203E+03  0.31590215613E+04  0.30947399745E+04 0.  0.
        2    1    3    3  502    0  0.76875358210E+03 -0.80141158182E+03  0.78291273603E+03  0.13587475651E+04  0.25500000920E-02 0.  1.
       -2    1    3    3    0  502 -0.76875358210E+03  0.80141158182E+03 -0.14169487881E+04  0.18002739962E+04  0.25500000920E-02 0. -1.
</event>
<event>
 5   0  0.7519202E-07  0.3109722E+04  0.7818609E-02  0.8213075E-01
       -1   -1    0    0    0  501  0.00000000000E+00  0.00000000000E+00  0.13932708034E+04  0.13932708034E+04  0.50400001928E-02 0. -1.
        1   -1    0    0  501    0  0.00000000000E+00  0.00000000000E+00 -0.17351923449E+04  0.17351923449E+04  0.50400001928E-02 0.  1.
    10030    2    1    2    0    0  0.00000000000E+00  0.00000000000E+00 -0.34192154148E+03  0.31284631483E+04  0.31097220663E+04 0.  0.
        4    1    3    3  502    0 -0.70746401988E+03  0.90534833626E+03  0.88293566500E+03  0.14490472562E+04  0.12699999809E+01 0. -1.
       -4    1    3    3    0  502  0.70746401988E+03 -0.90534833626E+03 -0.12248572065E+04  0.16794158921E+04  0.12699999809E+01 0.  1.
</event>
<event>
 5   0  0.2094135E-06  0.3071536E+04  0.7818609E-02  0.8223593E-01
        2   -1    0    0  501    0  0.00000000000E+00  0.00000000000E+00  0.18320608933E+04  0.18320608933E+04  0.25500000920E-02 0. -1.
       -2   -1    0    0    0  501  0.00000000000E+00  0.00000000000E+00 -0.12873936294E+04  0.12873936294E+04  0.25500000920E-02 0.  1.
    10030    2    1    2    0    0  0.00000000000E+00  0.00000000000E+00  0.54466726389E+03  0.31194545226E+04  0.30715361125E+04 0.  0.
        4    1    3    3  502    0 -0.12742953777E+04 -0.41663391940E+03 -0.48846551107E+03  0.14268891691E+04  0.12699999809E+01 0.  1.
       -4    1    3    3    0  502  0.12742953777E+04  0.41663391940E+03  0.10331327750E+04  0.16925653536E+04  0.12699999809E+01 0. -1.
</event>
<event>
 5   0  0.7413481E-07  0.3055872E+04  0.7818609E-02  0.8227954E-01
       -1   -1    0    0    0  501  0.00000000000E+00  0.00000000000E+00  0.24106261392E+04  0.24106261392E+04  0.50400001928E-02 0.  1.
        1   -1    0    0  501    0  0.00000000000E+00  0.00000000000E+00 -0.96845696289E+03  0.96845696290E+03  0.50400001928E-02 0. -1.
    10030    2    1    2    0    0  0.00000000000E+00  0.00000000000E+00  0.14421691763E+04  0.33790831021E+04  0.30558715087E+04 0.  0.
        5    1    3    3  502    0 -0.65107036347E+03 -0.20831662819E+03 -0.78992831799E+03  0.10446517474E+04  0.46999998093E+01 0. -1.
       -5    1    3    3    0  502  0.65107036347E+03  0.20831662819E+03  0.22320974943E+04  0.23344313547E+04  0.46999998093E+01 0.  1.
</event>
<event>
 5   0  0.7413481E-07  0.3081690E+04  0.7818609E-02  0.8220781E-01
       -1   -1    0    0    0  501  0.00000000000E+00  0.00000000000E+00  0.11827120695E+04  0.11827120696E+04  0.50400001928E-02 0.  1.
        1   -1    0    0  501    0  0.00000000000E+00  0.00000000000E+00 -0.20074227657E+04  0.20074227657E+04  0.50400001928E-02 0. -1.
    10030    2    1    2    0    0  0.00000000000E+00  0.00000000000E+00 -0.82471069612E+03  0.31901348352E+04  0.30816898829E+04 0.  0.
        5    1    3    3  502    0  0.43950169469E+03  0.56953433123E+01 -0.19411411197E+04  0.19902876961E+04  0.46999998093E+01 0. -1.
       -5    1    3    3    0  502 -0.43950169469E+03 -0.56953433123E+01  0.11164304236E+04  0.11998471391E+04  0.46999998093E+01 0.  1.
</event>
<event>
 5   0  0.7413481E-07  0.3098532E+04  0.7818609E-02  0.8216141E-01
        1   -1    0    0  501    0  0.00000000000E+00  0.00000000000E+00  0.83090908494E+03  0.83090908495E+03  0.50400001928E-02 0. -1.
       -1   -1    0    0    0  501  0.00000000000E+00  0.00000000000E+00 -0.28886727816E+04  0.28886727816E+04  0.50400001928E-02 0.  1.
    10030    2    1    2    0    0  0.00000000000E+00  0.00000000000E+00 -0.20577636967E+04  0.37195818666E+04  0.30985315604E+04 0.  0.
        5    1    3    3  502    0  0.13986749251E+04 -0.62748303294E+03 -0.75998504945E+03  0.17110306450E+04  0.46999998093E+01 0. -1.
       -5    1    3    3    0  502 -0.13986749251E+04  0.62748303294E+03 -0.12977786472E+04  0.20085512216E+04  0.46999998093E+01 0.  1.
</event>
<event>
 5   0  0.2226334E-06  0.3123392E+04  0.7818609E-02  0.8209347E-01
        2   -1    0    0  501    0  0.00000000000E+00  0.00000000000E+00  0.11538372448E+04  0.11538372448E+04  0.25500000920E-02 0. -1.
       -2   -1    0    0    0  501  0.00000000000E+00  0.00000000000E+00 -0.21137247467E+04  0.21137247467E+04  0.25500000920E-02 0.  1.
    10030    2    1    2    0    0  0.00000000000E+00  0.00000000000E+00 -0.95988750193E+03  0.32675619915E+04  0.31233919626E+04 0.  0.
        5    1    3    3  502    0  0.54858479881E+03  0.36133250857E+03 -0.19621567099E+04  0.20691997263E+04  0.46999998093E+01 0.  1.
       -5    1    3    3    0  502 -0.54858479881E+03 -0.36133250857E+03  0.10022692080E+04  0.11983622651E+04  0.46999998093E+01 0. -1.
</event>
<event>
 5   0  0.2067926E-06  0.3090014E+04  0.7818609E-02  0.8218484E-01
       -2   -1    0    0    0  501  0.00000000000E+00  0.00000000000E+00  0.15527567451E+04  0.15527567451E+04  0.25500000920E-02 0. -1.
        2   -1    0    0  501    0  0.00000000000E+00  0.00000000000E+00 -0.15372956697E+04  0.15372956697E+04  0.25500000920E-02 0.  1.
    10030    2    1    2    0    0  0.00000000000E+00  0.00000000000E+00  0.15461075412E+02  0.30900524148E+04  0.30900137348E+04 0.  0.
        1    1    3    3  502    0 -0.96996042868E+03 -0.12019588685E+04  0.46690819177E+02  0.15452211451E+04  0.50400001928E-02 0.  1.
       -1    1    3    3    0  502  0.96996042868E+03  0.12019588685E+04 -0.31229743765E+02  0.15448312696E+04  0.50400001928E-02 0. -1.
</event>
<event>
 5   0  0.7656332E-07  0.3081741E+04  0.7818609E-02  0.8220767E-01
        1   -1    0    0  501    0  0.00000000000E+00  0.00000000000E+00  0.26174805960E+04  0.26174805960E+04  0.50400001928E-02 0.  1.
       -1   -1    0    0    0  501  0.00000000000E+00  0.00000000000E+00 -0.90708647582E+03  0.90708647584E+03  0.50400001928E-02 0. -1.
    10030    2    1    2    0    0  0.00000000000E+00  0.00000000000E+00  0.17103941202E+04  0.35245670718E+04  0.30817405792E+04 0.  0.
        2    1    3    3  502    0 -0.26284491679E+03  0.10367412674E+04 -0.41340683743E+03  0.11466582398E+04  0.25500000920E-02 0. -1.
       -2    1    3    3    0  502  0.26284491679E+03 -0.10367412674E+04  0.21238009576E+04  0.23779088320E+04  0.25500000920E-02 0.  1.
</event>
<event>
 5   0  0.2226334E-06  0.3106551E+04  0.7818609E-02  0.8213942E-01
        2   -1    0    0  501    0  0.00000000000E+00  0.00000000000E+00  0.16292472541E+04  0.16292472541E+04  0.25500000920E-02 0.  1.
       -2   -1    0    0    0  501  0.00000000000E+00  0.00000000000E+00 -0.14808465886E+04  0.14808465886E+04  0.25500000920E-02 0. -1.
    10030    2    1    2    0    0  0.00000000000E+00  0.00000000000E+00  0.14840066545E+03  0.31100938427E+04  0.31065512957E+04 0.  0.
        5    1    3    3  502    0  0.32915053935E+03  0.39019752108E+03  0.15428595613E+04  0.16251251948E+04  0.46999998093E+01 0.  1.
       -5    1    3    3    0  502 -0.32915053935E+03 -0.39019752108E+03 -0.13944588958E+04  0.14849686479E+04  0.46999998093E+01 0. -1.
</event>
<event>
 5   0  0.2067926E-06  0.3091613E+04  0.7818609E-02  0.8218043E-01
       -2   -1    0    0    0  501  0.00000000000E+00  0.00000000000E+00  0.10877255598E+04  0.10877255598E+04  0.25500000920E-02 0. -1.
        2   -1    0    0  501    0  0.00000000000E+00  0.00000000000E+00 -0.21968024015E+04  0.21968024015E+04  0.25500000920E-02 0.  1.
    10030    2    1    2    0    0  0.00000000000E+00  0.00000000000E+00 -0.11090768417E+04  0.32845279614E+04  0.30916132501E+04 0.  0.
        1    1    3    3  502    0  0.47860525863E+03 -0.21013181674E+02  0.10068682975E+04  0.11150283924E+04  0.50400001928E-02 0. -1.
       -1    1    3    3    0  502 -0.47860525863E+03  0.21013181674E+02 -0.21159451392E+04  0.21694995689E+04  0.50400001928E-02 0.  1.
</event>
<event>
 5   0  0.2067926E-06  0.3065810E+04  0.7818609E-02  0.8225184E-01
       -2   -1    0    0    0  501  0.00000000000E+00  0.00000000000E+00  0.14442946574E+04  0.14442946574E+04  0.25500000920E-02 0. -1.
        2   -1    0    0  501    0  0.00000000000E+00  0.00000000000E+00 -0.16269518115E+04  0.16269518115E+04  0.25500000920E-02 0.  1.
    10030    2    1    2    0    0  0.00000000000E+00  0.00000000000E+00 -0.18265715402E+03  0.30712464689E+04  0.30658100458E+04 0.  0.
        1    1    3    3  502    0 -0.14008946521E+04  0.49572894983E+03  0.28556294917E+03  0.15132082527E+04  0.50400001928E-02 0.  1.
       -1    1    3    3    0  502  0.14008946521E+04 -0.49572894983E+03 -0.46822010319E+03  0.15580382162E+04  0.50400001928E-02 0. -1.
</event>
<event>
 5   0  0.2078009E-06  0.2850405E+04  0.7818609E-02  0.8287788E-01
        2   -1    0    0  501    0  0.00000000000E+00  0.00000000000E+00  0.13633791770E+04  0.13633791770E+04  0.25500000920E-02 0.  1.
       -2   -1    0    0    0  501  0.00000000000E+00  0.00000000000E+00 -0.14898293227E+04  0.14898293227E+04  0.25500000920E-02 0. -1.
    10030    2    1    2    0    0  0.00000000000E+00  0.00000000000E+00 -0.12645014566E+03  0.28532084996E+04  0.28504050770E+04 0.  0.
        3    1    3    3  502    0 -0.40292946624E+03 -0.11607060290E+04 -0.78616224697E+03  0.14586437979E+04  0.10100000352E+00 0. -1.
       -3    1    3    3    0  502  0.40292946624E+03  0.11607060290E+04  0.65971210131E+03  0.13945647017E+04  0.10100000352E+00 0.  1.
</event>
<event>
 5   0  0.7519202E-07  0.3085760E+04  0.7818609E-02  0.8219657E-01
        1   -1    0    0  501    0  0.00000000000E+00  0.00000000000E+00  0.14670997734E+04  0.14670997734E+04  0.50400001928E-02 0. -1.
       -1   -1    0    0    0  501  0.00000000000E+00  0.00000000000E+00 -0.16225746175E+04  0.16225746175E+04  0.50400001928E-02 0.  1.
    10030    2    1    2    0    0  0.00000000000E+00  0.00000000000E+00 -0.15547484406E+03  0.30896743910E+04  0.30857601033E+04 0.  0.
        4    1    3    3  502    0 -0.12593240234E+04  0.62980328310E+03  0.55387816805E+03  0.15130538025E+04  0.12699999809E+01 0. -1.
       -4    1    3    3    0  502  0.12593240234E+04 -0.62980328310E+03 -0.70935301211E+03  0.15766205885E+04  0.12699999809E+01 0.  1.
</event>
<event>
 5   0  0.7519202E-07  0.3111154E+04  0.7818609E-02  0.8212683E-01
       -1   -1    0    0    0  501  0.00000000000E+00  0.00000000000E+00  0.10641649710E+04  0.10641649710E+04  0.50400001928E-02 0. -1.
        1   -1    0    0  501    0  0.00000000000E+00  0.00000000000E+00 -0.22739145200E+04  0.22739145200E+04  0.50400001928E-02 0.  1.
    10030    2    1    2    0    0  0.00000000000E+00  0.00000000000E+00 -0.12097495490E+04  0.33380794910E+04  0.31111542419E+04 0.  0.
        4    1    3    3  502    0 -0.21635781522E+03 -0.80630456731E+03  0.80344976987E+03  0.11586504672E+04  0.12699999809E+01 0. -1.
       -4    1    3    3    0  502  0.21635781522E+03  0.80630456731E+03 -0.20131993188E+04  0.21794290238E+04  0.12699999809E+01 0.  1.
</event>
<event>
 5   0  0.7726743E-07  0.3110212E+04  0.7818609E-02  0.8212941E-01
       -1   -1    0    0    0  501  0.00000000000E+00  0.00000000000E+00  0.12016775062E+04  0.12016775062E+04  0.50400001928E-02 0.  1.
        1   -1    0    0  501    0  0.00000000000E+00  0.00000000000E+00 -0.20124827875E+04  0.20124827875E+04  0.50400001928E-02 0. -1.
    10030    2    1    2    0    0  0.00000000000E+00  0.00000000000E+00 -0.81080528127E+03  0.32141602938E+04  0.31102124027E+04 0.  0.
        1    1    3    3  502    0 -0.36984762715E+03 -0.15081138359E+04 -0.49285164314E+03  0.16291400650E+04  0.50400001928E-02 0. -1.
       -1    1    3    3    0  502  0.36984762715E+03  0.15081138359E+04 -0.31795363813E+03  0.15850202287E+04  0.50400001928E-02 0.  1.
</event>
<event>
 5   0  0.2226334E-06  0.3157012E+04  0.7818609E-02  0.8200263E-01
       -2   -1    0    0    0  501  0.00000000000E+00  0.00000000000E+00  0.11614430282E+04  0.11614430282E+04  0.25500000920E-02 0.  1.
        2   -1    0    0  501    0  0.00000000000E+00  0.00000000000E+00 -0.21453317481E+04  0.21453317481E+04  0.25500000920E-02 0. -1.
    10030    2    1    2    0    0  0.00000000000E+00  0.00000000000E+00 -0.98388871987E+03  0.33067747763E+04  0.31570116262E+04 0.  0.
        5    1    3    3  502    0  0.89075729042E+03 -0.11559341300E+04 -0.11221734784E+04  0.18409040358E+04  0.46999998093E+01 0. -1.
       -5    1    3    3    0  502 -0.89075729042E+03  0.11559341300E+04  0.13828475855E+03  0.14658707405E+04  0.46999998093E+01 0.  1.
</event>
<event>
 5   0  0.7726743E-07  0.3213107E+04  0.7818609E-02  0.8185364E-01
        1   -1    0    0  501    0  0.00000000000E+00  0.00000000000E+00  0.22158768629E+04  0.22158768629E+04  0.50400001928E-02 0. -1.
       -1   -1    0    0    0  501  0.00000000000E+00  0.00000000000E+00 -0.11647823542E+04  0.11647823543E+04  0.50400001928E-02 0.  1.
    10030    2    1    2    0    0  0.00000000000E+00  0.00000000000E+00  0.10510945087E+04  0.33806592172E+04  0.32131070752E+04 0.  0.
        1    1    3    3  502    0  0.12377215994E+02 -0.13824581617E+04 -0.33545994256E+03  0.14226303587E+04  0.50400001928E-02 0.  1.
       -1    1    3    3    0  502 -0.12377215994E+02  0.13824581617E+04  0.13865544512E+04  0.19580288585E+04  0.50400001928E-02 0. -1.
</event>
<event>
 5   0  0.2226334E-06  0.3049103E+04  0.7818609E-02  0.8229847E-01
       -2   -1    0    0    0  501  0.00000000000E+00  0.00000000000E+00  0.10490237609E+04  0.10490237610E+04  0.25500000920E-02 0. -1.
        2   -1    0    0  501    0  0.00000000000E+00  0.00000000000E+00 -0.22156376734E+04  0.22156376734E+04  0.25500000920E-02 0.  1.
    10030    2    1    2    0    0  0.00000000000E+00  0.00000000000E+00 -0.11666139124E+04  0.32646614343E+04  0.30491025335E+04 0.  0.
        5    1    3    3  502    0 -0.10176963642E+04  0.48849296456E+03 -0.16803931548E+04  0.20243701516E+04  0.46999998093E+01 0.  1.
       -5    1    3    3    0  502  0.10176963642E+04 -0.48849296456E+03  0.51377924234E+03  0.12402912827E+04  0.46999998093E+01 0. -1.
</event>
<event>
 5   0  0.2067926E-06  0.3093782E+04  0.7818609E-02  0.8217446E-01
        2   -1    0    0  501    0  0.00000000000E+00  0.00000000000E+00  0.10841175009E+04  0.10841175009E+04  0.25500000920E-02 0. -1.
       -2   -1    0    0    0  501  0.00000000000E+00  0.00000000000E+00 -0.22072074170E+04  0.22072074170E+04  0.25500000920E-02 0.  1.
    10030    2    1    2    0    0  0.00000000000E+00  0.00000000000E+00 -0.11230899161E+04  0.32913249179E+04  0.30937822735E+04 0.  0.
        1    1    3    3  502    0 -0.17701563091E+03  0.12579292084E+04  0.37751222608E+03  0.13252305112E+04  0.50400001928E-02 0. -1.
       -1    1    3    3    0  502  0.17701563091E+03 -0.12579292084E+04 -0.15006021421E+04  0.19660944067E+04  0.50400001928E-02 0.  1.
</event>
<event>
 5   0  0.2094135E-06  0.3107780E+04  0.7818609E-02  0.8213606E-01
       -2   -1    0    0    0  501  0.00000000000E+00  0.00000000000E+00  0.11857498577E+04  0.11857498577E+04  0.25500000920E-02 0.  1.
        2   -1    0    0  501    0  0.00000000000E+00  0.00000000000E+00 -0.20363271327E+04  0.20363271327E+04  0.25500000920E-02 0. -1.
    10030    2    1    2    0    0  0.00000000000E+00  0.00000000000E+00 -0.85057727506E+03  0.32220769904E+04  0.31077803061E+04 0.  0.
        4    1    3    3  502    0 -0.72813485154E+02 -0.14278116553E+04  0.20589102757E+03  0.14444170640E+04  0.12699999809E+01 0.  1.
       -4    1    3    3    0  502  0.72813485154E+02  0.14278116553E+04 -0.10564683026E+04  0.17776599264E+04  0.12699999809E+01 0. -1.
</event>
<event>
 5   0  0.2226334E-06  0.3106428E+04  0.7818609E-02  0.8213976E-01
        2   -1    0    0  501    0  0.00000000000E+00  0.00000000000E+00  0.16217790227E+04  0.16217790227E+04  0.25500000920E-02 0.  1.
       -2   -1    0    0    0  501  0.00000000000E+00  0.00000000000E+00 -0.14875473655E+04  0.14875473655E+04  0.25500000920E-02 0. -1.
    10030    2    1    2    0    0  0.00000000000E+00  0.00000000000E+00  0.13423165720E+03  0.31093263883E+04  0.31064276027E+04 0.  0.
        5    1    3    3  502    0  0.12164943694E+03 -0.13173893860E+04 -0.74736190378E+03  0.15195016568E+04  0.46999998093E+01 0. -1.
       -5    1    3    3    0  502 -0.12164943694E+03  0.13173893860E+04  0.88159356098E+03  0.15898247314E+04  0.46999998093E+01 0.  1.
</event>
<event>
 5   0  0.7519202E-07  0.3071871E+04  0.7818609E-02  0.8223500E-01
       -1   -1    0    0    0  501  0.00000000000E+00  0.00000000000E+00  0.13723646093E+04  0.13723646093E+04  0.50400001928E-02 0.  1.
        1   -1    0    0  501    0  0.00000000000E+00  0.00000000000E+00 -0.17190026486E+04  0.17190026486E+04  0.50400001928E-02 0. -1.
    10030    2    1    2    0    0  0.00000000000E+00  0.00000000000E+00 -0.34663803934E+03  0.30913672579E+04  0.30718713503E+04 0.  0.
        4    1    3    3  502    0  0.14876739451E+04 -0.37501811485E+03 -0.24647447797E+03  0.15538866222E+04  0.12699999809E+01 0. -1.
       -4    1    3    3    0  502 -0.14876739451E+04  0.37501811485E+03 -0.10016356137E+03  0.15374806357E+04  0.12699999809E+01 0.  1.
</event>
<event>
 5   0  0.2067926E-06  0.3118679E+04  0.7818609E-02  0.8210630E-01
        2   -1    0    0  501    0  0.00000000000E+00  0.00000000000E+00  0.14552455791E+04  0.14552455791E+04  0.25500000920E-02 0.  1.
       -2   -1    0    0    0  501  0.00000000000E+00  0.00000000000E+00 -0.16708792195E+04  0.16708792195E+04  0.25500000920E-02 0. -1.
    10030    2    1    2    0    0  0.00000000000E+00  0.00000000000E+00 -0.21563364049E+03  0.31261247986E+04  0.31186789494E+04 0.  0.
        1    1    3    3  502    0  0.28185788535E+03 -0.61104402497E+03 -0.15178454032E+04  0.16603232626E+04  0.50400001928E-02 0. -1.
       -1    1    3    3    0  502 -0.28185788535E+03  0.61104402497E+03  0.13022117628E+04  0.14658015360E+04  0.50400001928E-02 0.  1.
</event>
<event>
 5   0  0.7519202E-07  0.3204650E+04  0.7818609E-02  0.8187590E-01
       -1   -1    0    0    0  501  0.00000000000E+00  0.00000000000E+00  0.18027091957E+04  0.18027091957E+04  0.50400001928E-02 0.  1.
        1   -1    0    0  501    0  0.00000000000E+00  0.00000000000E+00 -0.14242146187E+04  0.14242146187E+04  0.50400001928E-02 0. -1.
    10030    2    1    2    0    0  0.00000000000E+00  0.00000000000E+00  0.37849457696E+03  0.32269238144E+04  0.32046496157E+04 0.  0.
        4    1    3    3  502    0  0.11831533371E+03 -0.15137345548E+04 -0.32622128683E+03  0.15530012110E+04  0.12699999809E+01 0. -1.
       -4    1    3    3    0  502 -0.11831533371E+03  0.15137345548E+04  0.70471586379E+03  0.16739226034E+04  0.12699999809E+01 0.  1.
</event>
<event>
 5   0  0.7656332E-07  0.3079416E+04  0.7818609E-02  0.8221410E-01
       -1   -1    0    0    0  501  0.00000000000E+00  0.00000000000E+00  0.12125353459E+04  0.12125353459E+04  0.50400001928E-02 0. -1.
        1   -1    0    0  501    0  0.00000000000E+00  0.00000000000E+00 -0.19551605236E+04  0.19551605236E+04  0.50400001928E-02 0.  1.
    10030    2    1    2    0    0  0.00000000000E+00  0.00000000000E+00 -0.74262517768E+03  0.31676958695E+04  0.30794163355E+04 0.  0.
        2    1    3    3  502    0 -0.75839843805E+03  0.90766263891E+01  0.10070447002E+04  0.12607099604E+04  0.25500000920E-02 0. -1.
       -2    1    3    3    0  502  0.75839843805E+03 -0.90766263891E+01 -0.17496698779E+04  0.19069859091E+04  0.25500000920E-02 0.  1.
</event>
<event>
 5   0  0.7656332E-07  0.3057737E+04  0.7818609E-02  0.8227433E-01
       -1   -1    0    0    0  501  0.00000000000E+00  0.00000000000E+00  0.10162236452E+04  0.10162236452E+04  0.50400001928E-02 0. -1.
        1   -1    0    0  501    0  0.00000000000E+00  0.00000000000E+00 -0.23001231135E+04  0.23001231135E+04  0.50400001928E-02 0.  1.
    10030    2    1    2    0    0  0.00000000000E+00  0.00000000000E+00 -0.12838994683E+04  0.33163467587E+04  0.30577373954E+04 0.  0.
        2    1    3    3  502    0  0.39988412157E+03 -0.13412746429E+04  0.25319374587E+02  0.13998450089E+04  0.25500000920E-02 0. -1.
       -2    1    3    3    0  502 -0.39988412157E+03  0.13412746429E+04 -0.13092188429E+04  0.19165017498E+04  0.25500000920E-02 0.  1.
</event>
<event>
 5   0  0.7726743E-07  0.3106514E+04  0.7818609E-02  0.8213952E-01
        1   -1    0    0  501    0  0.00000000000E+00  0.00000000000E+00  0.84126487353E+03  0.84126487354E+03  0.50400001928E-02 0. -1.
       -1   -1    0    0    0  501  0.00000000000E+00  0.00000000000E+00 -0.28678335628E+04  0.28678335628E+04  0.50400001928E-02 0.  1.
    10030    2    1    2    0    0  0.00000000000E+00  0.00000000000E+00 -0.20265686893E+04  0.37090984363E+04  0.31065142134E+04 0.  0.
        1    1    3    3  502    0 -0.12984948491E+04  0.29763877264E+03 -0.19669178529E+04  0.23755933053E+04  0.50400001928E-02 0.  1.
       -1    1    3    3    0  502  0.12984948491E+04 -0.29763877264E+03 -0.59650836409E+02  0.13335051311E+04  0.50400001928E-02 0. -1.
</event>
<event>
 5   0  0.7519202E-07  0.3094098E+04  0.7818609E-02  0.8217360E-01
        1   -1    0    0  501    0  0.00000000000E+00  0.00000000000E+00  0.21315095433E+04  0.21315095433E+04  0.50400001928E-02 0.  1.
       -1   -1    0    0    0  501  0.00000000000E+00  0.00000000000E+00 -0.11228475849E+04  0.11228475849E+04  0.50400001928E-02 0. -1.
    10030    2    1    2    0    0  0.00000000000E+00  0.00000000000E+00  0.10086619584E+04  0.32543571282E+04  0.30940978283E+04 0.  0.
        4    1    3    3  502    0 -0.67282224435E+02 -0.13666960022E+04 -0.25483919876E+03  0.13918798405E+04  0.12699999809E+01 0. -1.
       -4    1    3    3    0  502  0.67282224435E+02  0.13666960022E+04  0.12635011572E+04  0.18624772877E+04  0.12699999809E+01 0.  1.
</event>
<event>
 5   0  0.2094135E-06  0.3113968E+04  0.7818609E-02  0.8211915E-01
        2   -1    0    0  501    0  0.00000000000E+00  0.00000000000E+00  0.21022727876E+04  0.21022727876E+04  0.25500000920E-02 0. -1.
       -2   -1    0    0    0  501  0.00000000000E+00  0.00000000000E+00 -0.11531328915E+04  0.11531328915E+04  0.25500000920E-02 0.  1.
    10030    2    1    2    0    0  0.00000000000E+00  0.00000000000E+00  0.94913989613E+03  0.32554056791E+04  0.31139684637E+04 0.  0.
        4    1    3    3  502    0  0.52977419634E+03  0.54012561008E+03 -0.94804763071E+03  0.12129271605E+04  0.12699999809E+01 0.  1.
       -4    1    3    3    0  502 -0.52977419634E+03 -0.54012561008E+03  0.18971875268E+04  0.20424785185E+04  0.12699999809E+01 0. -1.
</event>
<event>
 5   0  0.2094135E-06  0.3065076E+04  0.7818609E-02  0.8225388E-01
       -2   -1    0    0    0  501  0.00000000000E+00  0.00000000000E+00  0.10604067301E+04  0.10604067301E+04  0.25500000920E-02 0. -1.
        2   -1    0    0  501    0  0.00000000000E+00  0.00000000000E+00 -0.22148784042E+04  0.22148784042E+04  0.25500000920E-02 0.  1.
    10030    2    1    2    0    0  0.00000000000E+00  0.00000000000E+00 -0.11544716741E+04  0.32752851343E+04  0.30650755072E+04 0.  0.
        4    1    3    3  502    0  0.82164734402E+03  0.10347309068E+04  0.25248087647E+03  0.13451842303E+04  0.12699999809E+01 0. -1.
       -4    1    3    3    0  502 -0.82164734402E+03 -0.10347309068E+04 -0.14069525506E+04  0.19301009041E+04  0.12699999809E+01 0.  1.
</event>
<event>
 5   0  0.7413481E-07  0.3052163E+04  0.7818609E-02  0.8228990E-01
        1   -1    0    0  501    0  0.00000000000E+00  0.00000000000E+00  0.10514107213E+04  0.10514107213E+04  0.50400001928E-02 0. -1.
       -1   -1    0    0    0  501  0.00000000000E+00  0.00000000000E+00 -0.22150473193E+04  0.22150473193E+04  0.50400001928E-02 0.  1.
    10030    2    1    2    0    0  0.00000000000E+00  0.00000000000E+00 -0.11636365981E+04  0.32664580406E+04  0.30521628395E+04 0.  0.
        5    1    3    3  502    0  0.98570398799E+03 -0.43917363917E+02 -0.18277577217E+04  0.20770800336E+04  0.46999998093E+01 0.  1.
       -5    1    3    3    0  502 -0.98570398799E+03  0.43917363917E+02  0.66412112361E+03  0.11893780070E+04  0.46999998093E+01 0. -1.
</event>
<event>
 5   0  0.2133385E-06  0.3092673E+04  0.7818609E-02  0.8217752E-01
        2   -1    0    0  501    0  0.00000000000E+00  0.00000000000E+00  0.17188543333E+04  0.17188543333E+04  0.25500000920E-02 0.  1.
       -2   -1    0    0    0  501  0.00000000000E+00  0.00000000000E+00 -0.13911339196E+04  0.13911339196E+04  0.25500000920E-02 0. -1.
    10030    2    1    2    0    0  0.00000000000E+00  0.00000000000E+00  0.32772041368E+03  0.31099882529E+04  0.30926729965E+04 0.  0.
        2    1    3    3  502    0  0.13662308513E+04  0.72227490892E+03  0.10981188906E+03  0.15492986911E+04  0.25500000920E-02 0.  1.
       -2    1    3    3    0  502 -0.13662308513E+04 -0.72227490892E+03  0.21790852462E+03  0.15606895618E+04  0.25500000920E-02 0. -1.
</event>
<event>
 5   0  0.7413481E-07  0.3115140E+04  0.7818609E-02  0.8211595E-01
        1   -1    0    0  501    0  0.00000000000E+00  0.00000000000E+00  0.24576541924E+04  0.24576541924E+04  0.50400001928E-02 0.  1.
       -1   -1    0    0    0  501  0.00000000000E+00  0.00000000000E+00 -0.98712976697E+03  0.98712976698E+03  0.50400001928E-02 0. -1.
    10030    2    1    2    0    0  0.00000000000E+00  0.00000000000E+00  0.14705244254E+04  0.34447839593E+04  0.31151395540E+04 0.  0.
        5    1    3    3  502    0 -0.75439925662E+03  0.10122876405E+04 -0.27349608988E+03  0.12917688286E+04  0.46999998093E+01 0. -1.
       -5    1    3    3    0  502  0.75439925662E+03 -0.10122876405E+04  0.17440205153E+04  0.21530151307E+04  0.46999998093E+01 0.  1.
</event>
<event>
 5   0  0.2067926E-06  0.3088182E+04  0.7818609E-02  0.8218989E-01
       -2   -1    0    0    0  501  0.00000000000E+00  0.00000000000E+00  0.13301110527E+04  0.13301110527E+04  0.25500000920E-02 0. -1.
        2   -1    0    0  501    0  0.00000000000E+00  0.00000000000E+00 -0.17924943066E+04  0.17924943066E+04  0.25500000920E-02 0.  1.
    10030    2    1    2    0    0  0.00000000000E+00  0.00000000000E+00 -0.46238325389E+03  0.31226053592E+04  0.30881816585E+04 0.  0.
        1    1    3    3  502    0 -0.48250209305E+03  0.64473098264E+03 -0.15633484969E+04  0.17585632865E+04  0.50400001928E-02 0.  1.
       -1    1    3    3    0  502  0.48250209305E+03 -0.64473098264E+03  0.11009652430E+04  0.13640420727E+04  0.50400001928E-02 0. -1.
</event>
<event>
 5   0  0.2094135E-06  0.3099362E+04  0.7818609E-02  0.8215913E-01
        2   -1    0    0  501    0  0.00000000000E+00  0.00000000000E+00  0.19655604422E+04  0.19655604422E+04  0.25500000920E-02 0. -1.
       -2   -1    0    0    0  501  0.00000000000E+00  0.00000000000E+00 -0.12217948273E+04  0.12217948273E+04  0.25500000920E-02 0.  1.
    10030    2    1    2    0    0  0.00000000000E+00  0.00000000000E+00  0.74376561483E+03  0.31873552695E+04  0.30993622447E+04 0.  0.
        4    1    3    3  502    0  0.48367874448E+03 -0.89530011504E+02 -0.11393789353E+04  0.12410264791E+04  0.12699999809E+01 0.  1.
       -4    1    3    3    0  502 -0.48367874448E+03  0.89530011504E+02  0.18831445501E+04  0.19463287904E+04  0.12699999809E+01 0. -1.
</event>
<event>
 5   0  0.7413481E-07  0.3144157E+04  0.7818609E-02  0.8203723E-01
        1   -1    0    0  501    0  0.00000000000E+00  0.00000000000E+00  0.13394966941E+04  0.13394966941E+04  0.50400001928E-02 0. -1.
       -1   -1    0    0    0  501  0.00000000000E+00  0.00000000000E+00 -0.18450442282E+04  0.18450442282E+04  0.50400001928E-02 0.  1.
    10030    2    1    2    0    0  0.00000000000E+00  0.00000000000E+00 -0.50554753409E+03  0.31845409224E+04  0.31441568945E+04 0.  0.
        5    1    3    3  502    0  0.89374050453E+03 -0.12825367016E+04 -0.84093175002E+02  0.15654923291E+04  0.46999998093E+01 0.  1.
       -5    1    3    3    0  502 -0.89374050453E+03  0.12825367016E+04 -0.42145435909E+03  0.16190485932E+04  0.46999998093E+01 0. -1.
</event>
<event>
 5   0  0.2094135E-06  0.3098883E+04  0.7818609E-02  0.8216044E-01
        2   -1    0    0  501    0  0.00000000000E+00  0.00000000000E+00  0.22116811242E+04  0.22116811242E+04  0.25500000920E-02 0. -1.
       -2   -1    0    0    0  501  0.00000000000E+00  0.00000000000E+00 -0.10854951773E+04  0.10854951773E+04  0.25500000920E-02 0.  1.
    10030    2    1    2    0    0  0.00000000000E+00  0.00000000000E+00  0.11261859469E+04  0.32971763014E+04  0.30988831497E+04 0.  0.
        4    1    3    3  502    0 -0.97812984715E+03 -0.13783661850E+03 -0.70703965224E+03  0.12147607229E+04  0.12699999809E+01 0.  1.
       -4    1    3    3    0  502  0.97812984715E+03  0.13783661850E+03  0.18332255991E+04  0.20824155785E+04  0.12699999809E+01 0. -1.
</event>
<event>
 5   0  0.2226334E-06  0.2812327E+04  0.7818609E-02  0.8299452E-01
        2   -1    0    0  501    0  0.00000000000E+00  0.00000000000E+00  0.93843180714E+03  0.93843180714E+03  0.25500000920E-02 0. -1.
       -2   -1    0    0    0  501  0.00000000000E+00  0.00000000000E+00 -0.21070207802E+04  0.21070207802E+04  0.25500000920E-02 0.  1.
    10030    2    1    2    0    0  0.00000000000E+00  0.00000000000E+00 -0.11685889731E+04  0.30454525874E+04  0.28123266656E+04 0.  0.
        5    1    3    3  502    0 -0.11197939411E+04 -0.51708997910E+03 -0.13155109808E+04  0.18033057831E+04  0.46999998093E+01 0.  1.
       -5    1    3    3    0  502  0.11197939411E+04  0.51708997910E+03  0.14692200766E+03  0.12421468042E+04  0.46999998093E+01 0. -1.
</event>
<event>
 5   0  0.2067926E-06  0.3064784E+04  0.7818609E-02  0.8225469E-01
       -2   -1    0    0    0  501  0.00000000000E+00  0.00000000000E+00  0.24423498104E+04  0.24423498104E+04  0.25500000920E-02 0. -1.
        2   -1    0    0  501    0  0.00000000000E+00  0.00000000000E+00 -0.96146178183E+03  0.96146178184E+03  0.25500000920E-02 0.  1.
    10030    2    1    2    0    0  0.00000000000E+00  0.00000000000E+00  0.14808880286E+04  0.34038115923E+04  0.30647844953E+04 0.  0.
        1    1    3    3  502    0  0.13516164733E+04  0.68917699189E+03  0.97966341811E+03  0.18059824002E+04  0.50400001928E-02 0.  1.
       -1    1    3    3    0  502 -0.13516164733E+04 -0.68917699189E+03  0.50122461051E+03  0.15978291921E+04  0.50400001928E-02 0. -1.
</event>
<event>
 5   0  0.7519202E-07  0.3096408E+04  0.7818609E-02  0.8216724E-01
        1   -1    0    0  501    0  0.00000000000E+00  0.00000000000E+00  0.93244260139E+03  0.93244260140E+03  0.50400001928E-02 0.  1.
       -1   -1    0    0    0  501  0.00000000000E+00  0.00000000000E+00 -0.25705987985E+04  0.25705987985E+04  0.50400001928E-02 0. -1.
    10030    2    1    2    0    0  0.00000000000E+00  0.00000000000E+00 -0.16381561971E+04  0.35030413999E+04  0.30964081326E+04 0.  0.
        4    1    3    3  502    0 -0.14327133678E+04 -0.29233929059E+03 -0.13946145931E+04  0.20206635868E+04  0.12699999809E+01 0. -1.
       -4    1    3    3    0  502  0.14327133678E+04  0.29233929059E+03 -0.24354160406E+03  0.14823778131E+04  0.12699999809E+01 0.  1.
</event>
<event>
 5   0  0.2067926E-06  0.3083795E+04  0.7818609E-02  0.8220199E-01
        2   -1    0    0  501    0  0.00000000000E+00  0.00000000000E+00  0.14145939080E+04  0.14145939080E+04  0.25500000920E-02 0. -1.
       -2   -1    0    0    0  501  0.00000000000E+00  0.00000000000E+00 -0.16806571998E+04  0.16806571998E+04  0.25500000920E-02 0.  1.
    10030    2    1    2    0    0  0.00000000000E+00  0.00000000000E+00 -0.26606329181E+03  0.30952511079E+04  0.30837946990E+04 0.  0.
        1    1    3    3  502    0  0.29785502124E+02 -0.13151010678E+04  0.67436301903E+03  0.14782230806E+04  0.50400001928E-02 0. -1.
       -1    1    3    3    0  502 -0.29785502124E+02  0.13151010678E+04 -0.94042631084E+03  0.16170280272E+04  0.50400001928E-02 0.  1.
</event>
<event>
 5   0  0.7656332E-07  0.3011764E+04  0.7818609E-02  0.8240380E-01
       -1   -1    0    0    0  501  0.00000000000E+00  0.00000000000E+00  0.20837269623E+04  0.20837269623E+04  0.50400001928E-02 0.  1.
        1   -1    0    0  501    0  0.00000000000E+00  0.00000000000E+00 -0.10882811253E+04  0.10882811254E+04  0.50400001928E-02 0. -1.
    10030    2    1    2    0    0  0.00000000000E+00  0.00000000000E+00  0.99544583694E+03  0.31720080876E+04  0.30117640834E+04 0.  0.
        2    1    3    3  502    0 -0.12198684222E+04  0.57862227624E+02 -0.43020701160E+03  0.12947992422E+04  0.25500000920E-02 0. -1.
       -2    1    3    3    0  502  0.12198684222E+04 -0.57862227624E+02  0.14256528485E+04  0.18772088454E+04  0.25500000920E-02 0.  1.
</event>
<event>
 5   0  0.2078009E-06  0.2927712E+04  0.7818609E-02  0.8264680E-01
        2   -1    0    0  501    0  0.00000000000E+00  0.00000000000E+00  0.25939648093E+04  0.25939648093E+04  0.25500000920E-02 0.  1.
       -2   -1    0    0    0  501  0.00000000000E+00  0.00000000000E+00 -0.82610011708E+03  0.82610011708E+03  0.25500000920E-02 0. -1.
    10030    2    1    2    0    0  0.00000000000E+00  0.00000000000E+00  0.17678646922E+04  0.34200649264E+04  0.29277121666E+04 0.  0.
        3    1    3    3  502    0  0.92334693298E+03 -0.18475860447E+03 -0.42534021012E+03  0.10332567953E+04  0.10100000352E+00 0. -1.
       -3    1    3    3    0  502 -0.92334693298E+03  0.18475860447E+03  0.21932049023E+04  0.23868081310E+04  0.10100000352E+00 0.  1.
</event>
<event>
 5   0  0.7519202E-07  0.3032775E+04  0.7818609E-02  0.8234433E-01
       -1   -1    0    0    0  501  0.00000000000E+00  0.00000000000E+00  0.27544176796E+04  0.27544176796E+04  0.50400001928E-02 0.  1.
        1   -1    0    0  501    0  0.00000000000E+00  0.00000000000E+00 -0.83481584277E+03  0.83481584279E+03  0.50400001928E-02 0. -1.
    10030    2    1    2    0    0  0.00000000000E+00  0.00000000000E+00  0.19196018368E+04  0.35892335224E+04  0.30327753076E+04 0.  0.
        4    1    3    3  502    0  0.57538082750E+03  0.12640827842E+04  0.23946837989E+03  0.14093669146E+04  0.12699999809E+01 0. -1.
       -4    1    3    3    0  502 -0.57538082750E+03 -0.12640827842E+04  0.16801334569E+04  0.21798666078E+04  0.12699999809E+01 0.  1.
</event>
<event>
 5   0  0.7726743E-07  0.3100524E+04  0.7818609E-02  0.8215594E-01
       -1   -1    0    0    0  501  0.00000000000E+00  0.00000000000E+00  0.11271965901E+04  0.11271965901E+04  0.50400001928E-02 0. -1.
        1   -1    0    0  501    0  0.00000000000E+00  0.00000000000E+00 -0.21321145698E+04  0.21321145698E+04  0.50400001928E-02 0.  1.
    10030    2    1    2    0    0  0.00000000000E+00  0.00000000000E+00 -0.10049179797E+04  0.32593111600E+04  0.31005240027E+04 0.  0.
        1    1    3    3  502    0 -0.89659698801E+03 -0.41662787287E+03  0.75278236559E+03  0.12426368067E+04  0.50400001928E-02 0. -1.
       -1    1    3    3    0  502  0.89659698801E+03  0.41662787287E+03 -0.17577003453E+04  0.20166743533E+04  0.50400001928E-02 0.  1.
</event>
<event>
 5   0  0.2067926E-06  0.3104848E+04  0.7818609E-02  0.8214409E-01
       -2   -1    0    0    0  501  0.00000000000E+00  0.00000000000E+00  0.13386039169E+04  0.13386039169E+04  0.25500000920E-02 0. -1.
        2   -1    0    0  501    0  0.00000000000E+00  0.00000000000E+00 -0.18003979129E+04  0.18003979129E+04  0.25500000920E-02 0.  1.
    10030    2    1    2    0    0  0.00000000000E+00  0.00000000000E+00 -0.46179399605E+03  0.31390018298E+04  0.31048476280E+04 0.  0.
        1    1    3    3  502    0  0.38549960807E+03 -0.30296435878E+03  0.12582698174E+04  0.13504222613E+04  0.50400001928E-02 0. -1.
       -1    1    3    3    0  502 -0.38549960807E+03  0.30296435878E+03 -0.17200638134E+04  0.17885795685E+04  0.50400001928E-02 0.  1.
</event>
<event>
 5   0  0.2094135E-06  0.3098154E+04  0.7818609E-02  0.8216245E-01
       -2   -1    0    0    0  501  0.00000000000E+00  0.00000000000E+00  0.15373622052E+04  0.15373622052E+04  0.25500000920E-02 0.  1.
        2   -1    0    0  501    0  0.00000000000E+00  0.00000000000E+00 -0.15608813690E+04  0.15608813690E+04  0.25500000920E-02 0. -1.
    10030    2    1    2    0    0  0.00000000000E+00  0.00000000000E+00 -0.23519163774E+02  0.30982435742E+04  0.30981543044E+04 0.  0.
        4    1    3    3  502    0 -0.61587727005E+02  0.15306923468E+04  0.21808677180E+03  0.15473769940E+04  0.12699999809E+01 0.  1.
       -4    1    3    3    0  502  0.61587727005E+02 -0.15306923468E+04 -0.24160593558E+03  0.15508665802E+04  0.12699999809E+01 0. -1.
</event>
<event>
 5   0  0.7413481E-07  0.3095613E+04  0.7818609E-02  0.8216943E-01
       -1   -1    0    0    0  501  0.00000000000E+00  0.00000000000E+00  0.15190215601E+04  0.15190215601E+04  0.50400001928E-02 0.  1.
        1   -1    0    0  501    0  0.00000000000E+00  0.00000000000E+00 -0.15771367716E+04  0.15771367716E+04  0.50400001928E-02 0. -1.
    10030    2    1    2    0    0  0.00000000000E+00  0.00000000000E+00 -0.58115211496E+02  0.30961583317E+04  0.30956128694E+04 0.  0.
        5    1    3    3  502    0  0.11362552872E+04  0.21885752997E+03  0.99908654770E+03  0.15287807940E+04  0.46999998093E+01 0.  1.
       -5    1    3    3    0  502 -0.11362552872E+04 -0.21885752997E+03 -0.10572017592E+04  0.15673775377E+04  0.46999998093E+01 0. -1.
</event>
<event>
 5   0  0.2067926E-06  0.3096590E+04  0.7818609E-02  0.8216674E-01
       -2   -1    0    0    0  501  0.00000000000E+00  0.00000000000E+00  0.18357609581E+04  0.18357609582E+04  0.25500000920E-02 0.  1.
        2   -1    0    0  501    0  0.00000000000E+00  0.00000000000E+00 -0.13058441627E+04  0.13058441627E+04  0.25500000920E-02 0. -1.
    10030    2    1    2    0    0  0.00000000000E+00  0.00000000000E+00  0.52991679546E+03  0.31416051208E+04  0.30965902094E+04 0.  0.
        1    1    3    3  502    0  0.27722174610E+03 -0.33930296750E+03  0.17715506324E+04  0.18249301475E+04  0.50400001928E-02 0.  1.
       -1    1    3    3    0  502 -0.27722174610E+03  0.33930296750E+03 -0.12416338369E+04  0.13166749733E+04  0.50400001928E-02 0. -1.
</event>
<event>
 5   0  0.2078009E-06  0.2912159E+04  0.7818609E-02  0.8269269E-01
       -2   -1    0    0    0  501  0.00000000000E+00  0.00000000000E+00  0.15680048819E+04  0.15680048819E+04  0.25500000920E-02 0.  1.
        2   -1    0    0  501    0  0.00000000000E+00  0.00000000000E+00 -0.13521436674E+04  0.13521436674E+04  0.25500000920E-02 0. -1.
    10030    2    1    2    0    0  0.00000000000E+00  0.00000000000E+00  0.21586121451E+03  0.29201485493E+04  0.29121592480E+04 0.  0.
        3    1    3    3  502    0 -0.92531590831E+03 -0.93902632562E+03  0.72784009892E+03  0.15058987981E+04  0.10100000352E+00 0. -1.
       -3    1    3    3    0  502  0.92531590831E+03  0.93902632562E+03 -0.51197888442E+03  0.14142497512E+04  0.10100000352E+00 0.  1.
</event>
<event>
 5   0  0.7726743E-07  0.3264967E+04  0.7818609E-02  0.8171867E-01
        1   -1    0    0  501    0  0.00000000000E+00  0.00000000000E+00  0.10852434358E+04  0.10852434359E+04  0.50400001928E-02 0. -1.
       -1   -1    0    0    0  501  0.00000000000E+00  0.00000000000E+00 -0.24556722165E+04  0.24556722165E+04  0.50400001928E-02 0.  1.
    10030    2    1    2    0    0  0.00000000000E+00  0.00000000000E+00 -0.13704287806E+04  0.35409156523E+04  0.32649668626E+04 0.  0.
        1    1    3    3  502    0  0.53495661371E+03  0.74833307007E+03 -0.21478353968E+04  0.23365311584E+04  0.50400001928E-02 0.  1.
       -1    1    3    3    0  502 -0.53495661371E+03 -0.74833307007E+03  0.77740661619E+03  0.12043844939E+04  0.50400001928E-02 0. -1.
</event>
<event>
 5   0  0.7726743E-07  0.3114971E+04  0.7818609E-02  0.8211641E-01
       -1   -1    0    0    0  501  0.00000000000E+00  0.00000000000E+00  0.12688472254E+04  0.12688472254E+04  0.50400001928E-02 0. -1.
        1   -1    0    0  501    0  0.00000000000E+00  0.00000000000E+00 -0.19117829235E+04  0.19117829235E+04  0.50400001928E-02 0.  1.
    10030    2    1    2    0    0  0.00000000000E+00  0.00000000000E+00 -0.64293569810E+03  0.31806301489E+04  0.31149705989E+04 0.  0.
        1    1    3    3  502    0  0.91639152855E+02 -0.11268826786E+04 -0.14152610435E+04  0.18114155037E+04  0.50400001928E-02 0.  1.
       -1    1    3    3    0  502 -0.91639152855E+02  0.11268826786E+04  0.77232534537E+03  0.13692146453E+04  0.50400001928E-02 0. -1.
</event>
<event>
 5   0  0.7561815E-07  0.3119380E+04  0.7818609E-02  0.8210439E-01
        1   -1    0    0  501    0  0.00000000000E+00  0.00000000000E+00  0.13660456163E+04  0.13660456163E+04  0.50400001928E-02 0.  1.
       -1   -1    0    0    0  501  0.00000000000E+00  0.00000000000E+00 -0.17807839981E+04  0.17807839981E+04  0.50400001928E-02 0. -1.
    10030    2    1    2    0    0  0.00000000000E+00  0.00000000000E+00 -0.41473838181E+03  0.31468296145E+04  0.31193795372E+04 0.  0.
        3    1    3    3  502    0  0.86030673225E+03 -0.12128337895E+04 -0.68219006250E+03  0.16359941217E+04  0.10100000352E+00 0. -1.
       -3    1    3    3    0  502 -0.86030673225E+03  0.12128337895E+04  0.26745168069E+03  0.15108354928E+04  0.10100000352E+00 0.  1.
</event>
<event>
 5   0  0.7413481E-07  0.3069310E+04  0.7818609E-02  0.8224211E-01
       -1   -1    0    0    0  501  0.00000000000E+00  0.00000000000E+00  0.96608265666E+03  0.96608265668E+03  0.50400001928E-02 0. -1.
        1   -1    0    0  501    0  0.00000000000E+00  0.00000000000E+00 -0.24378506215E+04  0.24378506215E+04  0.50400001928E-02 0.  1.
    10030    2    1    2    0    0  0.00000000000E+00  0.00000000000E+00 -0.14717679648E+04  0.34039332782E+04  0.30693095021E+04 0.  0.
        5    1    3    3  502    0  0.72502462721E+03  0.10265783436E+04  0.24082382898E+03  0.12796648046E+04  0.46999998093E+01 0. -1.
       -5    1    3    3    0  502 -0.72502462721E+03 -0.10265783436E+04 -0.17125917938E+04  0.21242684735E+04  0.46999998093E+01 0.  1.
</event>
<event>
 5   0  0.7413481E-07  0.3022244E+04  0.7818609E-02  0.8237407E-01
        1   -1    0    0  501    0  0.00000000000E+00  0.00000000000E+00  0.26215447721E+04  0.26215447721E+04  0.50400001928E-02 0. -1.
       -1   -1    0    0    0  501  0.00000000000E+00  0.00000000000E+00 -0.87104710945E+03  0.87104710947E+03  0.50400001928E-02 0.  1.
    10030    2    1    2    0    0  0.00000000000E+00  0.00000000000E+00  0.17504976626E+04  0.34925918815E+04  0.30222435349E+04 0.  0.
        5    1    3    3  502    0  0.13720274577E+03  0.14566972347E+04  0.13117576805E+04  0.19650755022E+04  0.46999998093E+01 0. -1.
       -5    1    3    3    0  502 -0.13720274577E+03 -0.14566972347E+04  0.43873998214E+03  0.15275163793E+04  0.46999998093E+01 0.  1.
</event>
<event>
 5   0  0.2094135E-06  0.3079573E+04  0.7818609E-02  0.8221366E-01
       -2   -1    0    0    0  501  0.00000000000E+00  0.00000000000E+00  0.23615447546E+04  0.23615447546E+04  0.25500000920E-02 0. -1.
        2   -1    0    0  501    0  0.00000000000E+00  0.00000000000E+00 -0.10039796774E+04  0.10039796774E+04  0.25500000920E-02 0.  1.
    10030    2    1    2    0    0  0.00000000000E+00  0.00000000000E+00  0.13575650771E+04  0.33655244320E+04  0.30795733087E+04 0.  0.
        4    1    3    3  502    0 -0.17997745443E+03 -0.14016720800E+04  0.13470025902E+04  0.19523048160E+04  0.12699999809E+01 0. -1.
       -4    1    3    3    0  502  0.17997745443E+03  0.14016720800E+04  0.10562486989E+02  0.14132196160E+04  0.12699999809E+01 0.  1.
</event>
<event>
 5   0  0.2067926E-06  0.3084038E+04  0.7818609E-02  0.8220132E-01
        2   -1    0    0  501    0  0.00000000000E+00  0.00000000000E+00  0.99893366301E+03  0.99893366301E+03  0.25500000920E-02 0. -1.
       -2   -1    0    0    0  501  0.00000000000E+00  0.00000000000E+00 -0.23803609030E+04  0.23803609030E+04  0.25500000920E-02 0.  1.
    10030    2    1    2    0    0  0.00000000000E+00  0.00000000000E+00 -0.13814272400E+04  0.33792945660E+04  0.30840380258E+04 0.  0.
        1    1    3    3  502    0 -0.75281211087E+03 -0.39820791852E+03 -0.20992906753E+04  0.22654617543E+04  0.50400001928E-02 0.  1.
       -1    1    3    3    0  502  0.75281211087E+03  0.39820791852E+03  0.71786343533E+03  0.11138328117E+04  0.50400001928E-02 0. -1.
</event>
<event>
 5   0  0.7656332E-07  0.3108303E+04  0.7818609E-02  0.8213463E-01
        1   -1    0    0  501    0  0.00000000000E+00  0.00000000000E+00  0.20756110250E+04  0.20756110250E+04  0.50400001928E-02 0.  1.
       -1   -1    0    0    0  501  0.00000000000E+00  0.00000000000E+00 -0.11636990682E+04  0.11636990682E+04  0.50400001928E-02 0. -1.
    10030    2    1    2    0    0  0.00000000000E+00  0.00000000000E+00  0.91191195675E+03  0.32393100932E+04  0.31083028268E+04 0.  0.
        2    1    3    3  502    0 -0.50939575626E+03  0.33639889212E+03  0.19454390564E+04  0.20389657607E+04  0.25500000920E-02 0.  1.
       -2    1    3    3    0  502  0.50939575626E+03 -0.33639889212E+03 -0.10335270996E+04  0.12003443326E+04  0.25500000920E-02 0. -1.
</event>
<event>
 5   0  0.2226334E-06  0.3108012E+04  0.7818609E-02  0.8213543E-01
        2   -1    0    0  501    0  0.00000000000E+00  0.00000000000E+00  0.21906730917E+04  0.21906730917E+04  0.25500000920E-02 0. -1.
       -2   -1    0    0    0  501  0.00000000000E+00  0.00000000000E+00 -0.11023709558E+04  0.11023709558E+04  0.25500000920E-02 0.  1.
    10030    2    1    2    0    0  0.00000000000E+00  0.00000000000E+00  0.10883021359E+04  0.32930440476E+04  0.31080118340E+04 0.  0.
        5    1    3    3  502    0 -0.92074399656E+03 -0.69290688582E+03 -0.56052313162E+03  0.12814436120E+04  0.46999998093E+01 0.  1.
       -5    1    3    3    0  502  0.92074399656E+03  0.69290688582E+03  0.16488252675E+04  0.20116004356E+04  0.46999998093E+01 0. -1.
</event>
<event>
 5   0  0.7656332E-07  0.2971845E+04  0.7818609E-02  0.8251817E-01
        1   -1    0    0  501    0  0.00000000000E+00  0.00000000000E+00  0.93255078365E+03  0.93255078366E+03  0.50400001928E-02 0.  1.
       -1   -1    0    0    0  501  0.00000000000E+00  0.00000000000E+00 -0.23676620876E+04  0.23676620876E+04  0.50400001928E-02 0. -1.
    10030    2    1    2    0    0  0.00000000000E+00  0.00000000000E+00 -0.14351113039E+04  0.33002128713E+04  0.29718446361E+04 0.  0.
        2    1    3    3  502    0 -0.94935349699E+03 -0.61065712002E+03  0.35554555610E+03  0.11834639086E+04  0.25500000920E-02 0.  1.
       -2    1    3    3    0  502  0.94935349699E+03  0.61065712002E+03 -0.17906568600E+04  0.21167489627E+04  0.25500000920E-02 0. -1.
</event>
<event>
 5   0  0.2133385E-06  0.2864539E+04  0.7818609E-02  0.8283507E-01
       -2   -1    0    0    0  501  0.00000000000E+00  0.00000000000E+00  0.12089338312E+04  0.12089338312E+04  0.25500000920E-02 0. -1.
        2   -1    0    0  501    0  0.00000000000E+00  0.00000000000E+00 -0.16968636515E+04  0.16968636515E+04  0.25500000920E-02 0.  1.
    10030    2    1    2    0    0  0.00000000000E+00  0.00000000000E+00 -0.48792982032E+03  0.29057974828E+04  0.28645389684E+04 0.  0.
        2    1    3    3  502    0  0.45631070891E+03 -0.24162047656E+03 -0.15991695983E+04  0.16804592592E+04  0.25500000920E-02 0.  1.
       -2    1    3    3    0  502 -0.45631070891E+03  0.24162047656E+03  0.11112397780E+04  0.12253382235E+04  0.25500000920E-02 0. -1.
</event>
<event>
 5   0  0.2078009E-06  0.3127359E+04  0.7818609E-02  0.8208269E-01
       -2   -1    0    0    0  501  0.00000000000E+00  0.00000000000E+00  0.96034423050E+03  0.96034423050E+03  0.25500000920E-02 0. -1.
        2   -1    0    0  501    0  0.00000000000E+00  0.00000000000E+00 -0.25460590345E+04  0.25460590345E+04  0.25500000920E-02 0.  1.
    10030    2    1    2    0    0  0.00000000000E+00  0.00000000000E+00 -0.15857148040E+04  0.35064032650E+04  0.31273586966E+04 0.  0.
        3    1    3    3  502    0  0.11299031505E+01 -0.99340882231E+03 -0.21467907613E+04  0.23654963428E+04  0.10100000352E+00 0.  1.
       -3    1    3    3    0  502 -0.11299031505E+01  0.99340882231E+03  0.56107595733E+03  0.11409069222E+04  0.10100000352E+00 0. -1.
</event>
<event>
 5   0  0.2067926E-06  0.3092507E+04  0.7818609E-02  0.8217797E-01
       -2   -1    0    0    0  501  0.00000000000E+00  0.00000000000E+00  0.14504903564E+04  0.14504903564E+04  0.25500000920E-02 0.  1.
        2   -1    0    0  501    0  0.00000000000E+00  0.00000000000E+00 -0.16483386103E+04  0.16483386103E+04  0.25500000920E-02 0. -1.
    10030    2    1    2    0    0  0.00000000000E+00  0.00000000000E+00 -0.19784825384E+03  0.30988289667E+04  0.30925065939E+04 0.  0.
        1    1    3    3  502    0 -0.11707649212E+04  0.27741445637E+03 -0.10721202592E+04  0.16115492954E+04  0.50400001928E-02 0. -1.
       -1    1    3    3    0  502  0.11707649212E+04 -0.27741445637E+03  0.87427200536E+03  0.14872796713E+04  0.50400001928E-02 0.  1.
</event>
<event>
 5   0  0.2094135E-06  0.3098034E+04  0.7818609E-02  0.8216278E-01
        2   -1    0    0  501    0  0.00000000000E+00  0.00000000000E+00  0.23352996418E+04  0.23352996418E+04  0.25500000920E-02 0.  1.
       -2   -1    0    0    0  501  0.00000000000E+00  0.00000000000E+00 -0.10274711530E+04  0.10274711530E+04  0.25500000920E-02 0. -1.
    10030    2    1    2    0    0  0.00000000000E+00  0.00000000000E+00  0.13078284888E+04  0.33627707948E+04  0.30980335799E+04 0.  0.
        4    1    3    3  502    0 -0.14859170676E+04  0.43196718311E+03  0.57788427538E+03  0.16518162815E+04  0.12699999809E+01 0.  1.
       -4    1    3    3    0  502  0.14859170676E+04 -0.43196718311E+03  0.72994421338E+03  0.17109545133E+04  0.12699999809E+01 0. -1.
</event>
<event>
 5   0  0.7413481E-07  0.3087375E+04  0.7818609E-02  0.8219211E-01
       -1   -1    0    0    0  501  0.00000000000E+00  0.00000000000E+00  0.11070544466E+04  0.11070544466E+04  0.50400001928E-02 0.  1.
        1   -1    0    0  501    0  0.00000000000E+00  0.00000000000E+00 -0.21525330175E+04  0.21525330175E+04  0.50400001928E-02 0. -1.
    10030    2    1    2    0    0  0.00000000000E+00  0.00000000000E+00 -0.10454785709E+04  0.32595874642E+04  0.30873750978E+04 0.  0.
        5    1    3    3  502    0 -0.78101783271E+03  0.11614177177E+03 -0.19231787702E+04  0.20789700426E+04  0.46999998093E+01 0. -1.
       -5    1    3    3    0  502  0.78101783271E+03 -0.11614177177E+03  0.87770019928E+03  0.11806174215E+04  0.46999998093E+01 0.  1.
</event>
<event>
 5   0  0.7519202E-07  0.3112252E+04  0.7818609E-02  0.8212383E-01
        1   -1    0    0  501    0  0.00000000000E+00  0.00000000000E+00  0.10057003636E+04  0.10057003636E+04  0.50400001928E-02 0.  1.
       -1   -1    0    0    0  501  0.00000000000E+00  0.00000000000E+00 -0.24078031798E+04  0.24078031798E+04  0.50400001928E-02 0. -1.
    10030    2    1    2    0    0  0.00000000000E+00  0.00000000000E+00 -0.14021028162E+04  0.34135035434E+04  0.31122522606E+04 0.  0.
        4    1    3    3  502    0  0.58977159901E+03 -0.29834412580E+03 -0.22462047922E+04  0.23414263469E+04  0.12699999809E+01 0. -1.
       -4    1    3    3    0  502 -0.58977159901E+03  0.29834412580E+03  0.84410197606E+03  0.10720771965E+04  0.12699999809E+01 0.  1.
</event>
<event>
 5   0  0.7413481E-07  0.3210033E+04  0.7818609E-02  0.8186173E-01
        1   -1    0    0  501    0  0.00000000000E+00  0.00000000000E+00  0.18064639462E+04  0.18064639463E+04  0.50400001928E-02 0. -1.
       -1   -1    0    0    0  501  0.00000000000E+00  0.00000000000E+00 -0.14260329943E+04  0.14260329943E+04  0.50400001928E-02 0.  1.
    10030    2    1    2    0    0  0.00000000000E+00  0.00000000000E+00  0.38043095199E+03  0.32324969405E+04  0.32100325172E+04 0.  0.
        5    1    3    3  502    0 -0.25015743719E+03 -0.60057054732E+03 -0.12872919186E+04  0.14423613622E+04  0.46999998093E+01 0.  1.
       -5    1    3    3    0  502  0.25015743719E+03  0.60057054732E+03  0.16677228705E+04  0.17901355783E+04  0.46999998093E+01 0. -1.
</event>
<event>
 5   0  0.2078009E-06  0.3079538E+04  0.7818609E-02  0.8221376E-01
       -2   -1    0    0    0  501  0.00000000000E+00  0.00000000000E+00  0.12298077958E+04  0.12298077958E+04  0.25500000920E-02 0. -1.
        2   -1    0    0  501    0  0.00000000000E+00  0.00000000000E+00 -0.19278531213E+04  0.19278531213E+04  0.25500000920E-02 0.  1.
    10030    2    1    2    0    0  0.00000000000E+00  0.00000000000E+00 -0.69804532557E+03  0.31576609171E+04  0.30795381457E+04 0.  0.
        3    1    3    3  502    0 -0.45439041168E+02 -0.80917633941E+03 -0.16914556848E+04  0.18755941455E+04  0.10100000352E+00 0.  1.
       -3    1    3    3    0  502  0.45439041168E+02  0.80917633941E+03  0.99341035926E+03  0.12820667716E+04  0.10100000352E+00 0. -1.
</event>
<event>
 5   0  0.2133385E-06  0.3090965E+04  0.7818609E-02  0.8218222E-01
       -2   -1    0    0    0  501  0.00000000000E+00  0.00000000000E+00  0.27626020641E+04  0.27626020641E+04  0.25500000920E-02 0.  1.
        2   -1    0    0  501    0  0.00000000000E+00  0.00000000000E+00 -0.86458926522E+03  0.86458926523E+03  0.25500000920E-02 0. -1.
    10030    2    1    2    0    0  0.00000000000E+00  0.00000000000E+00  0.18980127989E+04  0.36271913293E+04  0.30909649553E+04 0.  0.
        2    1    3    3  502    0  0.59039536890E+02 -0.51657030616E+03  0.26568904508E+04  0.27072859871E+04  0.25500000920E-02 0.  1.
       -2    1    3    3    0  502 -0.59039536890E+02  0.51657030616E+03 -0.75887765193E+03  0.91990534227E+03  0.25500000920E-02 0. -1.
</event>
<event>
 5   0  0.2226334E-06  0.3090679E+04  0.7818609E-02  0.8218301E-01
        2   -1    0    0  501    0  0.00000000000E+00  0.00000000000E+00  0.23818348394E+04  0.23818348394E+04  0.25500000920E-02 0. -1.
       -2   -1    0    0    0  501  0.00000000000E+00  0.00000000000E+00 -0.10026192877E+04  0.10026192877E+04  0.25500000920E-02 0.  1.
    10030    2    1    2    0    0  0.00000000000E+00  0.00000000000E+00  0.13792155517E+04  0.33844541271E+04  0.30906785987E+04 0.  0.
        5    1    3    3  502    0 -0.14153883243E+04 -0.26855992538E+03  0.13018613104E+04  0.19417295135E+04  0.46999998093E+01 0. -1.
       -5    1    3    3    0  502  0.14153883243E+04  0.26855992538E+03  0.77354241329E+02  0.14427246136E+04  0.46999998093E+01 0.  1.
</event>
<event>
 5   0  0.7519202E-07  0.3085353E+04  0.7818609E-02  0.8219769E-01
       -1   -1    0    0    0  501  0.00000000000E+00  0.00000000000E+00  0.14568030791E+04  0.14568030792E+04  0.50400001928E-02 0. -1.
        1   -1    0    0  501    0  0.00000000000E+00  0.00000000000E+00 -0.16336120875E+04  0.16336120875E+04  0.50400001928E-02 0.  1.
    10030    2    1    2    0    0  0.00000000000E+00  0.00000000000E+00 -0.17680900832E+03  0.30904151666E+04  0.30853532175E+04 0.  0.
        4    1    3    3  502    0  0.15329336725E+04 -0.16947571577E+03 -0.53106886902E+02  0.15431881340E+04  0.12699999809E+01 0. -1.
       -4    1    3    3    0  502 -0.15329336725E+04  0.16947571577E+03 -0.12370212141E+03  0.15472270326E+04  0.12699999809E+01 0.  1.
</event>
<event>
 5   0  0.7726743E-07  0.3086845E+04  0.7818609E-02  0.8219358E-01
        1   -1    0    0  501    0  0.00000000000E+00  0.00000000000E+00  0.25141146363E+04  0.25141146363E+04  0.50400001928E-02 0. -1.
       -1   -1    0    0    0  501  0.00000000000E+00  0.00000000000E+00 -0.94751154997E+03  0.94751154999E+03  0.50400001928E-02 0.  1.
    10030    2    1    2    0    0  0.00000000000E+00  0.00000000000E+00  0.15666030863E+04  0.34616261863E+04  0.30868447683E+04 0.  0.
        1    1    3    3  502    0 -0.10026588171E+04  0.22213394759E+03  0.20753538641E+04  0.23155478521E+04  0.50400001928E-02 0. -1.
       -1    1    3    3    0  502  0.10026588171E+04 -0.22213394759E+03 -0.50875077780E+03  0.11460783342E+04  0.50400001928E-02 0.  1.
</event>
<event>
 5   0  0.2133385E-06  0.3138046E+04  0.7818609E-02  0.8205373E-01
       -2   -1    0    0    0  501  0.00000000000E+00  0.00000000000E+00  0.13817096034E+04  0.13817096034E+04  0.25500000920E-02 0.  1.
        2   -1    0    0  501    0  0.00000000000E+00  0.00000000000E+00 -0.17817295555E+04  0.17817295555E+04  0.25500000920E-02 0. -1.
    10030    2    1    2    0    0  0.00000000000E+00  0.00000000000E+00 -0.40001995202E+03  0.31634391589E+04  0.31380457852E+04 0.  0.
        2    1    3    3  502    0 -0.12255999845E+04 -0.72123036718E+03 -0.86837144322E+03  0.16662345357E+04  0.25500000920E-02 0. -1.
       -2    1    3    3    0  502  0.12255999845E+04  0.72123036718E+03  0.46835149119E+03  0.14972046232E+04  0.25500000920E-02 0.  1.
</event>
<event>
 5   0  0.7519202E-07  0.3065138E+04  0.7818609E-02  0.8225371E-01
        1   -1    0    0  501    0  0.00000000000E+00  0.00000000000E+00  0.25413356478E+04  0.25413356478E+04  0.50400001928E-02 0.  1.
       -1   -1    0    0    0  501  0.00000000000E+00  0.00000000000E+00 -0.92422566875E+03  0.92422566876E+03  0.50400001928E-02 0. -1.
    10030    2    1    2    0    0  0.00000000000E+00  0.00000000000E+00  0.16171099791E+04  0.34655613166E+04  0.30651379340E+04 0.  0.
        4    1    3    3  502    0 -0.13391012111E+04 -0.42292846679E+03  0.11461081289E+03  0.14089704727E+04  0.12699999809E+01 0. -1.
       -4    1    3    3    0  502  0.13391012111E+04  0.42292846679E+03  0.15024991662E+04  0.20565908439E+04  0.12699999809E+01 0.  1.
</event>
<event>
 5   0  0.2094135E-06  0.3033320E+04  0.7818609E-02  0.8234280E-01
       -2   -1    0    0    0  501  0.00000000000E+00  0.00000000000E+00  0.27397258682E+04  0.27397258682E+04  0.25500000920E-02 0. -1.
        2   -1    0    0  501    0  0.00000000000E+00  0.00000000000E+00 -0.83959420870E+03  0.83959420870E+03  0.25500000920E-02 0.  1.
    10030    2    1    2    0    0  0.00000000000E+00  0.00000000000E+00  0.19001316595E+04  0.35793200769E+04  0.30333202748E+04 0.  0.
        4    1    3    3  502    0  0.38414772301E+03 -0.79377760899E+03  0.24061140264E+04  0.25626233993E+04  0.12699999809E+01 0. -1.
       -4    1    3    3    0  502 -0.38414772301E+03  0.79377760899E+03 -0.50598236695E+03  0.10166966776E+04  0.12699999809E+01 0.  1.
</event>
<event>
 5   0  0.7413481E-07  0.3195200E+04  0.7818609E-02  0.8190086E-01
        1   -1    0    0  501    0  0.00000000000E+00  0.00000000000E+00  0.22305594690E+04  0.22305594691E+04  0.50400001928E-02 0.  1.
       -1   -1    0    0    0  501  0.00000000000E+00  0.00000000000E+00 -0.11442534789E+04  0.11442534789E+04  0.50400001928E-02 0. -1.
    10030    2    1    2    0    0  0.00000000000E+00  0.00000000000E+00  0.10863059902E+04  0.33748129479E+04  0.31951997949E+04 0.  0.
        5    1    3    3  502    0  0.10918429199E+04  0.11243486381E+04  0.87044714156E+03  0.17927579697E+04  0.46999998093E+01 0.  1.
       -5    1    3    3    0  502 -0.10918429199E+04 -0.11243486381E+04  0.21585884863E+03  0.15820549782E+04  0.46999998093E+01 0. -1.
</event>
<event>
 5   0  0.2078009E-06  0.3089086E+04  0.7818609E-02  0.8218739E-01
        2   -1    0    0  501    0  0.00000000000E+00  0.00000000000E+00  0.16310918196E+04  0.16310918197E+04  0.25500000920E-02 0.  1.
       -2   -1    0    0    0  501  0.00000000000E+00  0.00000000000E+00 -0.14625870036E+04  0.14625870036E+04  0.25500000920E-02 0. -1.
    10030    2    1    2    0    0  0.00000000000E+00  0.00000000000E+00  0.16850481606E+03  0.30936788232E+04  0.30890864003E+04 0.  0.
        3    1    3    3  502    0 -0.50546386617E+03  0.64575637948E+03  0.13950598323E+04  0.16182357577E+04  0.10100000352E+00 0.  1.
       -3    1    3    3    0  502  0.50546386617E+03 -0.64575637948E+03 -0.12265550162E+04  0.14754430655E+04  0.10100000352E+00 0. -1.
</event>
<event>
 5   0  0.2067926E-06  0.3092722E+04  0.7818609E-02  0.8217738E-01
       -2   -1    0    0    0  501  0.00000000000E+00  0.00000000000E+00  0.13587668325E+04  0.13587668325E+04  0.25500000920E-02 0.  1.
        2   -1    0    0  501    0  0.00000000000E+00  0.00000000000E+00 -0.17598550987E+04  0.17598550987E+04  0.25500000920E-02 0. -1.
    10030    2    1    2    0    0  0.00000000000E+00  0.00000000000E+00 -0.40108826616E+03  0.31186219312E+04  0.30927222559E+04 0.  0.
        1    1    3    3  502    0 -0.14929810687E+04  0.11801487573E+03  0.18779491431E+03  0.15093663943E+04  0.50400001928E-02 0.  1.
       -1    1    3    3    0  502  0.14929810687E+04 -0.11801487573E+03 -0.58888318047E+03  0.16092555368E+04  0.50400001928E-02 0. -1.
</event>
<event>
 5   0  0.7561815E-07  0.2962845E+04  0.7818609E-02  0.8254421E-01
        1   -1    0    0  501    0  0.00000000000E+00  0.00000000000E+00  0.16720679342E+04  0.16720679342E+04  0.50400001928E-02 0.  1.
       -1   -1    0    0    0  501  0.00000000000E+00  0.00000000000E+00 -0.13125139636E+04  0.13125139636E+04  0.50400001928E-02 0. -1.
    10030    2    1    2    0    0  0.00000000000E+00  0.00000000000E+00  0.35955397062E+03  0.29845818978E+04  0.29628449246E+04 0.  0.
        3    1    3    3  502    0  0.36281334379E+03 -0.11701182123E+04 -0.65928194148E+03  0.13912091294E+04  0.10100000352E+00 0. -1.
       -3    1    3    3    0  502 -0.36281334379E+03  0.11701182123E+04  0.10188359121E+04  0.15933727684E+04  0.10100000352E+00 0.  1.
</event>
<event>
 5   0  0.7519202E-07  0.3097050E+04  0.7818609E-02  0.8216548E-01
        1   -1    0    0  501    0  0.00000000000E+00  0.00000000000E+00  0.18752511550E+04  0.18752511550E+04  0.50400001928E-02 0.  1.
       -1   -1    0    0    0  501  0.00000000000E+00  0.00000000000E+00 -0.12787243565E+04  0.12787243565E+04  0.50400001928E-02 0. -1.
    10030    2    1    2    0    0  0.00000000000E+00  0.00000000000E+00  0.59652679845E+03  0.31539755115E+04  0.30970497745E+04 0.  0.
        4    1    3    3  502    0 -0.51579372620E+03 -0.26219898322E+02  0.17849585889E+04  0.18581736808E+04  0.12699999809E+01 0.  1.
       -4    1    3    3    0  502  0.51579372620E+03  0.26219898322E+02 -0.11884317904E+04  0.12958018307E+04  0.12699999809E+01 0. -1.
</event>
<event>
 5   0  0.7519202E-07  0.3119794E+04  0.7818609E-02  0.8210326E-01
       -1   -1    0    0    0  501  0.00000000000E+00  0.00000000000E+00  0.14238003499E+04  0.14238003499E+04  0.50400001928E-02 0.  1.
        1   -1    0    0  501    0  0.00000000000E+00  0.00000000000E+00 -0.17090030474E+04  0.17090030474E+04  0.50400001928E-02 0. -1.
    10030    2    1    2    0    0  0.00000000000E+00  0.00000000000E+00 -0.28520269754E+03  0.31328033974E+04  0.31197943118E+04 0.  0.
        4    1    3    3  502    0 -0.36538144847E+03 -0.68420672022E+03  0.12164211799E+04  0.14426796383E+04  0.12699999809E+01 0.  1.
       -4    1    3    3    0  502  0.36538144847E+03  0.68420672022E+03 -0.15016238774E+04  0.16901237591E+04  0.12699999809E+01 0. -1.
</event>
<event>
 5   0  0.7519202E-07  0.3105523E+04  0.7818609E-02  0.8214224E-01
       -1   -1    0    0    0  501  0.00000000000E+00  0.00000000000E+00  0.12306101312E+04  0.12306101312E+04  0.50400001928E-02 0.  1.
        1   -1    0    0  501    0  0.00000000000E+00  0.00000000000E+00 -0.19592467983E+04  0.19592467983E+04  0.50400001928E-02 0. -1.
    10030    2    1    2    0    0  0.00000000000E+00  0.00000000000E+00 -0.72863666712E+03  0.31898569295E+04  0.31055234403E+04 0.  0.
        4    1    3    3  502    0 -0.11407921796E+04 -0.43759728522E+03  0.61991426486E+03  0.13701071088E+04  0.12699999809E+01 0.  1.
       -4    1    3    3    0  502  0.11407921796E+04  0.43759728522E+03 -0.13485509320E+04  0.18197498207E+04  0.12699999809E+01 0. -1.
</event>
<event>
 5   0  0.7561815E-07  0.3086842E+04  0.7818609E-02  0.8219358E-01
       -1   -1    0    0    0  501  0.00000000000E+00  0.00000000000E+00  0.21558253949E+04  0.21558253949E+04  0.50400001928E-02 0. -1.
        1   -1    0    0  501    0  0.00000000000E+00  0.00000000000E+00 -0.11049820672E+04  0.11049820672E+04  0.50400001928E-02 0.  1.
    10030    2    1    2    0    0  0.00000000000E+00  0.00000000000E+00  0.10508433277E+04  0.32608074621E+04  0.30868420118E+04 0.  0.
        3    1    3    3  502    0  0.20537608150E+03 -0.32335702944E+03 -0.10539679559E+04  0.11214221175E+04  0.10100000352E+00 0.  1.
       -3    1    3    3    0  502 -0.20537608150E+03  0.32335702944E+03  0.21048112836E+04  0.21393853447E+04  0.10100000352E+00 0. -1.
</event>
<event>
 5   0  0.2226334E-06  0.3084622E+04  0.7818609E-02  0.8219971E-01
       -2   -1    0    0    0  501  0.00000000000E+00  0.00000000000E+00  0.29462802746E+04  0.29462802746E+04  0.25500000920E-02 0.  1.
        2   -1    0    0  501    0  0.00000000000E+00  0.00000000000E+00 -0.80736480465E+03  0.80736480466E+03  0.25500000920E-02 0. -1.
    10030    2    1    2    0    0  0.00000000000E+00  0.00000000000E+00  0.21389154699E+04  0.37536450793E+04  0.30846218558E+04 0.  0.
        5    1    3    3  502    0  0.68291803728E+03  0.13059794760E+04  0.16227633476E+04  0.21921091236E+04  0.46999998093E+01 0.  1.
       -5    1    3    3    0  502 -0.68291803728E+03 -0.13059794760E+04  0.51615212235E+03  0.15615359557E+04  0.46999998093E+01 0. -1.
</event>
<event>
 5   0  0.2133385E-06  0.2866702E+04  0.7818609E-02  0.8282854E-01
        2   -1    0    0  501    0  0.00000000000E+00  0.00000000000E+00  0.18793605608E+04  0.18793605608E+04  0.25500000920E-02 0. -1.
       -2   -1    0    0    0  501  0.00000000000E+00  0.00000000000E+00 -0.10931879795E+04  0.10931879795E+04  0.25500000920E-02 0.  1.
    10030    2    1    2    0    0  0.00000000000E+00  0.00000000000E+00  0.78617258130E+03  0.29725485403E+04  0.28667015012E+04 0.  0.
        2    1    3    3  502    0 -0.12922566472E+04  0.31804865361E+03  0.94510747066E+03  0.16322715214E+04  0.25500000920E-02 0. -1.
       -2    1    3    3    0  502  0.12922566472E+04 -0.31804865361E+03 -0.15893488936E+03  0.13402770189E+04  0.25500000920E-02 0.  1.
</event>
<event>
 5   0  0.7656332E-07  0.3116011E+04  0.7818609E-02  0.8211358E-01
        1   -1    0    0  501    0  0.00000000000E+00  0.00000000000E+00  0.15954016225E+04  0.15954016225E+04  0.50400001928E-02 0.  1.
       -1   -1    0    0    0  501  0.00000000000E+00  0.00000000000E+00 -0.15214857000E+04  0.15214857000E+04  0.50400001928E-02 0. -1.
    10030    2    1    2    0    0  0.00000000000E+00  0.00000000000E+00  0.73915922565E+02  0.31168873225E+04  0.31160107537E+04 0.  0.
        2    1    3    3  502    0  0.28613267005E+02  0.12486614160E+04 -0.89465075193E+03  0.15363508775E+04  0.25500000920E-02 0. -1.
       -2    1    3    3    0  502 -0.28613267005E+02 -0.12486614160E+04  0.96856667450E+03  0.15805364450E+04  0.25500000920E-02 0.  1.
</event>
<event>
 5   0  0.7726743E-07  0.3089056E+04  0.7818609E-02  0.8218748E-01
        1   -1    0    0  501    0  0.00000000000E+00  0.00000000000E+00  0.75322930643E+03  0.75322930645E+03  0.50400001928E-02 0.  1.
       -1   -1    0    0    0  501  0.00000000000E+00  0.00000000000E+00 -0.31671178896E+04  0.31671178896E+04  0.50400001928E-02 0. -1.
    10030    2    1    2    0    0  0.00000000000E+00  0.00000000000E+00 -0.24138885831E+04  0.39203471960E+04  0.30890555265E+04 0.  0.
        1    1    3    3  502    0 -0.69223412303E+03 -0.39283593912E+03  0.47291550944E+03  0.92582786480E+03  0.50400001928E-02 0.  1.
       -1    1    3    3    0  502  0.69223412303E+03  0.39283593912E+03 -0.28868040926E+04  0.29945193312E+04  0.50400001928E-02 0. -1.
</event>
<event>
 5   0  0.7561815E-07  0.3091762E+04  0.7818609E-02  0.8218002E-01
        1   -1    0    0  501    0  0.00000000000E+00  0.00000000000E+00  0.81576918426E+03  0.81576918427E+03  0.50400001928E-02 0.  1.
       -1   -1    0    0    0  501  0.00000000000E+00  0.00000000000E+00 -0.29294423426E+04  0.29294423426E+04  0.50400001928E-02 0. -1.
    10030    2    1    2    0    0  0.00000000000E+00  0.00000000000E+00 -0.21136731584E+04  0.37452115269E+04  0.30917624684E+04 0.  0.
        3    1    3    3  502    0  0.52579092583E+03  0.99709490119E+03 -0.23382922862E+04  0.25958168591E+04  0.10100000352E+00 0. -1.
       -3    1    3    3    0  502 -0.52579092583E+03 -0.99709490119E+03  0.22461912787E+03  0.11493946679E+04  0.10100000352E+00 0.  1.
</event>
<event>
 5   0  0.7726743E-07  0.3034206E+04  0.7818609E-02  0.8234030E-01
        1   -1    0    0  501    0  0.00000000000E+00  0.00000000000E+00  0.21233333657E+04  0.21233333657E+04  0.50400001928E-02 0.  1.
       -1   -1    0    0    0  501  0.00000000000E+00  0.00000000000E+00 -0.10839564718E+04  0.10839564718E+04  0.50400001928E-02 0. -1.
    10030    2    1    2    0    0  0.00000000000E+00  0.00000000000E+00  0.10393768939E+04  0.32072898375E+04  0.30342056249E+04 0.  0.
        1    1    3    3  502    0 -0.24964408506E+03  0.14634573499E+04  0.84987119409E+03  0.17106462612E+04  0.50400001928E-02 0.  1.
       -1    1    3    3    0  502  0.24964408506E+03 -0.14634573499E+04  0.18950569984E+03  0.14966435763E+04  0.50400001928E-02 0. -1.
</event>
<event>
 5   0  0.7519202E-07  0.3101238E+04  0.7818609E-02  0.8215398E-01
        1   -1    0    0  501    0  0.00000000000E+00  0.00000000000E+00  0.16320536024E+04  0.16320536024E+04  0.50400001928E-02 0.  1.
       -1   -1    0    0    0  501  0.00000000000E+00  0.00000000000E+00 -0.14732477186E+04  0.14732477186E+04  0.50400001928E-02 0. -1.
    10030    2    1    2    0    0  0.00000000000E+00  0.00000000000E+00  0.15880588373E+03  0.31053013210E+04  0.31012379763E+04 0.  0.
        4    1    3    3  502    0  0.46044479526E+02  0.87081096943E+03  0.13632629913E+04  0.16183075835E+04  0.12699999809E+01 0.  1.
       -4    1    3    3    0  502 -0.46044479526E+02 -0.87081096943E+03 -0.12044571075E+04  0.14869937375E+04  0.12699999809E+01 0. -1.
</event>
<event>
 5   0  0.7519202E-07  0.3105092E+04  0.7818609E-02  0.8214342E-01
        1   -1    0    0  501    0  0.00000000000E+00  0.00000000000E+00  0.11868636789E+04  0.11868636789E+04  0.50400001928E-02 0.  1.
       -1   -1    0    0    0  501  0.00000000000E+00  0.00000000000E+00 -0.20308981004E+04  0.20308981004E+04  0.50400001928E-02 0. -1.
    10030    2    1    2    0    0  0.00000000000E+00  0.00000000000E+00 -0.84403442148E+03  0.32177617793E+04  0.31050920701E+04 0.  0.
        4    1    3    3  502    0  0.13769646202E+04  0.16321787305E+03 -0.11457318095E+04  0.17987147166E+04  0.12699999809E+01 0. -1.
       -4    1    3    3    0  502 -0.13769646202E+04 -0.16321787305E+03  0.30169738804E+03  0.14190470627E+04  0.12699999809E+01 0.  1.
</event>
<event>
 5   0  0.7561815E-07  0.3096545E+04  0.7818609E-02  0.8216687E-01
        1   -1    0    0  501    0  0.00000000000E+00  0.00000000000E+00  0.14499311535E+04  0.14499311535E+04  0.50400001928E-02 0. -1.
       -1   -1    0    0    0  501  0.00000000000E+00  0.00000000000E+00 -0.16532842680E+04  0.16532842680E+04  0.50400001928E-02 0.  1.
    10030    2    1    2    0    0  0.00000000000E+00  0.00000000000E+00 -0.20335311450E+03  0.31032154215E+04  0.30965454079E+04 0.  0.
        3    1    3    3  502    0 -0.13493681217E+04  0.50826296463E+03  0.46347325964E+03  0.15145735511E+04  0.10100000352E+00 0. -1.
       -3    1    3    3    0  502  0.13493681217E+04 -0.50826296463E+03 -0.66682637413E+03  0.15886418704E+04  0.10100000352E+00 0.  1.
</event>
<event>
 5   0  0.2133385E-06  0.3121178E+04  0.7818609E-02  0.8209950E-01
        2   -1    0    0  501    0  0.00000000000E+00  0.00000000000E+00  0.15500141026E+04  0.15500141026E+04  0.25500000920E-02 0.  1.
       -2   -1    0    0    0  501  0.00000000000E+00  0.00000000000E+00 -0.15712355532E+04  0.15712355532E+04  0.25500000920E-02 0. -1.
    10030    2    1    2    0    0  0.00000000000E+00  0.00000000000E+00 -0.21221450642E+02  0.31212496558E+04  0.31211775124E+04 0.  0.
        2    1    3    3  502    0 -0.38843007970E+03  0.13448697337E+04 -0.70047066621E+03  0.15653152020E+04  0.25500000920E-02 0.  1.
       -2    1    3    3    0  502  0.38843007970E+03 -0.13448697337E+04  0.67924921557E+03  0.15559344538E+04  0.25500000920E-02 0. -1.
</event>
<event>
 5   0  0.7413481E-07  0.3091032E+04  0.7818609E-02  0.8218203E-01
        1   -1    0    0  501    0  0.00000000000E+00  0.00000000000E+00  0.13290910729E+04  0.13290910729E+04  0.50400001928E-02 0.  1.
       -1   -1    0    0    0  501  0.00000000000E+00  0.00000000000E+00 -0.17971829991E+04  0.17971829991E+04  0.50400001928E-02 0. -1.
    10030    2    1    2    0    0  0.00000000000E+00  0.00000000000E+00 -0.46809192622E+03  0.31262740720E+04  0.30910321127E+04 0.  0.
        5    1    3    3  502    0  0.84272621770E+03 -0.92652366845E+03  0.68179692771E+03  0.14260093712E+04  0.46999998093E+01 0.  1.
       -5    1    3    3    0  502 -0.84272621770E+03  0.92652366845E+03 -0.11498888539E+04  0.17002647007E+04  0.46999998093E+01 0. -1.
</event>
<event>
 5   0  0.2067926E-06  0.3090301E+04  0.7818609E-02  0.8218405E-01
       -2   -1    0    0    0  501  0.00000000000E+00  0.00000000000E+00  0.14757410415E+04  0.14757410415E+04  0.25500000920E-02 0. -1.
        2   -1    0    0  501    0  0.00000000000E+00  0.00000000000E+00 -0.16178246341E+04  0.16178246341E+04  0.25500000920E-02 0.  1.
    10030    2    1    2    0    0  0.00000000000E+00  0.00000000000E+00 -0.14208359255E+03  0.30935656756E+04  0.30903010924E+04 0.  0.
        1    1    3    3  502    0  0.51554113730E+03 -0.66655479038E+03  0.12254759068E+04  0.14872354054E+04  0.50400001928E-02 0. -1.
       -1    1    3    3    0  502 -0.51554113730E+03  0.66655479038E+03 -0.13675594993E+04  0.16063302702E+04  0.50400001928E-02 0.  1.
</event>
<event>
 5   0  0.7561815E-07  0.3102260E+04  0.7818609E-02  0.8215118E-01
        1   -1    0    0  501    0  0.00000000000E+00  0.00000000000E+00  0.11779598749E+04  0.11779598749E+04  0.50400001928E-02 0.  1.
       -1   -1    0    0    0  501  0.00000000000E+00  0.00000000000E+00 -0.20425179036E+04  0.20425179036E+04  0.50400001928E-02 0. -1.
    10030    2    1    2    0    0  0.00000000000E+00  0.00000000000E+00 -0.86455802869E+03  0.32204777784E+04  0.31022599079E+04 0.  0.
        3    1    3    3  502    0 -0.11683712468E+04  0.12303521720E+03  0.61912153720E+03  0.13279836306E+04  0.10100000352E+00 0.  1.
       -3    1    3    3    0  502  0.11683712468E+04 -0.12303521720E+03 -0.14836795659E+04  0.18924941478E+04  0.10100000352E+00 0. -1.
</event>
<event>
 5   0  0.2067926E-06  0.2968345E+04  0.7818609E-02  0.8252828E-01
       -2   -1    0    0    0  501  0.00000000000E+00  0.00000000000E+00  0.16352898531E+04  0.16352898531E+04  0.25500000920E-02 0. -1.
        2   -1    0    0  501    0  0.00000000000E+00  0.00000000000E+00 -0.13470197941E+04  0.13470197941E+04  0.25500000920E-02 0.  1.
    10030    2    1    2    0    0  0.00000000000E+00  0.00000000000E+00  0.28827005891E+03  0.29823096472E+04  0.29683448595E+04 0.  0.
        1    1    3    3  502    0 -0.49966739740E+02 -0.66579907509E+03  0.14758832426E+04  0.16198816096E+04  0.50400001928E-02 0. -1.
       -1    1    3    3    0  502  0.49966739740E+02  0.66579907509E+03 -0.11876131837E+04  0.13624280376E+04  0.50400001928E-02 0.  1.
</event>
<event>
 5   0  0.7726743E-07  0.3112216E+04  0.7818609E-02  0.8212393E-01
       -1   -1    0    0    0  501  0.00000000000E+00  0.00000000000E+00  0.96793475756E+03  0.96793475757E+03  0.50400001928E-02 0. -1.
        1   -1    0    0  501    0  0.00000000000E+00  0.00000000000E+00 -0.25016896612E+04  0.25016896612E+04  0.50400001928E-02 0.  1.
    10030    2    1    2    0    0  0.00000000000E+00  0.00000000000E+00 -0.15337549037E+04  0.34696244188E+04  0.31122161723E+04 0.  0.
        1    1    3    3  502    0  0.68862004942E+03  0.76287811673E+03  0.53576566385E+03  0.11589760308E+04  0.50400001928E-02 0. -1.
       -1    1    3    3    0  502 -0.68862004942E+03 -0.76287811673E+03 -0.20695205675E+04  0.23106483880E+04  0.50400001928E-02 0.  1.
</event>
<event>
 5   0  0.2226334E-06  0.3106091E+04  0.7818609E-02  0.8214068E-01
       -2   -1    0    0    0  501  0.00000000000E+00  0.00000000000E+00  0.10764248105E+04  0.10764248106E+04  0.25500000920E-02 0. -1.
        2   -1    0    0  501    0  0.00000000000E+00  0.00000000000E+00 -0.22407052939E+04  0.22407052939E+04  0.25500000920E-02 0.  1.
    10030    2    1    2    0    0  0.00000000000E+00  0.00000000000E+00 -0.11642804834E+04  0.33171301045E+04  0.31060912875E+04 0.  0.
        5    1    3    3  502    0  0.19113390379E+03 -0.48147791519E+03  0.98143104198E+03  0.11097667017E+04  0.46999998093E+01 0. -1.
       -5    1    3    3    0  502 -0.19113390379E+03  0.48147791519E+03 -0.21457115253E+04  0.22073634028E+04  0.46999998093E+01 0.  1.
</event>
<event>
 5   0  0.7656332E-07  0.3086129E+04  0.7818609E-02  0.8219555E-01
        1   -1    0    0  501    0  0.00000000000E+00  0.00000000000E+00  0.20136988637E+04  0.20136988637E+04  0.50400001928E-02 0.  1.
       -1   -1    0    0    0  501  0.00000000000E+00  0.00000000000E+00 -0.11824249255E+04  0.11824249255E+04  0.50400001928E-02 0. -1.
    10030    2    1    2    0    0  0.00000000000E+00  0.00000000000E+00  0.83127393820E+03  0.31961237892E+04  0.30861287911E+04 0.  0.
        2    1    3    3  502    0 -0.12821410272E+04 -0.10983988059E+03  0.12975133155E+04  0.18274274861E+04  0.25500000920E-02 0.  1.
       -2    1    3    3    0  502  0.12821410272E+04  0.10983988059E+03 -0.46623937735E+03  0.13686963031E+04  0.25500000920E-02 0. -1.
</event>
<event>
 5   0  0.2078009E-06  0.3117130E+04  0.7818609E-02  0.8211053E-01
       -2   -1    0    0    0  501  0.00000000000E+00  0.00000000000E+00  0.11455681549E+04  0.11455681549E+04  0.25500000920E-02 0.  1.
        2   -1    0    0  501    0  0.00000000000E+00  0.00000000000E+00 -0.21204536495E+04  0.21204536495E+04  0.25500000920E-02 0. -1.
    10030    2    1    2    0    0  0.00000000000E+00  0.00000000000E+00 -0.97488549455E+03  0.32660218044E+04  0.31171295608E+04 0.  0.
        3    1    3    3  502    0  0.14053039560E+04  0.36512171496E+03  0.10612476280E+03  0.14558350013E+04  0.10100000352E+00 0.  1.
       -3    1    3    3    0  502 -0.14053039560E+04 -0.36512171496E+03 -0.10810102574E+04  0.18101868031E+04  0.10100000352E+00 0. -1.
</event>
<event>
 5   0  0.2133385E-06  0.3105810E+04  0.7818609E-02  0.8214145E-01
       -2   -1    0    0    0  501  0.00000000000E+00  0.00000000000E+00  0.18711130083E+04  0.18711130083E+04  0.25500000920E-02 0.  1.
        2   -1    0    0  501    0  0.00000000000E+00  0.00000000000E+00 -0.12888129090E+04  0.12888129090E+04  0.25500000920E-02 0. -1.
    10030    2    1    2    0    0  0.00000000000E+00  0.00000000000E+00  0.58230009935E+03  0.31599259173E+04  0.31058104252E+04 0.  0.
        2    1    3    3  502    0 -0.13055911923E+04 -0.83572824657E+03  0.38497692765E+03  0.15972530477E+04  0.25500000920E-02 0. -1.
       -2    1    3    3    0  502  0.13055911923E+04  0.83572824657E+03  0.19732317170E+03  0.15626728697E+04  0.25500000920E-02 0.  1.
</event>
<event>
 5   0  0.7656332E-07  0.3107886E+04  0.7818609E-02  0.8213577E-01
       -1   -1    0    0    0  501  0.00000000000E+00  0.00000000000E+00  0.12414795502E+04  0.12414795502E+04  0.50400001928E-02 0. -1.
        1   -1    0    0  501    0  0.00000000000E+00  0.00000000000E+00 -0.19450492917E+04  0.19450492917E+04  0.50400001928E-02 0.  1.
    10030    2    1    2    0    0  0.00000000000E+00  0.00000000000E+00 -0.70356974145E+03  0.31865288419E+04  0.31078860467E+04 0.  0.
        2    1    3    3  502    0  0.88115880331E+03 -0.12283106891E+04 -0.72082453090E+03  0.16747465450E+04  0.25500000920E-02 0.  1.
       -2    1    3    3    0  502 -0.88115880331E+03  0.12283106891E+04  0.17254789448E+02  0.15117822969E+04  0.25500000920E-02 0. -1.
</event>
<event>
 5   0  0.2226334E-06  0.3078928E+04  0.7818609E-02  0.8221545E-01
        2   -1    0    0  501    0  0.00000000000E+00  0.00000000000E+00  0.13085276395E+04  0.13085276395E+04  0.25500000920E-02 0. -1.
       -2   -1    0    0    0  501  0.00000000000E+00  0.00000000000E+00 -0.18111573552E+04  0.18111573552E+04  0.25500000920E-02 0.  1.
    10030    2    1    2    0    0  0.00000000000E+00  0.00000000000E+00 -0.50262971572E+03  0.31196849947E+04  0.30789280335E+04 0.  0.
        5    1    3    3  502    0 -0.23379755108E+03  0.15113083425E+03 -0.17854330704E+04  0.18070127733E+04  0.46999998093E+01 0.  1.
       -5    1    3    3    0  502  0.23379755108E+03 -0.15113083425E+03  0.12828033547E+04  0.13126722214E+04  0.46999998093E+01 0. -1.
</event>
<event>
 5   0  0.2226334E-06  0.3051025E+04  0.7818609E-02  0.8229309E-01
        2   -1    0    0  501    0  0.00000000000E+00  0.00000000000E+00  0.14698293830E+04  0.14698293830E+04  0.25500000920E-02 0. -1.
       -2   -1    0    0    0  501  0.00000000000E+00  0.00000000000E+00 -0.15833048970E+04  0.15833048970E+04  0.25500000920E-02 0.  1.
    10030    2    1    2    0    0  0.00000000000E+00  0.00000000000E+00 -0.11347551404E+03  0.30531342800E+04  0.30510247851E+04 0.  0.
        5    1    3    3  502    0  0.24457493857E+03 -0.21940361540E+03  0.14339939199E+04  0.14711612758E+04  0.46999998093E+01 0. -1.
       -5    1    3    3    0  502 -0.24457493857E+03  0.21940361540E+03 -0.15474694340E+04  0.15819730042E+04  0.46999998093E+01 0.  1.
</event>
<event>
 5   0  0.2078009E-06  0.3084807E+04  0.7818609E-02  0.8219920E-01
        2   -1    0    0  501    0  0.00000000000E+00  0.00000000000E+00  0.18011613809E+04  0.18011613809E+04  0.25500000920E-02 0.  1.
       -2   -1    0    0    0  501  0.00000000000E+00  0.00000000000E+00 -0.13208189133E+04  0.13208189133E+04  0.25500000920E-02 0. -1.
    10030    2    1    2    0    0  0.00000000000E+00  0.00000000000E+00  0.48034246755E+03  0.31219802942E+04  0.30848066506E+04 0.  0.
        3    1    3    3  502    0  0.80715472601E+02  0.24508187891E+03  0.17791630435E+04  0.17977767549E+04  0.10100000352E+00 0.  1.
       -3    1    3    3    0  502 -0.80715472601E+02 -0.24508187891E+03 -0.12988205760E+04  0.13242035393E+04  0.10100000352E+00 0. -1.
</event>
<event>
 5   0  0.2067926E-06  0.3091360E+04  0.7818609E-02  0.8218113E-01
       -2   -1    0    0    0  501  0.00000000000E+00  0.00000000000E+00  0.13090845176E+04  0.13090845176E+04  0.25500000920E-02 0. -1.
        2   -1    0    0  501    0  0.00000000000E+00  0.00000000000E+00 -0.18250365640E+04  0.18250365640E+04  0.25500000920E-02 0.  1.
    10030    2    1    2    0    0  0.00000000000E+00  0.00000000000E+00 -0.51595204638E+03  0.31341210816E+04  0.30913602895E+04 0.  0.
        1    1    3    3  502    0 -0.21692630735E+03  0.12859699043E+04 -0.10991218140E+04  0.17055334590E+04  0.50400001928E-02 0.  1.
       -1    1    3    3    0  502  0.21692630735E+03 -0.12859699043E+04  0.58316976765E+03  0.14285876226E+04  0.50400001928E-02 0. -1.
</event>
<event>
 5   0  0.7413481E-07  0.3101804E+04  0.7818609E-02  0.8215243E-01
        1   -1    0    0  501    0  0.00000000000E+00  0.00000000000E+00  0.17505364767E+04  0.17505364767E+04  0.50400001928E-02 0.  1.
       -1   -1    0    0    0  501  0.00000000000E+00  0.00000000000E+00 -0.13740344922E+04  0.13740344922E+04  0.50400001928E-02 0. -1.
    10030    2    1    2    0    0  0.00000000000E+00  0.00000000000E+00  0.37650198448E+03  0.31245709689E+04  0.31018043128E+04 0.  0.
        5    1    3    3  502    0 -0.42969390524E+03  0.76345796335E+03  0.14773982206E+04  0.17176240876E+04  0.46999998093E+01 0.  1.
       -5    1    3    3    0  502  0.42969390524E+03 -0.76345796335E+03 -0.11008962361E+04  0.14069468813E+04  0.46999998093E+01 0. -1.
</event>
<event>
 5   0  0.7726743E-07  0.3105737E+04  0.7818609E-02  0.8214165E-01
       -1   -1    0    0    0  501  0.00000000000E+00  0.00000000000E+00  0.12521775145E+04  0.12521775145E+04  0.50400001928E-02 0.  1.
        1   -1    0    0  501    0  0.00000000000E+00  0.00000000000E+00 -0.19257655649E+04  0.19257655649E+04  0.50400001928E-02 0. -1.
    10030    2    1    2    0    0  0.00000000000E+00  0.00000000000E+00 -0.67358805039E+03  0.31779430794E+04  0.31057368456E+04 0.  0.
        1    1    3    3  502    0 -0.38495151269E+03 -0.77125344328E+03 -0.16584823423E+04  0.18691129502E+04  0.50400001928E-02 0. -1.
       -1    1    3    3    0  502  0.38495151269E+03  0.77125344328E+03  0.98489429186E+03  0.13088301292E+04  0.50400001928E-02 0.  1.
</event>
<event>
 5   0  0.2133385E-06  0.3081997E+04  0.7818609E-02  0.8220696E-01
        2   -1    0    0  501    0  0.00000000000E+00  0.00000000000E+00  0.28498715841E+04  0.28498715841E+04  0.25500000920E-02 0. -1.
       -2   -1    0    0    0  501  0.00000000000E+00  0.00000000000E+00 -0.83325736526E+03  0.83325736527E+03  0.25500000920E-02 0.  1.
    10030    2    1    2    0    0  0.00000000000E+00  0.00000000000E+00  0.20166142189E+04  0.36831289494E+04  0.30819970717E+04 0.  0.
        2    1    3    3  502    0 -0.61887718627E+03  0.43184883962E+01 -0.67821131147E+03  0.91814933646E+03  0.25500000920E-02 0.  1.
       -2    1    3    3    0  502  0.61887718627E+03 -0.43184883962E+01  0.26948255303E+04  0.27649796129E+04  0.25500000920E-02 0. -1.
</event>
<event>
 5   0  0.7656332E-07  0.3056200E+04  0.7818609E-02  0.8227862E-01
        1   -1    0    0  501    0  0.00000000000E+00  0.00000000000E+00  0.17679785043E+04  0.17679785043E+04  0.50400001928E-02 0. -1.
       -1   -1    0    0    0  501  0.00000000000E+00  0.00000000000E+00 -0.13207682573E+04  0.13207682573E+04  0.50400001928E-02 0.  1.
    10030    2    1    2    0    0  0.00000000000E+00  0.00000000000E+00  0.44721024696E+03  0.30887467616E+04  0.30562001820E+04 0.  0.
        2    1    3    3  502    0  0.14128983736E+04  0.47123037041E+03 -0.12172063357E+03  0.14943747150E+04  0.25500000920E-02 0. -1.
       -2    1    3    3    0  502 -0.14128983736E+04 -0.47123037041E+03  0.56893088053E+03  0.15943720466E+04  0.25500000920E-02 0.  1.
</event>
<event>
 5   0  0.2067926E-06  0.3109477E+04  0.7818609E-02  0.8213142E-01
        2   -1    0    0  501    0  0.00000000000E+00  0.00000000000E+00  0.18553038511E+04  0.18553038511E+04  0.25500000920E-02 0. -1.
       -2   -1    0    0    0  501  0.00000000000E+00  0.00000000000E+00 -0.13028657609E+04  0.13028657609E+04  0.25500000920E-02 0.  1.
    10030    2    1    2    0    0  0.00000000000E+00  0.00000000000E+00  0.55243809020E+03  0.31581696119E+04  0.31094770387E+04 0.  0.
        1    1    3    3  502    0 -0.52020779139E+03 -0.12147412531E+04  0.11081919139E+04  0.17246164142E+04  0.50400001928E-02 0. -1.
       -1    1    3    3    0  502  0.52020779139E+03  0.12147412531E+04 -0.55575382365E+03  0.14335531977E+04  0.50400001928E-02 0.  1.
</event>
<event>
 5   0  0.2226334E-06  0.3087044E+04  0.7818609E-02  0.8219303E-01
        2   -1    0    0  501    0  0.00000000000E+00  0.00000000000E+00  0.14191550997E+04  0.14191550997E+04  0.25500000920E-02 0.  1.
       -2   -1    0    0    0  501  0.00000000000E+00  0.00000000000E+00 -0.16787879929E+04  0.16787879929E+04  0.25500000920E-02 0. -1.
    10030    2    1    2    0    0  0.00000000000E+00  0.00000000000E+00 -0.25963289319E+03  0.30979430925E+04  0.30870442442E+04 0.  0.
        5    1    3    3  502    0  0.11021446887E+04  0.91361029768E+03  0.44931001392E+03  0.15004360264E+04  0.46999998093E+01 0.  1.
       -5    1    3    3    0  502 -0.11021446887E+04 -0.91361029768E+03 -0.70894290711E+03  0.15975070661E+04  0.46999998093E+01 0. -1.
</event>
<event>
 5   0  0.7413481E-07  0.3107251E+04  0.7818609E-02  0.8213751E-01
       -1   -1    0    0    0  501  0.00000000000E+00  0.00000000000E+00  0.14840613668E+04  0.14840613668E+04  0.50400001928E-02 0.  1.
        1   -1    0    0  501    0  0.00000000000E+00  0.00000000000E+00 -0.16264499568E+04  0.16264499569E+04  0.50400001928E-02 0. -1.
    10030    2    1    2    0    0  0.00000000000E+00  0.00000000000E+00 -0.14238859005E+03  0.31105113237E+04  0.31072505828E+04 0.  0.
        5    1    3    3  502    0 -0.55626009416E+03 -0.87317538542E+03  0.10884119724E+04  0.15021728455E+04  0.46999998093E+01 0.  1.
       -5    1    3    3    0  502  0.55626009416E+03  0.87317538542E+03 -0.12308005624E+04  0.16083384782E+04  0.46999998093E+01 0. -1.
</event>
<event>
 5   0  0.7413481E-07  0.3116532E+04  0.7818609E-02  0.8211215E-01
       -1   -1    0    0    0  501  0.00000000000E+00  0.00000000000E+00  0.15077146676E+04  0.15077146676E+04  0.50400001928E-02 0.  1.
        1   -1    0    0  501    0  0.00000000000E+00  0.00000000000E+00 -0.16105124619E+04  0.16105124619E+04  0.50400001928E-02 0. -1.
    10030    2    1    2    0    0  0.00000000000E+00  0.00000000000E+00 -0.10279779424E+03  0.31182271295E+04  0.31165322146E+04 0.  0.
        5    1    3    3  502    0  0.11898861392E+04  0.87601890664E+02  0.95147752758E+03  0.15260519948E+04  0.46999998093E+01 0.  1.
       -5    1    3    3    0  502 -0.11898861392E+04 -0.87601890664E+02 -0.10542753218E+04  0.15921751347E+04  0.46999998093E+01 0. -1.
</event>
<event>
 5   0  0.2067926E-06  0.3097944E+04  0.7818609E-02  0.8216302E-01
       -2   -1    0    0    0  501  0.00000000000E+00  0.00000000000E+00  0.15276611126E+04  0.15276611126E+04  0.25500000920E-02 0. -1.
        2   -1    0    0  501    0  0.00000000000E+00  0.00000000000E+00 -0.15705800238E+04  0.15705800238E+04  0.25500000920E-02 0.  1.
    10030    2    1    2    0    0  0.00000000000E+00  0.00000000000E+00 -0.42918911227E+02  0.30982411363E+04  0.30979438513E+04 0.  0.
        1    1    3    3  502    0 -0.14725247517E+04  0.33076894698E+03 -0.37017154397E+03  0.15539511616E+04  0.50400001928E-02 0.  1.
       -1    1    3    3    0  502  0.14725247517E+04 -0.33076894698E+03  0.32725263275E+03  0.15442899748E+04  0.50400001928E-02 0. -1.
</event>
<event>
 5   0  0.2094135E-06  0.3085293E+04  0.7818609E-02  0.8219786E-01
       -2   -1    0    0    0  501  0.00000000000E+00  0.00000000000E+00  0.11221367981E+04  0.11221367981E+04  0.25500000920E-02 0. -1.
        2   -1    0    0  501    0  0.00000000000E+00  0.00000000000E+00 -0.21207382318E+04  0.21207382318E+04  0.25500000920E-02 0.  1.
    10030    2    1    2    0    0  0.00000000000E+00  0.00000000000E+00 -0.99860143371E+03  0.32428750298E+04  0.30852931199E+04 0.  0.
        4    1    3    3  502    0 -0.34222506011E+03  0.14870116542E+04 -0.26092403835E+03  0.15480324991E+04  0.12699999809E+01 0. -1.
       -4    1    3    3    0  502  0.34222506011E+03 -0.14870116542E+04 -0.73767739536E+03  0.16948425308E+04  0.12699999809E+01 0.  1.
</event>
<event>
 5   0  0.7656332E-07  0.3082443E+04  0.7818609E-02  0.8220573E-01
        1   -1    0    0  501    0  0.00000000000E+00  0.00000000000E+00  0.21780917270E+04  0.21780917270E+04  0.50400001928E-02 0.  1.
       -1   -1    0    0    0  501  0.00000000000E+00  0.00000000000E+00 -0.10905707902E+04  0.10905707902E+04  0.50400001928E-02 0. -1.
    10030    2    1    2    0    0  0.00000000000E+00  0.00000000000E+00  0.10875209368E+04  0.32686625171E+04  0.30824426780E+04 0.  0.
        2    1    3    3  502    0  0.53221390932E+02  0.77283209328E+03  0.19566435057E+04  0.21044134026E+04  0.25500000920E-02 0.  1.
       -2    1    3    3    0  502 -0.53221390932E+02 -0.77283209328E+03 -0.86912256890E+03  0.11642491145E+04  0.25500000920E-02 0. -1.
</event>
<event>
 5   0  0.7519202E-07  0.3111717E+04  0.7818609E-02  0.8212530E-01
        1   -1    0    0  501    0  0.00000000000E+00  0.00000000000E+00  0.19338851040E+04  0.19338851040E+04  0.50400001928E-02 0. -1.
       -1   -1    0    0    0  501  0.00000000000E+00  0.00000000000E+00 -0.12517266697E+04  0.12517266697E+04  0.50400001928E-02 0.  1.
    10030    2    1    2    0    0  0.00000000000E+00  0.00000000000E+00  0.68215843436E+03  0.31856117737E+04  0.31117169285E+04 0.  0.
        4    1    3    3  502    0  0.11668121466E+04 -0.10061242788E+04  0.11923693973E+03  0.15453011715E+04  0.12699999809E+01 0. -1.
       -4    1    3    3    0  502 -0.11668121466E+04  0.10061242788E+04  0.56292149463E+03  0.16403106022E+04  0.12699999809E+01 0.  1.
</event>
<event>
 5   0  0.2078009E-06  0.3115170E+04  0.7818609E-02  0.8211587E-01
       -2   -1    0    0    0  501  0.00000000000E+00  0.00000000000E+00  0.12968541382E+04  0.12968541382E+04  0.25500000920E-02 0.  1.
        2   -1    0    0  501    0  0.00000000000E+00  0.00000000000E+00 -0.18707360676E+04  0.18707360676E+04  0.25500000920E-02 0. -1.
    10030    2    1    2    0    0  0.00000000000E+00  0.00000000000E+00 -0.57388192937E+03  0.31675902057E+04  0.31151704998E+04 0.  0.
        3    1    3    3  502    0  0.17414699211E+03 -0.10097097837E+04  0.90592817462E+03  0.13676793812E+04  0.10100000352E+00 0.  1.
       -3    1    3    3    0  502 -0.17414699211E+03  0.10097097837E+04 -0.14798101040E+04  0.17999108245E+04  0.10100000352E+00 0. -1.
</event>
<event>
 5   0  0.7726743E-07  0.3130742E+04  0.7818609E-02  0.8207351E-01
       -1   -1    0    0    0  501  0.00000000000E+00  0.00000000000E+00  0.14169959684E+04  0.14169959684E+04  0.50400001928E-02 0.  1.
        1   -1    0    0  501    0  0.00000000000E+00  0.00000000000E+00 -0.17292825152E+04  0.17292825152E+04  0.50400001928E-02 0. -1.
    10030    2    1    2    0    0  0.00000000000E+00  0.00000000000E+00 -0.31228654684E+03  0.31462784837E+04  0.31307419902E+04 0.  0.
        1    1    3    3  502    0 -0.60817740379E+03  0.19163717834E+03 -0.15928467569E+04  0.17157404680E+04  0.50400001928E-02 0. -1.
       -1    1    3    3    0  502  0.60817740379E+03 -0.19163717834E+03  0.12805602101E+04  0.14305380156E+04  0.50400001928E-02 0.  1.
</event>
<event>
 5   0  0.2078009E-06  0.3066324E+04  0.7818609E-02  0.8225041E-01
       -2   -1    0    0    0  501  0.00000000000E+00  0.00000000000E+00  0.23188708415E+04  0.23188708415E+04  0.25500000920E-02 0.  1.
        2   -1    0    0  501    0  0.00000000000E+00  0.00000000000E+00 -0.10136767134E+04  0.10136767134E+04  0.25500000920E-02 0. -1.
    10030    2    1    2    0    0  0.00000000000E+00  0.00000000000E+00  0.13051941281E+04  0.33325475550E+04  0.30663237751E+04 0.  0.
        3    1    3    3  502    0  0.99542134642E+03 -0.22571744355E+03  0.18959389523E+04  0.21532293287E+04  0.10100000352E+00 0.  1.
       -3    1    3    3    0  502 -0.99542134642E+03  0.22571744355E+03 -0.59074482415E+03  0.11793182262E+04  0.10100000352E+00 0. -1.
</event>
<event>
 5   0  0.7656332E-07  0.3102643E+04  0.7818609E-02  0.8215013E-01
        1   -1    0    0  501    0  0.00000000000E+00  0.00000000000E+00  0.24460940019E+04  0.24460940019E+04  0.50400001928E-02 0.  1.
       -1   -1    0    0    0  501  0.00000000000E+00  0.00000000000E+00 -0.98385378190E+03  0.98385378191E+03  0.50400001928E-02 0. -1.
    10030    2    1    2    0    0  0.00000000000E+00  0.00000000000E+00  0.14622402200E+04  0.34299477838E+04  0.31026432826E+04 0.  0.
        2    1    3    3  502    0  0.14714034037E+04 -0.35356387468E+03  0.35368973511E+03  0.15540694382E+04  0.25500000920E-02 0. -1.
       -2    1    3    3    0  502 -0.14714034037E+04  0.35356387468E+03  0.11085504849E+04  0.18758783456E+04  0.25500000920E-02 0.  1.
</event>
<event>
 5   0  0.2067926E-06  0.3094622E+04  0.7818609E-02  0.8217215E-01
       -2   -1    0    0    0  501  0.00000000000E+00  0.00000000000E+00  0.16590101895E+04  0.16590101895E+04  0.25500000920E-02 0. -1.
        2   -1    0    0  501    0  0.00000000000E+00  0.00000000000E+00 -0.14431324470E+04  0.14431324470E+04  0.25500000920E-02 0.  1.
    10030    2    1    2    0    0  0.00000000000E+00  0.00000000000E+00  0.21587774242E+03  0.31021426365E+04  0.30946220670E+04 0.  0.
        1    1    3    3  502    0  0.10170329058E+04  0.11591003376E+04 -0.20050349135E+02  0.15421645634E+04  0.50400001928E-02 0.  1.
       -1    1    3    3    0  502 -0.10170329058E+04 -0.11591003376E+04  0.23592809156E+03  0.15599780731E+04  0.50400001928E-02 0. -1.
</event>
<event>
 5   0  0.2133385E-06  0.3124216E+04  0.7818609E-02  0.8209123E-01
        2   -1    0    0  501    0  0.00000000000E+00  0.00000000000E+00  0.13696976987E+04  0.13696976987E+04  0.25500000920E-02 0. -1.
       -2   -1    0    0    0  501  0.00000000000E+00  0.00000000000E+00 -0.17815478109E+04  0.17815478109E+04  0.25500000920E-02 0.  1.
    10030    2    1    2    0    0  0.00000000000E+00  0.00000000000E+00 -0.41185011217E+03  0.31512455097E+04  0.31242163413E+04 0.  0.
        2    1    3    3  502    0 -0.14984884570E+04 -0.43738270272E+03 -0.26483110304E+03  0.15833214448E+04  0.25500000920E-02 0.  1.
       -2    1    3    3    0  502  0.14984884570E+04  0.43738270272E+03 -0.14701900912E+03  0.15679240649E+04  0.25500000920E-02 0. -1.
</event>
<event>
 5   0  0.6979625E-07  0.3096661E+04  0.7818609E-02  0.8216655E-01
       -3   -1    0    0    0  501  0.00000000000E+00  0.00000000000E+00  0.17810871123E+04  0.17810871152E+04  0.10100000352E+00 0.  1.
        3   -1    0    0  501    0  0.00000000000E+00  0.00000000000E+00 -0.13459910420E+04  0.13459910458E+04  0.10100000352E+00 0. -1.
    10030    2    1    2    0    0  0.00000000000E+00  0.00000000000E+00  0.43509607029E+03  0.31270781610E+04  0.30966609816E+04 0.  0.
        3    1    3    3  502    0 -0.11860871338E+03  0.62837959157E+03 -0.12064086300E+04  0.13654122933E+04  0.10100000352E+00 0. -1.
       -3    1    3    3    0  502  0.11860871338E+03 -0.62837959157E+03  0.16415047003E+04  0.17616658677E+04  0.10100000352E+00 0.  1.
</event>
<event>
 5   0  0.7519202E-07  0.3270801E+04  0.7818609E-02  0.8170365E-01
       -1   -1    0    0    0  501  0.00000000000E+00  0.00000000000E+00  0.14523745159E+04  0.14523745159E+04  0.50400001928E-02 0. -1.
        1   -1    0    0  501    0  0.00000000000E+00  0.00000000000E+00 -0.18414908156E+04  0.18414908156E+04  0.50400001928E-02 0.  1.
    10030    2    1    2    0    0  0.00000000000E+00  0.00000000000E+00 -0.38911629975E+03  0.32938653315E+04  0.32708007165E+04 0.  0.
        4    1    3    3  502    0  0.14320745589E+04  0.68922440353E+03  0.19373164271E+03  0.16010625793E+04  0.12699999809E+01 0.  1.
       -4    1    3    3    0  502 -0.14320745589E+04 -0.68922440353E+03 -0.58284794245E+03  0.16928027521E+04  0.12699999809E+01 0. -1.
</event>
<event>
 5   0  0.2094135E-06  0.3110170E+04  0.7818609E-02  0.8212952E-01
        2   -1    0    0  501    0  0.00000000000E+00  0.00000000000E+00  0.20612189833E+04  0.20612189833E+04  0.25500000920E-02 0. -1.
       -2   -1    0    0    0  501  0.00000000000E+00  0.00000000000E+00 -0.11732323586E+04  0.11732323586E+04  0.25500000920E-02 0.  1.
    10030    2    1    2    0    0  0.00000000000E+00  0.00000000000E+00  0.88798662472E+03  0.32344513420E+04  0.31101696478E+04 0.  0.
        4    1    3    3  502    0 -0.97580251426E+03  0.10901324053E+04 -0.10404475974E+03  0.14667672388E+04  0.12699999809E+01 0.  1.
       -4    1    3    3    0  502  0.97580251426E+03 -0.10901324053E+04  0.99203138445E+03  0.17676841032E+04  0.12699999809E+01 0. -1.
</event>
<event>
 5   0  0.2226334E-06  0.3096520E+04  0.7818609E-02  0.8216694E-01
       -2   -1    0    0    0  501  0.00000000000E+00  0.00000000000E+00  0.13529768794E+04  0.13529768794E+04  0.25500000920E-02 0.  1.
        2   -1    0    0  501    0  0.00000000000E+00  0.00000000000E+00 -0.17717295292E+04  0.17717295292E+04  0.25500000920E-02 0. -1.
    10030    2    1    2    0    0  0.00000000000E+00  0.00000000000E+00 -0.41875264982E+03  0.31247064086E+04  0.30965200401E+04 0.  0.
        5    1    3    3  502    0  0.68456607209E+03  0.11231488670E+04 -0.10335067232E+04  0.16727977527E+04  0.46999998093E+01 0. -1.
       -5    1    3    3    0  502 -0.68456607209E+03 -0.11231488670E+04  0.61475407334E+03  0.14519086560E+04  0.46999998093E+01 0.  1.
</event>
<event>
 5   0  0.7726743E-07  0.3101789E+04  0.7818609E-02  0.8215247E-01
       -1   -1    0    0    0  501  0.00000000000E+00  0.00000000000E+00  0.14506593916E+04  0.14506593916E+04  0.50400001928E-02 0. -1.
        1   -1    0    0  501    0  0.00000000000E+00  0.00000000000E+00 -0.16580553990E+04  0.16580553990E+04  0.50400001928E-02 0.  1.
    10030    2    1    2    0    0  0.00000000000E+00  0.00000000000E+00 -0.20739600743E+03  0.31087147906E+04  0.31017889267E+04 0.  0.
        1    1    3    3  502    0  0.10400924699E+04  0.66450838992E+03 -0.10448954600E+04  0.16171488084E+04  0.50400001928E-02 0.  1.
       -1    1    3    3    0  502 -0.10400924699E+04 -0.66450838992E+03  0.83749945260E+03  0.14915659822E+04  0.50400001928E-02 0. -1.
</event>
<event>
 5   0  0.2094135E-06  0.3067717E+04  0.7818609E-02  0.8224654E-01
       -2   -1    0    0    0  501  0.00000000000E+00  0.00000000000E+00  0.16506475505E+04  0.16506475505E+04  0.25500000920E-02 0.  1.
        2   -1    0    0  501    0  0.00000000000E+00  0.00000000000E+00 -0.14253328544E+04  0.14253328544E+04  0.25500000920E-02 0. -1.
    10030    2    1    2    0    0  0.00000000000E+00  0.00000000000E+00  0.22531469603E+03  0.30759804049E+04  0.30677171869E+04 0.  0.
        4    1    3    3  502    0 -0.10762142318E+04 -0.10175322113E+04  0.51261987210E+03  0.15672873444E+04  0.12699999809E+01 0.  1.
       -4    1    3    3    0  502  0.10762142318E+04  0.10175322113E+04 -0.28730517608E+03  0.15086930605E+04  0.12699999809E+01 0. -1.
</event>
<event>
 5   0  0.7561815E-07  0.2845172E+04  0.7818609E-02  0.8289380E-01
        1   -1    0    0  501    0  0.00000000000E+00  0.00000000000E+00  0.15162227254E+04  0.15162227254E+04  0.50400001928E-02 0. -1.
       -1   -1    0    0    0  501  0.00000000000E+00  0.00000000000E+00 -0.13347324118E+04  0.13347324118E+04  0.50400001928E-02 0.  1.
    10030    2    1    2    0    0  0.00000000000E+00  0.00000000000E+00  0.18149031365E+03  0.28509551372E+04  0.28451724834E+04 0.  0.
        3    1    3    3  502    0  0.64443173293E+03  0.28569873476E+03  0.13289084345E+04  0.15042983956E+04  0.10100000352E+00 0. -1.
       -3    1    3    3    0  502 -0.64443173293E+03 -0.28569873476E+03 -0.11474181208E+04  0.13466567416E+04  0.10100000352E+00 0.  1.
</event>
<event>
 5   0  0.7656332E-07  0.3112145E+04  0.7818609E-02  0.8212413E-01
        1   -1    0    0  501    0  0.00000000000E+00  0.00000000000E+00  0.19427357170E+04  0.19427357171E+04  0.50400001928E-02 0.  1.
       -1   -1    0    0    0  501  0.00000000000E+00  0.00000000000E+00 -0.12463670759E+04  0.12463670759E+04  0.50400001928E-02 0. -1.
    10030    2    1    2    0    0  0.00000000000E+00  0.00000000000E+00  0.69636864114E+03  0.31891027930E+04  0.31121451347E+04 0.  0.
        2    1    3    3  502    0  0.66763404672E+03  0.47875923282E+03  0.17023835205E+04  0.18902527012E+04  0.25500000920E-02 0.  1.
       -2    1    3    3    0  502 -0.66763404672E+03 -0.47875923282E+03 -0.10060148794E+04  0.12988500918E+04  0.25500000920E-02 0. -1.
</event>
<event>
 5   0  0.7656332E-07  0.3067552E+04  0.7818609E-02  0.8224700E-01
       -1   -1    0    0    0  501  0.00000000000E+00  0.00000000000E+00  0.15084115381E+04  0.15084115381E+04  0.50400001928E-02 0. -1.
        1   -1    0    0  501    0  0.00000000000E+00  0.00000000000E+00 -0.15595669433E+04  0.15595669434E+04  0.50400001928E-02 0.  1.
    10030    2    1    2    0    0  0.00000000000E+00  0.00000000000E+00 -0.51155405257E+02  0.30679784814E+04  0.30675519698E+04 0.  0.
        2    1    3    3  502    0 -0.12725441957E+04  0.53362319972E+03 -0.69525748213E+03  0.15451554665E+04  0.25500000920E-02 0. -1.
       -2    1    3    3    0  502  0.12725441957E+04 -0.53362319972E+03  0.64410207687E+03  0.15228230149E+04  0.25500000920E-02 0.  1.
</event>
<event>
 5   0  0.7726743E-07  0.3065101E+04  0.7818609E-02  0.8225381E-01
       -1   -1    0    0    0  501  0.00000000000E+00  0.00000000000E+00  0.11622808802E+04  0.11622808802E+04  0.50400001928E-02 0.  1.
        1   -1    0    0  501    0  0.00000000000E+00  0.00000000000E+00 -0.20207772037E+04  0.20207772037E+04  0.50400001928E-02 0. -1.
    10030    2    1    2    0    0  0.00000000000E+00  0.00000000000E+00 -0.85849632357E+03  0.31830580839E+04  0.30651007859E+04 0.  0.
        1    1    3    3  502    0  0.12958694130E+04 -0.64585850672E+03  0.92376835555E+02  0.14508425918E+04  0.50400001928E-02 0.  1.
       -1    1    3    3    0  502 -0.12958694130E+04  0.64585850672E+03 -0.95087315913E+03  0.17322154921E+04  0.50400001928E-02 0. -1.
</event>
<event>
 5   0  0.7413481E-07  0.3116524E+04  0.7818609E-02  0.8211218E-01
        1   -1    0    0  501    0  0.00000000000E+00  0.00000000000E+00  0.19664756398E+04  0.19664756398E+04  0.50400001928E-02 0.  1.
       -1   -1    0    0    0  501  0.00000000000E+00  0.00000000000E+00 -0.12347882195E+04  0.12347882195E+04  0.50400001928E-02 0. -1.
    10030    2    1    2    0    0  0.00000000000E+00  0.00000000000E+00  0.73168742027E+03  0.32012638593E+04  0.31165243166E+04 0.  0.
        5    1    3    3  502    0  0.83362920605E+03 -0.66225829718E+03 -0.80291443469E+03  0.13334981758E+04  0.46999998093E+01 0. -1.
       -5    1    3    3    0  502 -0.83362920605E+03  0.66225829718E+03  0.15346018550E+04  0.18677656835E+04  0.46999998093E+01 0.  1.
</event>
<event>
 5   0  0.7656332E-07  0.3107196E+04  0.7818609E-02  0.8213766E-01
        1   -1    0    0  501    0  0.00000000000E+00  0.00000000000E+00  0.11055172179E+04  0.11055172179E+04  0.50400001928E-02 0. -1.
       -1   -1    0    0    0  501  0.00000000000E+00  0.00000000000E+00 -0.21832917134E+04  0.21832917134E+04  0.50400001928E-02 0.  1.
    10030    2    1    2    0    0  0.00000000000E+00  0.00000000000E+00 -0.10777744955E+04  0.32888089313E+04  0.31071958940E+04 0.  0.
        2    1    3    3  502    0  0.63863370319E+03 -0.57816257607E+03  0.82956171528E+03  0.11959505051E+04  0.25500000920E-02 0. -1.
       -2    1    3    3    0  502 -0.63863370319E+03  0.57816257607E+03 -0.19073362108E+04  0.20928584262E+04  0.25500000920E-02 0.  1.
</event>
<event>
 5   0  0.2094135E-06  0.3106501E+04  0.7818609E-02  0.8213956E-01
       -2   -1    0    0    0  501  0.00000000000E+00  0.00000000000E+00  0.10605253082E+04  0.10605253082E+04  0.25500000920E-02 0. -1.
        2   -1    0    0  501    0  0.00000000000E+00  0.00000000000E+00 -0.22748986618E+04  0.22748986618E+04  0.25500000920E-02 0.  1.
    10030    2    1    2    0    0  0.00000000000E+00  0.00000000000E+00 -0.12143733536E+04  0.33354239700E+04  0.31065013146E+04 0.  0.
        4    1    3    3  502    0  0.13506924294E+04  0.21772725709E+02 -0.14303250164E+04  0.19674032011E+04  0.12699999809E+01 0.  1.
       -4    1    3    3    0  502 -0.13506924294E+04 -0.21772725709E+02  0.21595166277E+03  0.13680207689E+04  0.12699999809E+01 0. -1.
</event>
<event>
 5   0  0.2094135E-06  0.3105177E+04  0.7818609E-02  0.8214319E-01
        2   -1    0    0  501    0  0.00000000000E+00  0.00000000000E+00  0.17437350647E+04  0.17437350647E+04  0.25500000920E-02 0.  1.
       -2   -1    0    0    0  501  0.00000000000E+00  0.00000000000E+00 -0.13823953249E+04  0.13823953250E+04  0.25500000920E-02 0. -1.
    10030    2    1    2    0    0  0.00000000000E+00  0.00000000000E+00  0.36133973970E+03  0.31261303896E+04  0.31051770973E+04 0.  0.
        4    1    3    3  502    0 -0.18814100990E+03  0.53011352891E+03 -0.12761997498E+04  0.13946701429E+04  0.12699999809E+01 0. -1.
       -4    1    3    3    0  502  0.18814100990E+03 -0.53011352891E+03  0.16375394895E+04  0.17314602467E+04  0.12699999809E+01 0.  1.
</event>
<event>
 5   0  0.2067926E-06  0.3094799E+04  0.7818609E-02  0.8217167E-01
        2   -1    0    0  501    0  0.00000000000E+00  0.00000000000E+00  0.18660853683E+04  0.18660853683E+04  0.25500000920E-02 0.  1.
       -2   -1    0    0    0  501  0.00000000000E+00  0.00000000000E+00 -0.12831379668E+04  0.12831379668E+04  0.25500000920E-02 0. -1.
    10030    2    1    2    0    0  0.00000000000E+00  0.00000000000E+00  0.58294740150E+03  0.31492233351E+04  0.30947988532E+04 0.  0.
        1    1    3    3  502    0  0.76276515739E+02 -0.34661306897E+03 -0.12411626083E+04  0.12909079544E+04  0.50400001928E-02 0. -1.
       -1    1    3    3    0  502 -0.76276515739E+02  0.34661306897E+03  0.18241100098E+04  0.18583153807E+04  0.50400001928E-02 0.  1.
</event>
<event>
 5   0  0.7519202E-07  0.3075801E+04  0.7818609E-02  0.8222411E-01
        1   -1    0    0  501    0  0.00000000000E+00  0.00000000000E+00  0.15065497713E+04  0.15065497713E+04  0.50400001928E-02 0. -1.
       -1   -1    0    0    0  501  0.00000000000E+00  0.00000000000E+00 -0.15699032699E+04  0.15699032699E+04  0.50400001928E-02 0.  1.
    10030    2    1    2    0    0  0.00000000000E+00  0.00000000000E+00 -0.63353498559E+02  0.30764530412E+04  0.30758006517E+04 0.  0.
        4    1    3    3  502    0 -0.12838467654E+04 -0.83563665289E+03 -0.16803125525E+03  0.15410344734E+04  0.12699999809E+01 0. -1.
       -4    1    3    3    0  502  0.12838467654E+04  0.83563665289E+03  0.10467775669E+03  0.15354185678E+04  0.12699999809E+01 0.  1.
</event>
<event>
 5   0  0.7519202E-07  0.3252844E+04  0.7818609E-02  0.8174999E-01
        1   -1    0    0  501    0  0.00000000000E+00  0.00000000000E+00  0.18440953032E+04  0.18440953032E+04  0.50400001928E-02 0. -1.
       -1   -1    0    0    0  501  0.00000000000E+00  0.00000000000E+00 -0.14344427578E+04  0.14344427578E+04  0.50400001928E-02 0.  1.
    10030    2    1    2    0    0  0.00000000000E+00  0.00000000000E+00  0.40965254540E+03  0.32785380610E+04  0.32528443875E+04 0.  0.
        4    1    3    3  502    0  0.90362323930E+02 -0.12043460167E+04  0.13027574758E+04  0.17764552713E+04  0.12699999809E+01 0. -1.
       -4    1    3    3    0  502 -0.90362323930E+02  0.12043460167E+04 -0.89310493036E+03  0.15020827896E+04  0.12699999809E+01 0.  1.
</event>
<event>
 5   0  0.2226334E-06  0.3065790E+04  0.7818609E-02  0.8225190E-01
       -2   -1    0    0    0  501  0.00000000000E+00  0.00000000000E+00  0.91367812415E+03  0.91367812416E+03  0.25500000920E-02 0.  1.
        2   -1    0    0  501    0  0.00000000000E+00  0.00000000000E+00 -0.25717669201E+04  0.25717669201E+04  0.25500000920E-02 0. -1.
    10030    2    1    2    0    0  0.00000000000E+00  0.00000000000E+00 -0.16580887959E+04  0.34854450442E+04  0.30657900615E+04 0.  0.
        5    1    3    3  502    0  0.14003909193E+03 -0.68703374283E+03 -0.23787619904E+04  0.24799510092E+04  0.46999998093E+01 0. -1.
       -5    1    3    3    0  502 -0.14003909193E+03  0.68703374283E+03  0.72067319454E+03  0.10054940350E+04  0.46999998093E+01 0.  1.
</event>
<event>
 5   0  0.7413481E-07  0.3094703E+04  0.7818609E-02  0.8217193E-01
        1   -1    0    0  501    0  0.00000000000E+00  0.00000000000E+00  0.16088080750E+04  0.16088080750E+04  0.50400001928E-02 0.  1.
       -1   -1    0    0    0  501  0.00000000000E+00  0.00000000000E+00 -0.14882422589E+04  0.14882422589E+04  0.50400001928E-02 0. -1.
    10030    2    1    2    0    0  0.00000000000E+00  0.00000000000E+00  0.12056581613E+03  0.30970503339E+04  0.30947026763E+04 0.  0.
        5    1    3    3  502    0 -0.87800386063E+03 -0.11368365916E+04  0.63603304841E+03  0.15709386824E+04  0.46999998093E+01 0.  1.
       -5    1    3    3    0  502  0.87800386063E+03  0.11368365916E+04 -0.51546723228E+03  0.15261116515E+04  0.46999998093E+01 0. -1.
</event>
<event>
 5   0  0.7413481E-07  0.3131120E+04  0.7818609E-02  0.8207249E-01
        1   -1    0    0  501    0  0.00000000000E+00  0.00000000000E+00  0.83705307091E+03  0.83705307092E+03  0.50400001928E-02 0.  1.
       -1   -1    0    0    0  501  0.00000000000E+00  0.00000000000E+00 -0.29281038760E+04  0.29281038760E+04  0.50400001928E-02 0. -1.
    10030    2    1    2    0    0  0.00000000000E+00  0.00000000000E+00 -0.20910508051E+04  0.37651569469E+04  0.31311201455E+04 0.  0.
        5    1    3    3  502    0  0.13615706310E+04  0.47008410785E+03 -0.17829820919E+04  0.22921389316E+04  0.46999998093E+01 0. -1.
       -5    1    3    3    0  502 -0.13615706310E+04 -0.47008410785E+03 -0.30806871317E+03  0.14730180154E+04  0.46999998093E+01 0.  1.
</event>
<event>
 5   0  0.2133385E-06  0.3103303E+04  0.7818609E-02  0.8214832E-01
       -2   -1    0    0    0  501  0.00000000000E+00  0.00000000000E+00  0.19783957517E+04  0.19783957517E+04  0.25500000920E-02 0.  1.
        2   -1    0    0  501    0  0.00000000000E+00  0.00000000000E+00 -0.12169567594E+04  0.12169567595E+04  0.25500000920E-02 0. -1.
    10030    2    1    2    0    0  0.00000000000E+00  0.00000000000E+00  0.76143899229E+03  0.31953525112E+04  0.31033028102E+04 0.  0.
        2    1    3    3  502    0 -0.85715708774E+03 -0.21899109861E+03 -0.93182544685E+03  0.12849023456E+04  0.25500000920E-02 0. -1.
       -2    1    3    3    0  502  0.85715708774E+03  0.21899109861E+03  0.16932644391E+04  0.19104501656E+04  0.25500000920E-02 0.  1.
</event>
<event>
 5   0  0.7561815E-07  0.3066494E+04  0.7818609E-02  0.8224994E-01
       -1   -1    0    0    0  501  0.00000000000E+00  0.00000000000E+00  0.16301978459E+04  0.16301978459E+04  0.50400001928E-02 0. -1.
        1   -1    0    0  501    0  0.00000000000E+00  0.00000000000E+00 -0.14420623743E+04  0.14420623743E+04  0.50400001928E-02 0.  1.
    10030    2    1    2    0    0  0.00000000000E+00  0.00000000000E+00  0.18813547156E+03  0.30722602202E+04  0.30664943999E+04 0.  0.
        3    1    3    3  502    0  0.75288228206E+03  0.61075188635E+02  0.14308497539E+04  0.16179904010E+04  0.10100000352E+00 0. -1.
       -3    1    3    3    0  502 -0.75288228206E+03 -0.61075188635E+02 -0.12427142823E+04  0.14542698192E+04  0.10100000352E+00 0.  1.
</event>
<event>
 5   0  0.2078009E-06  0.3172270E+04  0.7818609E-02  0.8196179E-01
        2   -1    0    0  501    0  0.00000000000E+00  0.00000000000E+00  0.19993571170E+04  0.19993571170E+04  0.25500000920E-02 0.  1.
       -2   -1    0    0    0  501  0.00000000000E+00  0.00000000000E+00 -0.12583163351E+04  0.12583163351E+04  0.25500000920E-02 0. -1.
    10030    2    1    2    0    0  0.00000000000E+00  0.00000000000E+00  0.74104078192E+03  0.32576734520E+04  0.31722696732E+04 0.  0.
        3    1    3    3  502    0 -0.35723692677E+03 -0.36250314549E+02 -0.12160296672E+04  0.12679355145E+04  0.10100000352E+00 0. -1.
       -3    1    3    3    0  502  0.35723692677E+03  0.36250314549E+02  0.19570704491E+04  0.19897379376E+04  0.10100000352E+00 0.  1.
</event>
<event>
 5   0  0.2094135E-06  0.3104976E+04  0.7818609E-02  0.8214374E-01
       -2   -1    0    0    0  501  0.00000000000E+00  0.00000000000E+00  0.10996948818E+04  0.10996948818E+04  0.25500000920E-02 0.  1.
        2   -1    0    0  501    0  0.00000000000E+00  0.00000000000E+00 -0.21917156035E+04  0.21917156035E+04  0.25500000920E-02 0. -1.
    10030    2    1    2    0    0  0.00000000000E+00  0.00000000000E+00 -0.10920207217E+04  0.32914104853E+04  0.31049756402E+04 0.  0.
        4    1    3    3  502    0  0.17184861925E+03 -0.15110751827E+04 -0.87673159297E+03  0.17554315865E+04  0.12699999809E+01 0. -1.
       -4    1    3    3    0  502 -0.17184861925E+03  0.15110751827E+04 -0.21528912876E+03  0.15359788988E+04  0.12699999809E+01 0.  1.
</event>
<event>
 5   0  0.2094135E-06  0.3106260E+04  0.7818609E-02  0.8214022E-01
       -2   -1    0    0    0  501  0.00000000000E+00  0.00000000000E+00  0.14115862039E+04  0.14115862039E+04  0.25500000920E-02 0.  1.
        2   -1    0    0  501    0  0.00000000000E+00  0.00000000000E+00 -0.17088665302E+04  0.17088665302E+04  0.25500000920E-02 0. -1.
    10030    2    1    2    0    0  0.00000000000E+00  0.00000000000E+00 -0.29728032627E+03  0.31204527341E+04  0.31062597563E+04 0.  0.
        4    1    3    3  502    0  0.59585603815E+03  0.12992111348E+04  0.46176833883E+03  0.15020737674E+04  0.12699999809E+01 0.  1.
       -4    1    3    3    0  502 -0.59585603815E+03 -0.12992111348E+04 -0.75904866510E+03  0.16183789667E+04  0.12699999809E+01 0. -1.
</event>
<event>
 5   0  0.7656332E-07  0.3069791E+04  0.7818609E-02  0.8224078E-01
        1   -1    0    0  501    0  0.00000000000E+00  0.00000000000E+00  0.17964194499E+04  0.17964194499E+04  0.50400001928E-02 0.  1.
       -1   -1    0    0    0  501  0.00000000000E+00  0.00000000000E+00 -0.13114440771E+04  0.13114440771E+04  0.50400001928E-02 0. -1.
    10030    2    1    2    0    0  0.00000000000E+00  0.00000000000E+00  0.48497537284E+03  0.31078635271E+04  0.30697906428E+04 0.  0.
        2    1    3    3  502    0  0.72862271860E+03  0.12014893692E+04 -0.38277707241E+03  0.14563605520E+04  0.25500000920E-02 0. -1.
       -2    1    3    3    0  502 -0.72862271860E+03 -0.12014893692E+04  0.86775244525E+03  0.16515029750E+04  0.25500000920E-02 0.  1.
</event>
<event>
 5   0  0.2067926E-06  0.2808306E+04  0.7818609E-02  0.8300694E-01
       -2   -1    0    0    0  501  0.00000000000E+00  0.00000000000E+00  0.12882879457E+04  0.12882879457E+04  0.25500000920E-02 0.  1.
        2   -1    0    0  501    0  0.00000000000E+00  0.00000000000E+00 -0.15304381153E+04  0.15304381153E+04  0.25500000920E-02 0. -1.
    10030    2    1    2    0    0  0.00000000000E+00  0.00000000000E+00 -0.24215016966E+03  0.28187260610E+04  0.28083055215E+04 0.  0.
        1    1    3    3  502    0 -0.98035929750E+03 -0.41642436630E+03  0.79726877258E+03  0.13304702555E+04  0.50400001928E-02 0.  1.
       -1    1    3    3    0  502  0.98035929750E+03  0.41642436630E+03 -0.10394189422E+04  0.14882558055E+04  0.50400001928E-02 0. -1.
</event>
<event>
 5   0  0.7726743E-07  0.3113664E+04  0.7818609E-02  0.8211998E-01
        1   -1    0    0  501    0  0.00000000000E+00  0.00000000000E+00  0.20759989001E+04  0.20759989001E+04  0.50400001928E-02 0. -1.
       -1   -1    0    0    0  501  0.00000000000E+00  0.00000000000E+00 -0.11674986215E+04  0.11674986215E+04  0.50400001928E-02 0.  1.
    10030    2    1    2    0    0  0.00000000000E+00  0.00000000000E+00  0.90850027853E+03  0.32434975216E+04  0.31136639858E+04 0.  0.
        1    1    3    3  502    0 -0.42744842609E+03 -0.10343683310E+04 -0.67304607495E+03  0.13059942650E+04  0.50400001928E-02 0.  1.
       -1    1    3    3    0  502  0.42744842609E+03  0.10343683310E+04  0.15815463535E+04  0.19375032566E+04  0.50400001928E-02 0. -1.
</event>
<event>
 5   0  0.7413481E-07  0.3104972E+04  0.7818609E-02  0.8214375E-01
       -1   -1    0    0    0  501  0.00000000000E+00  0.00000000000E+00  0.15095488512E+04  0.15095488513E+04  0.50400001928E-02 0. -1.
        1   -1    0    0  501    0  0.00000000000E+00  0.00000000000E+00 -0.15966440743E+04  0.15966440743E+04  0.50400001928E-02 0.  1.
    10030    2    1    2    0    0  0.00000000000E+00  0.00000000000E+00 -0.87095223087E+02  0.31061929256E+04  0.31049716445E+04 0.  0.
        5    1    3    3  502    0 -0.13971261433E+03  0.72433570819E+03  0.13230088313E+04  0.15147792877E+04  0.46999998093E+01 0. -1.
       -5    1    3    3    0  502  0.13971261433E+03 -0.72433570819E+03 -0.14101040544E+04  0.15914136379E+04  0.46999998093E+01 0.  1.
</event>
<event>
 5   0  0.2067926E-06  0.3097118E+04  0.7818609E-02  0.8216529E-01
       -2   -1    0    0    0  501  0.00000000000E+00  0.00000000000E+00  0.80876990704E+03  0.80876990705E+03  0.25500000920E-02 0.  1.
        2   -1    0    0  501    0  0.00000000000E+00  0.00000000000E+00 -0.29650392077E+04  0.29650392077E+04  0.25500000920E-02 0. -1.
    10030    2    1    2    0    0  0.00000000000E+00  0.00000000000E+00 -0.21562693006E+04  0.37738091147E+04  0.30971176822E+04 0.  0.
        1    1    3    3  502    0 -0.11164687047E+04  0.10552394686E+04 -0.84060152092E+03  0.17511834917E+04  0.50400001928E-02 0.  1.
       -1    1    3    3    0  502  0.11164687047E+04 -0.10552394686E+04 -0.13156677797E+04  0.20226256231E+04  0.50400001928E-02 0. -1.
</event>
<event>
 5   0  0.7413481E-07  0.3012705E+04  0.7818609E-02  0.8240112E-01
        1   -1    0    0  501    0  0.00000000000E+00  0.00000000000E+00  0.13639159153E+04  0.13639159153E+04  0.50400001928E-02 0.  1.
       -1   -1    0    0    0  501  0.00000000000E+00  0.00000000000E+00 -0.16636643138E+04  0.16636643138E+04  0.50400001928E-02 0. -1.
    10030    2    1    2    0    0  0.00000000000E+00  0.00000000000E+00 -0.29974839850E+03  0.30275802291E+04  0.30127052530E+04 0.  0.
        5    1    3    3  502    0  0.29814402280E+03 -0.12989784130E+04 -0.85536701199E+03  0.15836380871E+04  0.46999998093E+01 0. -1.
       -5    1    3    3    0  502 -0.29814402280E+03  0.12989784130E+04  0.55561861349E+03  0.14439421420E+04  0.46999998093E+01 0.  1.
</event>
<event>
 5   0  0.7561815E-07  0.2774367E+04  0.7818609E-02  0.8311271E-01
        1   -1    0    0  501    0  0.00000000000E+00  0.00000000000E+00  0.16949624016E+04  0.16949624016E+04  0.50400001928E-02 0.  1.
       -1   -1    0    0    0  501  0.00000000000E+00  0.00000000000E+00 -0.11352923650E+04  0.11352923650E+04  0.50400001928E-02 0. -1.
    10030    2    1    2    0    0  0.00000000000E+00  0.00000000000E+00  0.55967003662E+03  0.28302547665E+04  0.27743668636E+04 0.  0.
        3    1    3    3  502    0  0.11904854005E+04  0.18611860693E+03 -0.42131091863E+03  0.12764789560E+04  0.10100000352E+00 0. -1.
       -3    1    3    3    0  502 -0.11904854005E+04 -0.18611860693E+03  0.98098095525E+03  0.15537758106E+04  0.10100000352E+00 0.  1.
</event>
<event>
 5   0  0.7519202E-07  0.3078353E+04  0.7818609E-02  0.8221704E-01
        1   -1    0    0  501    0  0.00000000000E+00  0.00000000000E+00  0.19495610254E+04  0.19495610254E+04  0.50400001928E-02 0. -1.
       -1   -1    0    0    0  501  0.00000000000E+00  0.00000000000E+00 -0.12151782534E+04  0.12151782534E+04  0.50400001928E-02 0.  1.
    10030    2    1    2    0    0  0.00000000000E+00  0.00000000000E+00  0.73438277207E+03  0.31647392788E+04  0.30783529114E+04 0.  0.
        4    1    3    3  502    0 -0.30297050820E+03  0.86033417296E+02 -0.11816965287E+04  0.12229477407E+04  0.12699999809E+01 0.  1.
       -4    1    3    3    0  502  0.30297050820E+03 -0.86033417296E+02  0.19160793008E+04  0.19417915381E+04  0.12699999809E+01 0. -1.
</event>
<event>
 5   0  0.2226334E-06  0.3086209E+04  0.7818609E-02  0.8219533E-01
       -2   -1    0    0    0  501  0.00000000000E+00  0.00000000000E+00  0.13139582719E+04  0.13139582719E+04  0.25500000920E-02 0.  1.
        2   -1    0    0  501    0  0.00000000000E+00  0.00000000000E+00 -0.18122118406E+04  0.18122118406E+04  0.25500000920E-02 0. -1.
    10030    2    1    2    0    0  0.00000000000E+00  0.00000000000E+00 -0.49825356868E+03  0.31261701125E+04  0.30862085078E+04 0.  0.
        5    1    3    3  502    0  0.10825981392E+03 -0.25334821245E+03 -0.17870891636E+04  0.18082077516E+04  0.46999998093E+01 0. -1.
       -5    1    3    3    0  502 -0.10825981392E+03  0.25334821245E+03  0.12888355949E+04  0.13179623609E+04  0.46999998093E+01 0.  1.
</event>
<event>
 5   0  0.2067926E-06  0.3114374E+04  0.7818609E-02  0.8211804E-01
       -2   -1    0    0    0  501  0.00000000000E+00  0.00000000000E+00  0.11708964384E+04  0.11708964384E+04  0.25500000920E-02 0.  1.
        2   -1    0    0  501    0  0.00000000000E+00  0.00000000000E+00 -0.20709189452E+04  0.20709189452E+04  0.25500000920E-02 0. -1.
    10030    2    1    2    0    0  0.00000000000E+00  0.00000000000E+00 -0.90002250678E+03  0.32418153836E+04  0.31143741696E+04 0.  0.
        1    1    3    3  502    0 -0.66687511460E+03  0.14069687415E+04 -0.47438211204E+03  0.16276737530E+04  0.50400001928E-02 0. -1.
       -1    1    3    3    0  502  0.66687511460E+03 -0.14069687415E+04 -0.42564039474E+03  0.16141416306E+04  0.50400001928E-02 0.  1.
</event>
<event>
 5   0  0.7656332E-07  0.3048983E+04  0.7818609E-02  0.8229880E-01
       -1   -1    0    0    0  501  0.00000000000E+00  0.00000000000E+00  0.16945539743E+04  0.16945539743E+04  0.50400001928E-02 0.  1.
        1   -1    0    0  501    0  0.00000000000E+00  0.00000000000E+00 -0.13714966326E+04  0.13714966326E+04  0.50400001928E-02 0. -1.
    10030    2    1    2    0    0  0.00000000000E+00  0.00000000000E+00  0.32305734172E+03  0.30660506069E+04  0.30489834827E+04 0.  0.
        2    1    3    3  502    0  0.88173621578E+03  0.79629626187E+03  0.11221395138E+04  0.16342409796E+04  0.25500000920E-02 0.  1.
       -2    1    3    3    0  502 -0.88173621578E+03 -0.79629626187E+03 -0.79908217212E+03  0.14318096273E+04  0.25500000920E-02 0. -1.
</event>
<event>
 5   0  0.7413481E-07  0.3139280E+04  0.7818609E-02  0.8205040E-01
        1   -1    0    0  501    0  0.00000000000E+00  0.00000000000E+00  0.15794759951E+04  0.15794759951E+04  0.50400001928E-02 0. -1.
       -1   -1    0    0    0  501  0.00000000000E+00  0.00000000000E+00 -0.15598655375E+04  0.15598655375E+04  0.50400001928E-02 0.  1.
    10030    2    1    2    0    0  0.00000000000E+00  0.00000000000E+00  0.19610457643E+02  0.31393415326E+04  0.31392802819E+04 0.  0.
        5    1    3    3  502    0 -0.90630338737E+03 -0.17776214467E+03  0.12789883236E+04  0.15775989452E+04  0.46999998093E+01 0. -1.
       -5    1    3    3    0  502  0.90630338737E+03  0.17776214467E+03 -0.12593778659E+04  0.15617425874E+04  0.46999998093E+01 0.  1.
</event>
<event>
 5   0  0.2078009E-06  0.3094987E+04  0.7818609E-02  0.8217115E-01
       -2   -1    0    0    0  501  0.00000000000E+00  0.00000000000E+00  0.10332927081E+04  0.10332927081E+04  0.25500000920E-02 0. -1.
        2   -1    0    0  501    0  0.00000000000E+00  0.00000000000E+00 -0.23175783003E+04  0.23175783003E+04  0.25500000920E-02 0.  1.
    10030    2    1    2    0    0  0.00000000000E+00  0.00000000000E+00 -0.12842855922E+04  0.33508710084E+04  0.30949874043E+04 0.  0.
        3    1    3    3  502    0 -0.15736818982E+03 -0.75018367625E+03 -0.20976069266E+04  0.22332700517E+04  0.10100000352E+00 0.  1.
       -3    1    3    3    0  502  0.15736818982E+03  0.75018367625E+03  0.81332133439E+03  0.11176009567E+04  0.10100000352E+00 0. -1.
</event>
<event>
 5   0  0.2067926E-06  0.3124545E+04  0.7818609E-02  0.8209034E-01
        2   -1    0    0  501    0  0.00000000000E+00  0.00000000000E+00  0.20829439633E+04  0.20829439633E+04  0.25500000920E-02 0.  1.
       -2   -1    0    0    0  501  0.00000000000E+00  0.00000000000E+00 -0.11717531064E+04  0.11717531064E+04  0.25500000920E-02 0. -1.
    10030    2    1    2    0    0  0.00000000000E+00  0.00000000000E+00  0.91119085694E+03  0.32546970697E+04  0.31245454449E+04 0.  0.
        1    1    3    3  502    0  0.67589092507E+03  0.48143352009E+03 -0.92320637816E+03  0.12413366963E+04  0.50400001928E-02 0. -1.
       -1    1    3    3    0  502 -0.67589092507E+03 -0.48143352009E+03  0.18343972351E+04  0.20133603734E+04  0.50400001928E-02 0.  1.
</event>
<event>
 5   0  0.6979625E-07  0.2840088E+04  0.7818609E-02  0.8290930E-01
        3   -1    0    0  501    0  0.00000000000E+00  0.00000000000E+00  0.12052743085E+04  0.12052743128E+04  0.10100000352E+00 0.  1.
       -3   -1    0    0    0  501  0.00000000000E+00  0.00000000000E+00 -0.16730834119E+04  0.16730834149E+04  0.10100000352E+00 0. -1.
    10030    2    1    2    0    0  0.00000000000E+00  0.00000000000E+00 -0.46780910333E+03  0.28783577277E+04  0.28400876485E+04 0.  0.
        4    1    3    3  502    0  0.25302527110E+03 -0.13705586648E+04  0.41920826175E+02  0.13943499597E+04  0.12699999809E+01 0.  1.
       -4    1    3    3    0  502 -0.25302527110E+03  0.13705586648E+04 -0.50972992950E+03  0.14840077680E+04  0.12699999809E+01 0. -1.
</event>
<event>
 5   0  0.7656332E-07  0.3103732E+04  0.7818609E-02  0.8214715E-01
        1   -1    0    0  501    0  0.00000000000E+00  0.00000000000E+00  0.22952282632E+04  0.22952282632E+04  0.50400001928E-02 0. -1.
       -1   -1    0    0    0  501  0.00000000000E+00  0.00000000000E+00 -0.10492583156E+04  0.10492583156E+04  0.50400001928E-02 0.  1.
    10030    2    1    2    0    0  0.00000000000E+00  0.00000000000E+00  0.12459699476E+04  0.33444865788E+04  0.31037315228E+04 0.  0.
        2    1    3    3  502    0  0.31460927584E+03  0.10768232241E+04  0.17784290357E+04  0.21026975739E+04  0.25500000920E-02 0. -1.
       -2    1    3    3    0  502 -0.31460927584E+03 -0.10768232241E+04 -0.53245908801E+03  0.12417890049E+04  0.25500000920E-02 0.  1.
</event>
<event>
 5   0  0.7413481E-07  0.3056017E+04  0.7818609E-02  0.8227913E-01
        1   -1    0    0  501    0  0.00000000000E+00  0.00000000000E+00  0.17643479628E+04  0.17643479628E+04  0.50400001928E-02 0. -1.
       -1   -1    0    0    0  501  0.00000000000E+00  0.00000000000E+00 -0.13233275983E+04  0.13233275983E+04  0.50400001928E-02 0.  1.
    10030    2    1    2    0    0  0.00000000000E+00  0.00000000000E+00  0.44102036459E+03  0.30876755611E+04  0.30560172461E+04 0.  0.
        5    1    3    3  502    0 -0.13229855257E+04 -0.21468570149E+03 -0.52085375189E+03  0.14379469296E+04  0.46999998093E+01 0.  1.
       -5    1    3    3    0  502  0.13229855257E+04  0.21468570149E+03  0.96187411649E+03  0.16497286315E+04  0.46999998093E+01 0. -1.
</event>
<event>
 5   0  0.7656332E-07  0.3084733E+04  0.7818609E-02  0.8219940E-01
       -1   -1    0    0    0  501  0.00000000000E+00  0.00000000000E+00  0.12850949816E+04  0.12850949817E+04  0.50400001928E-02 0.  1.
        1   -1    0    0  501    0  0.00000000000E+00  0.00000000000E+00 -0.18511433282E+04  0.18511433282E+04  0.50400001928E-02 0. -1.
    10030    2    1    2    0    0  0.00000000000E+00  0.00000000000E+00 -0.56604834653E+03  0.31362383098E+04  0.30847333767E+04 0.  0.
        2    1    3    3  502    0 -0.46410970770E+02 -0.96644195483E+03 -0.15042165946E+04  0.17885277727E+04  0.25500000920E-02 0. -1.
       -2    1    3    3    0  502  0.46410970770E+02  0.96644195483E+03  0.93816824805E+03  0.13477105371E+04  0.25500000920E-02 0.  1.
</event>
<event>
 5   0  0.7413481E-07  0.3089683E+04  0.7818609E-02  0.8218575E-01
        1   -1    0    0  501    0  0.00000000000E+00  0.00000000000E+00  0.14919155163E+04  0.14919155163E+04  0.50400001928E-02 0. -1.
       -1   -1    0    0    0  501  0.00000000000E+00  0.00000000000E+00 -0.15996453152E+04  0.15996453152E+04  0.50400001928E-02 0.  1.
    10030    2    1    2    0    0  0.00000000000E+00  0.00000000000E+00 -0.10772979886E+03  0.30915608315E+04  0.30896832629E+04 0.  0.
        5    1    3    3  502    0  0.25917119252E+02  0.10405458244E+04  0.10883656010E+04  0.15059777825E+04  0.46999998093E+01 0. -1.
       -5    1    3    3    0  502 -0.25917119252E+02 -0.10405458244E+04 -0.11960953999E+04  0.15855830490E+04  0.46999998093E+01 0.  1.
</event>
<event>
 5   0  0.7656332E-07  0.3058526E+04  0.7818609E-02  0.8227213E-01
       -1   -1    0    0    0  501  0.00000000000E+00  0.00000000000E+00  0.11981904190E+04  0.11981904190E+04  0.50400001928E-02 0.  1.
        1   -1    0    0  501    0  0.00000000000E+00  0.00000000000E+00 -0.19518138959E+04  0.19518138959E+04  0.50400001928E-02 0. -1.
    10030    2    1    2    0    0  0.00000000000E+00  0.00000000000E+00 -0.75362347688E+03  0.31500043149E+04  0.30585255989E+04 0.  0.
        2    1    3    3  502    0 -0.82964203617E+03 -0.12639261436E+04 -0.61353301790E+03  0.16316365921E+04  0.25500000920E-02 0. -1.
       -2    1    3    3    0  502  0.82964203617E+03  0.12639261436E+04 -0.14009045898E+03  0.15183677227E+04  0.25500000920E-02 0.  1.
</event>
<event>
 5   0  0.2078009E-06  0.3128651E+04  0.7818609E-02  0.8207919E-01
       -2   -1    0    0    0  501  0.00000000000E+00  0.00000000000E+00  0.10724973166E+04  0.10724973166E+04  0.25500000920E-02 0. -1.
        2   -1    0    0  501    0  0.00000000000E+00  0.00000000000E+00 -0.22816976089E+04  0.22816976089E+04  0.25500000920E-02 0.  1.
    10030    2    1    2    0    0  0.00000000000E+00  0.00000000000E+00 -0.12092002923E+04  0.33541949255E+04  0.31286511872E+04 0.  0.
        3    1    3    3  502    0  0.15375023313E+04  0.25692141587E+03 -0.46402746755E+03  0.16264204664E+04  0.10100000352E+00 0. -1.
       -3    1    3    3    0  502 -0.15375023313E+04 -0.25692141587E+03 -0.74517282477E+03  0.17277744591E+04  0.10100000352E+00 0.  1.
</event>
<event>
 5   0  0.2133385E-06  0.3113576E+04  0.7818609E-02  0.8212022E-01
        2   -1    0    0  501    0  0.00000000000E+00  0.00000000000E+00  0.18035552527E+04  0.18035552527E+04  0.25500000920E-02 0.  1.
       -2   -1    0    0    0  501  0.00000000000E+00  0.00000000000E+00 -0.13437839681E+04  0.13437839681E+04  0.25500000920E-02 0. -1.
    10030    2    1    2    0    0  0.00000000000E+00  0.00000000000E+00  0.45977128457E+03  0.31473392208E+04  0.31135758441E+04 0.  0.
        2    1    3    3  502    0  0.12962859707E+04  0.65661573082E+03 -0.33481985088E+03  0.14911760018E+04  0.25500000920E-02 0. -1.
       -2    1    3    3    0  502 -0.12962859707E+04 -0.65661573082E+03  0.79459113545E+03  0.16561632191E+04  0.25500000920E-02 0.  1.
</event>
<event>
 5   0  0.2067926E-06  0.3102761E+04  0.7818609E-02  0.8214981E-01
       -2   -1    0    0    0  501  0.00000000000E+00  0.00000000000E+00  0.99059608722E+03  0.99059608723E+03  0.25500000920E-02 0. -1.
        2   -1    0    0  501    0  0.00000000000E+00  0.00000000000E+00 -0.24296292938E+04  0.24296292938E+04  0.25500000920E-02 0.  1.
    10030    2    1    2    0    0  0.00000000000E+00  0.00000000000E+00 -0.14390332065E+04  0.34202253810E+04  0.31027608814E+04 0.  0.
        1    1    3    3  502    0  0.11584482984E+04 -0.20380777800E+03 -0.18345693904E+04  0.21792624713E+04  0.50400001928E-02 0.  1.
       -1    1    3    3    0  502 -0.11584482984E+04  0.20380777800E+03  0.39553618385E+03  0.12409629097E+04  0.50400001928E-02 0. -1.
</event>
<event>
 5   0  0.7656332E-07  0.3105804E+04  0.7818609E-02  0.8214147E-01
        1   -1    0    0  501    0  0.00000000000E+00  0.00000000000E+00  0.15540233577E+04  0.15540233577E+04  0.50400001928E-02 0.  1.
       -1   -1    0    0    0  501  0.00000000000E+00  0.00000000000E+00 -0.15517814325E+04  0.15517814325E+04  0.50400001928E-02 0. -1.
    10030    2    1    2    0    0  0.00000000000E+00  0.00000000000E+00  0.22419252172E+01  0.31058047901E+04  0.31058039810E+04 0.  0.
        2    1    3    3  502    0  0.44145293760E+02  0.13958303871E+04  0.68024801696E+03  0.15533926229E+04  0.25500000920E-02 0.  1.
       -2    1    3    3    0  502 -0.44145293760E+02 -0.13958303871E+04 -0.67800609174E+03  0.15524121672E+04  0.25500000920E-02 0. -1.
</event>
<event>
 5   0  0.2094135E-06  0.3117695E+04  0.7818609E-02  0.8210898E-01
        2   -1    0    0  501    0  0.00000000000E+00  0.00000000000E+00  0.17912032950E+04  0.17912032950E+04  0.25500000920E-02 0.  1.
       -2   -1    0    0    0  501  0.00000000000E+00  0.00000000000E+00 -0.13566328802E+04  0.13566328802E+04  0.25500000920E-02 0. -1.
    10030    2    1    2    0    0  0.00000000000E+00  0.00000000000E+00  0.43457041480E+03  0.31478361752E+04  0.31176948440E+04 0.  0.
        4    1    3    3  502    0  0.21175738226E+03 -0.26386742223E+03  0.17536853180E+04  0.17860237997E+04  0.12699999809E+01 0.  1.
       -4    1    3    3    0  502 -0.21175738226E+03  0.26386742223E+03 -0.13191149032E+04  0.13618123756E+04  0.12699999809E+01 0. -1.
</event>
<event>
 5   0  0.7726743E-07  0.3100619E+04  0.7818609E-02  0.8215568E-01
       -1   -1    0    0    0  501  0.00000000000E+00  0.00000000000E+00  0.15301561072E+04  0.15301561072E+04  0.50400001928E-02 0.  1.
        1   -1    0    0  501    0  0.00000000000E+00  0.00000000000E+00 -0.15707287699E+04  0.15707287699E+04  0.50400001928E-02 0. -1.
    10030    2    1    2    0    0  0.00000000000E+00  0.00000000000E+00 -0.40572662713E+02  0.31008848771E+04  0.31006194348E+04 0.  0.
        1    1    3    3  502    0 -0.89355054783E+03 -0.11224676953E+04 -0.60778356581E+03  0.15581293821E+04  0.50400001928E-02 0. -1.
       -1    1    3    3    0  502  0.89355054783E+03  0.11224676953E+04  0.56721090310E+03  0.15427554949E+04  0.50400001928E-02 0.  1.
</event>
<event>
 5   0  0.7519202E-07  0.3107570E+04  0.7818609E-02  0.8213663E-01
       -1   -1    0    0    0  501  0.00000000000E+00  0.00000000000E+00  0.15580521814E+04  0.15580521814E+04  0.50400001928E-02 0. -1.
        1   -1    0    0  501    0  0.00000000000E+00  0.00000000000E+00 -0.15495299219E+04  0.15495299219E+04  0.50400001928E-02 0.  1.
    10030    2    1    2    0    0  0.00000000000E+00  0.00000000000E+00  0.85222595543E+01  0.31075821033E+04  0.31075704175E+04 0.  0.
        4    1    3    3  502    0  0.90311604822E+03  0.92186604378E+02  0.12652693989E+04  0.15572492515E+04  0.12699999809E+01 0. -1.
       -4    1    3    3    0  502 -0.90311604822E+03 -0.92186604378E+02 -0.12567471393E+04  0.15503328519E+04  0.12699999809E+01 0.  1.
</event>
<event>
 5   0  0.2078009E-06  0.3078490E+04  0.7818609E-02  0.8221666E-01
        2   -1    0    0  501    0  0.00000000000E+00  0.00000000000E+00  0.16870638281E+04  0.16870638281E+04  0.25500000920E-02 0.  1.
       -2   -1    0    0    0  501  0.00000000000E+00  0.00000000000E+00 -0.14043779275E+04  0.14043779275E+04  0.25500000920E-02 0. -1.
    10030    2    1    2    0    0  0.00000000000E+00  0.00000000000E+00  0.28268590066E+03  0.30914417556E+04  0.30784900211E+04 0.  0.
        3    1    3    3  502    0 -0.30130433273E+02 -0.15338002629E+04  0.15019823648E+02  0.15341697086E+04  0.10100000352E+00 0. -1.
       -3    1    3    3    0  502  0.30130433273E+02  0.15338002629E+04  0.26766607701E+03  0.15572720470E+04  0.10100000352E+00 0.  1.
</event>
<event>
 5   0  0.7413481E-07  0.3109383E+04  0.7818609E-02  0.8213168E-01
       -1   -1    0    0    0  501  0.00000000000E+00  0.00000000000E+00  0.83239146365E+03  0.83239146367E+03  0.50400001928E-02 0. -1.
        1   -1    0    0  501    0  0.00000000000E+00  0.00000000000E+00 -0.29037604725E+04  0.29037604725E+04  0.50400001928E-02 0.  1.
    10030    2    1    2    0    0  0.00000000000E+00  0.00000000000E+00 -0.20713690089E+04  0.37361519362E+04  0.31093828519E+04 0.  0.
        5    1    3    3  502    0  0.18033842450E+03 -0.11496728191E+04  0.20302865140E+03  0.11813180188E+04  0.46999998093E+01 0. -1.
       -5    1    3    3    0  502 -0.18033842450E+03  0.11496728191E+04 -0.22743976603E+04  0.25548339174E+04  0.46999998093E+01 0.  1.
</event>
<event>
 5   0  0.2078009E-06  0.3078582E+04  0.7818609E-02  0.8221641E-01
       -2   -1    0    0    0  501  0.00000000000E+00  0.00000000000E+00  0.12569211688E+04  0.12569211688E+04  0.25500000920E-02 0.  1.
        2   -1    0    0  501    0  0.00000000000E+00  0.00000000000E+00 -0.18850955645E+04  0.18850955645E+04  0.25500000920E-02 0. -1.
    10030    2    1    2    0    0  0.00000000000E+00  0.00000000000E+00 -0.62817439564E+03  0.31420167333E+04  0.30785818295E+04 0.  0.
        3    1    3    3  502    0  0.14820589540E+04  0.17607187645E+03 -0.69856757414E+03  0.16478764258E+04  0.10100000352E+00 0. -1.
       -3    1    3    3    0  502 -0.14820589540E+04 -0.17607187645E+03  0.70393178501E+02  0.14941403075E+04  0.10100000352E+00 0.  1.
</event>
<event>
 5   0  0.7519202E-07  0.3091986E+04  0.7818609E-02  0.8217941E-01
        1   -1    0    0  501    0  0.00000000000E+00  0.00000000000E+00  0.15547024837E+04  0.15547024837E+04  0.50400001928E-02 0. -1.
       -1   -1    0    0    0  501  0.00000000000E+00  0.00000000000E+00 -0.15373327911E+04  0.15373327911E+04  0.50400001928E-02 0.  1.
    10030    2    1    2    0    0  0.00000000000E+00  0.00000000000E+00  0.17369692536E+02  0.30920352748E+04  0.30919864868E+04 0.  0.
        4    1    3    3  502    0 -0.28579793798E+02  0.77474894505E+02 -0.15351252273E+04  0.15373451923E+04  0.12699999809E+01 0.  1.
       -4    1    3    3    0  502  0.28579793798E+02 -0.77474894505E+02  0.15524949198E+04  0.15546900826E+04  0.12699999809E+01 0. -1.
</event>
<event>
 5   0  0.7413481E-07  0.3083968E+04  0.7818609E-02  0.8220151E-01
       -1   -1    0    0    0  501  0.00000000000E+00  0.00000000000E+00  0.13674362030E+04  0.13674362030E+04  0.50400001928E-02 0.  1.
        1   -1    0    0  501    0  0.00000000000E+00  0.00000000000E+00 -0.17388125975E+04  0.17388125975E+04  0.50400001928E-02 0. -1.
    10030    2    1    2    0    0  0.00000000000E+00  0.00000000000E+00 -0.37137639450E+03  0.31062488005E+04  0.30839684150E+04 0.  0.
        5    1    3    3  502    0 -0.51760203447E+03  0.13204658854E+04 -0.79516409978E+03  0.16259920222E+04  0.46999998093E+01 0. -1.
       -5    1    3    3    0  502  0.51760203447E+03 -0.13204658854E+04  0.42378770528E+03  0.14802567783E+04  0.46999998093E+01 0.  1.
</event>
<event>
 5   0  0.2078009E-06  0.3117596E+04  0.7818609E-02  0.8210925E-01
       -2   -1    0    0    0  501  0.00000000000E+00  0.00000000000E+00  0.12029382879E+04  0.12029382879E+04  0.25500000920E-02 0.  1.
        2   -1    0    0  501    0  0.00000000000E+00  0.00000000000E+00 -0.20199305776E+04  0.20199305776E+04  0.25500000920E-02 0. -1.
    10030    2    1    2    0    0  0.00000000000E+00  0.00000000000E+00 -0.81699228974E+03  0.32228688655E+04  0.31175964015E+04 0.  0.
        3    1    3    3  502    0 -0.37596828554E+03 -0.11815770616E+04 -0.13850507174E+04  0.18589895116E+04  0.10100000352E+00 0. -1.
       -3    1    3    3    0  502  0.37596828554E+03  0.11815770616E+04  0.56805842770E+03  0.13638793538E+04  0.10100000352E+00 0.  1.
</event>
<event>
 5   0  0.7726743E-07  0.3107122E+04  0.7818609E-02  0.8213786E-01
        1   -1    0    0  501    0  0.00000000000E+00  0.00000000000E+00  0.17922147688E+04  0.17922147688E+04  0.50400001928E-02 0.  1.
       -1   -1    0    0    0  501  0.00000000000E+00  0.00000000000E+00 -0.13466869917E+04  0.13466869917E+04  0.50400001928E-02 0. -1.
    10030    2    1    2    0    0  0.00000000000E+00  0.00000000000E+00  0.44552777708E+03  0.31389017606E+04  0.31071223443E+04 0.  0.
        1    1    3    3  502    0 -0.11314390108E+04 -0.60617411447E+02  0.12965195633E+04  0.17218570450E+04  0.50400001928E-02 0. -1.
       -1    1    3    3    0  502  0.11314390108E+04  0.60617411447E+02 -0.85099178617E+03  0.14170447155E+04  0.50400001928E-02 0.  1.
</event>
<event>
 5   0  0.2226334E-06  0.3092447E+04  0.7818609E-02  0.8217814E-01
       -2   -1    0    0    0  501  0.00000000000E+00  0.00000000000E+00  0.10494590017E+04  0.10494590017E+04  0.25500000920E-02 0. -1.
        2   -1    0    0  501    0  0.00000000000E+00  0.00000000000E+00 -0.22781330781E+04  0.22781330781E+04  0.25500000920E-02 0.  1.
    10030    2    1    2    0    0  0.00000000000E+00  0.00000000000E+00 -0.12286740763E+04  0.33275920798E+04  0.30924470996E+04 0.  0.
        5    1    3    3  502    0 -0.38039978575E+01  0.49980991153E+03 -0.21887989403E+04  0.22451475028E+04  0.46999998093E+01 0.  1.
       -5    1    3    3    0  502  0.38039978575E+01 -0.49980991153E+03  0.96012486396E+03  0.10824445771E+04  0.46999998093E+01 0. -1.
</event>
<event>
 5   0  0.7656332E-07  0.3088427E+04  0.7818609E-02  0.8218921E-01
       -1   -1    0    0    0  501  0.00000000000E+00  0.00000000000E+00  0.16428634401E+04  0.16428634401E+04  0.50400001928E-02 0. -1.
        1   -1    0    0  501    0  0.00000000000E+00  0.00000000000E+00 -0.14514874293E+04  0.14514874293E+04  0.50400001928E-02 0.  1.
    10030    2    1    2    0    0  0.00000000000E+00  0.00000000000E+00  0.19137601081E+03  0.30943508694E+04  0.30884271929E+04 0.  0.
        2    1    3    3  502    0 -0.40681428729E+03  0.18093383571E+03 -0.13857827978E+04  0.14555510571E+04  0.25500000920E-02 0.  1.
       -2    1    3    3    0  502  0.40681428729E+03 -0.18093383571E+03  0.15771588086E+04  0.16387998123E+04  0.25500000920E-02 0. -1.
</event>
<event>
 5   0  0.7561815E-07  0.3107614E+04  0.7818609E-02  0.8213651E-01
       -1   -1    0    0    0  501  0.00000000000E+00  0.00000000000E+00  0.16218903752E+04  0.16218903752E+04  0.50400001928E-02 0. -1.
        1   -1    0    0  501    0  0.00000000000E+00  0.00000000000E+00 -0.14885815051E+04  0.14885815051E+04  0.50400001928E-02 0.  1.
    10030    2    1    2    0    0  0.00000000000E+00  0.00000000000E+00  0.13330887012E+03  0.31104718804E+04  0.31076138859E+04 0.  0.
        3    1    3    3  502    0  0.64635608030E+03 -0.13419082717E+04 -0.37627034912E+03  0.15362530319E+04  0.10100000352E+00 0.  1.
       -3    1    3    3    0  502 -0.64635608030E+03  0.13419082717E+04  0.50957921925E+03  0.15742188485E+04  0.10100000352E+00 0. -1.
</event>
<event>
 5   0  0.7413481E-07  0.3104999E+04  0.7818609E-02  0.8214367E-01
        1   -1    0    0  501    0  0.00000000000E+00  0.00000000000E+00  0.24824792380E+04  0.24824792380E+04  0.50400001928E-02 0.  1.
       -1   -1    0    0    0  501  0.00000000000E+00  0.00000000000E+00 -0.97090628170E+03  0.97090628171E+03  0.50400001928E-02 0. -1.
    10030    2    1    2    0    0  0.00000000000E+00  0.00000000000E+00  0.15115729563E+04  0.34533855197E+04  0.31049989928E+04 0.  0.
        5    1    3    3  502    0 -0.10235021218E+04 -0.10922066354E+04  0.12140361246E+04  0.19272720954E+04  0.46999998093E+01 0.  1.
       -5    1    3    3    0  502  0.10235021218E+04  0.10922066354E+04  0.29753683169E+03  0.15261134243E+04  0.46999998093E+01 0. -1.
</event>
<event>
 5   0  0.2133385E-06  0.3121300E+04  0.7818609E-02  0.8209916E-01
       -2   -1    0    0    0  501  0.00000000000E+00  0.00000000000E+00  0.11848114815E+04  0.11848114815E+04  0.25500000920E-02 0. -1.
        2   -1    0    0  501    0  0.00000000000E+00  0.00000000000E+00 -0.20557103261E+04  0.20557103261E+04  0.25500000920E-02 0.  1.
    10030    2    1    2    0    0  0.00000000000E+00  0.00000000000E+00 -0.87089884465E+03  0.32405218076E+04  0.31213004962E+04 0.  0.
        2    1    3    3  502    0 -0.14734244872E+04  0.73658866813E+02 -0.96403686828E+03  0.17623201841E+04  0.25500000920E-02 0.  1.
       -2    1    3    3    0  502  0.14734244872E+04 -0.73658866813E+02  0.93138023636E+02  0.14782016234E+04  0.25500000920E-02 0. -1.
</event>
<event>
 5   0  0.2067926E-06  0.3080294E+04  0.7818609E-02  0.8221167E-01
        2   -1    0    0  501    0  0.00000000000E+00  0.00000000000E+00  0.23438854998E+04  0.23438854998E+04  0.25500000920E-02 0. -1.
       -2   -1    0    0    0  501  0.00000000000E+00  0.00000000000E+00 -0.10120173495E+04  0.10120173495E+04  0.25500000920E-02 0.  1.
    10030    2    1    2    0    0  0.00000000000E+00  0.00000000000E+00  0.13318681503E+04  0.33559028493E+04  0.30802940061E+04 0.  0.
        1    1    3    3  502    0  0.13455612302E+04  0.63355063725E+03  0.22996528467E+03  0.15049270635E+04  0.50400001928E-02 0.  1.
       -1    1    3    3    0  502 -0.13455612302E+04 -0.63355063725E+03  0.11019028657E+04  0.18509757858E+04  0.50400001928E-02 0. -1.
</event>
<event>
 5   0  0.7726743E-07  0.3101019E+04  0.7818609E-02  0.8215458E-01
       -1   -1    0    0    0  501  0.00000000000E+00  0.00000000000E+00  0.22663592077E+04  0.22663592077E+04  0.50400001928E-02 0. -1.
        1   -1    0    0  501    0  0.00000000000E+00  0.00000000000E+00 -0.10607672127E+04  0.10607672127E+04  0.50400001928E-02 0.  1.
    10030    2    1    2    0    0  0.00000000000E+00  0.00000000000E+00  0.12055919950E+04  0.33271264205E+04  0.31010188905E+04 0.  0.
        1    1    3    3  502    0 -0.70854203520E+02 -0.81278260295E+03  0.20174336123E+04  0.21761604394E+04  0.50400001928E-02 0. -1.
       -1    1    3    3    0  502  0.70854203520E+02  0.81278260295E+03 -0.81184161736E+03  0.11509659810E+04  0.50400001928E-02 0.  1.
</event>
<event>
 5   0  0.7561815E-07  0.3103162E+04  0.7818609E-02  0.8214871E-01
        1   -1    0    0  501    0  0.00000000000E+00  0.00000000000E+00  0.18468218991E+04  0.18468218991E+04  0.50400001928E-02 0.  1.
       -1   -1    0    0    0  501  0.00000000000E+00  0.00000000000E+00 -0.13035387658E+04  0.13035387659E+04  0.50400001928E-02 0. -1.
    10030    2    1    2    0    0  0.00000000000E+00  0.00000000000E+00  0.54328313324E+03  0.31503606650E+04  0.31031622188E+04 0.  0.
        3    1    3    3  502    0 -0.26713270875E+03  0.13200613847E+04  0.10537366716E+04  0.17100534865E+04  0.10100000352E+00 0.  1.
       -3    1    3    3    0  502  0.26713270875E+03 -0.13200613847E+04 -0.51045353832E+03  0.14403071785E+04  0.10100000352E+00 0. -1.
</event>
<event>
 5   0  0.7561815E-07  0.2995350E+04  0.7818609E-02  0.8245060E-01
       -1   -1    0    0    0  501  0.00000000000E+00  0.00000000000E+00  0.13095257246E+04  0.13095257246E+04  0.50400001928E-02 0.  1.
        1   -1    0    0  501    0  0.00000000000E+00  0.00000000000E+00 -0.17128575924E+04  0.17128575924E+04  0.50400001928E-02 0. -1.
    10030    2    1    2    0    0  0.00000000000E+00  0.00000000000E+00 -0.40333186783E+03  0.30223833171E+04  0.29953504502E+04 0.  0.
        3    1    3    3  502    0 -0.14057531152E+04  0.35785397249E+03 -0.57762730498E+03  0.15613630584E+04  0.10100000352E+00 0. -1.
       -3    1    3    3    0  502  0.14057531152E+04 -0.35785397249E+03  0.17429543714E+03  0.14610202586E+04  0.10100000352E+00 0.  1.
</event>
<event>
 5   0  0.7656332E-07  0.3114919E+04  0.7818609E-02  0.8211655E-01
        1   -1    0    0  501    0  0.00000000000E+00  0.00000000000E+00  0.14348426322E+04  0.14348426322E+04  0.50400001928E-02 0.  1.
       -1   -1    0    0    0  501  0.00000000000E+00  0.00000000000E+00 -0.16905547561E+04  0.16905547562E+04  0.50400001928E-02 0. -1.
    10030    2    1    2    0    0  0.00000000000E+00  0.00000000000E+00 -0.25571212394E+03  0.31253973884E+04  0.31149189628E+04 0.  0.
        2    1    3    3  502    0 -0.13179299572E+04  0.18418953433E+02 -0.96034671628E+03  0.16308109778E+04  0.25500000920E-02 0.  1.
       -2    1    3    3    0  502  0.13179299572E+04 -0.18418953433E+02  0.70463459234E+03  0.14945864106E+04  0.25500000920E-02 0. -1.
</event>
<event>
 5   0  0.2067926E-06  0.2897143E+04  0.7818609E-02  0.8273728E-01
       -2   -1    0    0    0  501  0.00000000000E+00  0.00000000000E+00  0.12255273766E+04  0.12255273766E+04  0.25500000920E-02 0. -1.
        2   -1    0    0  501    0  0.00000000000E+00  0.00000000000E+00 -0.17122091729E+04  0.17122091729E+04  0.25500000920E-02 0.  1.
    10030    2    1    2    0    0  0.00000000000E+00  0.00000000000E+00 -0.48668179623E+03  0.29377365495E+04  0.28971428793E+04 0.  0.
        1    1    3    3  502    0 -0.58757530865E+03 -0.93620161479E+03  0.70606915049E+03  0.13115837191E+04  0.50400001928E-02 0. -1.
       -1    1    3    3    0  502  0.58757530865E+03  0.93620161479E+03 -0.11927509467E+04  0.16261528304E+04  0.50400001928E-02 0.  1.
</event>
<event>
 5   0  0.2078009E-06  0.3042233E+04  0.7818609E-02  0.8231773E-01
       -2   -1    0    0    0  501  0.00000000000E+00  0.00000000000E+00  0.21878068090E+04  0.21878068090E+04  0.25500000920E-02 0.  1.
        2   -1    0    0  501    0  0.00000000000E+00  0.00000000000E+00 -0.10575863993E+04  0.10575863993E+04  0.25500000920E-02 0. -1.
    10030    2    1    2    0    0  0.00000000000E+00  0.00000000000E+00  0.11302204097E+04  0.32453932083E+04  0.30422325523E+04 0.  0.
        3    1    3    3  502    0 -0.95605184982E+03  0.11781965510E+04  0.45015276362E+03  0.15826622422E+04  0.10100000352E+00 0. -1.
       -3    1    3    3    0  502  0.95605184982E+03 -0.11781965510E+04  0.68006764604E+03  0.16627309661E+04  0.10100000352E+00 0.  1.
</event>
<event>
 5   0  0.7561815E-07  0.3148403E+04  0.7818609E-02  0.8202578E-01
        1   -1    0    0  501    0  0.00000000000E+00  0.00000000000E+00  0.19981413657E+04  0.19981413657E+04  0.50400001928E-02 0.  1.
       -1   -1    0    0    0  501  0.00000000000E+00  0.00000000000E+00 -0.12402076705E+04  0.12402076705E+04  0.50400001928E-02 0. -1.
    10030    2    1    2    0    0  0.00000000000E+00  0.00000000000E+00  0.75793369518E+03  0.32383490363E+04  0.31484029276E+04 0.  0.
        3    1    3    3  502    0 -0.12198307204E+04  0.45693045406E+03  0.12881529103E+04  0.18319689836E+04  0.10100000352E+00 0.  1.
       -3    1    3    3    0  502  0.12198307204E+04 -0.45693045406E+03 -0.53021921516E+03  0.14063800527E+04  0.10100000352E+00 0. -1.
</event>
<event>
 5   0  0.2094135E-06  0.3059137E+04  0.7818609E-02  0.8227043E-01
       -2   -1    0    0    0  501  0.00000000000E+00  0.00000000000E+00  0.15403728545E+04  0.15403728545E+04  0.25500000920E-02 0. -1.
        2   -1    0    0  501    0  0.00000000000E+00  0.00000000000E+00 -0.15188397614E+04  0.15188397614E+04  0.25500000920E-02 0.  1.
    10030    2    1    2    0    0  0.00000000000E+00  0.00000000000E+00  0.21533093033E+02  0.30592126159E+04  0.30591368317E+04 0.  0.
        4    1    3    3  502    0  0.14701412524E+04 -0.28701157364E+03 -0.29889735399E+03  0.15274266551E+04  0.12699999809E+01 0. -1.
       -4    1    3    3    0  502 -0.14701412524E+04  0.28701157364E+03  0.32043044703E+03  0.15317859608E+04  0.12699999809E+01 0.  1.
</event>
<event>
 5   0  0.7561815E-07  0.3062137E+04  0.7818609E-02  0.8226206E-01
       -1   -1    0    0    0  501  0.00000000000E+00  0.00000000000E+00  0.11613068549E+04  0.11613068549E+04  0.50400001928E-02 0.  1.
        1   -1    0    0  501    0  0.00000000000E+00  0.00000000000E+00 -0.20185632241E+04  0.20185632241E+04  0.50400001928E-02 0. -1.
    10030    2    1    2    0    0  0.00000000000E+00  0.00000000000E+00 -0.85725636922E+03  0.31798700790E+04  0.30621373642E+04 0.  0.
        3    1    3    3  502    0  0.35927903690E+03 -0.14697486739E+03  0.11093577536E+04  0.11753117346E+04  0.10100000352E+00 0.  1.
       -3    1    3    3    0  502 -0.35927903690E+03  0.14697486739E+03 -0.19666141228E+04  0.20045583444E+04  0.10100000352E+00 0. -1.
</event>
<event>
 5   0  0.7561815E-07  0.3098514E+04  0.7818609E-02  0.8216146E-01
        1   -1    0    0  501    0  0.00000000000E+00  0.00000000000E+00  0.19489808276E+04  0.19489808276E+04  0.50400001928E-02 0. -1.
       -1   -1    0    0    0  501  0.00000000000E+00  0.00000000000E+00 -0.12315140964E+04  0.12315140964E+04  0.50400001928E-02 0.  1.
    10030    2    1    2    0    0  0.00000000000E+00  0.00000000000E+00  0.71746673118E+03  0.31804949241E+04  0.30985140716E+04 0.  0.
        3    1    3    3  502    0  0.13739586420E+04  0.25556190429E+02  0.10930505444E+04  0.17558971985E+04  0.10100000352E+00 0. -1.
       -3    1    3    3    0  502 -0.13739586420E+04 -0.25556190429E+02 -0.37558381323E+03  0.14245977256E+04  0.10100000352E+00 0.  1.
</event>
<event>
 5   0  0.2078009E-06  0.3114948E+04  0.7818609E-02  0.8211648E-01
        2   -1    0    0  501    0  0.00000000000E+00  0.00000000000E+00  0.17656890229E+04  0.17656890229E+04  0.25500000920E-02 0.  1.
       -2   -1    0    0    0  501  0.00000000000E+00  0.00000000000E+00 -0.13738120838E+04  0.13738120838E+04  0.25500000920E-02 0. -1.
    10030    2    1    2    0    0  0.00000000000E+00  0.00000000000E+00  0.39187693909E+03  0.31395011068E+04  0.31149477787E+04 0.  0.
        3    1    3    3  502    0  0.10380137790E+04  0.11306908936E+04 -0.70322632542E+02  0.15365154685E+04  0.10100000352E+00 0. -1.
       -3    1    3    3    0  502 -0.10380137790E+04 -0.11306908936E+04  0.46219957163E+03  0.16029856382E+04  0.10100000352E+00 0.  1.
</event>
<event>
 5   0  0.7519202E-07  0.3100192E+04  0.7818609E-02  0.8215685E-01
        1   -1    0    0  501    0  0.00000000000E+00  0.00000000000E+00  0.11276510108E+04  0.11276510108E+04  0.50400001928E-02 0. -1.
       -1   -1    0    0    0  501  0.00000000000E+00  0.00000000000E+00 -0.21307984854E+04  0.21307984854E+04  0.50400001928E-02 0.  1.
    10030    2    1    2    0    0  0.00000000000E+00  0.00000000000E+00 -0.10031474746E+04  0.32584494962E+04  0.31001916495E+04 0.  0.
        4    1    3    3  502    0 -0.12732566706E+04 -0.35718439954E+02  0.42688707630E+03  0.13433884565E+04  0.12699999809E+01 0.  1.
       -4    1    3    3    0  502  0.12732566706E+04  0.35718439954E+02 -0.14300345509E+04  0.19150610397E+04  0.12699999809E+01 0. -1.
</event>
<event>
 5   0  0.7561815E-07  0.3108206E+04  0.7818609E-02  0.8213490E-01
        1   -1    0    0  501    0  0.00000000000E+00  0.00000000000E+00  0.17692588964E+04  0.17692588964E+04  0.50400001928E-02 0.  1.
       -1   -1    0    0    0  501  0.00000000000E+00  0.00000000000E+00 -0.13651115855E+04  0.13651115855E+04  0.50400001928E-02 0. -1.
    10030    2    1    2    0    0  0.00000000000E+00  0.00000000000E+00  0.40414731093E+03  0.31343704819E+04  0.31082057957E+04 0.  0.
        3    1    3    3  502    0 -0.37579489827E+03  0.53460159913E+03 -0.12198368081E+04  0.13838433885E+04  0.10100000352E+00 0. -1.
       -3    1    3    3    0  502  0.37579489827E+03 -0.53460159913E+03  0.16239841190E+04  0.17505270933E+04  0.10100000352E+00 0.  1.
</event>
<event>
 5   0  0.2133385E-06  0.2988076E+04  0.7818609E-02  0.8247144E-01
        2   -1    0    0  501    0  0.00000000000E+00  0.00000000000E+00  0.18000560706E+04  0.18000560706E+04  0.25500000920E-02 0.  1.
       -2   -1    0    0    0  501  0.00000000000E+00  0.00000000000E+00 -0.12400442589E+04  0.12400442589E+04  0.25500000920E-02 0. -1.
    10030    2    1    2    0    0  0.00000000000E+00  0.00000000000E+00  0.56001181168E+03  0.30401003294E+04  0.29880757661E+04 0.  0.
        2    1    3    3  502    0  0.11855352711E+02  0.63823978109E+03 -0.10943117430E+04  0.12668894026E+04  0.25500000920E-02 0. -1.
       -2    1    3    3    0  502 -0.11855352711E+02 -0.63823978109E+03  0.16543235547E+04  0.17732109268E+04  0.25500000920E-02 0.  1.
</event>
<event>
 5   0  0.7519202E-07  0.3137338E+04  0.7818609E-02  0.8205565E-01
        1   -1    0    0  501    0  0.00000000000E+00  0.00000000000E+00  0.11139708976E+04  0.11139708976E+04  0.50400001928E-02 0.  1.
       -1   -1    0    0    0  501  0.00000000000E+00  0.00000000000E+00 -0.22089648771E+04  0.22089648771E+04  0.50400001928E-02 0. -1.
    10030    2    1    2    0    0  0.00000000000E+00  0.00000000000E+00 -0.10949939796E+04  0.33229357747E+04  0.31373380990E+04 0.  0.
        4    1    3    3  502    0 -0.52060279169E+03  0.12542181093E+03  0.10141637983E+04  0.11468599391E+04  0.12699999809E+01 0.  1.
       -4    1    3    3    0  502  0.52060279169E+03 -0.12542181093E+03 -0.21091577778E+04  0.21760758356E+04  0.12699999809E+01 0. -1.
</event>
<event>
 5   0  0.2067926E-06  0.3090038E+04  0.7818609E-02  0.8218477E-01
       -2   -1    0    0    0  501  0.00000000000E+00  0.00000000000E+00  0.14728138727E+04  0.14728138727E+04  0.25500000920E-02 0. -1.
        2   -1    0    0  501    0  0.00000000000E+00  0.00000000000E+00 -0.16207638654E+04  0.16207638654E+04  0.25500000920E-02 0.  1.
    10030    2    1    2    0    0  0.00000000000E+00  0.00000000000E+00 -0.14794999274E+03  0.30935777381E+04  0.30900378673E+04 0.  0.
        1    1    3    3  502    0  0.13086560850E+04  0.77029504352E+03  0.21121674959E+03  0.15331496072E+04  0.50400001928E-02 0. -1.
       -1    1    3    3    0  502 -0.13086560850E+04 -0.77029504352E+03 -0.35916674233E+03  0.15604281309E+04  0.50400001928E-02 0.  1.
</event>
<event>
 5   0  0.7656332E-07  0.3223675E+04  0.7818609E-02  0.8182592E-01
        1   -1    0    0  501    0  0.00000000000E+00  0.00000000000E+00  0.10675710626E+04  0.10675710626E+04  0.50400001928E-02 0. -1.
       -1   -1    0    0    0  501  0.00000000000E+00  0.00000000000E+00 -0.24335806299E+04  0.24335806299E+04  0.50400001928E-02 0.  1.
    10030    2    1    2    0    0  0.00000000000E+00  0.00000000000E+00 -0.13660095673E+04  0.35011516926E+04  0.32236750823E+04 0.  0.
        2    1    3    3  502    0  0.12833270357E+04  0.54509944178E+03 -0.15612884080E+04  0.20932470411E+04  0.25500000920E-02 0.  1.
       -2    1    3    3    0  502 -0.12833270357E+04 -0.54509944178E+03  0.19527884075E+03  0.14079046515E+04  0.25500000920E-02 0. -1.
</event>
<event>
 5   0  0.7519202E-07  0.2934553E+04  0.7818609E-02  0.8262670E-01
       -1   -1    0    0    0  501  0.00000000000E+00  0.00000000000E+00  0.89655695391E+03  0.89655695393E+03  0.50400001928E-02 0.  1.
        1   -1    0    0  501    0  0.00000000000E+00  0.00000000000E+00 -0.24012986948E+04  0.24012986948E+04  0.50400001928E-02 0. -1.
    10030    2    1    2    0    0  0.00000000000E+00  0.00000000000E+00 -0.15047417409E+04  0.32978556487E+04  0.29345534879E+04 0.  0.
        4    1    3    3  502    0 -0.71581138963E+03 -0.10983649296E+04 -0.11933226726E+02  0.13110817972E+04  0.12699999809E+01 0.  1.
       -4    1    3    3    0  502  0.71581138963E+03  0.10983649296E+04 -0.14928085142E+04  0.19867738515E+04  0.12699999809E+01 0. -1.
</event>
<event>
 5   0  0.2078009E-06  0.3097381E+04  0.7818609E-02  0.8216457E-01
        2   -1    0    0  501    0  0.00000000000E+00  0.00000000000E+00  0.17588181241E+04  0.17588181241E+04  0.25500000920E-02 0. -1.
       -2   -1    0    0    0  501  0.00000000000E+00  0.00000000000E+00 -0.13636671297E+04  0.13636671297E+04  0.25500000920E-02 0.  1.
    10030    2    1    2    0    0  0.00000000000E+00  0.00000000000E+00  0.39515099435E+03  0.31224852538E+04  0.30973811280E+04 0.  0.
        3    1    3    3  502    0  0.94392535373E+03 -0.67199930589E+03 -0.83830535102E+03  0.14301517445E+04  0.10100000352E+00 0.  1.
       -3    1    3    3    0  502 -0.94392535373E+03  0.67199930589E+03  0.12334563454E+04  0.16923335093E+04  0.10100000352E+00 0. -1.
</event>
<event>
 5   0  0.7561815E-07  0.3086295E+04  0.7818609E-02  0.8219509E-01
       -1   -1    0    0    0  501  0.00000000000E+00  0.00000000000E+00  0.85097856497E+03  0.85097856498E+03  0.50400001928E-02 0.  1.
        1   -1    0    0  501    0  0.00000000000E+00  0.00000000000E+00 -0.27983124889E+04  0.27983124889E+04  0.50400001928E-02 0. -1.
    10030    2    1    2    0    0  0.00000000000E+00  0.00000000000E+00 -0.19473339239E+04  0.36492910539E+04  0.30862948311E+04 0.  0.
        3    1    3    3  502    0 -0.66665757401E+03 -0.77554823233E+03 -0.23400618124E+04  0.25537808594E+04  0.10100000352E+00 0. -1.
       -3    1    3    3    0  502  0.66665757401E+03  0.77554823233E+03  0.39272788849E+03  0.10955101945E+04  0.10100000352E+00 0.  1.
</event>
<event>
 5   0  0.2133385E-06  0.3079759E+04  0.7818609E-02  0.8221315E-01
       -2   -1    0    0    0  501  0.00000000000E+00  0.00000000000E+00  0.12447691342E+04  0.12447691342E+04  0.25500000920E-02 0. -1.
        2   -1    0    0  501    0  0.00000000000E+00  0.00000000000E+00 -0.19049550967E+04  0.19049550967E+04  0.25500000920E-02 0.  1.
    10030    2    1    2    0    0  0.00000000000E+00  0.00000000000E+00 -0.66018596249E+03  0.31497242310E+04  0.30797592805E+04 0.  0.
        2    1    3    3  502    0 -0.11432000183E+04 -0.45249335789E+03  0.61810076695E+03  0.13761195728E+04  0.25500000920E-02 0. -1.
       -2    1    3    3    0  502  0.11432000183E+04  0.45249335789E+03 -0.12782867294E+04  0.17736046581E+04  0.25500000920E-02 0.  1.
</event>
<event>
 5   0  0.2078009E-06  0.3114206E+04  0.7818609E-02  0.8211850E-01
       -2   -1    0    0    0  501  0.00000000000E+00  0.00000000000E+00  0.10967970565E+04  0.10967970565E+04  0.25500000920E-02 0. -1.
        2   -1    0    0  501    0  0.00000000000E+00  0.00000000000E+00 -0.22105911766E+04  0.22105911766E+04  0.25500000920E-02 0.  1.
    10030    2    1    2    0    0  0.00000000000E+00  0.00000000000E+00 -0.11137941201E+04  0.33073882330E+04  0.31142060918E+04 0.  0.
        3    1    3    3  502    0 -0.92118318170E+03 -0.15994383645E+03 -0.18792915272E+04  0.20990229011E+04  0.10100000352E+00 0.  1.
       -3    1    3    3    0  502  0.92118318170E+03  0.15994383645E+03  0.76549740704E+03  0.12083653319E+04  0.10100000352E+00 0. -1.
</event>
<event>
 5   0  0.2133385E-06  0.3104479E+04  0.7818609E-02  0.8214510E-01
        2   -1    0    0  501    0  0.00000000000E+00  0.00000000000E+00  0.13855354537E+04  0.13855354537E+04  0.25500000920E-02 0.  1.
       -2   -1    0    0    0  501  0.00000000000E+00  0.00000000000E+00 -0.17390011795E+04  0.17390011795E+04  0.25500000920E-02 0. -1.
    10030    2    1    2    0    0  0.00000000000E+00  0.00000000000E+00 -0.35346572578E+03  0.31245366332E+04  0.31044792080E+04 0.  0.
        2    1    3    3  502    0  0.14500433462E+04  0.49337942761E+03 -0.43015086468E+03  0.15909364324E+04  0.25500000920E-02 0.  1.
       -2    1    3    3    0  502 -0.14500433462E+04 -0.49337942761E+03  0.76685138908E+02  0.15336002008E+04  0.25500000920E-02 0. -1.
</event>
<event>
 5   0  0.2133385E-06  0.3109598E+04  0.7818609E-02  0.8213109E-01
        2   -1    0    0  501    0  0.00000000000E+00  0.00000000000E+00  0.11808507204E+04  0.11808507204E+04  0.25500000920E-02 0. -1.
       -2   -1    0    0    0  501  0.00000000000E+00  0.00000000000E+00 -0.20471684518E+04  0.20471684518E+04  0.25500000920E-02 0.  1.
    10030    2    1    2    0    0  0.00000000000E+00  0.00000000000E+00 -0.86631773145E+03  0.32280191722E+04  0.31095982641E+04 0.  0.
        2    1    3    3  502    0 -0.39363294541E+03 -0.12793170198E+04  0.38804330434E+03  0.13936199406E+04  0.25500000920E-02 0. -1.
       -2    1    3    3    0  502  0.39363294541E+03  0.12793170198E+04 -0.12543610358E+04  0.18343992316E+04  0.25500000920E-02 0.  1.
</event>
<event>
 5   0  0.7413481E-07  0.3098568E+04  0.7818609E-02  0.8216131E-01
        1   -1    0    0  501    0  0.00000000000E+00  0.00000000000E+00  0.19077967722E+04  0.19077967722E+04  0.50400001928E-02 0. -1.
       -1   -1    0    0    0  501  0.00000000000E+00  0.00000000000E+00 -0.12581429581E+04  0.12581429581E+04  0.50400001928E-02 0.  1.
    10030    2    1    2    0    0  0.00000000000E+00  0.00000000000E+00  0.64965381411E+03  0.31659397303E+04  0.30985681044E+04 0.  0.
        5    1    3    3  502    0 -0.41524098973E+03 -0.91874956279E+03  0.15267253400E+04  0.18296005555E+04  0.46999998093E+01 0. -1.
       -5    1    3    3    0  502  0.41524098973E+03  0.91874956279E+03 -0.87707152592E+03  0.13363391749E+04  0.46999998093E+01 0.  1.
</event>
<event>
 5   0  0.7519202E-07  0.3090764E+04  0.7818609E-02  0.8218277E-01
       -1   -1    0    0    0  501  0.00000000000E+00  0.00000000000E+00  0.13502092289E+04  0.13502092289E+04  0.50400001928E-02 0.  1.
        1   -1    0    0  501    0  0.00000000000E+00  0.00000000000E+00 -0.17687669105E+04  0.17687669105E+04  0.50400001928E-02 0. -1.
    10030    2    1    2    0    0  0.00000000000E+00  0.00000000000E+00 -0.41855768162E+03  0.31189761394E+04  0.30907639226E+04 0.  0.
        4    1    3    3  502    0 -0.63585689269E+03  0.55337996578E+03 -0.15163470365E+04  0.17348928850E+04  0.12699999809E+01 0. -1.
       -4    1    3    3    0  502  0.63585689269E+03 -0.55337996578E+03  0.10977893548E+04  0.13840832544E+04  0.12699999809E+01 0.  1.
</event>
<event>
 5   0  0.2133385E-06  0.3101805E+04  0.7818609E-02  0.8215243E-01
        2   -1    0    0  501    0  0.00000000000E+00  0.00000000000E+00  0.16545909413E+04  0.16545909413E+04  0.25500000920E-02 0.  1.
       -2   -1    0    0    0  501  0.00000000000E+00  0.00000000000E+00 -0.14537116955E+04  0.14537116955E+04  0.25500000920E-02 0. -1.
    10030    2    1    2    0    0  0.00000000000E+00  0.00000000000E+00  0.20087924580E+03  0.31083026368E+04  0.31018047667E+04 0.  0.
        2    1    3    3  502    0 -0.12569962630E+04 -0.61264798648E+03 -0.57172707263E+03  0.15107114238E+04  0.25500000920E-02 0. -1.
       -2    1    3    3    0  502  0.12569962630E+04  0.61264798648E+03  0.77260631843E+03  0.15975912130E+04  0.25500000920E-02 0.  1.
</event>
<event>
 5   0  0.2133385E-06  0.3101470E+04  0.7818609E-02  0.8215335E-01
        2   -1    0    0  501    0  0.00000000000E+00  0.00000000000E+00  0.17416361244E+04  0.17416361244E+04  0.25500000920E-02 0. -1.
       -2   -1    0    0    0  501  0.00000000000E+00  0.00000000000E+00 -0.13807588721E+04  0.13807588721E+04  0.25500000920E-02 0.  1.
    10030    2    1    2    0    0  0.00000000000E+00  0.00000000000E+00  0.36087725230E+03  0.31223949966E+04  0.31014703164E+04 0.  0.
        2    1    3    3  502    0  0.10233675819E+04  0.26205381644E+03 -0.96248544109E+03  0.14291016880E+04  0.25500000920E-02 0.  1.
       -2    1    3    3    0  502 -0.10233675819E+04 -0.26205381644E+03  0.13233626934E+04  0.16932933085E+04  0.25500000920E-02 0. -1.
</event>
<event>
 5   0  0.2078009E-06  0.3152436E+04  0.7818609E-02  0.8201493E-01
        2   -1    0    0  501    0  0.00000000000E+00  0.00000000000E+00  0.24294842537E+04  0.24294842537E+04  0.25500000920E-02 0. -1.
       -2   -1    0    0    0  501  0.00000000000E+00  0.00000000000E+00 -0.10226300598E+04  0.10226300598E+04  0.25500000920E-02 0.  1.
    10030    2    1    2    0    0  0.00000000000E+00  0.00000000000E+00  0.14068541939E+04  0.34521143135E+04  0.31524362818E+04 0.  0.
        3    1    3    3  502    0  0.15149254066E+04  0.42504070512E+03  0.60067179439E+03  0.16841808702E+04  0.10100000352E+00 0.  1.
       -3    1    3    3    0  502 -0.15149254066E+04 -0.42504070512E+03  0.80618239956E+03  0.17679334434E+04  0.10100000352E+00 0. -1.
</event>
<event>
 5   0  0.7656332E-07  0.3114415E+04  0.7818609E-02  0.8211793E-01
       -1   -1    0    0    0  501  0.00000000000E+00  0.00000000000E+00  0.23153165874E+04  0.23153165874E+04  0.50400001928E-02 0.  1.
        1   -1    0    0  501    0  0.00000000000E+00  0.00000000000E+00 -0.10473278915E+04  0.10473278915E+04  0.50400001928E-02 0. -1.
    10030    2    1    2    0    0  0.00000000000E+00  0.00000000000E+00  0.12679886959E+04  0.33626444789E+04  0.31144152836E+04 0.  0.
        2    1    3    3  502    0 -0.13119588905E+04  0.82597857665E+03  0.79201105817E+03  0.17409073082E+04  0.25500000920E-02 0.  1.
       -2    1    3    3    0  502  0.13119588905E+04 -0.82597857665E+03  0.47597763776E+03  0.16217371707E+04  0.25500000920E-02 0. -1.
</event>
<event>
 5   0  0.7726743E-07  0.3088630E+04  0.7818609E-02  0.8218865E-01
        1   -1    0    0  501    0  0.00000000000E+00  0.00000000000E+00  0.16992393927E+04  0.16992393927E+04  0.50400001928E-02 0. -1.
       -1   -1    0    0    0  501  0.00000000000E+00  0.00000000000E+00 -0.14035159181E+04  0.14035159181E+04  0.50400001928E-02 0.  1.
    10030    2    1    2    0    0  0.00000000000E+00  0.00000000000E+00  0.29572347460E+03  0.31027553107E+04  0.30886304643E+04 0.  0.
        1    1    3    3  502    0  0.13902733836E+04  0.19141880076E+01 -0.52755651369E+03  0.14870035710E+04  0.50400001928E-02 0.  1.
       -1    1    3    3    0  502 -0.13902733836E+04 -0.19141880076E+01  0.82327998829E+03  0.16157517397E+04  0.50400001928E-02 0. -1.
</event>
<event>
 5   0  0.2133385E-06  0.3107042E+04  0.7818609E-02  0.8213808E-01
        2   -1    0    0  501    0  0.00000000000E+00  0.00000000000E+00  0.20597311304E+04  0.20597311304E+04  0.25500000920E-02 0.  1.
       -2   -1    0    0    0  501  0.00000000000E+00  0.00000000000E+00 -0.11717195643E+04  0.11717195643E+04  0.25500000920E-02 0. -1.
    10030    2    1    2    0    0  0.00000000000E+00  0.00000000000E+00  0.88801156605E+03  0.32314506947E+04  0.31070418489E+04 0.  0.
        2    1    3    3  502    0 -0.57544814908E+03  0.91657331263E+02 -0.10537562990E+04  0.12041361951E+04  0.25500000920E-02 0. -1.
       -2    1    3    3    0  502  0.57544814908E+03 -0.91657331263E+02  0.19417678650E+04  0.20273144996E+04  0.25500000920E-02 0.  1.
</event>
<event>
 5   0  0.2078009E-06  0.3104918E+04  0.7818609E-02  0.8214389E-01
       -2   -1    0    0    0  501  0.00000000000E+00  0.00000000000E+00  0.10113719089E+04  0.10113719089E+04  0.25500000920E-02 0. -1.
        2   -1    0    0  501    0  0.00000000000E+00  0.00000000000E+00 -0.23830297142E+04  0.23830297142E+04  0.25500000920E-02 0.  1.
    10030    2    1    2    0    0  0.00000000000E+00  0.00000000000E+00 -0.13716578053E+04  0.33944016231E+04  0.31049182347E+04 0.  0.
        3    1    3    3  502    0 -0.10685298535E+03  0.20183770830E+03  0.99290746226E+03  0.10188332836E+04  0.10100000352E+00 0. -1.
       -3    1    3    3    0  502  0.10685298535E+03 -0.20183770830E+03 -0.23645652675E+04  0.23755683395E+04  0.10100000352E+00 0.  1.
</event>
<event>
 5   0  0.7656332E-07  0.3108490E+04  0.7818609E-02  0.8213412E-01
       -1   -1    0    0    0  501  0.00000000000E+00  0.00000000000E+00  0.20809134524E+04  0.20809134524E+04  0.50400001928E-02 0.  1.
        1   -1    0    0  501    0  0.00000000000E+00  0.00000000000E+00 -0.11608732674E+04  0.11608732674E+04  0.50400001928E-02 0. -1.
    10030    2    1    2    0    0  0.00000000000E+00  0.00000000000E+00  0.92004018496E+03  0.32417867198E+04  0.31084895359E+04 0.  0.
        2    1    3    3  502    0  0.49160511103E+03 -0.53889508005E+03  0.18913132605E+04  0.20271036831E+04  0.25500000920E-02 0.  1.
       -2    1    3    3    0  502 -0.49160511103E+03  0.53889508005E+03 -0.97127307557E+03  0.12146830368E+04  0.25500000920E-02 0. -1.
</event>
<event>
 5   0  0.7413481E-07  0.3093192E+04  0.7818609E-02  0.8217609E-01
        1   -1    0    0  501    0  0.00000000000E+00  0.00000000000E+00  0.29003254345E+04  0.29003254345E+04  0.50400001928E-02 0. -1.
       -1   -1    0    0    0  501  0.00000000000E+00  0.00000000000E+00 -0.82472107101E+03  0.82472107102E+03  0.50400001928E-02 0.  1.
    10030    2    1    2    0    0  0.00000000000E+00  0.00000000000E+00  0.20756043635E+04  0.37250465055E+04  0.30931922014E+04 0.  0.
        5    1    3    3  502    0 -0.10208503737E+04 -0.71696703011E+03  0.21387472125E+04  0.24759723215E+04  0.46999998093E+01 0. -1.
       -5    1    3    3    0  502  0.10208503737E+04  0.71696703011E+03 -0.63142849036E+02  0.12490741840E+04  0.46999998093E+01 0.  1.
</event>
<event>
 5   0  0.2094135E-06  0.3110463E+04  0.7818609E-02  0.8212872E-01
        2   -1    0    0  501    0  0.00000000000E+00  0.00000000000E+00  0.19014136941E+04  0.19014136941E+04  0.25500000920E-02 0.  1.
       -2   -1    0    0    0  501  0.00000000000E+00  0.00000000000E+00 -0.12720769740E+04  0.12720769740E+04  0.25500000920E-02 0. -1.
    10030    2    1    2    0    0  0.00000000000E+00  0.00000000000E+00  0.62933672004E+03  0.31734906681E+04  0.31104627170E+04 0.  0.
        4    1    3    3  502    0 -0.38069509590E+03 -0.28005489152E+03 -0.11970379300E+04  0.12869580091E+04  0.12699999809E+01 0. -1.
       -4    1    3    3    0  502  0.38069509590E+03  0.28005489152E+03  0.18263746501E+04  0.18865326591E+04  0.12699999809E+01 0.  1.
</event>
<event>
 5   0  0.7561815E-07  0.3104069E+04  0.7818609E-02  0.8214622E-01
        1   -1    0    0  501    0  0.00000000000E+00  0.00000000000E+00  0.14201321814E+04  0.14201321815E+04  0.50400001928E-02 0. -1.
       -1   -1    0    0    0  501  0.00000000000E+00  0.00000000000E+00 -0.16961874932E+04  0.16961874932E+04  0.50400001928E-02 0.  1.
    10030    2    1    2    0    0  0.00000000000E+00  0.00000000000E+00 -0.27605531177E+03  0.31163196747E+04  0.31040685849E+04 0.  0.
        3    1    3    3  502    0  0.45753692275E+03  0.15453742798E+03 -0.16188367693E+04  0.16893354753E+04  0.10100000352E+00 0.  1.
       -3    1    3    3    0  502 -0.45753692275E+03 -0.15453742798E+03  0.13427814575E+04  0.14269841994E+04  0.10100000352E+00 0. -1.
</event>
<event>
 5   0  0.7656332E-07  0.3059972E+04  0.7818609E-02  0.8226810E-01
        1   -1    0    0  501    0  0.00000000000E+00  0.00000000000E+00  0.15542435515E+04  0.15542435515E+04  0.50400001928E-02 0. -1.
       -1   -1    0    0    0  501  0.00000000000E+00  0.00000000000E+00 -0.15061074818E+04  0.15061074818E+04  0.50400001928E-02 0.  1.
    10030    2    1    2    0    0  0.00000000000E+00  0.00000000000E+00  0.48136069683E+02  0.30603510333E+04  0.30599724453E+04 0.  0.
        2    1    3    3  502    0 -0.10420520384E+04  0.12701442378E+03  0.11372433554E+04  0.15476845816E+04  0.25500000920E-02 0. -1.
       -2    1    3    3    0  502  0.10420520384E+04 -0.12701442378E+03 -0.10891072857E+04  0.15126664518E+04  0.25500000920E-02 0.  1.
</event>
<event>
 5   0  0.2133385E-06  0.3065185E+04  0.7818609E-02  0.8225358E-01
        2   -1    0    0  501    0  0.00000000000E+00  0.00000000000E+00  0.16376690582E+04  0.16376690582E+04  0.25500000920E-02 0. -1.
       -2   -1    0    0    0  501  0.00000000000E+00  0.00000000000E+00 -0.14342575709E+04  0.14342575709E+04  0.25500000920E-02 0.  1.
    10030    2    1    2    0    0  0.00000000000E+00  0.00000000000E+00  0.20341148739E+03  0.30719266291E+04  0.30651846570E+04 0.  0.
        2    1    3    3  502    0 -0.12660889321E+04 -0.81794552375E+03 -0.17607385112E+03  0.15175697891E+04  0.25500000920E-02 0.  1.
       -2    1    3    3    0  502  0.12660889321E+04  0.81794552375E+03  0.37948533852E+03  0.15543568400E+04  0.25500000920E-02 0. -1.
</event>
<event>
 5   0  0.2078009E-06  0.3081282E+04  0.7818609E-02  0.8220894E-01
        2   -1    0    0  501    0  0.00000000000E+00  0.00000000000E+00  0.18132799133E+04  0.18132799133E+04  0.25500000920E-02 0. -1.
       -2   -1    0    0    0  501  0.00000000000E+00  0.00000000000E+00 -0.13089953527E+04  0.13089953527E+04  0.25500000920E-02 0.  1.
    10030    2    1    2    0    0  0.00000000000E+00  0.00000000000E+00  0.50428456065E+03  0.31222752660E+04  0.30812821874E+04 0.  0.
        3    1    3    3  502    0 -0.10188550473E+04 -0.79852445391E+03 -0.59435657638E+03  0.14244180078E+04  0.10100000352E+00 0.  1.
       -3    1    3    3    0  502  0.10188550473E+04  0.79852445391E+03  0.10986411370E+04  0.16978572582E+04  0.10100000352E+00 0. -1.
</event>
<event>
 5   0  0.7519202E-07  0.2997266E+04  0.7818609E-02  0.8244512E-01
        1   -1    0    0  501    0  0.00000000000E+00  0.00000000000E+00  0.19973601427E+04  0.19973601427E+04  0.50400001928E-02 0.  1.
       -1   -1    0    0    0  501  0.00000000000E+00  0.00000000000E+00 -0.11244348575E+04  0.11244348575E+04  0.50400001928E-02 0. -1.
    10030    2    1    2    0    0  0.00000000000E+00  0.00000000000E+00  0.87292528519E+03  0.31217950002E+04  0.29972663328E+04 0.  0.
        4    1    3    3  502    0 -0.78829558733E+03 -0.78632907374E+03  0.14812216176E+04  0.18530360057E+04  0.12699999809E+01 0.  1.
       -4    1    3    3    0  502  0.78829558733E+03  0.78632907374E+03 -0.60829633236E+03  0.12687589945E+04  0.12699999809E+01 0. -1.
</event>
<event>
 5   0  0.2078009E-06  0.3089964E+04  0.7818609E-02  0.8218497E-01
       -2   -1    0    0    0  501  0.00000000000E+00  0.00000000000E+00  0.25896992575E+04  0.25896992575E+04  0.25500000920E-02 0.  1.
        2   -1    0    0  501    0  0.00000000000E+00  0.00000000000E+00 -0.92171704983E+03  0.92171704983E+03  0.25500000920E-02 0. -1.
    10030    2    1    2    0    0  0.00000000000E+00  0.00000000000E+00  0.16679822077E+04  0.35114163073E+04  0.30899643749E+04 0.  0.
        3    1    3    3  502    0  0.66086936756E+03 -0.62526792181E+03  0.22530105555E+04  0.24297664226E+04  0.10100000352E+00 0.  1.
       -3    1    3    3    0  502 -0.66086936756E+03  0.62526792181E+03 -0.58502834788E+03  0.10816498847E+04  0.10100000352E+00 0. -1.
</event>
<event>
 5   0  0.7561815E-07  0.3109371E+04  0.7818609E-02  0.8213171E-01
       -1   -1    0    0    0  501  0.00000000000E+00  0.00000000000E+00  0.11018850574E+04  0.11018850574E+04  0.50400001928E-02 0. -1.
        1   -1    0    0  501    0  0.00000000000E+00  0.00000000000E+00 -0.21935568248E+04  0.21935568248E+04  0.50400001928E-02 0.  1.
    10030    2    1    2    0    0  0.00000000000E+00  0.00000000000E+00 -0.10916717673E+04  0.32954418822E+04  0.31093713113E+04 0.  0.
        3    1    3    3  502    0 -0.14735651848E+04  0.35096463797E+03 -0.17492613758E+03  0.15248507123E+04  0.10100000352E+00 0. -1.
       -3    1    3    3    0  502  0.14735651848E+04 -0.35096463797E+03 -0.91674562974E+03  0.17705911699E+04  0.10100000352E+00 0.  1.
</event>
<event>
 5   0  0.2133385E-06  0.3076050E+04  0.7818609E-02  0.8222342E-01
       -2   -1    0    0    0  501  0.00000000000E+00  0.00000000000E+00  0.10729660833E+04  0.10729660833E+04  0.25500000920E-02 0.  1.
        2   -1    0    0  501    0  0.00000000000E+00  0.00000000000E+00 -0.22046551404E+04  0.22046551404E+04  0.25500000920E-02 0. -1.
    10030    2    1    2    0    0  0.00000000000E+00  0.00000000000E+00 -0.11316890571E+04  0.32776212237E+04  0.30760495386E+04 0.  0.
        2    1    3    3  502    0 -0.58037028878E+03  0.10979842931E+04 -0.15325569115E+04  0.19725947042E+04  0.25500000920E-02 0. -1.
       -2    1    3    3    0  502  0.58037028878E+03 -0.10979842931E+04  0.40086785440E+03  0.13050265195E+04  0.25500000920E-02 0.  1.
</event>
<event>
 5   0  0.2078009E-06  0.3091673E+04  0.7818609E-02  0.8218027E-01
       -2   -1    0    0    0  501  0.00000000000E+00  0.00000000000E+00  0.14279508760E+04  0.14279508760E+04  0.25500000920E-02 0. -1.
        2   -1    0    0  501    0  0.00000000000E+00  0.00000000000E+00 -0.16734538454E+04  0.16734538454E+04  0.25500000920E-02 0.  1.
    10030    2    1    2    0    0  0.00000000000E+00  0.00000000000E+00 -0.24550296935E+03  0.31014047214E+04  0.30916726117E+04 0.  0.
        3    1    3    3  502    0 -0.51238772868E+03  0.14543994821E+04 -0.23167891202E+03  0.15593249073E+04  0.10100000352E+00 0. -1.
       -3    1    3    3    0  502  0.51238772868E+03 -0.14543994821E+04 -0.13824057334E+02  0.15420798141E+04  0.10100000352E+00 0.  1.
</event>
<event>
 5   0  0.2067926E-06  0.3120389E+04  0.7818609E-02  0.8210164E-01
       -2   -1    0    0    0  501  0.00000000000E+00  0.00000000000E+00  0.15714152099E+04  0.15714152099E+04  0.25500000920E-02 0. -1.
        2   -1    0    0  501    0  0.00000000000E+00  0.00000000000E+00 -0.15490543388E+04  0.15490543388E+04  0.25500000920E-02 0.  1.
    10030    2    1    2    0    0  0.00000000000E+00  0.00000000000E+00  0.22360871131E+02  0.31204695487E+04  0.31203894302E+04 0.  0.
        1    1    3    3  502    0 -0.10825191661E+04  0.57703821853E+03  0.97525222986E+03  0.15671431850E+04  0.50400001928E-02 0. -1.
       -1    1    3    3    0  502  0.10825191661E+04 -0.57703821853E+03 -0.95289135873E+03  0.15533263637E+04  0.50400001928E-02 0.  1.
</event>
<event>
 5   0  0.7726743E-07  0.3125856E+04  0.7818609E-02  0.8208678E-01
       -1   -1    0    0    0  501  0.00000000000E+00  0.00000000000E+00  0.14173508535E+04  0.14173508535E+04  0.50400001928E-02 0.  1.
        1   -1    0    0  501    0  0.00000000000E+00  0.00000000000E+00 -0.17234569355E+04  0.17234569355E+04  0.50400001928E-02 0. -1.
    10030    2    1    2    0    0  0.00000000000E+00  0.00000000000E+00 -0.30610608193E+03  0.31408077890E+04  0.31258555044E+04 0.  0.
        1    1    3    3  502    0  0.10861836732E+04 -0.53352246589E+03 -0.11468757672E+04  0.16672627924E+04  0.50400001928E-02 0. -1.
       -1    1    3    3    0  502 -0.10861836732E+04  0.53352246589E+03  0.84076968524E+03  0.14735449966E+04  0.50400001928E-02 0.  1.
</event>
<event>
 5   0  0.2078009E-06  0.3117515E+04  0.7818609E-02  0.8210947E-01
        2   -1    0    0  501    0  0.00000000000E+00  0.00000000000E+00  0.14995353128E+04  0.14995353128E+04  0.25500000920E-02 0. -1.
       -2   -1    0    0    0  501  0.00000000000E+00  0.00000000000E+00 -0.16203185312E+04  0.16203185312E+04  0.25500000920E-02 0.  1.
    10030    2    1    2    0    0  0.00000000000E+00  0.00000000000E+00 -0.12078321843E+03  0.31198538441E+04  0.31175149434E+04 0.  0.
        3    1    3    3  502    0 -0.11268451210E+04  0.20923350633E+03 -0.11176719332E+04  0.16008588780E+04  0.10100000352E+00 0.  1.
       -3    1    3    3    0  502  0.11268451210E+04 -0.20923350633E+03  0.99688871481E+03  0.15189949660E+04  0.10100000352E+00 0. -1.
</event>
<event>
 5   0  0.7519202E-07  0.3074150E+04  0.7818609E-02  0.8222868E-01
       -1   -1    0    0    0  501  0.00000000000E+00  0.00000000000E+00  0.21428165416E+04  0.21428165416E+04  0.50400001928E-02 0. -1.
        1   -1    0    0  501    0  0.00000000000E+00  0.00000000000E+00 -0.11025674428E+04  0.11025674428E+04  0.50400001928E-02 0.  1.
    10030    2    1    2    0    0  0.00000000000E+00  0.00000000000E+00  0.10402490989E+04  0.32453839844E+04  0.30741501295E+04 0.  0.
        4    1    3    3  502    0 -0.86880714940E+03 -0.10577554887E+04 -0.21805567538E+03  0.13860816813E+04  0.12699999809E+01 0.  1.
       -4    1    3    3    0  502  0.86880714940E+03  0.10577554887E+04  0.12583047742E+04  0.18593023032E+04  0.12699999809E+01 0. -1.
</event>
<event>
 5   0  0.2226334E-06  0.3091621E+04  0.7818609E-02  0.8218041E-01
       -2   -1    0    0    0  501  0.00000000000E+00  0.00000000000E+00  0.14504058604E+04  0.14504058604E+04  0.25500000920E-02 0.  1.
        2   -1    0    0  501    0  0.00000000000E+00  0.00000000000E+00 -0.16474906900E+04  0.16474906900E+04  0.25500000920E-02 0. -1.
    10030    2    1    2    0    0  0.00000000000E+00  0.00000000000E+00 -0.19708482966E+03  0.30978965504E+04  0.30916210322E+04 0.  0.
        5    1    3    3  502    0 -0.12784536859E+04 -0.85239515427E+03 -0.26766515310E+03  0.15597076810E+04  0.46999998093E+01 0. -1.
       -5    1    3    3    0  502  0.12784536859E+04  0.85239515427E+03  0.70580323438E+02  0.15381888694E+04  0.46999998093E+01 0.  1.
</event>
<event>
 5   0  0.7519202E-07  0.3101037E+04  0.7818609E-02  0.8215453E-01
        1   -1    0    0  501    0  0.00000000000E+00  0.00000000000E+00  0.21872444906E+04  0.21872444906E+04  0.50400001928E-02 0. -1.
       -1   -1    0    0    0  501  0.00000000000E+00  0.00000000000E+00 -0.10991491726E+04  0.10991491726E+04  0.50400001928E-02 0.  1.
    10030    2    1    2    0    0  0.00000000000E+00  0.00000000000E+00  0.10880953179E+04  0.32863936632E+04  0.31010372279E+04 0.  0.
        4    1    3    3  502    0  0.15377724378E+04 -0.13759605717E+03  0.69552325992E+03  0.16933490377E+04  0.12699999809E+01 0. -1.
       -4    1    3    3    0  502 -0.15377724378E+04  0.13759605717E+03  0.39257205801E+03  0.15930446255E+04  0.12699999809E+01 0.  1.
</event>
<event>
 5   0  0.7561815E-07  0.3093499E+04  0.7818609E-02  0.8217524E-01
        1   -1    0    0  501    0  0.00000000000E+00  0.00000000000E+00  0.10244041483E+04  0.10244041483E+04  0.50400001928E-02 0.  1.
       -1   -1    0    0    0  501  0.00000000000E+00  0.00000000000E+00 -0.23354401340E+04  0.23354401340E+04  0.50400001928E-02 0. -1.
    10030    2    1    2    0    0  0.00000000000E+00  0.00000000000E+00 -0.13110359857E+04  0.33598442823E+04  0.30934993527E+04 0.  0.
        3    1    3    3  502    0  0.93897762339E+03 -0.15072245521E+03  0.66936088777E+03  0.11629446436E+04  0.10100000352E+00 0. -1.
       -3    1    3    3    0  502 -0.93897762339E+03  0.15072245521E+03 -0.19803968735E+04  0.21968996387E+04  0.10100000352E+00 0.  1.
</event>
<event>
 5   0  0.2067926E-06  0.3148116E+04  0.7818609E-02  0.8202656E-01
        2   -1    0    0  501    0  0.00000000000E+00  0.00000000000E+00  0.17421164325E+04  0.17421164325E+04  0.25500000920E-02 0. -1.
       -2   -1    0    0    0  501  0.00000000000E+00  0.00000000000E+00 -0.14222118703E+04  0.14222118703E+04  0.25500000920E-02 0.  1.
    10030    2    1    2    0    0  0.00000000000E+00  0.00000000000E+00  0.31990456219E+03  0.31643283028E+04  0.31481160523E+04 0.  0.
        1    1    3    3  502    0  0.19604765907E+03  0.11361677878E+04 -0.91717573836E+03  0.14732695821E+04  0.50400001928E-02 0.  1.
       -1    1    3    3    0  502 -0.19604765907E+03 -0.11361677878E+04  0.12370803005E+04  0.16910587206E+04  0.50400001928E-02 0. -1.
</event>
<event>
 5   0  0.2094135E-06  0.3107640E+04  0.7818609E-02  0.8213644E-01
        2   -1    0    0  501    0  0.00000000000E+00  0.00000000000E+00  0.23467562803E+04  0.23467562803E+04  0.25500000920E-02 0. -1.
       -2   -1    0    0    0  501  0.00000000000E+00  0.00000000000E+00 -0.10288060371E+04  0.10288060371E+04  0.25500000920E-02 0.  1.
    10030    2    1    2    0    0  0.00000000000E+00  0.00000000000E+00  0.13179502432E+04  0.33755623174E+04  0.31076402808E+04 0.  0.
        4    1    3    3  502    0 -0.42643468076E+03 -0.10499497930E+04  0.18136948221E+04  0.21386284449E+04  0.12699999809E+01 0. -1.
       -4    1    3    3    0  502  0.42643468076E+03  0.10499497930E+04 -0.49574457884E+03  0.12369338725E+04  0.12699999809E+01 0.  1.
</event>
<event>
 5   0  0.2078009E-06  0.3105243E+04  0.7818609E-02  0.8214300E-01
        2   -1    0    0  501    0  0.00000000000E+00  0.00000000000E+00  0.25240256032E+04  0.25240256032E+04  0.25500000920E-02 0. -1.
       -2   -1    0    0    0  501  0.00000000000E+00  0.00000000000E+00 -0.95507501591E+03  0.95507501592E+03  0.25500000920E-02 0.  1.
    10030    2    1    2    0    0  0.00000000000E+00  0.00000000000E+00  0.15689505873E+04  0.34791006192E+04  0.31052431745E+04 0.  0.
        3    1    3    3  502    0 -0.10194580378E+04  0.57610997320E+03 -0.35779881262E+03  0.12244253316E+04  0.10100000352E+00 0.  1.
       -3    1    3    3    0  502  0.10194580378E+04 -0.57610997320E+03  0.19267493999E+04  0.22546752876E+04  0.10100000352E+00 0. -1.
</event>
<event>
 5   0  0.7519202E-07  0.3107654E+04  0.7818609E-02  0.8213641E-01
       -1   -1    0    0    0  501  0.00000000000E+00  0.00000000000E+00  0.16805071741E+04  0.16805071741E+04  0.50400001928E-02 0.  1.
        1   -1    0    0  501    0  0.00000000000E+00  0.00000000000E+00 -0.14366959137E+04  0.14366959137E+04  0.50400001928E-02 0. -1.
    10030    2    1    2    0    0  0.00000000000E+00  0.00000000000E+00  0.24381126047E+03  0.31172030878E+04  0.31076536422E+04 0.  0.
        4    1    3    3  502    0  0.58909220432E+03  0.11403748778E+04 -0.75650888640E+03  0.14898965720E+04  0.12699999809E+01 0. -1.
       -4    1    3    3    0  502 -0.58909220432E+03 -0.11403748778E+04  0.10003201469E+04  0.16273065158E+04  0.12699999809E+01 0.  1.
</event>
<event>
 5   0  0.7656332E-07  0.3088436E+04  0.7818609E-02  0.8218919E-01
       -1   -1    0    0    0  501  0.00000000000E+00  0.00000000000E+00  0.11953999403E+04  0.11953999403E+04  0.50400001928E-02 0. -1.
        1   -1    0    0  501    0  0.00000000000E+00  0.00000000000E+00 -0.19948208937E+04  0.19948208937E+04  0.50400001928E-02 0.  1.
    10030    2    1    2    0    0  0.00000000000E+00  0.00000000000E+00 -0.79942095334E+03  0.31902208340E+04  0.30884357058E+04 0.  0.
        2    1    3    3  502    0  0.81130077982E+02  0.89517239218E+03 -0.16967576225E+04  0.19201307588E+04  0.25500000920E-02 0.  1.
       -2    1    3    3    0  502 -0.81130077982E+02 -0.89517239218E+03  0.89733666916E+03  0.12700900752E+04  0.25500000920E-02 0. -1.
</event>
<event>
 5   0  0.2226334E-06  0.3106043E+04  0.7818609E-02  0.8214081E-01
       -2   -1    0    0    0  501  0.00000000000E+00  0.00000000000E+00  0.12079069120E+04  0.12079069120E+04  0.25500000920E-02 0.  1.
        2   -1    0    0  501    0  0.00000000000E+00  0.00000000000E+00 -0.19967398028E+04  0.19967398028E+04  0.25500000920E-02 0. -1.
    10030    2    1    2    0    0  0.00000000000E+00  0.00000000000E+00 -0.78883289084E+03  0.32046467148E+04  0.31060430192E+04 0.  0.
        5    1    3    3  502    0  0.23324352960E+02 -0.71799607772E+03  0.10261709557E+04  0.12526417338E+04  0.46999998093E+01 0.  1.
       -5    1    3    3    0  502 -0.23324352960E+02  0.71799607772E+03 -0.18150038465E+04  0.19520049810E+04  0.46999998093E+01 0. -1.
</event>
<event>
 5   0  0.7726743E-07  0.3092991E+04  0.7818609E-02  0.8217664E-01
       -1   -1    0    0    0  501  0.00000000000E+00  0.00000000000E+00  0.12241660207E+04  0.12241660207E+04  0.50400001928E-02 0. -1.
        1   -1    0    0  501    0  0.00000000000E+00  0.00000000000E+00 -0.19536961443E+04  0.19536961443E+04  0.50400001928E-02 0.  1.
    10030    2    1    2    0    0  0.00000000000E+00  0.00000000000E+00 -0.72953012358E+03  0.31778621650E+04  0.30929910667E+04 0.  0.
        1    1    3    3  502    0  0.88802773530E+03 -0.20308347051E+03  0.91925203773E+03  0.12941640018E+04  0.50400001928E-02 0. -1.
       -1    1    3    3    0  502 -0.88802773530E+03  0.20308347051E+03 -0.16487821613E+04  0.18836981632E+04  0.50400001928E-02 0.  1.
</event>
<event>
 5   0  0.2067926E-06  0.3071132E+04  0.7818609E-02  0.8223705E-01
       -2   -1    0    0    0  501  0.00000000000E+00  0.00000000000E+00  0.21921794280E+04  0.21921794280E+04  0.25500000920E-02 0.  1.
        2   -1    0    0  501    0  0.00000000000E+00  0.00000000000E+00 -0.10756248761E+04  0.10756248761E+04  0.25500000920E-02 0. -1.
    10030    2    1    2    0    0  0.00000000000E+00  0.00000000000E+00  0.11165545519E+04  0.32678043042E+04  0.30711318603E+04 0.  0.
        1    1    3    3  502    0  0.82558857777E+03  0.11032856508E+04  0.12792585632E+04  0.18802495044E+04  0.50400001928E-02 0.  1.
       -1    1    3    3    0  502 -0.82558857777E+03 -0.11032856508E+04 -0.16270401133E+03  0.13875547998E+04  0.50400001928E-02 0. -1.
</event>
<event>
 5   0  0.7656332E-07  0.3100111E+04  0.7818609E-02  0.8215708E-01
       -1   -1    0    0    0  501  0.00000000000E+00  0.00000000000E+00  0.13433580277E+04  0.13433580277E+04  0.50400001928E-02 0. -1.
        1   -1    0    0  501    0  0.00000000000E+00  0.00000000000E+00 -0.17885562838E+04  0.17885562838E+04  0.50400001928E-02 0.  1.
    10030    2    1    2    0    0  0.00000000000E+00  0.00000000000E+00 -0.44519825611E+03  0.31319143115E+04  0.31001106057E+04 0.  0.
        2    1    3    3  502    0  0.13509770511E+04  0.44889699554E+03  0.39689961338E+03  0.14778960749E+04  0.25500000920E-02 0. -1.
       -2    1    3    3    0  502 -0.13509770511E+04 -0.44889699554E+03 -0.84209786948E+03  0.16540182366E+04  0.25500000920E-02 0.  1.
</event>
<event>
 5   0  0.7519202E-07  0.3093493E+04  0.7818609E-02  0.8217526E-01
       -1   -1    0    0    0  501  0.00000000000E+00  0.00000000000E+00  0.11130900586E+04  0.11130900586E+04  0.50400001928E-02 0.  1.
        1   -1    0    0  501    0  0.00000000000E+00  0.00000000000E+00 -0.21493547925E+04  0.21493547925E+04  0.50400001928E-02 0. -1.
    10030    2    1    2    0    0  0.00000000000E+00  0.00000000000E+00 -0.10362647339E+04  0.32624448511E+04  0.30934934633E+04 0.  0.
        4    1    3    3  502    0 -0.11871439579E+04  0.22684739862E+03 -0.15360699387E+04  0.19545544220E+04  0.12699999809E+01 0. -1.
       -4    1    3    3    0  502  0.11871439579E+04 -0.22684739862E+03  0.49980520475E+03  0.13078904291E+04  0.12699999809E+01 0.  1.
</event>
<event>
 5   0  0.6979625E-07  0.3083715E+04  0.7818609E-02  0.8220221E-01
        3   -1    0    0  501    0  0.00000000000E+00  0.00000000000E+00  0.12087474243E+04  0.12087474285E+04  0.10100000352E+00 0.  1.
       -3   -1    0    0    0  501  0.00000000000E+00  0.00000000000E+00 -0.19667671633E+04  0.19667671659E+04  0.10100000352E+00 0. -1.
    10030    2    1    2    0    0  0.00000000000E+00  0.00000000000E+00 -0.75801973906E+03  0.31755145944E+04  0.30837151319E+04 0.  0.
        4    1    3    3  502    0 -0.25713911015E+03  0.20649959455E+03  0.11720017365E+04  0.12175189066E+04  0.12699999809E+01 0.  1.
       -4    1    3    3    0  502  0.25713911015E+03 -0.20649959455E+03 -0.19300214756E+04  0.19579956879E+04  0.12699999809E+01 0. -1.
</event>
<event>
 5   0  0.2094135E-06  0.3058359E+04  0.7818609E-02  0.8227260E-01
       -2   -1    0    0    0  501  0.00000000000E+00  0.00000000000E+00  0.74232621980E+03  0.74232621980E+03  0.25500000920E-02 0.  1.
        2   -1    0    0  501    0  0.00000000000E+00  0.00000000000E+00 -0.31500837239E+04  0.31500837239E+04  0.25500000920E-02 0. -1.
    10030    2    1    2    0    0  0.00000000000E+00  0.00000000000E+00 -0.24077575041E+04  0.38924099437E+04  0.30583588689E+04 0.  0.
        4    1    3    3  502    0  0.75618445388E+03  0.56268422597E+03  0.32864808823E+03  0.99821823528E+03  0.12699999809E+01 0.  1.
       -4    1    3    3    0  502 -0.75618445388E+03 -0.56268422597E+03 -0.27364055923E+04  0.28941917084E+04  0.12699999809E+01 0. -1.
</event>
<event>
 5   0  0.7413481E-07  0.3099680E+04  0.7818609E-02  0.8215826E-01
        1   -1    0    0  501    0  0.00000000000E+00  0.00000000000E+00  0.20678743960E+04  0.20678743960E+04  0.50400001928E-02 0.  1.
       -1   -1    0    0    0  501  0.00000000000E+00  0.00000000000E+00 -0.11615811567E+04  0.11615811567E+04  0.50400001928E-02 0. -1.
    10030    2    1    2    0    0  0.00000000000E+00  0.00000000000E+00  0.90629323928E+03  0.32294555526E+04  0.30996799401E+04 0.  0.
        5    1    3    3  502    0 -0.13939111572E+03  0.39390643071E+03  0.20080756106E+04  0.20510928568E+04  0.46999998093E+01 0.  1.
       -5    1    3    3    0  502  0.13939111572E+03 -0.39390643071E+03 -0.11017823713E+04  0.11783626959E+04  0.46999998093E+01 0. -1.
</event>
<event>
 5   0  0.2133385E-06  0.3124995E+04  0.7818609E-02  0.8208912E-01
        2   -1    0    0  501    0  0.00000000000E+00  0.00000000000E+00  0.15884205620E+04  0.15884205620E+04  0.25500000920E-02 0. -1.
       -2   -1    0    0    0  501  0.00000000000E+00  0.00000000000E+00 -0.15369971170E+04  0.15369971170E+04  0.25500000920E-02 0.  1.
    10030    2    1    2    0    0  0.00000000000E+00  0.00000000000E+00  0.51423444975E+02  0.31254176790E+04  0.31249946076E+04 0.  0.
        2    1    3    3  502    0  0.11311503033E+04  0.82887334332E+03  0.71491008487E+03  0.15740484292E+04  0.25500000920E-02 0. -1.
       -2    1    3    3    0  502 -0.11311503033E+04 -0.82887334332E+03 -0.66348663990E+03  0.15513692498E+04  0.25500000920E-02 0.  1.
</event>
<event>
 5   0  0.7519202E-07  0.3134750E+04  0.7818609E-02  0.8206265E-01
        1   -1    0    0  501    0  0.00000000000E+00  0.00000000000E+00  0.21920706277E+04  0.21920706277E+04  0.50400001928E-02 0. -1.
       -1   -1    0    0    0  501  0.00000000000E+00  0.00000000000E+00 -0.11207047573E+04  0.11207047573E+04  0.50400001928E-02 0.  1.
    10030    2    1    2    0    0  0.00000000000E+00  0.00000000000E+00  0.10713658705E+04  0.33127753850E+04  0.31347497385E+04 0.  0.
        4    1    3    3  502    0 -0.64887311083E+03  0.13570386620E+04  0.10012376132E+04  0.18069500865E+04  0.12699999809E+01 0. -1.
       -4    1    3    3    0  502  0.64887311083E+03 -0.13570386620E+04  0.70128257276E+02  0.15058252985E+04  0.12699999809E+01 0.  1.
</event>
<event>
 5   0  0.7726743E-07  0.3101442E+04  0.7818609E-02  0.8215342E-01
        1   -1    0    0  501    0  0.00000000000E+00  0.00000000000E+00  0.17284791772E+04  0.17284791772E+04  0.50400001928E-02 0.  1.
       -1   -1    0    0    0  501  0.00000000000E+00  0.00000000000E+00 -0.13912432340E+04  0.13912432340E+04  0.50400001928E-02 0. -1.
    10030    2    1    2    0    0  0.00000000000E+00  0.00000000000E+00  0.33723594319E+03  0.31197224112E+04  0.31014415748E+04 0.  0.
        1    1    3    3  502    0  0.13507371116E+04  0.60784375002E+03 -0.29318523424E+03  0.15099411745E+04  0.50400001928E-02 0. -1.
       -1    1    3    3    0  502 -0.13507371116E+04 -0.60784375002E+03  0.63042117743E+03  0.16097812367E+04  0.50400001928E-02 0.  1.
</event>
<event>
 5   0  0.2133385E-06  0.3070152E+04  0.7818609E-02  0.8223977E-01
       -2   -1    0    0    0  501  0.00000000000E+00  0.00000000000E+00  0.90641410966E+03  0.90641410966E+03  0.25500000920E-02 0. -1.
        2   -1    0    0  501    0  0.00000000000E+00  0.00000000000E+00 -0.25997598730E+04  0.25997598730E+04  0.25500000920E-02 0.  1.
    10030    2    1    2    0    0  0.00000000000E+00  0.00000000000E+00 -0.16933457633E+04  0.35061739826E+04  0.30701524591E+04 0.  0.
        2    1    3    3  502    0  0.10632521540E+04 -0.40697630095E+03  0.32928793889E+03  0.11851436197E+04  0.25500000920E-02 0. -1.
       -2    1    3    3    0  502 -0.10632521540E+04  0.40697630095E+03 -0.20226337022E+04  0.23210303630E+04  0.25500000920E-02 0.  1.
</event>
<event>
 5   0  0.2094135E-06  0.3117791E+04  0.7818609E-02  0.8210872E-01
       -2   -1    0    0    0  501  0.00000000000E+00  0.00000000000E+00  0.12403942819E+04  0.12403942819E+04  0.25500000920E-02 0. -1.
        2   -1    0    0  501    0  0.00000000000E+00  0.00000000000E+00 -0.19591797855E+04  0.19591797855E+04  0.25500000920E-02 0.  1.
    10030    2    1    2    0    0  0.00000000000E+00  0.00000000000E+00 -0.71878550364E+03  0.31995740674E+04  0.31177911432E+04 0.  0.
        4    1    3    3  502    0  0.14435804918E+04 -0.27263709030E+03  0.17572368647E+03  0.14795729269E+04  0.12699999809E+01 0. -1.
       -4    1    3    3    0  502 -0.14435804918E+04  0.27263709030E+03 -0.89450919011E+03  0.17200011405E+04  0.12699999809E+01 0.  1.
</event>
<event>
 5   0  0.7656332E-07  0.3110880E+04  0.7818609E-02  0.8212758E-01
       -1   -1    0    0    0  501  0.00000000000E+00  0.00000000000E+00  0.10853379590E+04  0.10853379590E+04  0.50400001928E-02 0. -1.
        1   -1    0    0  501    0  0.00000000000E+00  0.00000000000E+00 -0.22291616418E+04  0.22291616418E+04  0.50400001928E-02 0.  1.
    10030    2    1    2    0    0  0.00000000000E+00  0.00000000000E+00 -0.11438236828E+04  0.33144996007E+04  0.31108800983E+04 0.  0.
        2    1    3    3  502    0  0.36392632547E+03  0.11876844190E+04 -0.15693253652E+04  0.20014541593E+04  0.25500000920E-02 0.  1.
       -2    1    3    3    0  502 -0.36392632547E+03 -0.11876844190E+04  0.42550168245E+03  0.13130454415E+04  0.25500000920E-02 0. -1.
</event>
<event>
 5   0  0.7726743E-07  0.3098963E+04  0.7818609E-02  0.8216022E-01
       -1   -1    0    0    0  501  0.00000000000E+00  0.00000000000E+00  0.14736040688E+04  0.14736040688E+04  0.50400001928E-02 0.  1.
        1   -1    0    0  501    0  0.00000000000E+00  0.00000000000E+00 -0.16292663681E+04  0.16292663681E+04  0.50400001928E-02 0. -1.
    10030    2    1    2    0    0  0.00000000000E+00  0.00000000000E+00 -0.15566229928E+03  0.31028704370E+04  0.30989634069E+04 0.  0.
        1    1    3    3  502    0 -0.12170677938E+04 -0.34306959521E+03 -0.97447275416E+03  0.15964172107E+04  0.50400001928E-02 0. -1.
       -1    1    3    3    0  502  0.12170677938E+04  0.34306959521E+03  0.81881045488E+03  0.15064532263E+04  0.50400001928E-02 0.  1.
</event>
<event>
 5   0  0.7519202E-07  0.3024747E+04  0.7818609E-02  0.8236699E-01
       -1   -1    0    0    0  501  0.00000000000E+00  0.00000000000E+00  0.17657825644E+04  0.17657825644E+04  0.50400001928E-02 0.  1.
        1   -1    0    0  501    0  0.00000000000E+00  0.00000000000E+00 -0.12953312331E+04  0.12953312331E+04  0.50400001928E-02 0. -1.
    10030    2    1    2    0    0  0.00000000000E+00  0.00000000000E+00  0.47045133126E+03  0.30611137975E+04  0.30247468037E+04 0.  0.
        4    1    3    3  502    0 -0.92898040515E+03 -0.11733012342E+04  0.14355665410E+02  0.14966122000E+04  0.12699999809E+01 0.  1.
       -4    1    3    3    0  502  0.92898040515E+03  0.11733012342E+04  0.45609566585E+03  0.15645015975E+04  0.12699999809E+01 0. -1.
</event>
<event>
 5   0  0.2094135E-06  0.3097111E+04  0.7818609E-02  0.8216531E-01
       -2   -1    0    0    0  501  0.00000000000E+00  0.00000000000E+00  0.15276194137E+04  0.15276194137E+04  0.25500000920E-02 0.  1.
        2   -1    0    0  501    0  0.00000000000E+00  0.00000000000E+00 -0.15697782525E+04  0.15697782525E+04  0.25500000920E-02 0. -1.
    10030    2    1    2    0    0  0.00000000000E+00  0.00000000000E+00 -0.42158838794E+02  0.30973976662E+04  0.30971107398E+04 0.  0.
        4    1    3    3  502    0  0.33297328938E+02 -0.81824591588E+03  0.12933433079E+04  0.15308081578E+04  0.12699999809E+01 0.  1.
       -4    1    3    3    0  502 -0.33297328938E+02  0.81824591588E+03 -0.13355021467E+04  0.15665895084E+04  0.12699999809E+01 0. -1.
</event>
<event>
 5   0  0.7561815E-07  0.3094966E+04  0.7818609E-02  0.8217121E-01
       -1   -1    0    0    0  501  0.00000000000E+00  0.00000000000E+00  0.13663672862E+04  0.13663672863E+04  0.50400001928E-02 0.  1.
        1   -1    0    0  501    0  0.00000000000E+00  0.00000000000E+00 -0.17526066230E+04  0.17526066231E+04  0.50400001928E-02 0. -1.
    10030    2    1    2    0    0  0.00000000000E+00  0.00000000000E+00 -0.38623933680E+03  0.31189739093E+04  0.30949664654E+04 0.  0.
        3    1    3    3  502    0  0.55417871044E+03 -0.35157399757E+03 -0.16054132678E+04  0.17343788771E+04  0.10100000352E+00 0. -1.
       -3    1    3    3    0  502 -0.55417871044E+03  0.35157399757E+03  0.12191739310E+04  0.13845950322E+04  0.10100000352E+00 0.  1.
</event>
<event>
 5   0  0.7726743E-07  0.3113374E+04  0.7818609E-02  0.8212077E-01
        1   -1    0    0  501    0  0.00000000000E+00  0.00000000000E+00  0.28664451963E+04  0.28664451963E+04  0.50400001928E-02 0. -1.
       -1   -1    0    0    0  501  0.00000000000E+00  0.00000000000E+00 -0.84539369792E+03  0.84539369794E+03  0.50400001928E-02 0.  1.
    10030    2    1    2    0    0  0.00000000000E+00  0.00000000000E+00  0.20210514983E+04  0.37118388942E+04  0.31133741853E+04 0.  0.
        1    1    3    3  502    0 -0.37667718777E+03  0.24460021910E+03  0.27875231623E+04  0.28234731009E+04  0.50400001928E-02 0. -1.
       -1    1    3    3    0  502  0.37667718777E+03 -0.24460021910E+03 -0.76647166399E+03  0.88836579330E+03  0.50400001928E-02 0.  1.
</event>
<event>
 5   0  0.7726743E-07  0.3094630E+04  0.7818609E-02  0.8217213E-01
       -1   -1    0    0    0  501  0.00000000000E+00  0.00000000000E+00  0.12465440508E+04  0.12465440508E+04  0.50400001928E-02 0. -1.
        1   -1    0    0  501    0  0.00000000000E+00  0.00000000000E+00 -0.19206566419E+04  0.19206566419E+04  0.50400001928E-02 0.  1.
    10030    2    1    2    0    0  0.00000000000E+00  0.00000000000E+00 -0.67411259107E+03  0.31672006927E+04  0.30946296131E+04 0.  0.
        1    1    3    3  502    0 -0.78622768559E+03 -0.55519274430E+02  0.10256891908E+04  0.12935511894E+04  0.50400001928E-02 0. -1.
       -1    1    3    3    0  502  0.78622768559E+03  0.55519274430E+02 -0.16998017819E+04  0.18736495033E+04  0.50400001928E-02 0.  1.
</event>
<event>
 5   0  0.2094135E-06  0.3090411E+04  0.7818609E-02  0.8218374E-01
       -2   -1    0    0    0  501  0.00000000000E+00  0.00000000000E+00  0.99292451873E+03  0.99292451873E+03  0.25500000920E-02 0.  1.
        2   -1    0    0  501    0  0.00000000000E+00  0.00000000000E+00 -0.24046745105E+04  0.24046745105E+04  0.25500000920E-02 0. -1.
    10030    2    1    2    0    0  0.00000000000E+00  0.00000000000E+00 -0.14117499918E+04  0.33975990292E+04  0.30904111578E+04 0.  0.
        4    1    3    3  502    0  0.94865756039E+03 -0.71905683339E+02 -0.20444991035E+04  0.22550165834E+04  0.12699999809E+01 0. -1.
       -4    1    3    3    0  502 -0.94865756039E+03  0.71905683339E+02  0.63274911176E+03  0.11425824458E+04  0.12699999809E+01 0.  1.
</event>
<event>
 5   0  0.2078009E-06  0.3197042E+04  0.7818609E-02  0.8189599E-01
       -2   -1    0    0    0  501  0.00000000000E+00  0.00000000000E+00  0.14173145834E+04  0.14173145834E+04  0.25500000920E-02 0.  1.
        2   -1    0    0  501    0  0.00000000000E+00  0.00000000000E+00 -0.18028945548E+04  0.18028945548E+04  0.25500000920E-02 0. -1.
    10030    2    1    2    0    0  0.00000000000E+00  0.00000000000E+00 -0.38557997138E+03  0.32202091382E+04  0.31970415980E+04 0.  0.
        3    1    3    3  502    0  0.13679730431E+04 -0.71261797693E+03 -0.61546658288E+03  0.16607148318E+04  0.10100000352E+00 0. -1.
       -3    1    3    3    0  502 -0.13679730431E+04  0.71261797693E+03  0.22988661150E+03  0.15594943065E+04  0.10100000352E+00 0.  1.
</event>
<event>
 5   0  0.2226334E-06  0.3091368E+04  0.7818609E-02  0.8218111E-01
        2   -1    0    0  501    0  0.00000000000E+00  0.00000000000E+00  0.27077411514E+04  0.27077411514E+04  0.25500000920E-02 0. -1.
       -2   -1    0    0    0  501  0.00000000000E+00  0.00000000000E+00 -0.88233676531E+03  0.88233676531E+03  0.25500000920E-02 0.  1.
    10030    2    1    2    0    0  0.00000000000E+00  0.00000000000E+00  0.18254043861E+04  0.35900779167E+04  0.30913683500E+04 0.  0.
        5    1    3    3  502    0 -0.45691033365E+03 -0.14756569835E+04  0.97400964237E+03  0.18262112308E+04  0.46999998093E+01 0. -1.
       -5    1    3    3    0  502  0.45691033365E+03  0.14756569835E+04  0.85139474369E+03  0.17638666859E+04  0.46999998093E+01 0.  1.
</event>
<event>
 5   0  0.2078009E-06  0.3105835E+04  0.7818609E-02  0.8214138E-01
       -2   -1    0    0    0  501  0.00000000000E+00  0.00000000000E+00  0.12445649948E+04  0.12445649948E+04  0.25500000920E-02 0.  1.
        2   -1    0    0  501    0  0.00000000000E+00  0.00000000000E+00 -0.19376668175E+04  0.19376668175E+04  0.25500000920E-02 0. -1.
    10030    2    1    2    0    0  0.00000000000E+00  0.00000000000E+00 -0.69310182268E+03  0.31822318123E+04  0.31058346979E+04 0.  0.
        3    1    3    3  502    0  0.17749352938E+03  0.40607800142E+03  0.11783967776E+04  0.12589766765E+04  0.10100000352E+00 0.  1.
       -3    1    3    3    0  502 -0.17749352938E+03 -0.40607800142E+03 -0.18714986003E+04  0.19232551358E+04  0.10100000352E+00 0. -1.
</event>
<event>
 5   0  0.7413481E-07  0.3027474E+04  0.7818609E-02  0.8235929E-01
        1   -1    0    0  501    0  0.00000000000E+00  0.00000000000E+00  0.16460227985E+04  0.16460227985E+04  0.50400001928E-02 0.  1.
       -1   -1    0    0    0  501  0.00000000000E+00  0.00000000000E+00 -0.13920827151E+04  0.13920827151E+04  0.50400001928E-02 0. -1.
    10030    2    1    2    0    0  0.00000000000E+00  0.00000000000E+00  0.25394008337E+03  0.30381055137E+04  0.30274741198E+04 0.  0.
        5    1    3    3  502    0 -0.62697865676E+02  0.11737732319E+04  0.10841029945E+04  0.15990547254E+04  0.46999998093E+01 0.  1.
       -5    1    3    3    0  502  0.62697865676E+02 -0.11737732319E+04 -0.83016291111E+03  0.14390507883E+04  0.46999998093E+01 0. -1.
</event>
<event>
 5   0  0.2226334E-06  0.3078215E+04  0.7818609E-02  0.8221742E-01
       -2   -1    0    0    0  501  0.00000000000E+00  0.00000000000E+00  0.76129768312E+03  0.76129768312E+03  0.25500000920E-02 0. -1.
        2   -1    0    0  501    0  0.00000000000E+00  0.00000000000E+00 -0.31115975972E+04  0.31115975972E+04  0.25500000920E-02 0.  1.
    10030    2    1    2    0    0  0.00000000000E+00  0.00000000000E+00 -0.23502999141E+04  0.38728952804E+04  0.30782150942E+04 0.  0.
        5    1    3    3  502    0 -0.56720626252E+03 -0.77039283483E+03 -0.26920589634E+04  0.28569969577E+04  0.46999998093E+01 0.  1.
       -5    1    3    3    0  502  0.56720626252E+03  0.77039283483E+03  0.34175904924E+03  0.10158983226E+04  0.46999998093E+01 0. -1.
</event>
<event>
 5   0  0.2133385E-06  0.3090266E+04  0.7818609E-02  0.8218415E-01
        2   -1    0    0  501    0  0.00000000000E+00  0.00000000000E+00  0.21185867387E+04  0.21185867387E+04  0.25500000920E-02 0. -1.
       -2   -1    0    0    0  501  0.00000000000E+00  0.00000000000E+00 -0.11268999271E+04  0.11268999271E+04  0.25500000920E-02 0.  1.
    10030    2    1    2    0    0  0.00000000000E+00  0.00000000000E+00  0.99168681166E+03  0.32454866658E+04  0.30902655170E+04 0.  0.
        2    1    3    3  502    0 -0.60498430217E+03 -0.30041306989E+03  0.19553146697E+04  0.20686975313E+04  0.25500000920E-02 0. -1.
       -2    1    3    3    0  502  0.60498430217E+03  0.30041306989E+03 -0.96362785801E+03  0.11767891345E+04  0.25500000920E-02 0.  1.
</event>
<event>
 5   0  0.2226334E-06  0.3104281E+04  0.7818609E-02  0.8214564E-01
        2   -1    0    0  501    0  0.00000000000E+00  0.00000000000E+00  0.18363959019E+04  0.18363959019E+04  0.25500000920E-02 0. -1.
       -2   -1    0    0    0  501  0.00000000000E+00  0.00000000000E+00 -0.13118846407E+04  0.13118846407E+04  0.25500000920E-02 0.  1.
    10030    2    1    2    0    0  0.00000000000E+00  0.00000000000E+00  0.52451126118E+03  0.31482805426E+04  0.31042806432E+04 0.  0.
        5    1    3    3  502    0  0.74258325480E+03  0.27430921341E+03 -0.10917490274E+04  0.13485597739E+04  0.46999998093E+01 0.  1.
       -5    1    3    3    0  502 -0.74258325480E+03 -0.27430921341E+03  0.16162602886E+04  0.17997207687E+04  0.46999998093E+01 0. -1.
</event>
<event>
 5   0  0.7726743E-07  0.3101875E+04  0.7818609E-02  0.8215224E-01
        1   -1    0    0  501    0  0.00000000000E+00  0.00000000000E+00  0.13151802666E+04  0.13151802666E+04  0.50400001928E-02 0.  1.
       -1   -1    0    0    0  501  0.00000000000E+00  0.00000000000E+00 -0.18289557570E+04  0.18289557570E+04  0.50400001928E-02 0. -1.
    10030    2    1    2    0    0  0.00000000000E+00  0.00000000000E+00 -0.51377549038E+03  0.31441360236E+04  0.31018746074E+04 0.  0.
        1    1    3    3  502    0  0.89435823376E+03 -0.76061105300E+03 -0.12841053594E+04  0.17399231012E+04  0.50400001928E-02 0. -1.
       -1    1    3    3    0  502 -0.89435823376E+03  0.76061105300E+03  0.77032986898E+03  0.14042129224E+04  0.50400001928E-02 0.  1.
</event>
<event>
 5   0  0.2133385E-06  0.3120545E+04  0.7818609E-02  0.8210122E-01
       -2   -1    0    0    0  501  0.00000000000E+00  0.00000000000E+00  0.78602059634E+03  0.78602059634E+03  0.25500000920E-02 0.  1.
        2   -1    0    0  501    0  0.00000000000E+00  0.00000000000E+00 -0.30971839740E+04  0.30971839740E+04  0.25500000920E-02 0. -1.
    10030    2    1    2    0    0  0.00000000000E+00  0.00000000000E+00 -0.23111633777E+04  0.38832045704E+04  0.31205450769E+04 0.  0.
        2    1    3    3  502    0 -0.12535131694E+04  0.36415705600E+03 -0.22191936846E+04  0.25746312818E+04  0.25500000920E-02 0. -1.
       -2    1    3    3    0  502  0.12535131694E+04 -0.36415705600E+03 -0.91969693129E+02  0.13085732886E+04  0.25500000920E-02 0.  1.
</event>
<event>
 5   0  0.7413481E-07  0.3097060E+04  0.7818609E-02  0.8216545E-01
       -1   -1    0    0    0  501  0.00000000000E+00  0.00000000000E+00  0.13641439262E+04  0.13641439262E+04  0.50400001928E-02 0. -1.
        1   -1    0    0  501    0  0.00000000000E+00  0.00000000000E+00 -0.17578389446E+04  0.17578389446E+04  0.50400001928E-02 0.  1.
    10030    2    1    2    0    0  0.00000000000E+00  0.00000000000E+00 -0.39369501842E+03  0.31219828708E+04  0.30970601024E+04 0.  0.
        5    1    3    3  502    0  0.61779520145E+03  0.46658269899E+02  0.12337541908E+04  0.13805866139E+04  0.46999998093E+01 0. -1.
       -5    1    3    3    0  502 -0.61779520145E+03 -0.46658269899E+02 -0.16274492092E+04  0.17413962569E+04  0.46999998093E+01 0.  1.
</event>
<event>
 5   0  0.7561815E-07  0.3090837E+04  0.7818609E-02  0.8218257E-01
       -1   -1    0    0    0  501  0.00000000000E+00  0.00000000000E+00  0.13967565373E+04  0.13967565373E+04  0.50400001928E-02 0. -1.
        1   -1    0    0  501    0  0.00000000000E+00  0.00000000000E+00 -0.17099031886E+04  0.17099031886E+04  0.50400001928E-02 0.  1.
    10030    2    1    2    0    0  0.00000000000E+00  0.00000000000E+00 -0.31314665132E+03  0.31066597259E+04  0.30908370755E+04 0.  0.
        3    1    3    3  502    0 -0.10603434832E+04 -0.86116209716E+03 -0.88303882851E+03  0.16265564985E+04  0.10100000352E+00 0.  1.
       -3    1    3    3    0  502  0.10603434832E+04  0.86116209716E+03  0.56989217719E+03  0.14801032274E+04  0.10100000352E+00 0. -1.
</event>
<event>
 5   0  0.2094135E-06  0.3084551E+04  0.7818609E-02  0.8219991E-01
        2   -1    0    0  501    0  0.00000000000E+00  0.00000000000E+00  0.13086389257E+04  0.13086389257E+04  0.25500000920E-02 0.  1.
       -2   -1    0    0    0  501  0.00000000000E+00  0.00000000000E+00 -0.18176236757E+04  0.18176236757E+04  0.25500000920E-02 0. -1.
    10030    2    1    2    0    0  0.00000000000E+00  0.00000000000E+00 -0.50898474997E+03  0.31262626015E+04  0.30845505957E+04 0.  0.
        4    1    3    3  502    0  0.10122217508E+04 -0.10648946544E+04 -0.72989617320E+03  0.16405314792E+04  0.12699999809E+01 0. -1.
       -4    1    3    3    0  502 -0.10122217508E+04  0.10648946544E+04  0.22091142322E+03  0.14857311222E+04  0.12699999809E+01 0.  1.
</event>
<event>
 5   0  0.7413481E-07  0.3086992E+04  0.7818609E-02  0.8219317E-01
        1   -1    0    0  501    0  0.00000000000E+00  0.00000000000E+00  0.26208578199E+04  0.26208578199E+04  0.50400001928E-02 0.  1.
       -1   -1    0    0    0  501  0.00000000000E+00  0.00000000000E+00 -0.90900777688E+03  0.90900777690E+03  0.50400001928E-02 0. -1.
    10030    2    1    2    0    0  0.00000000000E+00  0.00000000000E+00  0.17118500430E+04  0.35298655968E+04  0.30869921545E+04 0.  0.
        5    1    3    3  502    0  0.82899202008E+03  0.46481443883E+03 -0.53472598932E+03  0.10905201537E+04  0.46999998093E+01 0. -1.
       -5    1    3    3    0  502 -0.82899202008E+03 -0.46481443883E+03  0.22465760324E+04  0.24393454432E+04  0.46999998093E+01 0.  1.
</event>
<event>
 5   0  0.7726743E-07  0.3094665E+04  0.7818609E-02  0.8217204E-01
       -1   -1    0    0    0  501  0.00000000000E+00  0.00000000000E+00  0.85007055455E+03  0.85007055456E+03  0.50400001928E-02 0. -1.
        1   -1    0    0  501    0  0.00000000000E+00  0.00000000000E+00 -0.28165157399E+04  0.28165157399E+04  0.50400001928E-02 0.  1.
    10030    2    1    2    0    0  0.00000000000E+00  0.00000000000E+00 -0.19664451854E+04  0.36665862945E+04  0.30946645033E+04 0.  0.
        1    1    3    3  502    0  0.95240462089E+03  0.11824098555E+04 -0.13368230092E+04  0.20229343505E+04  0.50400001928E-02 0.  1.
       -1    1    3    3    0  502 -0.95240462089E+03 -0.11824098555E+04 -0.62962217614E+03  0.16436519440E+04  0.50400001928E-02 0. -1.
</event>
<event>
 5   0  0.7561815E-07  0.3121605E+04  0.7818609E-02  0.8209834E-01
        1   -1    0    0  501    0  0.00000000000E+00  0.00000000000E+00  0.17632882251E+04  0.17632882251E+04  0.50400001928E-02 0. -1.
       -1   -1    0    0    0  501  0.00000000000E+00  0.00000000000E+00 -0.13815689467E+04  0.13815689467E+04  0.50400001928E-02 0.  1.
    10030    2    1    2    0    0  0.00000000000E+00  0.00000000000E+00  0.38171927844E+03  0.31448571718E+04  0.31216048795E+04 0.  0.
        3    1    3    3  502    0 -0.43827167469E+03 -0.17515885304E+03 -0.13079525444E+04  0.13905044240E+04  0.10100000352E+00 0.  1.
       -3    1    3    3    0  502  0.43827167469E+03  0.17515885304E+03  0.16896718228E+04  0.17543527478E+04  0.10100000352E+00 0. -1.
</event>
<event>
 5   0  0.2078009E-06  0.3127654E+04  0.7818609E-02  0.8208189E-01
        2   -1    0    0  501    0  0.00000000000E+00  0.00000000000E+00  0.22245074316E+04  0.22245074316E+04  0.25500000920E-02 0.  1.
       -2   -1    0    0    0  501  0.00000000000E+00  0.00000000000E+00 -0.10993688932E+04  0.10993688932E+04  0.25500000920E-02 0. -1.
    10030    2    1    2    0    0  0.00000000000E+00  0.00000000000E+00  0.11251385383E+04  0.33238763248E+04  0.31276536081E+04 0.  0.
        3    1    3    3  502    0 -0.14645596496E+04 -0.16310649716E+03  0.11188753732E+04  0.18502488502E+04  0.10100000352E+00 0. -1.
       -3    1    3    3    0  502  0.14645596496E+04  0.16310649716E+03  0.62631650956E+01  0.14736274746E+04  0.10100000352E+00 0.  1.
</event>
<event>
 5   0  0.7519202E-07  0.3094400E+04  0.7818609E-02  0.8217276E-01
       -1   -1    0    0    0  501  0.00000000000E+00  0.00000000000E+00  0.10722339875E+04  0.10722339875E+04  0.50400001928E-02 0. -1.
        1   -1    0    0  501    0  0.00000000000E+00  0.00000000000E+00 -0.22325614800E+04  0.22325614800E+04  0.50400001928E-02 0.  1.
    10030    2    1    2    0    0  0.00000000000E+00  0.00000000000E+00 -0.11603274926E+04  0.33047954675E+04  0.30944002960E+04 0.  0.
        4    1    3    3  502    0  0.45130238278E+03 -0.14776061241E+04 -0.66844599117E+03  0.16833939987E+04  0.12699999809E+01 0.  1.
       -4    1    3    3    0  502 -0.45130238278E+03  0.14776061241E+04 -0.49188150139E+03  0.16214014688E+04  0.12699999809E+01 0. -1.
</event>
<event>
 5   0  0.6979625E-07  0.3115459E+04  0.7818609E-02  0.8211508E-01
       -3   -1    0    0    0  501  0.00000000000E+00  0.00000000000E+00  0.15993358887E+04  0.15993358919E+04  0.10100000352E+00 0.  1.
        3   -1    0    0  501    0  0.00000000000E+00  0.00000000000E+00 -0.15172054226E+04  0.15172054260E+04  0.10100000352E+00 0. -1.
    10030    2    1    2    0    0  0.00000000000E+00  0.00000000000E+00  0.82130466142E+02  0.31165413179E+04  0.31154589345E+04 0.  0.
        2    1    3    3  502    0 -0.41502497672E+03  0.40273791154E+03 -0.14058388627E+04  0.15201402779E+04  0.25500000920E-02 0. -1.
       -2    1    3    3    0  502  0.41502497672E+03 -0.40273791154E+03  0.14879693289E+04  0.15964010399E+04  0.25500000920E-02 0.  1.
</event>
<event>
 5   0  0.2226334E-06  0.3097881E+04  0.7818609E-02  0.8216320E-01
       -2   -1    0    0    0  501  0.00000000000E+00  0.00000000000E+00  0.13100387737E+04  0.13100387737E+04  0.25500000920E-02 0. -1.
        2   -1    0    0  501    0  0.00000000000E+00  0.00000000000E+00 -0.18314083387E+04  0.18314083387E+04  0.25500000920E-02 0.  1.
    10030    2    1    2    0    0  0.00000000000E+00  0.00000000000E+00 -0.52136956491E+03  0.31414471124E+04  0.30978805233E+04 0.  0.
        5    1    3    3  502    0  0.49644551528E+03 -0.16921158413E+03 -0.17386114592E+04  0.18160073254E+04  0.46999998093E+01 0.  1.
       -5    1    3    3    0  502 -0.49644551528E+03  0.16921158413E+03  0.12172418943E+04  0.13254397870E+04  0.46999998093E+01 0. -1.
</event>
<event>
 5   0  0.7413481E-07  0.3031912E+04  0.7818609E-02  0.8234676E-01
       -1   -1    0    0    0  501  0.00000000000E+00  0.00000000000E+00  0.98434969086E+03  0.98434969087E+03  0.50400001928E-02 0. -1.
        1   -1    0    0  501    0  0.00000000000E+00  0.00000000000E+00 -0.23346611835E+04  0.23346611835E+04  0.50400001928E-02 0.  1.
    10030    2    1    2    0    0  0.00000000000E+00  0.00000000000E+00 -0.13503114926E+04  0.33190108744E+04  0.30319122773E+04 0.  0.
        5    1    3    3  502    0 -0.14303183352E+04  0.47037587721E+03 -0.86801094069E+03  0.17379669413E+04  0.46999998093E+01 0.  1.
       -5    1    3    3    0  502  0.14303183352E+04 -0.47037587721E+03 -0.48230055195E+03  0.15810439331E+04  0.46999998093E+01 0. -1.
</event>
<event>
 5   0  0.2094135E-06  0.3130392E+04  0.7818609E-02  0.8207446E-01
       -2   -1    0    0    0  501  0.00000000000E+00  0.00000000000E+00  0.11100062843E+04  0.11100062843E+04  0.25500000920E-02 0. -1.
        2   -1    0    0  501    0  0.00000000000E+00  0.00000000000E+00 -0.22070489118E+04  0.22070489118E+04  0.25500000920E-02 0.  1.
    10030    2    1    2    0    0  0.00000000000E+00  0.00000000000E+00 -0.10970426275E+04  0.33170551960E+04  0.31303917721E+04 0.  0.
        4    1    3    3  502    0  0.32752278972E+03 -0.89953193416E+02 -0.21675274933E+04  0.21939780769E+04  0.12699999809E+01 0.  1.
       -4    1    3    3    0  502 -0.32752278972E+03  0.89953193416E+02  0.10704848658E+04  0.11230771192E+04  0.12699999809E+01 0. -1.
</event>
<event>
 5   0  0.7519202E-07  0.3054371E+04  0.7818609E-02  0.8228373E-01
        1   -1    0    0  501    0  0.00000000000E+00  0.00000000000E+00  0.20880626575E+04  0.20880626575E+04  0.50400001928E-02 0. -1.
       -1   -1    0    0    0  501  0.00000000000E+00  0.00000000000E+00 -0.11169665592E+04  0.11169665592E+04  0.50400001928E-02 0.  1.
    10030    2    1    2    0    0  0.00000000000E+00  0.00000000000E+00  0.97109609835E+03  0.32050292167E+04  0.30543713997E+04 0.  0.
        4    1    3    3  502    0 -0.14383894557E+04 -0.46702045562E+03  0.70869249009E+03  0.16701254416E+04  0.12699999809E+01 0.  1.
       -4    1    3    3    0  502  0.14383894557E+04  0.46702045562E+03  0.26240360826E+03  0.15349037751E+04  0.12699999809E+01 0. -1.
</event>
<event>
 5   0  0.7656332E-07  0.2984720E+04  0.7818609E-02  0.8248108E-01
        1   -1    0    0  501    0  0.00000000000E+00  0.00000000000E+00  0.12915260799E+04  0.12915260799E+04  0.50400001928E-02 0.  1.
       -1   -1    0    0    0  501  0.00000000000E+00  0.00000000000E+00 -0.17244236604E+04  0.17244236604E+04  0.50400001928E-02 0. -1.
    10030    2    1    2    0    0  0.00000000000E+00  0.00000000000E+00 -0.43289758053E+03  0.30159497403E+04  0.29847198396E+04 0.  0.
        2    1    3    3  502    0 -0.88442631243E+03  0.10663907217E+04  0.34409795698E+03  0.14275161916E+04  0.25500000920E-02 0.  1.
       -2    1    3    3    0  502  0.88442631243E+03 -0.10663907217E+04 -0.77699553750E+03  0.15884335487E+04  0.25500000920E-02 0. -1.
</event>
<event>
 5   0  0.7561815E-07  0.3084423E+04  0.7818609E-02  0.8220026E-01
       -1   -1    0    0    0  501  0.00000000000E+00  0.00000000000E+00  0.99332593104E+03  0.99332593105E+03  0.50400001928E-02 0. -1.
        1   -1    0    0  501    0  0.00000000000E+00  0.00000000000E+00 -0.23943968589E+04  0.23943968589E+04  0.50400001928E-02 0.  1.
    10030    2    1    2    0    0  0.00000000000E+00  0.00000000000E+00 -0.14010709278E+04  0.33877227899E+04  0.30844231157E+04 0.  0.
        3    1    3    3  502    0 -0.30194688377E+03  0.17751180836E+03  0.94906158310E+03  0.10116324735E+04  0.10100000352E+00 0. -1.
       -3    1    3    3    0  502  0.30194688377E+03 -0.17751180836E+03 -0.23501325109E+04  0.23760903164E+04  0.10100000352E+00 0.  1.
</event>
<event>
 5   0  0.2078009E-06  0.3128107E+04  0.7818609E-02  0.8208066E-01
       -2   -1    0    0    0  501  0.00000000000E+00  0.00000000000E+00  0.14966858265E+04  0.14966858265E+04  0.25500000920E-02 0. -1.
        2   -1    0    0  501    0  0.00000000000E+00  0.00000000000E+00 -0.16344539836E+04  0.16344539836E+04  0.25500000920E-02 0.  1.
    10030    2    1    2    0    0  0.00000000000E+00  0.00000000000E+00 -0.13776815711E+03  0.31311398102E+04  0.31281074863E+04 0.  0.
        3    1    3    3  502    0  0.11500911217E+04  0.64298489328E+03 -0.91239007659E+03  0.16026836317E+04  0.10100000352E+00 0.  1.
       -3    1    3    3    0  502 -0.11500911217E+04 -0.64298489328E+03  0.77462191948E+03  0.15284561785E+04  0.10100000352E+00 0. -1.
</event>
<event>
 5   0  0.7656332E-07  0.3077427E+04  0.7818609E-02  0.8221960E-01
       -1   -1    0    0    0  501  0.00000000000E+00  0.00000000000E+00  0.95759900108E+03  0.95759900110E+03  0.50400001928E-02 0. -1.
        1   -1    0    0  501    0  0.00000000000E+00  0.00000000000E+00 -0.24724748395E+04  0.24724748395E+04  0.50400001928E-02 0.  1.
    10030    2    1    2    0    0  0.00000000000E+00  0.00000000000E+00 -0.15148758384E+04  0.34300738406E+04  0.30774271309E+04 0.  0.
        2    1    3    3  502    0  0.35561338756E+02  0.11034212046E+04  0.43722338988E+03  0.11874204210E+04  0.25500000920E-02 0. -1.
       -2    1    3    3    0  502 -0.35561338756E+02 -0.11034212046E+04 -0.19520992283E+04  0.22426534197E+04  0.25500000920E-02 0.  1.
</event>
<event>
 5   0  0.7656332E-07  0.3114938E+04  0.7818609E-02  0.8211650E-01
        1   -1    0    0  501    0  0.00000000000E+00  0.00000000000E+00  0.20118092410E+04  0.20118092410E+04  0.50400001928E-02 0. -1.
       -1   -1    0    0    0  501  0.00000000000E+00  0.00000000000E+00 -0.12057351372E+04  0.12057351372E+04  0.50400001928E-02 0.  1.
    10030    2    1    2    0    0  0.00000000000E+00  0.00000000000E+00  0.80607410379E+03  0.32175443782E+04  0.31149376181E+04 0.  0.
        2    1    3    3  502    0 -0.14952744749E+04  0.36660543763E+03  0.15977186644E+03  0.15478282693E+04  0.25500000920E-02 0.  1.
       -2    1    3    3    0  502  0.14952744749E+04 -0.36660543763E+03  0.64630223735E+03  0.16697161088E+04  0.25500000920E-02 0. -1.
</event>
<event>
 5   0  0.2226334E-06  0.3101018E+04  0.7818609E-02  0.8215458E-01
       -2   -1    0    0    0  501  0.00000000000E+00  0.00000000000E+00  0.12084230688E+04  0.12084230688E+04  0.25500000920E-02 0. -1.
        2   -1    0    0  501    0  0.00000000000E+00  0.00000000000E+00 -0.19894346601E+04  0.19894346601E+04  0.25500000920E-02 0.  1.
    10030    2    1    2    0    0  0.00000000000E+00  0.00000000000E+00 -0.78101159136E+03  0.31978577289E+04  0.31010183728E+04 0.  0.
        5    1    3    3  502    0  0.13109262435E+04  0.15080072347E+03  0.44903571420E+03  0.13938879570E+04  0.46999998093E+01 0. -1.
       -5    1    3    3    0  502 -0.13109262435E+04 -0.15080072347E+03 -0.12300473056E+04  0.18039697719E+04  0.46999998093E+01 0.  1.
</event>
<event>
 5   0  0.2094135E-06  0.3094439E+04  0.7818609E-02  0.8217266E-01
        2   -1    0    0  501    0  0.00000000000E+00  0.00000000000E+00  0.29517506202E+04  0.29517506202E+04  0.25500000920E-02 0.  1.
       -2   -1    0    0    0  501  0.00000000000E+00  0.00000000000E+00 -0.81100641858E+03  0.81100641858E+03  0.25500000920E-02 0. -1.
    10030    2    1    2    0    0  0.00000000000E+00  0.00000000000E+00  0.21407442016E+04  0.37627570387E+04  0.30944393347E+04 0.  0.
        4    1    3    3  502    0  0.11649603236E+04 -0.93615988157E+03  0.58343691990E+03  0.16043466371E+04  0.12699999809E+01 0.  1.
       -4    1    3    3    0  502 -0.11649603236E+04  0.93615988157E+03  0.15573072817E+04  0.21584104017E+04  0.12699999809E+01 0. -1.
</event>
<event>
 5   0  0.7656332E-07  0.3079268E+04  0.7818609E-02  0.8221451E-01
        1   -1    0    0  501    0  0.00000000000E+00  0.00000000000E+00  0.26974171997E+04  0.26974171997E+04  0.50400001928E-02 0.  1.
       -1   -1    0    0    0  501  0.00000000000E+00  0.00000000000E+00 -0.87879335309E+03  0.87879335310E+03  0.50400001928E-02 0. -1.
    10030    2    1    2    0    0  0.00000000000E+00  0.00000000000E+00  0.18186238466E+04  0.35762105528E+04  0.30792676439E+04 0.  0.
        2    1    3    3  502    0 -0.86590694638E+03 -0.86803948435E+03  0.19908243159E+04  0.23380908543E+04  0.25500000920E-02 0.  1.
       -2    1    3    3    0  502  0.86590694638E+03  0.86803948435E+03 -0.17220046929E+03  0.12381196985E+04  0.25500000920E-02 0. -1.
</event>
<event>
 5   0  0.7561815E-07  0.3097053E+04  0.7818609E-02  0.8216547E-01
       -1   -1    0    0    0  501  0.00000000000E+00  0.00000000000E+00  0.80903253417E+03  0.80903253419E+03  0.50400001928E-02 0.  1.
        1   -1    0    0  501    0  0.00000000000E+00  0.00000000000E+00 -0.29639531058E+04  0.29639531058E+04  0.50400001928E-02 0. -1.
    10030    2    1    2    0    0  0.00000000000E+00  0.00000000000E+00 -0.21549205716E+04  0.37729856400E+04  0.30970531106E+04 0.  0.
        3    1    3    3  502    0 -0.87550513164E+03 -0.95322820088E+03 -0.41746072328E+02  0.12949501856E+04  0.10100000352E+00 0.  1.
       -3    1    3    3    0  502  0.87550513164E+03  0.95322820088E+03 -0.21131744993E+04  0.24780354544E+04  0.10100000352E+00 0. -1.
</event>
<event>
 5   0  0.7561815E-07  0.3096005E+04  0.7818609E-02  0.8216835E-01
       -1   -1    0    0    0  501  0.00000000000E+00  0.00000000000E+00  0.16634863995E+04  0.16634863995E+04  0.50400001928E-02 0.  1.
        1   -1    0    0  501    0  0.00000000000E+00  0.00000000000E+00 -0.14405353709E+04  0.14405353709E+04  0.50400001928E-02 0. -1.
    10030    2    1    2    0    0  0.00000000000E+00  0.00000000000E+00  0.22295102860E+03  0.31040217704E+04  0.30960045203E+04 0.  0.
        3    1    3    3  502    0  0.13602605284E+04  0.60154178361E+03  0.54171350497E+03  0.15829133755E+04  0.10100000352E+00 0.  1.
       -3    1    3    3    0  502 -0.13602605284E+04 -0.60154178361E+03 -0.31876247637E+03  0.15211083949E+04  0.10100000352E+00 0. -1.
</event>
<event>
 5   0  0.2133385E-06  0.3096138E+04  0.7818609E-02  0.8216799E-01
        2   -1    0    0  501    0  0.00000000000E+00  0.00000000000E+00  0.14787562646E+04  0.14787562646E+04  0.25500000920E-02 0.  1.
       -2   -1    0    0    0  501  0.00000000000E+00  0.00000000000E+00 -0.16206305259E+04  0.16206305259E+04  0.25500000920E-02 0. -1.
    10030    2    1    2    0    0  0.00000000000E+00  0.00000000000E+00 -0.14187426132E+03  0.30993867906E+04  0.30961379445E+04 0.  0.
        2    1    3    3  502    0 -0.11845834896E+04 -0.80452791112E+03  0.51790994725E+03  0.15227389524E+04  0.25500000920E-02 0.  1.
       -2    1    3    3    0  502  0.11845834896E+04  0.80452791112E+03 -0.65978420857E+03  0.15766478382E+04  0.25500000920E-02 0. -1.
</event>
<event>
 5   0  0.7726743E-07  0.3106454E+04  0.7818609E-02  0.8213969E-01
        1   -1    0    0  501    0  0.00000000000E+00  0.00000000000E+00  0.11594148596E+04  0.11594148596E+04  0.50400001928E-02 0.  1.
       -1   -1    0    0    0  501  0.00000000000E+00  0.00000000000E+00 -0.20808027549E+04  0.20808027549E+04  0.50400001928E-02 0. -1.
    10030    2    1    2    0    0  0.00000000000E+00  0.00000000000E+00 -0.92138789529E+03  0.32402176146E+04  0.31064536913E+04 0.  0.
        1    1    3    3  502    0 -0.11167857421E+04 -0.10683859104E+04 -0.62179451247E+03  0.16659193447E+04  0.50400001928E-02 0. -1.
       -1    1    3    3    0  502  0.11167857421E+04  0.10683859104E+04 -0.29959338281E+03  0.15742982698E+04  0.50400001928E-02 0.  1.
</event>
<event>
 5   0  0.2226334E-06  0.3103526E+04  0.7818609E-02  0.8214771E-01
        2   -1    0    0  501    0  0.00000000000E+00  0.00000000000E+00  0.17866817779E+04  0.17866817779E+04  0.25500000920E-02 0.  1.
       -2   -1    0    0    0  501  0.00000000000E+00  0.00000000000E+00 -0.13477319979E+04  0.13477319979E+04  0.25500000920E-02 0. -1.
    10030    2    1    2    0    0  0.00000000000E+00  0.00000000000E+00  0.43894978000E+03  0.31344137758E+04  0.31035258673E+04 0.  0.
        5    1    3    3  502    0 -0.52738073677E+03 -0.12208842484E+04  0.10269679783E+04  0.16802898881E+04  0.46999998093E+01 0.  1.
       -5    1    3    3    0  502  0.52738073677E+03  0.12208842484E+04 -0.58801819835E+03  0.14541238878E+04  0.46999998093E+01 0. -1.
</event>
<event>
 5   0  0.7561815E-07  0.3098033E+04  0.7818609E-02  0.8216278E-01
       -1   -1    0    0    0  501  0.00000000000E+00  0.00000000000E+00  0.15834388582E+04  0.15834388582E+04  0.50400001928E-02 0.  1.
        1   -1    0    0  501    0  0.00000000000E+00  0.00000000000E+00 -0.15153428810E+04  0.15153428810E+04  0.50400001928E-02 0. -1.
    10030    2    1    2    0    0  0.00000000000E+00  0.00000000000E+00  0.68095977247E+02  0.30987817392E+04  0.30980334416E+04 0.  0.
        3    1    3    3  502    0  0.61059780543E+03  0.84022440297E+03  0.11835192224E+04  0.15746505922E+04  0.10100000352E+00 0.  1.
       -3    1    3    3    0  502 -0.61059780543E+03 -0.84022440297E+03 -0.11154232452E+04  0.15241311471E+04  0.10100000352E+00 0. -1.
</event>
<event>
 5   0  0.2133385E-06  0.3090992E+04  0.7818609E-02  0.8218214E-01
        2   -1    0    0  501    0  0.00000000000E+00  0.00000000000E+00  0.22749049264E+04  0.22749049264E+04  0.25500000920E-02 0.  1.
       -2   -1    0    0    0  501  0.00000000000E+00  0.00000000000E+00 -0.10499597145E+04  0.10499597145E+04  0.25500000920E-02 0. -1.
    10030    2    1    2    0    0  0.00000000000E+00  0.00000000000E+00  0.12249452119E+04  0.33248646409E+04  0.30909924148E+04 0.  0.
        2    1    3    3  502    0 -0.87117480551E+02 -0.80086954352E+03 -0.80625122640E+03  0.11397466917E+04  0.25500000920E-02 0. -1.
       -2    1    3    3    0  502  0.87117480551E+02  0.80086954352E+03  0.20311964383E+04  0.21851179492E+04  0.25500000920E-02 0.  1.
</event>
<event>
 5   0  0.6979625E-07  0.3102892E+04  0.7818609E-02  0.8214945E-01
        3   -1    0    0  501    0  0.00000000000E+00  0.00000000000E+00  0.94931518519E+03  0.94931519057E+03  0.10100000352E+00 0. -1.
       -3   -1    0    0    0  501  0.00000000000E+00  0.00000000000E+00 -0.25354960226E+04  0.25354960246E+04  0.10100000352E+00 0.  1.
    10030    2    1    2    0    0  0.00000000000E+00  0.00000000000E+00 -0.15861808374E+04  0.34848112152E+04  0.31028921278E+04 0.  0.
        5    1    3    3  502    0  0.59998343692E+03 -0.13314009201E+04 -0.20483161443E+03  0.14746479630E+04  0.46999998093E+01 0. -1.
       -5    1    3    3    0  502 -0.59998343692E+03  0.13314009201E+04 -0.13813492230E+04  0.20101632522E+04  0.46999998093E+01 0.  1.
</event>
<event>
 5   0  0.2078009E-06  0.3111975E+04  0.7818609E-02  0.8212459E-01
       -2   -1    0    0    0  501  0.00000000000E+00  0.00000000000E+00  0.14457114112E+04  0.14457114112E+04  0.25500000920E-02 0.  1.
        2   -1    0    0  501    0  0.00000000000E+00  0.00000000000E+00 -0.16746751280E+04  0.16746751280E+04  0.25500000920E-02 0. -1.
    10030    2    1    2    0    0  0.00000000000E+00  0.00000000000E+00 -0.22896371686E+03  0.31203865392E+04  0.31119748987E+04 0.  0.
        3    1    3    3  502    0 -0.33997716771E+03 -0.14967529915E+04  0.14163553458E+03  0.15414002164E+04  0.10100000352E+00 0.  1.
       -3    1    3    3    0  502  0.33997716771E+03  0.14967529915E+04 -0.37059925144E+03  0.15789863228E+04  0.10100000352E+00 0. -1.
</event>
<event>
 5   0  0.7726743E-07  0.3099595E+04  0.7818609E-02  0.8215849E-01
       -1   -1    0    0    0  501  0.00000000000E+00  0.00000000000E+00  0.13179463759E+04  0.13179463759E+04  0.50400001928E-02 0. -1.
        1   -1    0    0  501    0  0.00000000000E+00  0.00000000000E+00 -0.18224352814E+04  0.18224352814E+04  0.50400001928E-02 0.  1.
    10030    2    1    2    0    0  0.00000000000E+00  0.00000000000E+00 -0.50448890555E+03  0.31403816573E+04  0.30995947957E+04 0.  0.
        1    1    3    3  502    0 -0.10843427028E+04  0.30800005842E+02 -0.13736625874E+04  0.17503418641E+04  0.50400001928E-02 0.  1.
       -1    1    3    3    0  502  0.10843427028E+04 -0.30800005842E+02  0.86917368181E+03  0.13900397932E+04  0.50400001928E-02 0. -1.
</event>
<event>
 5   0  0.7519202E-07  0.3097047E+04  0.7818609E-02  0.8216549E-01
        1   -1    0    0  501    0  0.00000000000E+00  0.00000000000E+00  0.17763477787E+04  0.17763477787E+04  0.50400001928E-02 0. -1.
       -1   -1    0    0    0  501  0.00000000000E+00  0.00000000000E+00 -0.13499185689E+04  0.13499185689E+04  0.50400001928E-02 0.  1.
    10030    2    1    2    0    0  0.00000000000E+00  0.00000000000E+00  0.42642920978E+03  0.31262663476E+04  0.30970468846E+04 0.  0.
        4    1    3    3  502    0 -0.11897434643E+03  0.20933697598E+03 -0.13309057501E+04  0.13525119568E+04  0.12699999809E+01 0.  1.
       -4    1    3    3    0  502  0.11897434643E+03 -0.20933697598E+03  0.17573349599E+04  0.17737543908E+04  0.12699999809E+01 0. -1.
</event>
<event>
 5   0  0.2078009E-06  0.3075069E+04  0.7818609E-02  0.8222614E-01
       -2   -1    0    0    0  501  0.00000000000E+00  0.00000000000E+00  0.12958146137E+04  0.12958146137E+04  0.25500000920E-02 0.  1.
        2   -1    0    0  501    0  0.00000000000E+00  0.00000000000E+00 -0.18243442449E+04  0.18243442449E+04  0.25500000920E-02 0. -1.
    10030    2    1    2    0    0  0.00000000000E+00  0.00000000000E+00 -0.52852963119E+03  0.31201588586E+04  0.30750687361E+04 0.  0.
        3    1    3    3  502    0 -0.51807693608E+03  0.10431834545E+04  0.75413376199E+03  0.13875709613E+04  0.10100000352E+00 0.  1.
       -3    1    3    3    0  502  0.51807693608E+03 -0.10431834545E+04 -0.12826633932E+04  0.17325878973E+04  0.10100000352E+00 0. -1.
</event>
<event>
 5   0  0.7413481E-07  0.3076365E+04  0.7818609E-02  0.8222255E-01
        1   -1    0    0  501    0  0.00000000000E+00  0.00000000000E+00  0.10156567008E+04  0.10156567008E+04  0.50400001928E-02 0.  1.
       -1   -1    0    0    0  501  0.00000000000E+00  0.00000000000E+00 -0.23295320564E+04  0.23295320564E+04  0.50400001928E-02 0. -1.
    10030    2    1    2    0    0  0.00000000000E+00  0.00000000000E+00 -0.13138753556E+04  0.33451887572E+04  0.30763646356E+04 0.  0.
        5    1    3    3  502    0  0.11138038453E+04 -0.77383164569E+03  0.13215257896E+03  0.13626668029E+04  0.46999998093E+01 0.  1.
       -5    1    3    3    0  502 -0.11138038453E+04  0.77383164569E+03 -0.14460279346E+04  0.19825219543E+04  0.46999998093E+01 0. -1.
</event>
<event>
 5   0  0.2067926E-06  0.3127158E+04  0.7818609E-02  0.8208324E-01
       -2   -1    0    0    0  501  0.00000000000E+00  0.00000000000E+00  0.10027609080E+04  0.10027609081E+04  0.25500000920E-02 0.  1.
        2   -1    0    0  501    0  0.00000000000E+00  0.00000000000E+00 -0.24380486888E+04  0.24380486888E+04  0.25500000920E-02 0. -1.
    10030    2    1    2    0    0  0.00000000000E+00  0.00000000000E+00 -0.14352877808E+04  0.34408095969E+04  0.31271584015E+04 0.  0.
        1    1    3    3  502    0 -0.90960325255E+02  0.12796847330E+04  0.26582479767E+03  0.13101639667E+04  0.50400001928E-02 0.  1.
       -1    1    3    3    0  502  0.90960325255E+02 -0.12796847330E+04 -0.17011125784E+04  0.21306456301E+04  0.50400001928E-02 0. -1.
</event>
<event>
 5   0  0.7726743E-07  0.3098571E+04  0.7818609E-02  0.8216130E-01
        1   -1    0    0  501    0  0.00000000000E+00  0.00000000000E+00  0.87759154417E+03  0.87759154418E+03  0.50400001928E-02 0.  1.
       -1   -1    0    0    0  501  0.00000000000E+00  0.00000000000E+00 -0.27350829918E+04  0.27350829918E+04  0.50400001928E-02 0. -1.
    10030    2    1    2    0    0  0.00000000000E+00  0.00000000000E+00 -0.18574914476E+04  0.36126745360E+04  0.30985710941E+04 0.  0.
        1    1    3    3  502    0  0.11926184401E+04 -0.60836928170E+03 -0.19754293764E+02  0.13389705593E+04  0.50400001928E-02 0.  1.
       -1    1    3    3    0  502 -0.11926184401E+04  0.60836928170E+03 -0.18377371539E+04  0.22737039766E+04  0.50400001928E-02 0. -1.
</event>
<event>
 5   0  0.2133385E-06  0.2939924E+04  0.7818609E-02  0.8261097E-01
        2   -1    0    0  501    0  0.00000000000E+00  0.00000000000E+00  0.21292346110E+04  0.21292346110E+04  0.25500000920E-02 0. -1.
       -2   -1    0    0    0  501  0.00000000000E+00  0.00000000000E+00 -0.10148193656E+04  0.10148193656E+04  0.25500000920E-02 0.  1.
    10030    2    1    2    0    0  0.00000000000E+00  0.00000000000E+00  0.11144152454E+04  0.31440539766E+04  0.29399241604E+04 0.  0.
        2    1    3    3  502    0  0.60412287596E+02 -0.14594296004E+04  0.73359648568E+03  0.16345483189E+04  0.25500000920E-02 0.  1.
       -2    1    3    3    0  502 -0.60412287596E+02  0.14594296004E+04  0.38081875975E+03  0.15095056577E+04  0.25500000920E-02 0. -1.
</event>
<event>
 5   0  0.7561815E-07  0.3101148E+04  0.7818609E-02  0.8215423E-01
       -1   -1    0    0    0  501  0.00000000000E+00  0.00000000000E+00  0.12266803214E+04  0.12266803214E+04  0.50400001928E-02 0. -1.
        1   -1    0    0  501    0  0.00000000000E+00  0.00000000000E+00 -0.19599889411E+04  0.19599889411E+04  0.50400001928E-02 0.  1.
    10030    2    1    2    0    0  0.00000000000E+00  0.00000000000E+00 -0.73330861974E+03  0.31866692625E+04  0.31011480869E+04 0.  0.
        3    1    3    3  502    0 -0.13467900966E+04 -0.43651734368E+03 -0.10164609723E+04  0.17428665680E+04  0.10100000352E+00 0. -1.
       -3    1    3    3    0  502  0.13467900966E+04  0.43651734368E+03  0.28315235251E+03  0.14438026945E+04  0.10100000352E+00 0.  1.
</event>
<event>
 5   0  0.2094135E-06  0.3143307E+04  0.7818609E-02  0.8203952E-01
        2   -1    0    0  501    0  0.00000000000E+00  0.00000000000E+00  0.23588756724E+04  0.23588756724E+04  0.25500000920E-02 0. -1.
       -2   -1    0    0    0  501  0.00000000000E+00  0.00000000000E+00 -0.10471491771E+04  0.10471491771E+04  0.25500000920E-02 0.  1.
    10030    2    1    2    0    0  0.00000000000E+00  0.00000000000E+00  0.13117264953E+04  0.34060248496E+04  0.31433069970E+04 0.  0.
        4    1    3    3  502    0  0.14676183128E+04  0.26918680132E+03  0.12091252442E+03  0.14969924842E+04  0.12699999809E+01 0.  1.
       -4    1    3    3    0  502 -0.14676183128E+04 -0.26918680132E+03  0.11908139709E+04  0.19090323654E+04  0.12699999809E+01 0. -1.
</event>
<event>
 5   0  0.2067926E-06  0.3017356E+04  0.7818609E-02  0.8238792E-01
       -2   -1    0    0    0  501  0.00000000000E+00  0.00000000000E+00  0.89273500531E+03  0.89273500532E+03  0.25500000920E-02 0.  1.
        2   -1    0    0  501    0  0.00000000000E+00  0.00000000000E+00 -0.25495905768E+04  0.25495905768E+04  0.25500000920E-02 0. -1.
    10030    2    1    2    0    0  0.00000000000E+00  0.00000000000E+00 -0.16568555715E+04  0.34423255822E+04  0.30173556351E+04 0.  0.
        1    1    3    3  502    0  0.55071504433E+03 -0.11615236486E+04  0.72537220418E+02  0.12875115124E+04  0.50400001928E-02 0.  1.
       -1    1    3    3    0  502 -0.55071504433E+03  0.11615236486E+04 -0.17293927919E+04  0.21548140697E+04  0.50400001928E-02 0. -1.
</event>
<event>
 5   0  0.7561815E-07  0.3116844E+04  0.7818609E-02  0.8211131E-01
        1   -1    0    0  501    0  0.00000000000E+00  0.00000000000E+00  0.16721545466E+04  0.16721545466E+04  0.50400001928E-02 0.  1.
       -1   -1    0    0    0  501  0.00000000000E+00  0.00000000000E+00 -0.14524246260E+04  0.14524246260E+04  0.50400001928E-02 0. -1.
    10030    2    1    2    0    0  0.00000000000E+00  0.00000000000E+00  0.21972992056E+03  0.31245791726E+04  0.31168435585E+04 0.  0.
        3    1    3    3  502    0 -0.93004922203E+02 -0.57465041586E+03 -0.13393388064E+04  0.14603771652E+04  0.10100000352E+00 0. -1.
       -3    1    3    3    0  502  0.93004922203E+02  0.57465041586E+03  0.15590687270E+04  0.16642020075E+04  0.10100000352E+00 0.  1.
</event>
<event>
 5   0  0.7413481E-07  0.3095512E+04  0.7818609E-02  0.8216971E-01
        1   -1    0    0  501    0  0.00000000000E+00  0.00000000000E+00  0.17096616922E+04  0.17096616922E+04  0.50400001928E-02 0.  1.
       -1   -1    0    0    0  501  0.00000000000E+00  0.00000000000E+00 -0.14011832397E+04  0.14011832397E+04  0.50400001928E-02 0. -1.
    10030    2    1    2    0    0  0.00000000000E+00  0.00000000000E+00  0.30847845253E+03  0.31108449320E+04  0.30955124350E+04 0.  0.
        5    1    3    3  502    0 -0.15405077617E+03 -0.12119312855E+04 -0.80074026854E+03  0.14607245292E+04  0.46999998093E+01 0. -1.
       -5    1    3    3    0  502  0.15405077617E+03  0.12119312855E+04  0.11092187211E+04  0.16501204028E+04  0.46999998093E+01 0.  1.
</event>
<event>
 5   0  0.7561815E-07  0.3102672E+04  0.7818609E-02  0.8215005E-01
        1   -1    0    0  501    0  0.00000000000E+00  0.00000000000E+00  0.21542212581E+04  0.21542212581E+04  0.50400001928E-02 0.  1.
       -1   -1    0    0    0  501  0.00000000000E+00  0.00000000000E+00 -0.11171755247E+04  0.11171755247E+04  0.50400001928E-02 0. -1.
    10030    2    1    2    0    0  0.00000000000E+00  0.00000000000E+00  0.10370457334E+04  0.32713967829E+04  0.31026719224E+04 0.  0.
        3    1    3    3  502    0 -0.26425429783E+03  0.53957270966E+03 -0.98952665016E+03  0.11576407234E+04  0.10100000352E+00 0. -1.
       -3    1    3    3    0  502  0.26425429783E+03 -0.53957270966E+03  0.20265723836E+04  0.21137560595E+04  0.10100000352E+00 0.  1.
</event>
<event>
 5   0  0.7413481E-07  0.3054345E+04  0.7818609E-02  0.8228380E-01
        1   -1    0    0  501    0  0.00000000000E+00  0.00000000000E+00  0.26947028227E+04  0.26947028227E+04  0.50400001928E-02 0.  1.
       -1   -1    0    0    0  501  0.00000000000E+00  0.00000000000E+00 -0.86549650960E+03  0.86549650962E+03  0.50400001928E-02 0. -1.
    10030    2    1    2    0    0  0.00000000000E+00  0.00000000000E+00  0.18292063131E+04  0.35601993323E+04  0.30543450280E+04 0.  0.
        5    1    3    3  502    0  0.15166961570E+04  0.16487175032E+03  0.99437666067E+03  0.18210867525E+04  0.46999998093E+01 0. -1.
       -5    1    3    3    0  502 -0.15166961570E+04 -0.16487175032E+03  0.83482965242E+03  0.17391125798E+04  0.46999998093E+01 0.  1.
</event>
<event>
 5   0  0.2133385E-06  0.3107983E+04  0.7818609E-02  0.8213550E-01
        2   -1    0    0  501    0  0.00000000000E+00  0.00000000000E+00  0.15722630363E+04  0.15722630363E+04  0.25500000920E-02 0. -1.
       -2   -1    0    0    0  501  0.00000000000E+00  0.00000000000E+00 -0.15359322742E+04  0.15359322742E+04  0.25500000920E-02 0.  1.
    10030    2    1    2    0    0  0.00000000000E+00  0.00000000000E+00  0.36330762102E+02  0.31081953106E+04  0.31079829736E+04 0.  0.
        2    1    3    3  502    0 -0.29406650338E+03 -0.13052876556E+04 -0.77222940767E+03  0.15448589678E+04  0.25500000920E-02 0. -1.
       -2    1    3    3    0  502  0.29406650338E+03  0.13052876556E+04  0.80856016977E+03  0.15633363427E+04  0.25500000920E-02 0.  1.
</event>
<event>
 5   0  0.7561815E-07  0.3096400E+04  0.7818609E-02  0.8216727E-01
        1   -1    0    0  501    0  0.00000000000E+00  0.00000000000E+00  0.10279232734E+04  0.10279232734E+04  0.50400001928E-02 0.  1.
       -1   -1    0    0    0  501  0.00000000000E+00  0.00000000000E+00 -0.23318110810E+04  0.23318110810E+04  0.50400001928E-02 0. -1.
    10030    2    1    2    0    0  0.00000000000E+00  0.00000000000E+00 -0.13038878076E+04  0.33597343545E+04  0.30963997671E+04 0.  0.
        3    1    3    3  502    0  0.45088353105E+03  0.13383667909E+03  0.94853105123E+03  0.10587348018E+04  0.10100000352E+00 0.  1.
       -3    1    3    3    0  502 -0.45088353105E+03 -0.13383667909E+03 -0.22524188589E+04  0.23009995526E+04  0.10100000352E+00 0. -1.
</event>
<event>
 5   0  0.2067926E-06  0.3101368E+04  0.7818609E-02  0.8215363E-01
        2   -1    0    0  501    0  0.00000000000E+00  0.00000000000E+00  0.10260144967E+04  0.10260144967E+04  0.25500000920E-02 0.  1.
       -2   -1    0    0    0  501  0.00000000000E+00  0.00000000000E+00 -0.23436519523E+04  0.23436519524E+04  0.25500000920E-02 0. -1.
    10030    2    1    2    0    0  0.00000000000E+00  0.00000000000E+00 -0.13176374556E+04  0.33696664491E+04  0.31013680068E+04 0.  0.
        1    1    3    3  502    0  0.14889563229E+04 -0.37662573188E+02 -0.18996558206E+03  0.15014980264E+04  0.50400001928E-02 0.  1.
       -1    1    3    3    0  502 -0.14889563229E+04  0.37662573188E+02 -0.11276718736E+04  0.18681684227E+04  0.50400001928E-02 0. -1.
</event>
<event>
 5   0  0.2094135E-06  0.3057805E+04  0.7818609E-02  0.8227414E-01
        2   -1    0    0  501    0  0.00000000000E+00  0.00000000000E+00  0.78182896599E+03  0.78182896599E+03  0.25500000920E-02 0.  1.
       -2   -1    0    0    0  501  0.00000000000E+00  0.00000000000E+00 -0.29898386921E+04  0.29898386921E+04  0.25500000920E-02 0. -1.
    10030    2    1    2    0    0  0.00000000000E+00  0.00000000000E+00 -0.22080097261E+04  0.37716676581E+04  0.30578047636E+04 0.  0.
        4    1    3    3  502    0  0.81773881741E+03 -0.10345218741E+04 -0.14968241350E+03  0.13271543691E+04  0.12699999809E+01 0.  1.
       -4    1    3    3    0  502 -0.81773881741E+03  0.10345218741E+04 -0.20583273126E+04  0.24445132890E+04  0.12699999809E+01 0. -1.
</event>
<event>
 5   0  0.7413481E-07  0.3108903E+04  0.7818609E-02  0.8213299E-01
       -1   -1    0    0    0  501  0.00000000000E+00  0.00000000000E+00  0.21252993434E+04  0.21252993435E+04  0.50400001928E-02 0.  1.
        1   -1    0    0  501    0  0.00000000000E+00  0.00000000000E+00 -0.11369315087E+04  0.11369315087E+04  0.50400001928E-02 0. -1.
    10030    2    1    2    0    0  0.00000000000E+00  0.00000000000E+00  0.98836783475E+03  0.32622308522E+04  0.31089032079E+04 0.  0.
        5    1    3    3  502    0  0.66830482788E+03 -0.26850573974E+03 -0.95127751940E+03  0.11931796529E+04  0.46999998093E+01 0. -1.
       -5    1    3    3    0  502 -0.66830482788E+03  0.26850573974E+03  0.19396453541E+04  0.20690511992E+04  0.46999998093E+01 0.  1.
</event>
<event>
 5   0  0.2078009E-06  0.3131248E+04  0.7818609E-02  0.8207214E-01
        2   -1    0    0  501    0  0.00000000000E+00  0.00000000000E+00  0.12143406829E+04  0.12143406829E+04  0.25500000920E-02 0.  1.
       -2   -1    0    0    0  501  0.00000000000E+00  0.00000000000E+00 -0.20185257009E+04  0.20185257009E+04  0.25500000920E-02 0. -1.
    10030    2    1    2    0    0  0.00000000000E+00  0.00000000000E+00 -0.80418501804E+03  0.32328663838E+04  0.31312475968E+04 0.  0.
        3    1    3    3  502    0  0.12460034744E+03 -0.60860376641E+03  0.10816450468E+04  0.12473491125E+04  0.10100000352E+00 0.  1.
       -3    1    3    3    0  502 -0.12460034744E+03  0.60860376641E+03 -0.18858300648E+04  0.19855172713E+04  0.10100000352E+00 0. -1.
</event>
<event>
 5   0  0.2067926E-06  0.3103151E+04  0.7818609E-02  0.8214874E-01
       -2   -1    0    0    0  501  0.00000000000E+00  0.00000000000E+00  0.12610795924E+04  0.12610795924E+04  0.25500000920E-02 0.  1.
        2   -1    0    0  501    0  0.00000000000E+00  0.00000000000E+00 -0.19089879894E+04  0.19089879894E+04  0.25500000920E-02 0. -1.
    10030    2    1    2    0    0  0.00000000000E+00  0.00000000000E+00 -0.64790839701E+03  0.31700675819E+04  0.31031505253E+04 0.  0.
        1    1    3    3  502    0  0.21467065878E+03 -0.13357893494E+03  0.12398931413E+04  0.12654097460E+04  0.50400001928E-02 0.  1.
       -1    1    3    3    0  502 -0.21467065878E+03  0.13357893494E+03 -0.18878015383E+04  0.19046578358E+04  0.50400001928E-02 0. -1.
</event>
<event>
 5   0  0.7656332E-07  0.3082485E+04  0.7818609E-02  0.8220561E-01
       -1   -1    0    0    0  501  0.00000000000E+00  0.00000000000E+00  0.14792155310E+04  0.14792155311E+04  0.50400001928E-02 0.  1.
        1   -1    0    0  501    0  0.00000000000E+00  0.00000000000E+00 -0.16058703779E+04  0.16058703780E+04  0.50400001928E-02 0. -1.
    10030    2    1    2    0    0  0.00000000000E+00  0.00000000000E+00 -0.12665484690E+03  0.30850859090E+04  0.30824849741E+04 0.  0.
        2    1    3    3  502    0 -0.26363427113E+03 -0.99292242766E+03  0.10865677867E+04  0.14953352572E+04  0.25500000920E-02 0.  1.
       -2    1    3    3    0  502  0.26363427113E+03  0.99292242766E+03 -0.12132226336E+04  0.15897506518E+04  0.25500000920E-02 0. -1.
</event>
<event>
 5   0  0.7413481E-07  0.3116862E+04  0.7818609E-02  0.8211126E-01
       -1   -1    0    0    0  501  0.00000000000E+00  0.00000000000E+00  0.12981422066E+04  0.12981422066E+04  0.50400001928E-02 0.  1.
        1   -1    0    0  501    0  0.00000000000E+00  0.00000000000E+00 -0.18709097133E+04  0.18709097133E+04  0.50400001928E-02 0. -1.
    10030    2    1    2    0    0  0.00000000000E+00  0.00000000000E+00 -0.57276750670E+03  0.31690519200E+04  0.31168617959E+04 0.  0.
        5    1    3    3  502    0  0.73606490550E+03 -0.13719456067E+04 -0.21698782803E+03  0.15719834924E+04  0.46999998093E+01 0.  1.
       -5    1    3    3    0  502 -0.73606490550E+03  0.13719456067E+04 -0.35577967867E+03  0.15970684276E+04  0.46999998093E+01 0. -1.
</event>
<event>
 5   0  0.7726743E-07  0.3101529E+04  0.7818609E-02  0.8215319E-01
        1   -1    0    0  501    0  0.00000000000E+00  0.00000000000E+00  0.99487024944E+03  0.99487024946E+03  0.50400001928E-02 0. -1.
       -1   -1    0    0    0  501  0.00000000000E+00  0.00000000000E+00 -0.24172699185E+04  0.24172699185E+04  0.50400001928E-02 0.  1.
    10030    2    1    2    0    0  0.00000000000E+00  0.00000000000E+00 -0.14223996690E+04  0.34121401679E+04  0.31015286081E+04 0.  0.
        1    1    3    3  502    0 -0.11963036801E+04 -0.15937197003E+02 -0.17966580869E+04  0.21585589569E+04  0.50400001928E-02 0.  1.
       -1    1    3    3    0  502  0.11963036801E+04  0.15937197003E+02  0.37425841788E+03  0.12535812110E+04  0.50400001928E-02 0. -1.
</event>
<event>
 5   0  0.2226334E-06  0.2734321E+04  0.7818609E-02  0.8323954E-01
       -2   -1    0    0    0  501  0.00000000000E+00  0.00000000000E+00  0.10860304752E+04  0.10860304752E+04  0.25500000920E-02 0.  1.
        2   -1    0    0  501    0  0.00000000000E+00  0.00000000000E+00 -0.17210638079E+04  0.17210638079E+04  0.25500000920E-02 0. -1.
    10030    2    1    2    0    0  0.00000000000E+00  0.00000000000E+00 -0.63503333271E+03  0.28070942831E+04  0.27343209359E+04 0.  0.
        5    1    3    3  502    0 -0.38491642921E+03 -0.19379941635E+03 -0.16495020788E+04  0.17048747958E+04  0.46999998093E+01 0. -1.
       -5    1    3    3    0  502  0.38491642921E+03  0.19379941635E+03  0.10144687461E+04  0.11022194873E+04  0.46999998093E+01 0.  1.
</event>
<event>
 5   0  0.2078009E-06  0.3028153E+04  0.7818609E-02  0.8235737E-01
       -2   -1    0    0    0  501  0.00000000000E+00  0.00000000000E+00  0.83765590398E+03  0.83765590399E+03  0.25500000920E-02 0. -1.
        2   -1    0    0  501    0  0.00000000000E+00  0.00000000000E+00 -0.27367174212E+04  0.27367174212E+04  0.25500000920E-02 0.  1.
    10030    2    1    2    0    0  0.00000000000E+00  0.00000000000E+00 -0.18990615173E+04  0.35743733252E+04  0.30281529059E+04 0.  0.
        3    1    3    3  502    0 -0.34363152701E+03  0.11444047005E+04 -0.20471469555E+04  0.23703492174E+04  0.10100000352E+00 0.  1.
       -3    1    3    3    0  502  0.34363152701E+03 -0.11444047005E+04  0.14808543821E+03  0.12040241078E+04  0.10100000352E+00 0. -1.
</event>
<event>
 5   0  0.2094135E-06  0.3034200E+04  0.7818609E-02  0.8234032E-01
        2   -1    0    0  501    0  0.00000000000E+00  0.00000000000E+00  0.23428419099E+04  0.23428419099E+04  0.25500000920E-02 0. -1.
       -2   -1    0    0    0  501  0.00000000000E+00  0.00000000000E+00 -0.98239352789E+03  0.98239352789E+03  0.25500000920E-02 0.  1.
    10030    2    1    2    0    0  0.00000000000E+00  0.00000000000E+00  0.13604483820E+04  0.33252354378E+04  0.30342002104E+04 0.  0.
        4    1    3    3  502    0 -0.11840578192E+04 -0.50798310385E+03 -0.19757238440E+03  0.13034861768E+04  0.12699999809E+01 0.  1.
       -4    1    3    3    0  502  0.11840578192E+04  0.50798310385E+03  0.15580207664E+04  0.20217492610E+04  0.12699999809E+01 0. -1.
</event>
<event>
 5   0  0.2078009E-06  0.3069001E+04  0.7818609E-02  0.8224297E-01
        2   -1    0    0  501    0  0.00000000000E+00  0.00000000000E+00  0.24909156893E+04  0.24909156893E+04  0.25500000920E-02 0. -1.
       -2   -1    0    0    0  501  0.00000000000E+00  0.00000000000E+00 -0.94531173580E+03  0.94531173580E+03  0.25500000920E-02 0.  1.
    10030    2    1    2    0    0  0.00000000000E+00  0.00000000000E+00  0.15456039535E+04  0.34362274251E+04  0.30690010323E+04 0.  0.
        3    1    3    3  502    0  0.42176200768E+03 -0.14080949091E+04  0.12660578928E+04  0.19399786242E+04  0.10100000352E+00 0.  1.
       -3    1    3    3    0  502 -0.42176200768E+03  0.14080949091E+04  0.27954606070E+03  0.14962488010E+04  0.10100000352E+00 0. -1.
</event>
<event>
 5   0  0.7413481E-07  0.3109809E+04  0.7818609E-02  0.8213051E-01
        1   -1    0    0  501    0  0.00000000000E+00  0.00000000000E+00  0.14441295523E+04  0.14441295523E+04  0.50400001928E-02 0. -1.
       -1   -1    0    0    0  501  0.00000000000E+00  0.00000000000E+00 -0.16741762465E+04  0.16741762465E+04  0.50400001928E-02 0.  1.
    10030    2    1    2    0    0  0.00000000000E+00  0.00000000000E+00 -0.23004669421E+03  0.31183057988E+04  0.31098086072E+04 0.  0.
        5    1    3    3  502    0  0.83107714830E+03 -0.10717011954E+04 -0.87767540561E+03  0.16154160103E+04  0.46999998093E+01 0.  1.
       -5    1    3    3    0  502 -0.83107714830E+03  0.10717011954E+04  0.64762871140E+03  0.15028897885E+04  0.46999998093E+01 0. -1.
</event>
<event>
 5   0  0.7519202E-07  0.3100676E+04  0.7818609E-02  0.8215552E-01
        1   -1    0    0  501    0  0.00000000000E+00  0.00000000000E+00  0.26219917477E+04  0.26219917477E+04  0.50400001928E-02 0. -1.
       -1   -1    0    0    0  501  0.00000000000E+00  0.00000000000E+00 -0.91668797771E+03  0.91668797773E+03  0.50400001928E-02 0.  1.
    10030    2    1    2    0    0  0.00000000000E+00  0.00000000000E+00  0.17053037700E+04  0.35386797254E+04  0.31006762571E+04 0.  0.
        4    1    3    3  502    0  0.86846693488E+03  0.34518175078E+03 -0.55908402248E+03  0.10890187396E+04  0.12699999809E+01 0.  1.
       -4    1    3    3    0  502 -0.86846693488E+03 -0.34518175078E+03  0.22643877925E+04  0.24496609859E+04  0.12699999809E+01 0. -1.
</event>
<event>
 5   0  0.7413481E-07  0.3119972E+04  0.7818609E-02  0.8210278E-01
       -1   -1    0    0    0  501  0.00000000000E+00  0.00000000000E+00  0.15856663824E+04  0.15856663824E+04  0.50400001928E-02 0.  1.
        1   -1    0    0  501    0  0.00000000000E+00  0.00000000000E+00 -0.15347215251E+04  0.15347215251E+04  0.50400001928E-02 0. -1.
    10030    2    1    2    0    0  0.00000000000E+00  0.00000000000E+00  0.50944857336E+02  0.31203879075E+04  0.31199720054E+04 0.  0.
        5    1    3    3  502    0  0.16680895397E+03 -0.71300020394E+03 -0.13521507408E+04  0.15377022579E+04  0.46999998093E+01 0. -1.
       -5    1    3    3    0  502 -0.16680895397E+03  0.71300020394E+03  0.14030955982E+04  0.15826856496E+04  0.46999998093E+01 0.  1.
</event>
<event>
 5   0  0.7519202E-07  0.3090851E+04  0.7818609E-02  0.8218253E-01
        1   -1    0    0  501    0  0.00000000000E+00  0.00000000000E+00  0.20074527510E+04  0.20074527510E+04  0.50400001928E-02 0.  1.
       -1   -1    0    0    0  501  0.00000000000E+00  0.00000000000E+00 -0.11897366081E+04  0.11897366081E+04  0.50400001928E-02 0. -1.
    10030    2    1    2    0    0  0.00000000000E+00  0.00000000000E+00  0.81771614292E+03  0.31971893592E+04  0.30908510330E+04 0.  0.
        4    1    3    3  502    0 -0.15339844306E+04  0.13193171160E+03  0.54695860606E+03  0.16339154016E+04  0.12699999809E+01 0.  1.
       -4    1    3    3    0  502  0.15339844306E+04 -0.13193171160E+03  0.27075753685E+03  0.15632739576E+04  0.12699999809E+01 0. -1.
</event>
<event>
 5   0  0.2078009E-06  0.3087904E+04  0.7818609E-02  0.8219066E-01
        2   -1    0    0  501    0  0.00000000000E+00  0.00000000000E+00  0.29901561245E+04  0.29901561245E+04  0.25500000920E-02 0. -1.
       -2   -1    0    0    0  501  0.00000000000E+00  0.00000000000E+00 -0.79721160748E+03  0.79721160748E+03  0.25500000920E-02 0.  1.
    10030    2    1    2    0    0  0.00000000000E+00  0.00000000000E+00  0.21929445170E+04  0.37873677319E+04  0.30879036064E+04 0.  0.
        3    1    3    3  502    0  0.10932281835E+04  0.76017689798E+03  0.20550177408E+04  0.24486965314E+04  0.10100000352E+00 0. -1.
       -3    1    3    3    0  502 -0.10932281835E+04 -0.76017689798E+03  0.13792677614E+03  0.13386712006E+04  0.10100000352E+00 0.  1.
</event>
<event>
 5   0  0.7561815E-07  0.3119454E+04  0.7818609E-02  0.8210419E-01
       -1   -1    0    0    0  501  0.00000000000E+00  0.00000000000E+00  0.11061363409E+04  0.11061363409E+04  0.50400001928E-02 0. -1.
        1   -1    0    0  501    0  0.00000000000E+00  0.00000000000E+00 -0.21993203559E+04  0.21993203559E+04  0.50400001928E-02 0.  1.
    10030    2    1    2    0    0  0.00000000000E+00  0.00000000000E+00 -0.10931840150E+04  0.33054566968E+04  0.31194539079E+04 0.  0.
        3    1    3    3  502    0 -0.53832820851E+03 -0.14478235986E+04 -0.77572076468E+03  0.17285060450E+04  0.10100000352E+00 0.  1.
       -3    1    3    3    0  502  0.53832820851E+03  0.14478235986E+04 -0.31746325030E+03  0.15769506518E+04  0.10100000352E+00 0. -1.
</event>
<event>
 5   0  0.2226334E-06  0.3105240E+04  0.7818609E-02  0.8214301E-01
       -2   -1    0    0    0  501  0.00000000000E+00  0.00000000000E+00  0.11717527511E+04  0.11717527511E+04  0.25500000920E-02 0. -1.
        2   -1    0    0  501    0  0.00000000000E+00  0.00000000000E+00 -0.20572852408E+04  0.20572852408E+04  0.25500000920E-02 0.  1.
    10030    2    1    2    0    0  0.00000000000E+00  0.00000000000E+00 -0.88553248971E+03  0.32290379919E+04  0.31052405000E+04 0.  0.
        5    1    3    3  502    0  0.12503803591E+03  0.95408261564E+03 -0.17098262423E+04  0.19619979655E+04  0.46999998093E+01 0.  1.
       -5    1    3    3    0  502 -0.12503803591E+03 -0.95408261564E+03  0.82429375258E+03  0.12670400264E+04  0.46999998093E+01 0. -1.
</event>
<event>
 5   0  0.2078009E-06  0.3104517E+04  0.7818609E-02  0.8214499E-01
        2   -1    0    0  501    0  0.00000000000E+00  0.00000000000E+00  0.15743576090E+04  0.15743576090E+04  0.25500000920E-02 0.  1.
       -2   -1    0    0    0  501  0.00000000000E+00  0.00000000000E+00 -0.15304694665E+04  0.15304694665E+04  0.25500000920E-02 0. -1.
    10030    2    1    2    0    0  0.00000000000E+00  0.00000000000E+00  0.43888142459E+02  0.31048270755E+04  0.31045168705E+04 0.  0.
        3    1    3    3  502    0 -0.10707141043E+04 -0.38556580722E+03  0.10777088519E+04  0.15673372530E+04  0.10100000352E+00 0.  1.
       -3    1    3    3    0  502  0.10707141043E+04  0.38556580722E+03 -0.10338207094E+04  0.15374898225E+04  0.10100000352E+00 0. -1.
</event>
<event>
 5   0  0.7561815E-07  0.3092391E+04  0.7818609E-02  0.8217829E-01
       -1   -1    0    0    0  501  0.00000000000E+00  0.00000000000E+00  0.12044519116E+04  0.12044519116E+04  0.50400001928E-02 0.  1.
        1   -1    0    0  501    0  0.00000000000E+00  0.00000000000E+00 -0.19849030906E+04  0.19849030907E+04  0.50400001928E-02 0. -1.
    10030    2    1    2    0    0  0.00000000000E+00  0.00000000000E+00 -0.78045117910E+03  0.31893550022E+04  0.30923908691E+04 0.  0.
        3    1    3    3  502    0 -0.14258076768E+04 -0.28084183886E+03  0.15446366573E+03  0.14613893061E+04  0.10100000352E+00 0.  1.
       -3    1    3    3    0  502  0.14258076768E+04  0.28084183886E+03 -0.93491484483E+03  0.17279656961E+04  0.10100000352E+00 0. -1.
</event>
<event>
 5   0  0.2094135E-06  0.3173675E+04  0.7818609E-02  0.8195804E-01
       -2   -1    0    0    0  501  0.00000000000E+00  0.00000000000E+00  0.16192363993E+04  0.16192363993E+04  0.25500000920E-02 0. -1.
        2   -1    0    0  501    0  0.00000000000E+00  0.00000000000E+00 -0.15550868403E+04  0.15550868403E+04  0.25500000920E-02 0.  1.
    10030    2    1    2    0    0  0.00000000000E+00  0.00000000000E+00  0.64149559040E+02  0.31743232396E+04  0.31736749777E+04 0.  0.
        4    1    3    3  502    0  0.10535746818E+04  0.36718794450E+03  0.11606691243E+04  0.16099692623E+04  0.12699999809E+01 0. -1.
       -4    1    3    3    0  502 -0.10535746818E+04 -0.36718794450E+03 -0.10965195652E+04  0.15643539773E+04  0.12699999809E+01 0.  1.
</event>
<event>
 5   0  0.2226334E-06  0.3023474E+04  0.7818609E-02  0.8237059E-01
       -2   -1    0    0    0  501  0.00000000000E+00  0.00000000000E+00  0.84287117168E+03  0.84287117169E+03  0.25500000920E-02 0.  1.
        2   -1    0    0  501    0  0.00000000000E+00  0.00000000000E+00 -0.27113860746E+04  0.27113860746E+04  0.25500000920E-02 0. -1.
    10030    2    1    2    0    0  0.00000000000E+00  0.00000000000E+00 -0.18685149029E+04  0.35542572463E+04  0.30234742649E+04 0.  0.
        5    1    3    3  502    0  0.54705400350E+03 -0.75733747078E+03 -0.23313868991E+04  0.25116160317E+04  0.46999998093E+01 0. -1.
       -5    1    3    3    0  502 -0.54705400350E+03  0.75733747078E+03  0.46287199622E+03  0.10426412145E+04  0.46999998093E+01 0.  1.
</event>
<event>
 5   0  0.7656332E-07  0.3116779E+04  0.7818609E-02  0.8211148E-01
       -1   -1    0    0    0  501  0.00000000000E+00  0.00000000000E+00  0.96276858991E+03  0.96276858992E+03  0.50400001928E-02 0.  1.
        1   -1    0    0  501    0  0.00000000000E+00  0.00000000000E+00 -0.25224930527E+04  0.25224930527E+04  0.50400001928E-02 0. -1.
    10030    2    1    2    0    0  0.00000000000E+00  0.00000000000E+00 -0.15597244628E+04  0.34852616427E+04  0.31167785160E+04 0.  0.
        2    1    3    3  502    0  0.36658972054E+03 -0.12554545037E+04 -0.17274045968E+04  0.21666750276E+04  0.25500000920E-02 0. -1.
       -2    1    3    3    0  502 -0.36658972054E+03  0.12554545037E+04  0.16768013394E+03  0.13185866151E+04  0.25500000920E-02 0.  1.
</event>
<event>
 5   0  0.7519202E-07  0.3071725E+04  0.7818609E-02  0.8223541E-01
       -1   -1    0    0    0  501  0.00000000000E+00  0.00000000000E+00  0.11742012406E+04  0.11742012406E+04  0.50400001928E-02 0.  1.
        1   -1    0    0  501    0  0.00000000000E+00  0.00000000000E+00 -0.20089173296E+04  0.20089173296E+04  0.50400001928E-02 0. -1.
    10030    2    1    2    0    0  0.00000000000E+00  0.00000000000E+00 -0.83471608903E+03  0.31831185702E+04  0.30717247407E+04 0.  0.
        4    1    3    3  502    0 -0.13985252930E+04 -0.13897675640E+02 -0.10750434412E+04  0.17640255536E+04  0.12699999809E+01 0. -1.
       -4    1    3    3    0  502  0.13985252930E+04  0.13897675640E+02  0.24032735212E+03  0.14190930166E+04  0.12699999809E+01 0.  1.
</event>
<event>
 5   0  0.7561815E-07  0.3096609E+04  0.7818609E-02  0.8216669E-01
       -1   -1    0    0    0  501  0.00000000000E+00  0.00000000000E+00  0.13740415621E+04  0.13740415621E+04  0.50400001928E-02 0.  1.
        1   -1    0    0  501    0  0.00000000000E+00  0.00000000000E+00 -0.17446684033E+04  0.17446684033E+04  0.50400001928E-02 0. -1.
    10030    2    1    2    0    0  0.00000000000E+00  0.00000000000E+00 -0.37062684119E+03  0.31187099654E+04  0.30966090475E+04 0.  0.
        3    1    3    3  502    0 -0.12467913946E+04 -0.72073829423E+02  0.73640331549E+03  0.14498183582E+04  0.10100000352E+00 0.  1.
       -3    1    3    3    0  502  0.12467913946E+04  0.72073829423E+02 -0.11070301567E+04  0.16688916072E+04  0.10100000352E+00 0. -1.
</event>
<event>
 5   0  0.7413481E-07  0.3166883E+04  0.7818609E-02  0.8197618E-01
        1   -1    0    0  501    0  0.00000000000E+00  0.00000000000E+00  0.15798036256E+04  0.15798036256E+04  0.50400001928E-02 0. -1.
       -1   -1    0    0    0  501  0.00000000000E+00  0.00000000000E+00 -0.15870876851E+04  0.15870876851E+04  0.50400001928E-02 0.  1.
    10030    2    1    2    0    0  0.00000000000E+00  0.00000000000E+00 -0.72840594827E+01  0.31668913107E+04  0.31668829337E+04 0.  0.
        5    1    3    3  502    0 -0.71840795062E+03  0.11906077880E+04 -0.76101309811E+03  0.15851876589E+04  0.46999998093E+01 0.  1.
       -5    1    3    3    0  502  0.71840795062E+03 -0.11906077880E+04  0.75372903863E+03  0.15817036518E+04  0.46999998093E+01 0. -1.
</event>
<event>
 5   0  0.2067926E-06  0.3084319E+04  0.7818609E-02  0.8220055E-01
        2   -1    0    0  501    0  0.00000000000E+00  0.00000000000E+00  0.16620592385E+04  0.16620592385E+04  0.25500000920E-02 0.  1.
       -2   -1    0    0    0  501  0.00000000000E+00  0.00000000000E+00 -0.14309090642E+04  0.14309090642E+04  0.25500000920E-02 0. -1.
    10030    2    1    2    0    0  0.00000000000E+00  0.00000000000E+00  0.23115017423E+03  0.30929683027E+04  0.30843188095E+04 0.  0.
        1    1    3    3  502    0  0.45603461493E+03 -0.14136094406E+04 -0.30031244107E+03  0.15154031750E+04  0.50400001928E-02 0. -1.
       -1    1    3    3    0  502 -0.45603461493E+03  0.14136094406E+04  0.53146261530E+03  0.15775651277E+04  0.50400001928E-02 0.  1.
</event>
<event>
 5   0  0.7726743E-07  0.3142177E+04  0.7818609E-02  0.8204257E-01
        1   -1    0    0  501    0  0.00000000000E+00  0.00000000000E+00  0.13284559179E+04  0.13284559179E+04  0.50400001928E-02 0.  1.
       -1   -1    0    0    0  501  0.00000000000E+00  0.00000000000E+00 -0.18580359927E+04  0.18580359927E+04  0.50400001928E-02 0. -1.
    10030    2    1    2    0    0  0.00000000000E+00  0.00000000000E+00 -0.52958007484E+03  0.31864919106E+04  0.31421768952E+04 0.  0.
        1    1    3    3  502    0  0.97600908742E+03 -0.43041366708E+03  0.90493721866E+03  0.13988427479E+04  0.50400001928E-02 0.  1.
       -1    1    3    3    0  502 -0.97600908742E+03  0.43041366708E+03 -0.14345172935E+04  0.17876491627E+04  0.50400001928E-02 0. -1.
</event>
<event>
 5   0  0.2067926E-06  0.3109871E+04  0.7818609E-02  0.8213034E-01
        2   -1    0    0  501    0  0.00000000000E+00  0.00000000000E+00  0.30995049356E+04  0.30995049356E+04  0.25500000920E-02 0. -1.
       -2   -1    0    0    0  501  0.00000000000E+00  0.00000000000E+00 -0.78006813653E+03  0.78006813653E+03  0.25500000920E-02 0.  1.
    10030    2    1    2    0    0  0.00000000000E+00  0.00000000000E+00  0.23194367990E+04  0.38795730721E+04  0.31098714052E+04 0.  0.
        1    1    3    3  502    0 -0.15023276195E+04 -0.30675226472E+03  0.14819988718E+04  0.21324647440E+04  0.50400001928E-02 0. -1.
       -1    1    3    3    0  502  0.15023276195E+04  0.30675226472E+03  0.83743792720E+03  0.17471083281E+04  0.50400001928E-02 0.  1.
</event>
<event>
 5   0  0.7561815E-07  0.3099289E+04  0.7818609E-02  0.8215933E-01
        1   -1    0    0  501    0  0.00000000000E+00  0.00000000000E+00  0.22256325427E+04  0.22256325427E+04  0.50400001928E-02 0. -1.
       -1   -1    0    0    0  501  0.00000000000E+00  0.00000000000E+00 -0.10789730685E+04  0.10789730685E+04  0.50400001928E-02 0.  1.
    10030    2    1    2    0    0  0.00000000000E+00  0.00000000000E+00  0.11466594742E+04  0.33046056112E+04  0.30992886758E+04 0.  0.
        3    1    3    3  502    0  0.58040564419E+03 -0.49720931817E+03  0.20107113477E+04  0.21510574032E+04  0.10100000352E+00 0. -1.
       -3    1    3    3    0  502 -0.58040564419E+03  0.49720931817E+03 -0.86405187353E+03  0.11535482080E+04  0.10100000352E+00 0.  1.
</event>
<event>
 5   0  0.7656332E-07  0.3084311E+04  0.7818609E-02  0.8220057E-01
        1   -1    0    0  501    0  0.00000000000E+00  0.00000000000E+00  0.22356339357E+04  0.22356339357E+04  0.50400001928E-02 0. -1.
       -1   -1    0    0    0  501  0.00000000000E+00  0.00000000000E+00 -0.10637896977E+04  0.10637896978E+04  0.50400001928E-02 0.  1.
    10030    2    1    2    0    0  0.00000000000E+00  0.00000000000E+00  0.11718442380E+04  0.32994236335E+04  0.30843114945E+04 0.  0.
        2    1    3    3  502    0 -0.14355474130E+04  0.43774116279E+03  0.96538829005E+03  0.17844854304E+04  0.25500000920E-02 0. -1.
       -2    1    3    3    0  502  0.14355474130E+04 -0.43774116279E+03  0.20645594790E+03  0.15149382031E+04  0.25500000920E-02 0.  1.
</event>
<event>
 5   0  0.7413481E-07  0.3087708E+04  0.7818609E-02  0.8219120E-01
        1   -1    0    0  501    0  0.00000000000E+00  0.00000000000E+00  0.21848906002E+04  0.21848906002E+04  0.50400001928E-02 0.  1.
       -1   -1    0    0    0  501  0.00000000000E+00  0.00000000000E+00 -0.10908942409E+04  0.10908942409E+04  0.50400001928E-02 0. -1.
    10030    2    1    2    0    0  0.00000000000E+00  0.00000000000E+00  0.10939963593E+04  0.32757848412E+04  0.30877076111E+04 0.  0.
        5    1    3    3  502    0 -0.11797224062E+04 -0.45955603659E+03  0.14842856804E+04  0.19509133188E+04  0.46999998093E+01 0.  1.
       -5    1    3    3    0  502  0.11797224062E+04  0.45955603659E+03 -0.39028932110E+03  0.13248715224E+04  0.46999998093E+01 0. -1.
</event>
<event>
 5   0  0.2226334E-06  0.3122390E+04  0.7818609E-02  0.8209620E-01
        2   -1    0    0  501    0  0.00000000000E+00  0.00000000000E+00  0.19020710203E+04  0.19020710203E+04  0.25500000920E-02 0. -1.
       -2   -1    0    0    0  501  0.00000000000E+00  0.00000000000E+00 -0.12814083843E+04  0.12814083843E+04  0.25500000920E-02 0.  1.
    10030    2    1    2    0    0  0.00000000000E+00  0.00000000000E+00  0.62066263606E+03  0.31834794046E+04  0.31223899519E+04 0.  0.
        5    1    3    3  502    0  0.47050099298E+03  0.12881560927E+04  0.10709775946E+04  0.17400380461E+04  0.46999998093E+01 0. -1.
       -5    1    3    3    0  502 -0.47050099298E+03 -0.12881560927E+04 -0.45031495850E+03  0.14434413585E+04  0.46999998093E+01 0.  1.
</event>
<event>
 5   0  0.2226334E-06  0.3097048E+04  0.7818609E-02  0.8216548E-01
       -2   -1    0    0    0  501  0.00000000000E+00  0.00000000000E+00  0.10946918463E+04  0.10946918463E+04  0.25500000920E-02 0. -1.
        2   -1    0    0  501    0  0.00000000000E+00  0.00000000000E+00 -0.21905039735E+04  0.21905039735E+04  0.25500000920E-02 0.  1.
    10030    2    1    2    0    0  0.00000000000E+00  0.00000000000E+00 -0.10958121272E+04  0.32851958197E+04  0.30970481682E+04 0.  0.
        5    1    3    3  502    0  0.10163047908E+04  0.67743777858E+03 -0.15576311230E+04  0.19794024798E+04  0.46999998093E+01 0.  1.
       -5    1    3    3    0  502 -0.10163047908E+04 -0.67743777858E+03  0.46181899581E+03  0.13057933399E+04  0.46999998093E+01 0. -1.
</event>
<event>
 5   0  0.2226334E-06  0.3016396E+04  0.7818609E-02  0.8239064E-01
        2   -1    0    0  501    0  0.00000000000E+00  0.00000000000E+00  0.14208086646E+04  0.14208086646E+04  0.25500000920E-02 0. -1.
       -2   -1    0    0    0  501  0.00000000000E+00  0.00000000000E+00 -0.16009623899E+04  0.16009623899E+04  0.25500000920E-02 0.  1.
    10030    2    1    2    0    0  0.00000000000E+00  0.00000000000E+00 -0.18015372527E+03  0.30217710546E+04  0.30163960187E+04 0.  0.
        5    1    3    3  502    0 -0.26094786961E+03  0.70595884099E+03  0.12192208867E+04  0.14328270434E+04  0.46999998093E+01 0. -1.
       -5    1    3    3    0  502  0.26094786961E+03 -0.70595884099E+03 -0.13993746120E+04  0.15889440111E+04  0.46999998093E+01 0.  1.
</event>
<event>
 5   0  0.7519202E-07  0.3113356E+04  0.7818609E-02  0.8212082E-01
       -1   -1    0    0    0  501  0.00000000000E+00  0.00000000000E+00  0.12184414718E+04  0.12184414719E+04  0.50400001928E-02 0.  1.
        1   -1    0    0  501    0  0.00000000000E+00  0.00000000000E+00 -0.19888077732E+04  0.19888077732E+04  0.50400001928E-02 0. -1.
    10030    2    1    2    0    0  0.00000000000E+00  0.00000000000E+00 -0.77036630138E+03  0.32072492451E+04  0.31133556626E+04 0.  0.
        4    1    3    3  502    0 -0.12903831748E+04 -0.27405144376E+03 -0.12365772671E+04  0.18081255161E+04  0.12699999809E+01 0. -1.
       -4    1    3    3    0  502  0.12903831748E+04  0.27405144376E+03  0.46621096568E+03  0.13991237290E+04  0.12699999809E+01 0.  1.
</event>
<event>
 5   0  0.2133385E-06  0.3018447E+04  0.7818609E-02  0.8238483E-01
        2   -1    0    0  501    0  0.00000000000E+00  0.00000000000E+00  0.22852542516E+04  0.22852542516E+04  0.25500000920E-02 0. -1.
       -2   -1    0    0    0  501  0.00000000000E+00  0.00000000000E+00 -0.99671840886E+03  0.99671840886E+03  0.25500000920E-02 0.  1.
    10030    2    1    2    0    0  0.00000000000E+00  0.00000000000E+00  0.12885358427E+04  0.32819726604E+04  0.30184466081E+04 0.  0.
        2    1    3    3  502    0  0.11381949823E+04 -0.89607519028E+02 -0.42894011660E+03  0.12196339405E+04  0.25500000920E-02 0.  1.
       -2    1    3    3    0  502 -0.11381949823E+04  0.89607519028E+02  0.17174759593E+04  0.20623387200E+04  0.25500000920E-02 0. -1.
</event>
<event>
 5   0  0.2078009E-06  0.3102653E+04  0.7818609E-02  0.8215010E-01
       -2   -1    0    0    0  501  0.00000000000E+00  0.00000000000E+00  0.13767098425E+04  0.13767098425E+04  0.25500000920E-02 0.  1.
        2   -1    0    0  501    0  0.00000000000E+00  0.00000000000E+00 -0.17480910116E+04  0.17480910116E+04  0.25500000920E-02 0. -1.
    10030    2    1    2    0    0  0.00000000000E+00  0.00000000000E+00 -0.37138116913E+03  0.31248008541E+04  0.31026531236E+04 0.  0.
        3    1    3    3  502    0  0.88739913621E+03  0.24519197947E+03 -0.14432098620E+04  0.17118560248E+04  0.10100000352E+00 0. -1.
       -3    1    3    3    0  502 -0.88739913621E+03 -0.24519197947E+03  0.10718286928E+04  0.14129448293E+04  0.10100000352E+00 0.  1.
</event>
<event>
 5   0  0.7561815E-07  0.3094075E+04  0.7818609E-02  0.8217366E-01
       -1   -1    0    0    0  501  0.00000000000E+00  0.00000000000E+00  0.15347958990E+04  0.15347958990E+04  0.50400001928E-02 0. -1.
        1   -1    0    0  501    0  0.00000000000E+00  0.00000000000E+00 -0.15593769311E+04  0.15593769311E+04  0.50400001928E-02 0.  1.
    10030    2    1    2    0    0  0.00000000000E+00  0.00000000000E+00 -0.24581032077E+02  0.30941728302E+04  0.30940751891E+04 0.  0.
        3    1    3    3  502    0  0.16273863547E+03 -0.14278542867E+04  0.56050463751E+03  0.15425359595E+04  0.10100000352E+00 0.  1.
       -3    1    3    3    0  502 -0.16273863547E+03  0.14278542867E+04 -0.58508566958E+03  0.15516368707E+04  0.10100000352E+00 0. -1.
</event>
<event>
 5   0  0.2078009E-06  0.3065341E+04  0.7818609E-02  0.8225314E-01
       -2   -1    0    0    0  501  0.00000000000E+00  0.00000000000E+00  0.12666724848E+04  0.12666724848E+04  0.25500000920E-02 0.  1.
        2   -1    0    0  501    0  0.00000000000E+00  0.00000000000E+00 -0.18545280029E+04  0.18545280029E+04  0.25500000920E-02 0. -1.
    10030    2    1    2    0    0  0.00000000000E+00  0.00000000000E+00 -0.58785551809E+03  0.31212004877E+04  0.30653414776E+04 0.  0.
        3    1    3    3  502    0  0.11595535215E+04  0.10006047827E+04 -0.35246700418E+03  0.15716256869E+04  0.10100000352E+00 0. -1.
       -3    1    3    3    0  502 -0.11595535215E+04 -0.10006047827E+04 -0.23538851391E+03  0.15495748008E+04  0.10100000352E+00 0.  1.
</event>
<event>
 5   0  0.7519202E-07  0.3112788E+04  0.7818609E-02  0.8212237E-01
        1   -1    0    0  501    0  0.00000000000E+00  0.00000000000E+00  0.27531077946E+04  0.27531077946E+04  0.50400001928E-02 0.  1.
       -1   -1    0    0    0  501  0.00000000000E+00  0.00000000000E+00 -0.87986474316E+03  0.87986474317E+03  0.50400001928E-02 0. -1.
    10030    2    1    2    0    0  0.00000000000E+00  0.00000000000E+00  0.18732430515E+04  0.36329725378E+04  0.31127881281E+04 0.  0.
        4    1    3    3  502    0  0.17982159180E+03  0.58619487886E+03  0.26062040253E+04  0.26773608788E+04  0.12699999809E+01 0.  1.
       -4    1    3    3    0  502 -0.17982159180E+03 -0.58619487886E+03 -0.73296097381E+03  0.95561165904E+03  0.12699999809E+01 0. -1.
</event>
<event>
 5   0  0.2226334E-06  0.3074012E+04  0.7818609E-02  0.8222906E-01
       -2   -1    0    0    0  501  0.00000000000E+00  0.00000000000E+00  0.15462009534E+04  0.15462009534E+04  0.25500000920E-02 0. -1.
        2   -1    0    0  501    0  0.00000000000E+00  0.00000000000E+00 -0.15278658918E+04  0.15278658918E+04  0.25500000920E-02 0.  1.
    10030    2    1    2    0    0  0.00000000000E+00  0.00000000000E+00  0.18335061547E+02  0.30740668452E+04  0.30740121656E+04 0.  0.
        5    1    3    3  502    0  0.11947024936E+04 -0.88166174450E+03  0.40631956683E+03  0.15394022088E+04  0.46999998093E+01 0. -1.
       -5    1    3    3    0  502 -0.11947024936E+04  0.88166174450E+03 -0.38798450529E+03  0.15346646364E+04  0.46999998093E+01 0.  1.
</event>
<event>
 5   0  0.7561815E-07  0.3097753E+04  0.7818609E-02  0.8216355E-01
        1   -1    0    0  501    0  0.00000000000E+00  0.00000000000E+00  0.12007233218E+04  0.12007233218E+04  0.50400001928E-02 0. -1.
       -1   -1    0    0    0  501  0.00000000000E+00  0.00000000000E+00 -0.19979777336E+04  0.19979777336E+04  0.50400001928E-02 0.  1.
    10030    2    1    2    0    0  0.00000000000E+00  0.00000000000E+00 -0.79725441183E+03  0.31987010554E+04  0.30977530316E+04 0.  0.
        3    1    3    3  502    0 -0.10068856976E+04 -0.55495321648E+03  0.67309046467E+03  0.13322322111E+04  0.10100000352E+00 0. -1.
       -3    1    3    3    0  502  0.10068856976E+04  0.55495321648E+03 -0.14703448765E+04  0.18664688443E+04  0.10100000352E+00 0.  1.
</event>
<event>
 5   0  0.2133385E-06  0.3101756E+04  0.7818609E-02  0.8215256E-01
        2   -1    0    0  501    0  0.00000000000E+00  0.00000000000E+00  0.22317078624E+04  0.22317078624E+04  0.25500000920E-02 0. -1.
       -2   -1    0    0    0  501  0.00000000000E+00  0.00000000000E+00 -0.10777495571E+04  0.10777495571E+04  0.25500000920E-02 0.  1.
    10030    2    1    2    0    0  0.00000000000E+00  0.00000000000E+00  0.11539583053E+04  0.33094574195E+04  0.31017557352E+04 0.  0.
        2    1    3    3  502    0 -0.45754783499E+03  0.13579770872E+04 -0.55838858180E+02  0.14340745339E+04  0.25500000920E-02 0.  1.
       -2    1    3    3    0  502  0.45754783499E+03 -0.13579770872E+04  0.12097971635E+04  0.18753828856E+04  0.25500000920E-02 0. -1.
</event>
<event>
 5   0  0.7413481E-07  0.3097042E+04  0.7818609E-02  0.8216550E-01
       -1   -1    0    0    0  501  0.00000000000E+00  0.00000000000E+00  0.13911823710E+04  0.13911823710E+04  0.50400001928E-02 0.  1.
        1   -1    0    0  501    0  0.00000000000E+00  0.00000000000E+00 -0.17236541868E+04  0.17236541868E+04  0.50400001928E-02 0. -1.
    10030    2    1    2    0    0  0.00000000000E+00  0.00000000000E+00 -0.33247181584E+03  0.31148365578E+04  0.30970420200E+04 0.  0.
        5    1    3    3  502    0 -0.91846739264E+03  0.93341369225E+03 -0.99745396964E+03  0.16461409368E+04  0.46999998093E+01 0. -1.
       -5    1    3    3    0  502  0.91846739264E+03 -0.93341369225E+03  0.66498215380E+03  0.14686956210E+04  0.46999998093E+01 0.  1.
</event>
<event>
 5   0  0.7656332E-07  0.3053669E+04  0.7818609E-02  0.8228569E-01
       -1   -1    0    0    0  501  0.00000000000E+00  0.00000000000E+00  0.12549538568E+04  0.12549538568E+04  0.50400001928E-02 0.  1.
        1   -1    0    0  501    0  0.00000000000E+00  0.00000000000E+00 -0.18576168580E+04  0.18576168580E+04  0.50400001928E-02 0. -1.
    10030    2    1    2    0    0  0.00000000000E+00  0.00000000000E+00 -0.60266300122E+03  0.31125707148E+04  0.30536689017E+04 0.  0.
        2    1    3    3  502    0  0.14650045041E+04 -0.24449149375E+03 -0.66200590162E+03  0.16261199529E+04  0.25500000920E-02 0. -1.
       -2    1    3    3    0  502 -0.14650045041E+04  0.24449149375E+03  0.59342900401E+02  0.14864507618E+04  0.25500000920E-02 0.  1.
</event>
<event>
 5   0  0.7413481E-07  0.3077380E+04  0.7818609E-02  0.8221973E-01
       -1   -1    0    0    0  501  0.00000000000E+00  0.00000000000E+00  0.12811325507E+04  0.12811325507E+04  0.50400001928E-02 0. -1.
        1   -1    0    0  501    0  0.00000000000E+00  0.00000000000E+00 -0.18480264904E+04  0.18480264904E+04  0.50400001928E-02 0.  1.
    10030    2    1    2    0    0  0.00000000000E+00  0.00000000000E+00 -0.56689393970E+03  0.31291590411E+04  0.30773799839E+04 0.  0.
        5    1    3    3  502    0 -0.10869250191E+04 -0.10678372115E+04 -0.65688354693E+02  0.15251292920E+04  0.46999998093E+01 0.  1.
       -5    1    3    3    0  502  0.10869250191E+04  0.10678372115E+04 -0.50120558501E+03  0.16040297491E+04  0.46999998093E+01 0. -1.
</event>
<event>
 5   0  0.2078009E-06  0.3093304E+04  0.7818609E-02  0.8217578E-01
       -2   -1    0    0    0  501  0.00000000000E+00  0.00000000000E+00  0.26335373781E+04  0.26335373781E+04  0.25500000920E-02 0.  1.
        2   -1    0    0  501    0  0.00000000000E+00  0.00000000000E+00 -0.90833410224E+03  0.90833410225E+03  0.25500000920E-02 0. -1.
    10030    2    1    2    0    0  0.00000000000E+00  0.00000000000E+00  0.17252032758E+04  0.35418714803E+04  0.30933036127E+04 0.  0.
        3    1    3    3  502    0 -0.30958395632E+03 -0.91198887628E+03  0.22482872360E+04  0.24458866373E+04  0.10100000352E+00 0.  1.
       -3    1    3    3    0  502  0.30958395632E+03  0.91198887628E+03 -0.52308396024E+03  0.10959848430E+04  0.10100000352E+00 0. -1.
</event>
<event>
 5   0  0.7413481E-07  0.3096625E+04  0.7818609E-02  0.8216665E-01
       -1   -1    0    0    0  501  0.00000000000E+00  0.00000000000E+00  0.76148343428E+03  0.76148343429E+03  0.50400001928E-02 0.  1.
        1   -1    0    0  501    0  0.00000000000E+00  0.00000000000E+00 -0.31481607503E+04  0.31481607503E+04  0.50400001928E-02 0. -1.
    10030    2    1    2    0    0  0.00000000000E+00  0.00000000000E+00 -0.23866773160E+04  0.39096441846E+04  0.30966254277E+04 0.  0.
        5    1    3    3  502    0 -0.11242941957E+04 -0.96266095039E+03 -0.61961198831E+03  0.16045855072E+04  0.46999998093E+01 0.  1.
       -5    1    3    3    0  502  0.11242941957E+04  0.96266095039E+03 -0.17670653277E+04  0.23050586774E+04  0.46999998093E+01 0. -1.
</event>
<event>
 5   0  0.2067926E-06  0.3109867E+04  0.7818609E-02  0.8213035E-01
        2   -1    0    0  501    0  0.00000000000E+00  0.00000000000E+00  0.16896376012E+04  0.16896376012E+04  0.25500000920E-02 0.  1.
       -2   -1    0    0    0  501  0.00000000000E+00  0.00000000000E+00 -0.14309689255E+04  0.14309689255E+04  0.25500000920E-02 0. -1.
    10030    2    1    2    0    0  0.00000000000E+00  0.00000000000E+00  0.25866867569E+03  0.31206065267E+04  0.31098674587E+04 0.  0.
        1    1    3    3  502    0 -0.11613966816E+04  0.98548714924E+03  0.44313091016E+03  0.15863140222E+04  0.50400001928E-02 0. -1.
       -1    1    3    3    0  502  0.11613966816E+04 -0.98548714924E+03 -0.18446223447E+03  0.15342925045E+04  0.50400001928E-02 0.  1.
</event>
<event>
 5   0  0.2226334E-06  0.3086129E+04  0.7818609E-02  0.8219555E-01
        2   -1    0    0  501    0  0.00000000000E+00  0.00000000000E+00  0.13980030296E+04  0.13980030296E+04  0.25500000920E-02 0.  1.
       -2   -1    0    0    0  501  0.00000000000E+00  0.00000000000E+00 -0.17031781112E+04  0.17031781112E+04  0.25500000920E-02 0. -1.
    10030    2    1    2    0    0  0.00000000000E+00  0.00000000000E+00 -0.30517508166E+03  0.31011811408E+04  0.30861290701E+04 0.  0.
        5    1    3    3  502    0 -0.22960860906E+03  0.33153309533E+03 -0.16492786222E+04  0.16978740738E+04  0.46999998093E+01 0. -1.
       -5    1    3    3    0  502  0.22960860906E+03 -0.33153309533E+03  0.13441035405E+04  0.14033070670E+04  0.46999998093E+01 0.  1.
</event>
<event>
 5   0  0.2226334E-06  0.3063159E+04  0.7818609E-02  0.8225922E-01
       -2   -1    0    0    0  501  0.00000000000E+00  0.00000000000E+00  0.11625003118E+04  0.11625003118E+04  0.25500000920E-02 0.  1.
        2   -1    0    0  501    0  0.00000000000E+00  0.00000000000E+00 -0.20178363609E+04  0.20178363609E+04  0.25500000920E-02 0. -1.
    10030    2    1    2    0    0  0.00000000000E+00  0.00000000000E+00 -0.85533604907E+03  0.31803366727E+04  0.30631587610E+04 0.  0.
        5    1    3    3  502    0 -0.76886545645E+03 -0.84418081474E+03  0.63212328757E+03  0.13051426278E+04  0.46999998093E+01 0.  1.
       -5    1    3    3    0  502  0.76886545645E+03  0.84418081474E+03 -0.14874593366E+04  0.18751940450E+04  0.46999998093E+01 0. -1.
</event>
<event>
 5   0  0.7413481E-07  0.3084566E+04  0.7818609E-02  0.8219986E-01
       -1   -1    0    0    0  501  0.00000000000E+00  0.00000000000E+00  0.13685965342E+04  0.13685965342E+04  0.50400001928E-02 0.  1.
        1   -1    0    0  501    0  0.00000000000E+00  0.00000000000E+00 -0.17380117143E+04  0.17380117143E+04  0.50400001928E-02 0. -1.
    10030    2    1    2    0    0  0.00000000000E+00  0.00000000000E+00 -0.36941518015E+03  0.31066082485E+04  0.30845659718E+04 0.  0.
        5    1    3    3  502    0 -0.10646929805E+04 -0.72412538484E+03 -0.10397063237E+04  0.16549743337E+04  0.46999998093E+01 0. -1.
       -5    1    3    3    0  502  0.10646929805E+04  0.72412538484E+03  0.67029114353E+03  0.14516339149E+04  0.46999998093E+01 0.  1.
</event>
<event>
 5   0  0.7413481E-07  0.2845660E+04  0.7818609E-02  0.8289231E-01
       -1   -1    0    0    0  501  0.00000000000E+00  0.00000000000E+00  0.10901253616E+04  0.10901253616E+04  0.50400001928E-02 0.  1.
        1   -1    0    0  501    0  0.00000000000E+00  0.00000000000E+00 -0.18570761665E+04  0.18570761665E+04  0.50400001928E-02 0. -1.
    10030    2    1    2    0    0  0.00000000000E+00  0.00000000000E+00 -0.76695080494E+03  0.29472015281E+04  0.28456604348E+04 0.  0.
        5    1    3    3  502    0  0.11057417814E+04 -0.16461489791E+03 -0.12950297025E+04  0.17108147101E+04  0.46999998093E+01 0. -1.
       -5    1    3    3    0  502 -0.11057417814E+04  0.16461489791E+03  0.52807889755E+03  0.12363868181E+04  0.46999998093E+01 0.  1.
</event>
<event>
 5   0  0.2226334E-06  0.3089630E+04  0.7818609E-02  0.8218590E-01
       -2   -1    0    0    0  501  0.00000000000E+00  0.00000000000E+00  0.28901470552E+04  0.28901470552E+04  0.25500000920E-02 0.  1.
        2   -1    0    0  501    0  0.00000000000E+00  0.00000000000E+00 -0.82572016244E+03  0.82572016245E+03  0.25500000920E-02 0. -1.
    10030    2    1    2    0    0  0.00000000000E+00  0.00000000000E+00  0.20644268928E+04  0.37158672177E+04  0.30896295544E+04 0.  0.
        5    1    3    3  502    0 -0.15403434603E+04 -0.16281092877E+02  0.89243436978E+03  0.17802764516E+04  0.46999998093E+01 0.  1.
       -5    1    3    3    0  502  0.15403434603E+04  0.16281092877E+02  0.11719925230E+04  0.19355907661E+04  0.46999998093E+01 0. -1.
</event>
<event>
 5   0  0.7519202E-07  0.3111260E+04  0.7818609E-02  0.8212654E-01
       -1   -1    0    0    0  501  0.00000000000E+00  0.00000000000E+00  0.13758897116E+04  0.13758897117E+04  0.50400001928E-02 0.  1.
        1   -1    0    0  501    0  0.00000000000E+00  0.00000000000E+00 -0.17588509062E+04  0.17588509062E+04  0.50400001928E-02 0. -1.
    10030    2    1    2    0    0  0.00000000000E+00  0.00000000000E+00 -0.38296119458E+03  0.31347406179E+04  0.31112601089E+04 0.  0.
        4    1    3    3  502    0  0.22721122675E+03 -0.25748834416E+03  0.13372234920E+04  0.13806134395E+04  0.12699999809E+01 0.  1.
       -4    1    3    3    0  502 -0.22721122675E+03  0.25748834416E+03 -0.17201846866E+04  0.17541271784E+04  0.12699999809E+01 0. -1.
</event>
<event>
 5   0  0.2067926E-06  0.3095454E+04  0.7818609E-02  0.8216987E-01
        2   -1    0    0  501    0  0.00000000000E+00  0.00000000000E+00  0.31732621940E+04  0.31732621940E+04  0.25500000920E-02 0. -1.
       -2   -1    0    0    0  501  0.00000000000E+00  0.00000000000E+00 -0.75488841544E+03  0.75488841544E+03  0.25500000920E-02 0.  1.
    10030    2    1    2    0    0  0.00000000000E+00  0.00000000000E+00  0.24183737786E+04  0.39281506095E+04  0.30954540019E+04 0.  0.
        1    1    3    3  502    0 -0.11819750477E+04 -0.10407579031E+03 -0.51902814987E+02  0.11876829063E+04  0.50400001928E-02 0.  1.
       -1    1    3    3    0  502  0.11819750477E+04  0.10407579031E+03  0.24702765936E+04  0.27404677032E+04  0.50400001928E-02 0. -1.
</event>
<event>
 5   0  0.7413481E-07  0.3091728E+04  0.7818609E-02  0.8218012E-01
       -1   -1    0    0    0  501  0.00000000000E+00  0.00000000000E+00  0.22177756986E+04  0.22177756986E+04  0.50400001928E-02 0.  1.
        1   -1    0    0  501    0  0.00000000000E+00  0.00000000000E+00 -0.10775192454E+04  0.10775192454E+04  0.50400001928E-02 0. -1.
    10030    2    1    2    0    0  0.00000000000E+00  0.00000000000E+00  0.11402564532E+04  0.32952949441E+04  0.30917283175E+04 0.  0.
        5    1    3    3  502    0  0.40767358715E+03  0.63233851248E+02  0.21580106986E+04  0.21970954779E+04  0.46999998093E+01 0.  1.
       -5    1    3    3    0  502 -0.40767358715E+03 -0.63233851248E+02 -0.10177542454E+04  0.10981994662E+04  0.46999998093E+01 0. -1.
</event>
<event>
 5   0  0.7726743E-07  0.3083144E+04  0.7818609E-02  0.8220379E-01
       -1   -1    0    0    0  501  0.00000000000E+00  0.00000000000E+00  0.10882365979E+04  0.10882365979E+04  0.50400001928E-02 0. -1.
        1   -1    0    0  501    0  0.00000000000E+00  0.00000000000E+00 -0.21837574991E+04  0.21837574991E+04  0.50400001928E-02 0.  1.
    10030    2    1    2    0    0  0.00000000000E+00  0.00000000000E+00 -0.10955209012E+04  0.32719940970E+04  0.30831443894E+04 0.  0.
        1    1    3    3  502    0 -0.44356335090E+03  0.13327789581E+03 -0.21081743199E+04  0.21584509276E+04  0.50400001928E-02 0.  1.
       -1    1    3    3    0  502  0.44356335090E+03 -0.13327789581E+03  0.10126534187E+04  0.11135431694E+04  0.50400001928E-02 0. -1.
</event>
<event>
 5   0  0.7726743E-07  0.3100410E+04  0.7818609E-02  0.8215625E-01
        1   -1    0    0  501    0  0.00000000000E+00  0.00000000000E+00  0.10507582276E+04  0.10507582276E+04  0.50400001928E-02 0. -1.
       -1   -1    0    0    0  501  0.00000000000E+00  0.00000000000E+00 -0.22870497216E+04  0.22870497216E+04  0.50400001928E-02 0.  1.
    10030    2    1    2    0    0  0.00000000000E+00  0.00000000000E+00 -0.12362914940E+04  0.33378079492E+04  0.31004104967E+04 0.  0.
        1    1    3    3  502    0  0.12641039822E+04  0.46181971780E+03  0.21011353123E+03  0.13621248201E+04  0.50400001928E-02 0. -1.
       -1    1    3    3    0  502 -0.12641039822E+04 -0.46181971780E+03 -0.14464050253E+04  0.19756831291E+04  0.50400001928E-02 0.  1.
</event>
<event>
 5   0  0.7519202E-07  0.3090416E+04  0.7818609E-02  0.8218373E-01
        1   -1    0    0  501    0  0.00000000000E+00  0.00000000000E+00  0.15960244564E+04  0.15960244564E+04  0.50400001928E-02 0. -1.
       -1   -1    0    0    0  501  0.00000000000E+00  0.00000000000E+00 -0.14960096538E+04  0.14960096538E+04  0.50400001928E-02 0.  1.
    10030    2    1    2    0    0  0.00000000000E+00  0.00000000000E+00  0.10001480263E+03  0.30920341102E+04  0.30904161496E+04 0.  0.
        4    1    3    3  502    0  0.12151985025E+04  0.52844592791E+03 -0.74520672178E+03  0.15202950932E+04  0.12699999809E+01 0.  1.
       -4    1    3    3    0  502 -0.12151985025E+04 -0.52844592791E+03  0.84522152441E+03  0.15717390170E+04  0.12699999809E+01 0. -1.
</event>
<event>
 5   0  0.2094135E-06  0.3096375E+04  0.7818609E-02  0.8216733E-01
        2   -1    0    0  501    0  0.00000000000E+00  0.00000000000E+00  0.12252029686E+04  0.12252029687E+04  0.25500000920E-02 0. -1.
       -2   -1    0    0    0  501  0.00000000000E+00  0.00000000000E+00 -0.19563167235E+04  0.19563167235E+04  0.25500000920E-02 0.  1.
    10030    2    1    2    0    0  0.00000000000E+00  0.00000000000E+00 -0.73111375483E+03  0.31815196921E+04  0.30963753372E+04 0.  0.
        4    1    3    3  502    0  0.52038607936E+03  0.28005312096E+03  0.11047537399E+04  0.12528822215E+04  0.12699999809E+01 0. -1.
       -4    1    3    3    0  502 -0.52038607936E+03 -0.28005312096E+03 -0.18358674947E+04  0.19286374707E+04  0.12699999809E+01 0.  1.
</event>
<event>
 5   0  0.2067926E-06  0.3103414E+04  0.7818609E-02  0.8214802E-01
        2   -1    0    0  501    0  0.00000000000E+00  0.00000000000E+00  0.21988706224E+04  0.21988706224E+04  0.25500000920E-02 0. -1.
       -2   -1    0    0    0  501  0.00000000000E+00  0.00000000000E+00 -0.10950139313E+04  0.10950139313E+04  0.25500000920E-02 0.  1.
    10030    2    1    2    0    0  0.00000000000E+00  0.00000000000E+00  0.11038566912E+04  0.32938845537E+04  0.31034135816E+04 0.  0.
        1    1    3    3  502    0 -0.25182712255E+03 -0.11639256560E+04  0.16077983159E+04  0.20007886587E+04  0.50400001928E-02 0. -1.
       -1    1    3    3    0  502  0.25182712255E+03  0.11639256560E+04 -0.50394162470E+03  0.12930958950E+04  0.50400001928E-02 0.  1.
</event>
<event>
 5   0  0.7519202E-07  0.3009447E+04  0.7818609E-02  0.8241038E-01
        1   -1    0    0  501    0  0.00000000000E+00  0.00000000000E+00  0.10789002844E+04  0.10789002844E+04  0.50400001928E-02 0. -1.
       -1   -1    0    0    0  501  0.00000000000E+00  0.00000000000E+00 -0.20986118121E+04  0.20986118121E+04  0.50400001928E-02 0.  1.
    10030    2    1    2    0    0  0.00000000000E+00  0.00000000000E+00 -0.10197115277E+04  0.31775120965E+04  0.30094470461E+04 0.  0.
        4    1    3    3  502    0  0.20148695575E+03  0.72954858607E+03 -0.18830047260E+04  0.20294202482E+04  0.12699999809E+01 0.  1.
       -4    1    3    3    0  502 -0.20148695575E+03 -0.72954858607E+03  0.86329319835E+03  0.11480918482E+04  0.12699999809E+01 0. -1.
</event>
<event>
 5   0  0.2226334E-06  0.3014624E+04  0.7818609E-02  0.8239567E-01
        2   -1    0    0  501    0  0.00000000000E+00  0.00000000000E+00  0.13021047640E+04  0.13021047640E+04  0.25500000920E-02 0. -1.
       -2   -1    0    0    0  501  0.00000000000E+00  0.00000000000E+00 -0.17448597643E+04  0.17448597643E+04  0.25500000920E-02 0.  1.
    10030    2    1    2    0    0  0.00000000000E+00  0.00000000000E+00 -0.44275500031E+03  0.30469645282E+04  0.30146244950E+04 0.  0.
        5    1    3    3  502    0 -0.99359822721E+03  0.48593255812E+03  0.81361963982E+03  0.13730866311E+04  0.46999998093E+01 0. -1.
       -5    1    3    3    0  502  0.99359822721E+03 -0.48593255812E+03 -0.12563746401E+04  0.16738778971E+04  0.46999998093E+01 0.  1.
</event>
<event>
 5   0  0.2078009E-06  0.3099723E+04  0.7818609E-02  0.8215814E-01
        2   -1    0    0  501    0  0.00000000000E+00  0.00000000000E+00  0.16772663270E+04  0.16772663270E+04  0.25500000920E-02 0.  1.
       -2   -1    0    0    0  501  0.00000000000E+00  0.00000000000E+00 -0.14321340122E+04  0.14321340122E+04  0.25500000920E-02 0. -1.
    10030    2    1    2    0    0  0.00000000000E+00  0.00000000000E+00  0.24513231481E+03  0.31094003392E+04  0.30997226678E+04 0.  0.
        3    1    3    3  502    0 -0.49998208176E+03 -0.10085267062E+04  0.11912382107E+04  0.16389498723E+04  0.10100000352E+00 0. -1.
       -3    1    3    3    0  502  0.49998208176E+03  0.10085267062E+04 -0.94610589585E+03  0.14704504669E+04  0.10100000352E+00 0.  1.
</event>
<event>
 5   0  0.2094135E-06  0.3113281E+04  0.7818609E-02  0.8212102E-01
       -2   -1    0    0    0  501  0.00000000000E+00  0.00000000000E+00  0.15818808483E+04  0.15818808483E+04  0.25500000920E-02 0. -1.
        2   -1    0    0  501    0  0.00000000000E+00  0.00000000000E+00 -0.15318029288E+04  0.15318029288E+04  0.25500000920E-02 0.  1.
    10030    2    1    2    0    0  0.00000000000E+00  0.00000000000E+00  0.50077919438E+02  0.31136837771E+04  0.31132810451E+04 0.  0.
        4    1    3    3  502    0 -0.12755991343E+04  0.32191097602E+03 -0.80714335852E+03  0.15434577552E+04  0.12699999809E+01 0.  1.
       -4    1    3    3    0  502  0.12755991343E+04 -0.32191097602E+03  0.85722127796E+03  0.15702260220E+04  0.12699999809E+01 0. -1.
</event>
<event>
 5   0  0.2133385E-06  0.3097980E+04  0.7818609E-02  0.8216293E-01
        2   -1    0    0  501    0  0.00000000000E+00  0.00000000000E+00  0.23192636103E+04  0.23192636103E+04  0.25500000920E-02 0. -1.
       -2   -1    0    0    0  501  0.00000000000E+00  0.00000000000E+00 -0.10345392834E+04  0.10345392834E+04  0.25500000920E-02 0.  1.
    10030    2    1    2    0    0  0.00000000000E+00  0.00000000000E+00  0.12847243269E+04  0.33538028937E+04  0.30979795437E+04 0.  0.
        2    1    3    3  502    0  0.24704470730E+03  0.22288354728E+03 -0.99539586911E+03  0.10495337533E+04  0.25500000920E-02 0.  1.
       -2    1    3    3    0  502 -0.24704470730E+03 -0.22288354728E+03  0.22801201960E+04  0.23042691404E+04  0.25500000920E-02 0. -1.
</event>
<event>
 5   0  0.2133385E-06  0.3100222E+04  0.7818609E-02  0.8215677E-01
        2   -1    0    0  501    0  0.00000000000E+00  0.00000000000E+00  0.17394587507E+04  0.17394587507E+04  0.25500000920E-02 0.  1.
       -2   -1    0    0    0  501  0.00000000000E+00  0.00000000000E+00 -0.13813746051E+04  0.13813746051E+04  0.25500000920E-02 0. -1.
    10030    2    1    2    0    0  0.00000000000E+00  0.00000000000E+00  0.35808414560E+03  0.31208333559E+04  0.31002220210E+04 0.  0.
        2    1    3    3  502    0 -0.12148945748E+04  0.91690662879E+03 -0.11643545432E+03  0.15265136124E+04  0.25500000920E-02 0.  1.
       -2    1    3    3    0  502  0.12148945748E+04 -0.91690662879E+03  0.47451959992E+03  0.15943197435E+04  0.25500000920E-02 0. -1.
</event>
<event>
 5   0  0.2133385E-06  0.3100420E+04  0.7818609E-02  0.8215623E-01
       -2   -1    0    0    0  501  0.00000000000E+00  0.00000000000E+00  0.15025399937E+04  0.15025399937E+04  0.25500000920E-02 0. -1.
        2   -1    0    0  501    0  0.00000000000E+00  0.00000000000E+00 -0.15993927912E+04  0.15993927912E+04  0.25500000920E-02 0.  1.
    10030    2    1    2    0    0  0.00000000000E+00  0.00000000000E+00 -0.96852797545E+02  0.31019327849E+04  0.31004203808E+04 0.  0.
        2    1    3    3  502    0  0.24657563190E+03 -0.22680459308E+03  0.14658877548E+04  0.15036844001E+04  0.25500000920E-02 0. -1.
       -2    1    3    3    0  502 -0.24657563190E+03  0.22680459308E+03 -0.15627405523E+04  0.15982483848E+04  0.25500000920E-02 0.  1.
</event>
<event>
 5   0  0.2078009E-06  0.2825786E+04  0.7818609E-02  0.8295307E-01
       -2   -1    0    0    0  501  0.00000000000E+00  0.00000000000E+00  0.83909009204E+03  0.83909009205E+03  0.25500000920E-02 0.  1.
        2   -1    0    0  501    0  0.00000000000E+00  0.00000000000E+00 -0.23790842151E+04  0.23790842151E+04  0.25500000920E-02 0. -1.
    10030    2    1    2    0    0  0.00000000000E+00  0.00000000000E+00 -0.15399941231E+04  0.32181743072E+04  0.28257855496E+04 0.  0.
        3    1    3    3  502    0 -0.14103226167E+04  0.56881952746E+02 -0.84220961824E+03  0.16436430546E+04  0.10100000352E+00 0. -1.
       -3    1    3    3    0  502  0.14103226167E+04 -0.56881952746E+02 -0.69778450484E+03  0.15745312525E+04  0.10100000352E+00 0.  1.
</event>
<event>
 5   0  0.2094135E-06  0.3102293E+04  0.7818609E-02  0.8215109E-01
       -2   -1    0    0    0  501  0.00000000000E+00  0.00000000000E+00  0.13311433598E+04  0.13311433598E+04  0.25500000920E-02 0.  1.
        2   -1    0    0  501    0  0.00000000000E+00  0.00000000000E+00 -0.18075098357E+04  0.18075098357E+04  0.25500000920E-02 0. -1.
    10030    2    1    2    0    0  0.00000000000E+00  0.00000000000E+00 -0.47636647593E+03  0.31386531955E+04  0.31022925172E+04 0.  0.
        4    1    3    3  502    0  0.12855111630E+03 -0.66025004067E+03 -0.16522767901E+04  0.17839494695E+04  0.12699999809E+01 0. -1.
       -4    1    3    3    0  502 -0.12855111630E+03  0.66025004067E+03  0.11759103141E+04  0.13547037261E+04  0.12699999809E+01 0.  1.
</event>
<event>
 5   0  0.2067926E-06  0.3112875E+04  0.7818609E-02  0.8212213E-01
       -2   -1    0    0    0  501  0.00000000000E+00  0.00000000000E+00  0.86898735534E+03  0.86898735535E+03  0.25500000920E-02 0. -1.
        2   -1    0    0  501    0  0.00000000000E+00  0.00000000000E+00 -0.27877257769E+04  0.27877257769E+04  0.25500000920E-02 0.  1.
    10030    2    1    2    0    0  0.00000000000E+00  0.00000000000E+00 -0.19187384215E+04  0.36567131322E+04  0.31128754876E+04 0.  0.
        1    1    3    3  502    0 -0.14286984789E+04  0.18205453184E+03 -0.26621783033E+03  0.14646484661E+04  0.50400001928E-02 0. -1.
       -1    1    3    3    0  502  0.14286984789E+04 -0.18205453184E+03 -0.16525205912E+04  0.21920646661E+04  0.50400001928E-02 0.  1.
</event>
<event>
 5   0  0.7726743E-07  0.3079214E+04  0.7818609E-02  0.8221466E-01
       -1   -1    0    0    0  501  0.00000000000E+00  0.00000000000E+00  0.16816278422E+04  0.16816278422E+04  0.50400001928E-02 0.  1.
        1   -1    0    0  501    0  0.00000000000E+00  0.00000000000E+00 -0.14095801344E+04  0.14095801344E+04  0.50400001928E-02 0. -1.
    10030    2    1    2    0    0  0.00000000000E+00  0.00000000000E+00  0.27204770783E+03  0.30912079766E+04  0.30792136658E+04 0.  0.
        1    1    3    3  502    0  0.62212520364E+03  0.10421266131E+04 -0.81493658374E+03  0.14619128846E+04  0.50400001928E-02 0. -1.
       -1    1    3    3    0  502 -0.62212520364E+03 -0.10421266131E+04  0.10869842916E+04  0.16292950920E+04  0.50400001928E-02 0.  1.
</event>
<event>
 5   0  0.7561815E-07  0.3100456E+04  0.7818609E-02  0.8215613E-01
       -1   -1    0    0    0  501  0.00000000000E+00  0.00000000000E+00  0.10224037520E+04  0.10224037520E+04  0.50400001928E-02 0. -1.
        1   -1    0    0  501    0  0.00000000000E+00  0.00000000000E+00 -0.23505450788E+04  0.23505450788E+04  0.50400001928E-02 0.  1.
    10030    2    1    2    0    0  0.00000000000E+00  0.00000000000E+00 -0.13281413268E+04  0.33729488309E+04  0.31004555200E+04 0.  0.
        3    1    3    3  502    0  0.13093070531E+04  0.66963183612E+03 -0.11975956178E+04  0.18965566243E+04  0.10100000352E+00 0.  1.
       -3    1    3    3    0  502 -0.13093070531E+04 -0.66963183612E+03 -0.13054570898E+03  0.14763922065E+04  0.10100000352E+00 0. -1.
</event>
<event>
 5   0  0.7726743E-07  0.3091834E+04  0.7818609E-02  0.8217983E-01
        1   -1    0    0  501    0  0.00000000000E+00  0.00000000000E+00  0.21642577126E+04  0.21642577126E+04  0.50400001928E-02 0. -1.
       -1   -1    0    0    0  501  0.00000000000E+00  0.00000000000E+00 -0.11042396630E+04  0.11042396630E+04  0.50400001928E-02 0.  1.
    10030    2    1    2    0    0  0.00000000000E+00  0.00000000000E+00  0.10600180496E+04  0.32684973755E+04  0.30918338940E+04 0.  0.
        1    1    3    3  502    0 -0.12257167111E+04 -0.60945046782E+03 -0.22940215303E+03  0.13879613382E+04  0.50400001928E-02 0.  1.
       -1    1    3    3    0  502  0.12257167111E+04  0.60945046782E+03  0.12894202026E+04  0.18805360373E+04  0.50400001928E-02 0. -1.
</event>
<event>
 5   0  0.2094135E-06  0.3108420E+04  0.7818609E-02  0.8213431E-01
        2   -1    0    0  501    0  0.00000000000E+00  0.00000000000E+00  0.20619444236E+04  0.20619444236E+04  0.25500000920E-02 0.  1.
       -2   -1    0    0    0  501  0.00000000000E+00  0.00000000000E+00 -0.11715001858E+04  0.11715001858E+04  0.25500000920E-02 0. -1.
    10030    2    1    2    0    0  0.00000000000E+00  0.00000000000E+00  0.89044423783E+03  0.32334446094E+04  0.31084197113E+04 0.  0.
        4    1    3    3  502    0 -0.11925479380E+04 -0.75180371787E+03 -0.23545732597E+03  0.14292729550E+04  0.12699999809E+01 0. -1.
       -4    1    3    3    0  502  0.11925479380E+04  0.75180371787E+03  0.11259015638E+04  0.18041716545E+04  0.12699999809E+01 0.  1.
</event>
<event>
 5   0  0.2133385E-06  0.2971038E+04  0.7818609E-02  0.8252050E-01
        2   -1    0    0  501    0  0.00000000000E+00  0.00000000000E+00  0.21963484748E+04  0.21963484748E+04  0.25500000920E-02 0. -1.
       -2   -1    0    0    0  501  0.00000000000E+00  0.00000000000E+00 -0.10047436782E+04  0.10047436782E+04  0.25500000920E-02 0.  1.
    10030    2    1    2    0    0  0.00000000000E+00  0.00000000000E+00  0.11916047967E+04  0.32010921530E+04  0.29710383674E+04 0.  0.
        2    1    3    3  502    0 -0.12975028608E+04 -0.64988837285E+03  0.93804387904E+03  0.17279452798E+04  0.25500000920E-02 0.  1.
       -2    1    3    3    0  502  0.12975028608E+04  0.64988837285E+03  0.25356091763E+03  0.14731468732E+04  0.25500000920E-02 0. -1.
</event>
<event>
 5   0  0.2133385E-06  0.3105876E+04  0.7818609E-02  0.8214127E-01
        2   -1    0    0  501    0  0.00000000000E+00  0.00000000000E+00  0.24389971230E+04  0.24389971230E+04  0.25500000920E-02 0. -1.
       -2   -1    0    0    0  501  0.00000000000E+00  0.00000000000E+00 -0.98877362294E+03  0.98877362295E+03  0.25500000920E-02 0.  1.
    10030    2    1    2    0    0  0.00000000000E+00  0.00000000000E+00  0.14502235001E+04  0.34277707460E+04  0.31058757359E+04 0.  0.
        2    1    3    3  502    0  0.69746457752E+03 -0.11758018385E+04 -0.87882144711E+02  0.13699233817E+04  0.25500000920E-02 0.  1.
       -2    1    3    3    0  502 -0.69746457752E+03  0.11758018385E+04  0.15381056448E+04  0.20578473643E+04  0.25500000920E-02 0. -1.
</event>
<event>
 5   0  0.2067926E-06  0.3111090E+04  0.7818609E-02  0.8212701E-01
       -2   -1    0    0    0  501  0.00000000000E+00  0.00000000000E+00  0.10331398982E+04  0.10331398982E+04  0.25500000920E-02 0. -1.
        2   -1    0    0  501    0  0.00000000000E+00  0.00000000000E+00 -0.23421026112E+04  0.23421026112E+04  0.25500000920E-02 0.  1.
    10030    2    1    2    0    0  0.00000000000E+00  0.00000000000E+00 -0.13089627130E+04  0.33752425094E+04  0.31110896184E+04 0.  0.
        1    1    3    3  502    0 -0.73013375174E+03 -0.13701944459E+04 -0.75849410246E+03  0.17279587433E+04  0.50400001928E-02 0.  1.
       -1    1    3    3    0  502  0.73013375174E+03  0.13701944459E+04 -0.55046861051E+03  0.16472837661E+04  0.50400001928E-02 0. -1.
</event>
<event>
 5   0  0.2226334E-06  0.3049994E+04  0.7818609E-02  0.8229597E-01
       -2   -1    0    0    0  501  0.00000000000E+00  0.00000000000E+00  0.16066263529E+04  0.16066263529E+04  0.25500000920E-02 0. -1.
        2   -1    0    0  501    0  0.00000000000E+00  0.00000000000E+00 -0.14475147109E+04  0.14475147109E+04  0.25500000920E-02 0.  1.
    10030    2    1    2    0    0  0.00000000000E+00  0.00000000000E+00  0.15911164205E+03  0.30541410638E+04  0.30499936267E+04 0.  0.
        5    1    3    3  502    0 -0.76990512544E+03 -0.10403854918E+04 -0.72803781003E+03  0.14849973120E+04  0.46999998093E+01 0.  1.
       -5    1    3    3    0  502  0.76990512544E+03  0.10403854918E+04  0.88714945208E+03  0.15691437519E+04  0.46999998093E+01 0. -1.
</event>
<event>
 5   0  0.7656332E-07  0.3113451E+04  0.7818609E-02  0.8212056E-01
       -1   -1    0    0    0  501  0.00000000000E+00  0.00000000000E+00  0.10064586917E+04  0.10064586917E+04  0.50400001928E-02 0. -1.
        1   -1    0    0  501    0  0.00000000000E+00  0.00000000000E+00 -0.24078424538E+04  0.24078424538E+04  0.50400001928E-02 0.  1.
    10030    2    1    2    0    0  0.00000000000E+00  0.00000000000E+00 -0.14013837621E+04  0.34143011455E+04  0.31134507967E+04 0.  0.
        2    1    3    3  502    0  0.27923210233E+03  0.12908208301E+04 -0.16044667252E+04  0.20781006844E+04  0.25500000920E-02 0.  1.
       -2    1    3    3    0  502 -0.27923210233E+03 -0.12908208301E+04  0.20308296314E+03  0.13362004611E+04  0.25500000920E-02 0. -1.
</event>
<event>
 5   0  0.7561815E-07  0.3113362E+04  0.7818609E-02  0.8212080E-01
        1   -1    0    0  501    0  0.00000000000E+00  0.00000000000E+00  0.12114191938E+04  0.12114191938E+04  0.50400001928E-02 0.  1.
       -1   -1    0    0    0  501  0.00000000000E+00  0.00000000000E+00 -0.20003440807E+04  0.20003440807E+04  0.50400001928E-02 0. -1.
    10030    2    1    2    0    0  0.00000000000E+00  0.00000000000E+00 -0.78892488692E+03  0.32117632746E+04  0.31133616646E+04 0.  0.
        3    1    3    3  502    0  0.28033909400E+02 -0.86404829478E+02  0.12086826762E+04  0.12120913812E+04  0.10100000352E+00 0.  1.
       -3    1    3    3    0  502 -0.28033909400E+02  0.86404829478E+02 -0.19976075631E+04  0.19996718933E+04  0.10100000352E+00 0. -1.
</event>
<event>
 5   0  0.7726743E-07  0.3078944E+04  0.7818609E-02  0.8221540E-01
        1   -1    0    0  501    0  0.00000000000E+00  0.00000000000E+00  0.17163513780E+04  0.17163513780E+04  0.50400001928E-02 0. -1.
       -1   -1    0    0    0  501  0.00000000000E+00  0.00000000000E+00 -0.13808208161E+04  0.13808208161E+04  0.50400001928E-02 0.  1.
    10030    2    1    2    0    0  0.00000000000E+00  0.00000000000E+00  0.33553056185E+03  0.30971721941E+04  0.30789437868E+04 0.  0.
        1    1    3    3  502    0  0.63983739587E+03 -0.28199391700E+03 -0.12118724399E+04  0.13991237519E+04  0.50400001928E-02 0.  1.
       -1    1    3    3    0  502 -0.63983739587E+03  0.28199391700E+03  0.15474030018E+04  0.16980484423E+04  0.50400001928E-02 0. -1.
</event>
<event>
 5   0  0.7656332E-07  0.3073504E+04  0.7818609E-02  0.8223047E-01
       -1   -1    0    0    0  501  0.00000000000E+00  0.00000000000E+00  0.10646307561E+04  0.10646307561E+04  0.50400001928E-02 0. -1.
        1   -1    0    0  501    0  0.00000000000E+00  0.00000000000E+00 -0.22182405084E+04  0.22182405084E+04  0.50400001928E-02 0.  1.
    10030    2    1    2    0    0  0.00000000000E+00  0.00000000000E+00 -0.11536097523E+04  0.32828712645E+04  0.30735042344E+04 0.  0.
        2    1    3    3  502    0 -0.70202475156E+03  0.11439657937E+04 -0.13761915886E+04  0.19223422634E+04  0.25500000920E-02 0. -1.
       -2    1    3    3    0  502  0.70202475156E+03 -0.11439657937E+04  0.22258183636E+03  0.13605290011E+04  0.25500000920E-02 0.  1.
</event>
<event>
 5   0  0.2078009E-06  0.3098256E+04  0.7818609E-02  0.8216217E-01
        2   -1    0    0  501    0  0.00000000000E+00  0.00000000000E+00  0.19186527784E+04  0.19186527784E+04  0.25500000920E-02 0.  1.
       -2   -1    0    0    0  501  0.00000000000E+00  0.00000000000E+00 -0.12507725421E+04  0.12507725421E+04  0.25500000920E-02 0. -1.
    10030    2    1    2    0    0  0.00000000000E+00  0.00000000000E+00  0.66788023632E+03  0.31694253204E+04  0.30982564212E+04 0.  0.
        3    1    3    3  502    0 -0.75301221584E+03  0.13313511687E+04  0.58508903531E+03  0.16376362603E+04  0.10100000352E+00 0. -1.
       -3    1    3    3    0  502  0.75301221584E+03 -0.13313511687E+04  0.82791201010E+02  0.15317890601E+04  0.10100000352E+00 0.  1.
</event>
<event>
 5   0  0.7656332E-07  0.3102404E+04  0.7818609E-02  0.8215078E-01
        1   -1    0    0  501    0  0.00000000000E+00  0.00000000000E+00  0.18449138143E+04  0.18449138143E+04  0.50400001928E-02 0.  1.
       -1   -1    0    0    0  501  0.00000000000E+00  0.00000000000E+00 -0.13042493122E+04  0.13042493122E+04  0.50400001928E-02 0. -1.
    10030    2    1    2    0    0  0.00000000000E+00  0.00000000000E+00  0.54066450212E+03  0.31491631265E+04  0.31024039539E+04 0.  0.
        2    1    3    3  502    0  0.11875978614E+04  0.36401591311E+03 -0.67282814822E+03  0.14126549411E+04  0.25500000920E-02 0. -1.
       -2    1    3    3    0  502 -0.11875978614E+04 -0.36401591311E+03  0.12134926503E+04  0.17365081854E+04  0.25500000920E-02 0.  1.
</event>
<event>
 5   0  0.2226334E-06  0.3090849E+04  0.7818609E-02  0.8218254E-01
        2   -1    0    0  501    0  0.00000000000E+00  0.00000000000E+00  0.21668227259E+04  0.21668227259E+04  0.25500000920E-02 0.  1.
       -2   -1    0    0    0  501  0.00000000000E+00  0.00000000000E+00 -0.11022302523E+04  0.11022302523E+04  0.25500000920E-02 0. -1.
    10030    2    1    2    0    0  0.00000000000E+00  0.00000000000E+00  0.10645924737E+04  0.32690529782E+04  0.30908494365E+04 0.  0.
        5    1    3    3  502    0  0.59973746687E+03  0.10907832591E+04 -0.43638100934E+03  0.13190692259E+04  0.46999998093E+01 0. -1.
       -5    1    3    3    0  502 -0.59973746687E+03 -0.10907832591E+04  0.15009734830E+04  0.19499837523E+04  0.46999998093E+01 0.  1.
</event>
<event>
 5   0  0.2094135E-06  0.3096163E+04  0.7818609E-02  0.8216792E-01
       -2   -1    0    0    0  501  0.00000000000E+00  0.00000000000E+00  0.11776095243E+04  0.11776095243E+04  0.25500000920E-02 0.  1.
        2   -1    0    0  501    0  0.00000000000E+00  0.00000000000E+00 -0.20351028928E+04  0.20351028928E+04  0.25500000920E-02 0. -1.
    10030    2    1    2    0    0  0.00000000000E+00  0.00000000000E+00 -0.85749336848E+03  0.32127124171E+04  0.30961631414E+04 0.  0.
        4    1    3    3  502    0 -0.88739792626E+03  0.47686716397E+03 -0.16484420353E+04  0.19319006518E+04  0.12699999809E+01 0. -1.
       -4    1    3    3    0  502  0.88739792626E+03 -0.47686716397E+03  0.79094866687E+03  0.12808117653E+04  0.12699999809E+01 0.  1.
</event>
<event>
 5   0  0.7413481E-07  0.2994392E+04  0.7818609E-02  0.8245334E-01
       -1   -1    0    0    0  501  0.00000000000E+00  0.00000000000E+00  0.97515574716E+03  0.97515574717E+03  0.50400001928E-02 0.  1.
        1   -1    0    0  501    0  0.00000000000E+00  0.00000000000E+00 -0.22987058245E+04  0.22987058245E+04  0.50400001928E-02 0. -1.
    10030    2    1    2    0    0  0.00000000000E+00  0.00000000000E+00 -0.13235500774E+04  0.32738615717E+04  0.29943922227E+04 0.  0.
        5    1    3    3  502    0  0.99088546397E+03  0.11131684829E+04 -0.81860622898E+03  0.17003341795E+04  0.46999998093E+01 0. -1.
       -5    1    3    3    0  502 -0.99088546397E+03 -0.11131684829E+04 -0.50494384838E+03  0.15735273922E+04  0.46999998093E+01 0.  1.
</event>
<event>
 5   0  0.7561815E-07  0.3125005E+04  0.7818609E-02  0.8208909E-01
        1   -1    0    0  501    0  0.00000000000E+00  0.00000000000E+00  0.17636136747E+04  0.17636136747E+04  0.50400001928E-02 0. -1.
       -1   -1    0    0    0  501  0.00000000000E+00  0.00000000000E+00 -0.13843244495E+04  0.13843244496E+04  0.50400001928E-02 0.  1.
    10030    2    1    2    0    0  0.00000000000E+00  0.00000000000E+00  0.37928922515E+03  0.31479381243E+04  0.31250046589E+04 0.  0.
        3    1    3    3  502    0 -0.46324609775E+03  0.89087685083E+03  0.13955746176E+04  0.17192693314E+04  0.10100000352E+00 0. -1.
       -3    1    3    3    0  502  0.46324609775E+03 -0.89087685083E+03 -0.10162853925E+04  0.14286687928E+04  0.10100000352E+00 0.  1.
</event>
<event>
 5   0  0.7726743E-07  0.3096081E+04  0.7818609E-02  0.8216814E-01
        1   -1    0    0  501    0  0.00000000000E+00  0.00000000000E+00  0.17796400260E+04  0.17796400260E+04  0.50400001928E-02 0.  1.
       -1   -1    0    0    0  501  0.00000000000E+00  0.00000000000E+00 -0.13465812050E+04  0.13465812050E+04  0.50400001928E-02 0. -1.
    10030    2    1    2    0    0  0.00000000000E+00  0.00000000000E+00  0.43305882102E+03  0.31262212310E+04  0.30960812719E+04 0.  0.
        1    1    3    3  502    0 -0.82232485829E+03 -0.94043717869E+02  0.15374569216E+04  0.17460916870E+04  0.50400001928E-02 0.  1.
       -1    1    3    3    0  502  0.82232485829E+03  0.94043717869E+02 -0.11043981006E+04  0.13801295440E+04  0.50400001928E-02 0. -1.
</event>
<event>
 5   0  0.7413481E-07  0.3104156E+04  0.7818609E-02  0.8214598E-01
        1   -1    0    0  501    0  0.00000000000E+00  0.00000000000E+00  0.22536452355E+04  0.22536452355E+04  0.50400001928E-02 0. -1.
       -1   -1    0    0    0  501  0.00000000000E+00  0.00000000000E+00 -0.10689110650E+04  0.10689110650E+04  0.50400001928E-02 0.  1.
    10030    2    1    2    0    0  0.00000000000E+00  0.00000000000E+00  0.11847341705E+04  0.33225563005E+04  0.31041561357E+04 0.  0.
        5    1    3    3  502    0 -0.13453345026E+04  0.62079658865E+03  0.10870654862E+04  0.18376742882E+04  0.46999998093E+01 0. -1.
       -5    1    3    3    0  502  0.13453345026E+04 -0.62079658865E+03  0.97668684338E+02  0.14848820123E+04  0.46999998093E+01 0.  1.
</event>
<event>
 5   0  0.2133385E-06  0.3129405E+04  0.7818609E-02  0.8207714E-01
        2   -1    0    0  501    0  0.00000000000E+00  0.00000000000E+00  0.17410268120E+04  0.17410268120E+04  0.25500000920E-02 0.  1.
       -2   -1    0    0    0  501  0.00000000000E+00  0.00000000000E+00 -0.14062354680E+04  0.14062354680E+04  0.25500000920E-02 0. -1.
    10030    2    1    2    0    0  0.00000000000E+00  0.00000000000E+00  0.33479134401E+03  0.31472622801E+04  0.31294048341E+04 0.  0.
        2    1    3    3  502    0 -0.29420063645E+03  0.14549882247E+04 -0.33014841206E+03  0.15207046796E+04  0.25500000920E-02 0.  1.
       -2    1    3    3    0  502  0.29420063645E+03 -0.14549882247E+04  0.66493975607E+03  0.16265576005E+04  0.25500000920E-02 0. -1.
</event>
<event>
 5   0  0.7656332E-07  0.3075334E+04  0.7818609E-02  0.8222540E-01
        1   -1    0    0  501    0  0.00000000000E+00  0.00000000000E+00  0.84308631102E+03  0.84308631104E+03  0.50400001928E-02 0.  1.
       -1   -1    0    0    0  501  0.00000000000E+00  0.00000000000E+00 -0.28044806382E+04  0.28044806382E+04  0.50400001928E-02 0. -1.
    10030    2    1    2    0    0  0.00000000000E+00  0.00000000000E+00 -0.19613943272E+04  0.36475669493E+04  0.30753336311E+04 0.  0.
        2    1    3    3  502    0  0.10133843142E+03 -0.99709133097E+03 -0.23638618227E+04  0.25675481138E+04  0.25500000920E-02 0. -1.
       -2    1    3    3    0  502 -0.10133843142E+03  0.99709133097E+03  0.40246749549E+03  0.10800188354E+04  0.25500000920E-02 0.  1.
</event>
<event>
 5   0  0.2078009E-06  0.3106422E+04  0.7818609E-02  0.8213978E-01
        2   -1    0    0  501    0  0.00000000000E+00  0.00000000000E+00  0.19094071718E+04  0.19094071718E+04  0.25500000920E-02 0. -1.
       -2   -1    0    0    0  501  0.00000000000E+00  0.00000000000E+00 -0.12634624965E+04  0.12634624965E+04  0.25500000920E-02 0.  1.
    10030    2    1    2    0    0  0.00000000000E+00  0.00000000000E+00  0.64594467537E+03  0.31728696683E+04  0.31064219624E+04 0.  0.
        3    1    3    3  502    0  0.23513356469E+02  0.55713533074E+03  0.18036403350E+04  0.18878747636E+04  0.10100000352E+00 0. -1.
       -3    1    3    3    0  502 -0.23513356469E+02 -0.55713533074E+03 -0.11576956596E+04  0.12849949047E+04  0.10100000352E+00 0.  1.
</event>
<event>
 5   0  0.7726743E-07  0.3090618E+04  0.7818609E-02  0.8218317E-01
        1   -1    0    0  501    0  0.00000000000E+00  0.00000000000E+00  0.16355724555E+04  0.16355724555E+04  0.50400001928E-02 0.  1.
       -1   -1    0    0    0  501  0.00000000000E+00  0.00000000000E+00 -0.14600267869E+04  0.14600267869E+04  0.50400001928E-02 0. -1.
    10030    2    1    2    0    0  0.00000000000E+00  0.00000000000E+00  0.17554566859E+03  0.30955992425E+04  0.30906178004E+04 0.  0.
        1    1    3    3  502    0  0.75904166701E+03 -0.98763680375E+03  0.10038008364E+04  0.15997458635E+04  0.50400001928E-02 0.  1.
       -1    1    3    3    0  502 -0.75904166701E+03  0.98763680375E+03 -0.82825516785E+03  0.14958533790E+04  0.50400001928E-02 0. -1.
</event>
<event>
 5   0  0.2078009E-06  0.3050608E+04  0.7818609E-02  0.8229425E-01
        2   -1    0    0  501    0  0.00000000000E+00  0.00000000000E+00  0.17377099765E+04  0.17377099765E+04  0.25500000920E-02 0.  1.
       -2   -1    0    0    0  501  0.00000000000E+00  0.00000000000E+00 -0.13388613740E+04  0.13388613740E+04  0.25500000920E-02 0. -1.
    10030    2    1    2    0    0  0.00000000000E+00  0.00000000000E+00  0.39884860255E+03  0.30765713505E+04  0.30506083110E+04 0.  0.
        3    1    3    3  502    0  0.10448665691E+04  0.26947018512E+03 -0.88780103211E+03  0.13973371142E+04  0.10100000352E+00 0. -1.
       -3    1    3    3    0  502 -0.10448665691E+04 -0.26947018512E+03  0.12866496347E+04  0.16792342363E+04  0.10100000352E+00 0.  1.
</event>
<event>
 5   0  0.2226334E-06  0.3023358E+04  0.7818609E-02  0.8237092E-01
        2   -1    0    0  501    0  0.00000000000E+00  0.00000000000E+00  0.27679910717E+04  0.27679910717E+04  0.25500000920E-02 0. -1.
       -2   -1    0    0    0  501  0.00000000000E+00  0.00000000000E+00 -0.82557119676E+03  0.82557119676E+03  0.25500000920E-02 0.  1.
    10030    2    1    2    0    0  0.00000000000E+00  0.00000000000E+00  0.19424198749E+04  0.35935622684E+04  0.30233582002E+04 0.  0.
        5    1    3    3  502    0  0.14385393343E+04 -0.35035178523E+03  0.13337032314E+04  0.19927187933E+04  0.46999998093E+01 0. -1.
       -5    1    3    3    0  502 -0.14385393343E+04  0.35035178523E+03  0.60871664358E+03  0.16008434752E+04  0.46999998093E+01 0.  1.
</event>
<event>
 5   0  0.2226334E-06  0.3079641E+04  0.7818609E-02  0.8221347E-01
        2   -1    0    0  501    0  0.00000000000E+00  0.00000000000E+00  0.17900805140E+04  0.17900805140E+04  0.25500000920E-02 0. -1.
       -2   -1    0    0    0  501  0.00000000000E+00  0.00000000000E+00 -0.13245480815E+04  0.13245480815E+04  0.25500000920E-02 0.  1.
    10030    2    1    2    0    0  0.00000000000E+00  0.00000000000E+00  0.46553243247E+03  0.31146285955E+04  0.30796413496E+04 0.  0.
        5    1    3    3  502    0  0.20756326303E+03 -0.21249991621E+03 -0.12952881636E+04  0.13289214571E+04  0.46999998093E+01 0.  1.
       -5    1    3    3    0  502 -0.20756326303E+03  0.21249991621E+03  0.17608205960E+04  0.17857071383E+04  0.46999998093E+01 0. -1.
</event>
<event>
 5   0  0.2078009E-06  0.3124491E+04  0.7818609E-02  0.8209049E-01
       -2   -1    0    0    0  501  0.00000000000E+00  0.00000000000E+00  0.25295352552E+04  0.25295352552E+04  0.25500000920E-02 0.  1.
        2   -1    0    0  501    0  0.00000000000E+00  0.00000000000E+00 -0.96484561405E+03  0.96484561405E+03  0.25500000920E-02 0. -1.
    10030    2    1    2    0    0  0.00000000000E+00  0.00000000000E+00  0.15646896412E+04  0.34943808693E+04  0.31244909964E+04 0.  0.
        3    1    3    3  502    0 -0.77526912390E+03 -0.43130413291E+02  0.22984498143E+04  0.24260614185E+04  0.10100000352E+00 0.  1.
       -3    1    3    3    0  502  0.77526912390E+03  0.43130413291E+02 -0.73376017316E+03  0.10683194508E+04  0.10100000352E+00 0. -1.
</event>
<event>
 5   0  0.7726743E-07  0.3094329E+04  0.7818609E-02  0.8217296E-01
        1   -1    0    0  501    0  0.00000000000E+00  0.00000000000E+00  0.22400883572E+04  0.22400883572E+04  0.50400001928E-02 0.  1.
       -1   -1    0    0    0  501  0.00000000000E+00  0.00000000000E+00 -0.10685819781E+04  0.10685819781E+04  0.50400001928E-02 0. -1.
    10030    2    1    2    0    0  0.00000000000E+00  0.00000000000E+00  0.11715063790E+04  0.33086703353E+04  0.30943290374E+04 0.  0.
        1    1    3    3  502    0 -0.17197799573E+03 -0.11351093198E+04  0.16947395890E+04  0.20469958167E+04  0.50400001928E-02 0.  1.
       -1    1    3    3    0  502  0.17197799573E+03  0.11351093198E+04 -0.52323321001E+03  0.12616745186E+04  0.50400001928E-02 0. -1.
</event>
<event>
 5   0  0.7519202E-07  0.3004671E+04  0.7818609E-02  0.8242398E-01
       -1   -1    0    0    0  501  0.00000000000E+00  0.00000000000E+00  0.10941090089E+04  0.10941090089E+04  0.50400001928E-02 0. -1.
        1   -1    0    0  501    0  0.00000000000E+00  0.00000000000E+00 -0.20628771962E+04  0.20628771962E+04  0.50400001928E-02 0.  1.
    10030    2    1    2    0    0  0.00000000000E+00  0.00000000000E+00 -0.96876818731E+03  0.31569862051E+04  0.30046713794E+04 0.  0.
        4    1    3    3  502    0  0.47789158758E+03  0.90867335822E+03  0.66800271273E+03  0.12248660656E+04  0.12699999809E+01 0. -1.
       -4    1    3    3    0  502 -0.47789158758E+03 -0.90867335822E+03 -0.16367709000E+04  0.19321201395E+04  0.12699999809E+01 0.  1.
</event>
<event>
 5   0  0.7413481E-07  0.3062432E+04  0.7818609E-02  0.8226124E-01
       -1   -1    0    0    0  501  0.00000000000E+00  0.00000000000E+00  0.16618115788E+04  0.16618115788E+04  0.50400001928E-02 0. -1.
        1   -1    0    0  501    0  0.00000000000E+00  0.00000000000E+00 -0.14108833681E+04  0.14108833681E+04  0.50400001928E-02 0.  1.
    10030    2    1    2    0    0  0.00000000000E+00  0.00000000000E+00  0.25092821074E+03  0.30726949469E+04  0.30624319208E+04 0.  0.
        5    1    3    3  502    0 -0.80103989398E+03 -0.10421221160E+04 -0.66260863569E+03  0.14719903907E+04  0.46999998093E+01 0.  1.
       -5    1    3    3    0  502  0.80103989398E+03  0.10421221160E+04  0.91353684643E+03  0.16007045562E+04  0.46999998093E+01 0. -1.
</event>
<event>
 5   0  0.2133385E-06  0.3094689E+04  0.7818609E-02  0.8217197E-01
       -2   -1    0    0    0  501  0.00000000000E+00  0.00000000000E+00  0.14742236430E+04  0.14742236430E+04  0.25500000920E-02 0. -1.
        2   -1    0    0  501    0  0.00000000000E+00  0.00000000000E+00 -0.16240923928E+04  0.16240923928E+04  0.25500000920E-02 0.  1.
    10030    2    1    2    0    0  0.00000000000E+00  0.00000000000E+00 -0.14986874982E+03  0.30983160359E+04  0.30946892600E+04 0.  0.
        2    1    3    3  502    0 -0.49521814257E+03 -0.13227562781E+04 -0.70761659992E+03  0.15797615113E+04  0.25500000920E-02 0.  1.
       -2    1    3    3    0  502  0.49521814257E+03  0.13227562781E+04  0.55774785010E+03  0.15185545246E+04  0.25500000920E-02 0. -1.
</event>
<event>
 5   0  0.7561815E-07  0.3021046E+04  0.7818609E-02  0.8237746E-01
        1   -1    0    0  501    0  0.00000000000E+00  0.00000000000E+00  0.13700679714E+04  0.13700679714E+04  0.50400001928E-02 0. -1.
       -1   -1    0    0    0  501  0.00000000000E+00  0.00000000000E+00 -0.16653773519E+04  0.16653773519E+04  0.50400001928E-02 0.  1.
    10030    2    1    2    0    0  0.00000000000E+00  0.00000000000E+00 -0.29530938049E+03  0.30354453233E+04  0.30210462890E+04 0.  0.
        3    1    3    3  502    0  0.57730193078E+03  0.12092957493E+04 -0.84811905003E+03  0.15858687404E+04  0.10100000352E+00 0.  1.
       -3    1    3    3    0  502 -0.57730193078E+03 -0.12092957493E+04  0.55280966954E+03  0.14495765828E+04  0.10100000352E+00 0. -1.
</event>
<event>
 5   0  0.7519202E-07  0.3120544E+04  0.7818609E-02  0.8210122E-01
        1   -1    0    0  501    0  0.00000000000E+00  0.00000000000E+00  0.96896836153E+03  0.96896836154E+03  0.50400001928E-02 0.  1.
       -1   -1    0    0    0  501  0.00000000000E+00  0.00000000000E+00 -0.25124130625E+04  0.25124130625E+04  0.50400001928E-02 0. -1.
    10030    2    1    2    0    0  0.00000000000E+00  0.00000000000E+00 -0.15434447010E+04  0.34813814241E+04  0.31205440351E+04 0.  0.
        4    1    3    3  502    0 -0.56683851403E+03 -0.10322159355E+04  0.37019286766E+03  0.12344310473E+04  0.12699999809E+01 0.  1.
       -4    1    3    3    0  502  0.56683851403E+03  0.10322159355E+04 -0.19136375687E+04  0.22469503768E+04  0.12699999809E+01 0. -1.
</event>
<event>
 5   0  0.2094135E-06  0.3134740E+04  0.7818609E-02  0.8206268E-01
        2   -1    0    0  501    0  0.00000000000E+00  0.00000000000E+00  0.15891419170E+04  0.15891419170E+04  0.25500000920E-02 0. -1.
       -2   -1    0    0    0  501  0.00000000000E+00  0.00000000000E+00 -0.15458960506E+04  0.15458960506E+04  0.25500000920E-02 0.  1.
    10030    2    1    2    0    0  0.00000000000E+00  0.00000000000E+00  0.43245866383E+02  0.31350379675E+04  0.31347396787E+04 0.  0.
        4    1    3    3  502    0 -0.41358819481E+03 -0.14558166529E+03 -0.14833117319E+04  0.15467593617E+04  0.12699999809E+01 0.  1.
       -4    1    3    3    0  502  0.41358819481E+03  0.14558166529E+03  0.15265575982E+04  0.15882786059E+04  0.12699999809E+01 0. -1.
</event>
<event>
 5   0  0.7519202E-07  0.3119715E+04  0.7818609E-02  0.8210348E-01
        1   -1    0    0  501    0  0.00000000000E+00  0.00000000000E+00  0.24339223681E+04  0.24339223681E+04  0.50400001928E-02 0. -1.
       -1   -1    0    0    0  501  0.00000000000E+00  0.00000000000E+00 -0.99968509624E+03  0.99968509625E+03  0.50400001928E-02 0.  1.
    10030    2    1    2    0    0  0.00000000000E+00  0.00000000000E+00  0.14342372719E+04  0.34336074644E+04  0.31197153183E+04 0.  0.
        4    1    3    3  502    0 -0.17162019233E+03 -0.14985203340E+04  0.27944208313E+03  0.15339837589E+04  0.12699999809E+01 0.  1.
       -4    1    3    3    0  502  0.17162019233E+03  0.14985203340E+04  0.11547951888E+04  0.18996237055E+04  0.12699999809E+01 0. -1.
</event>
<event>
 5   0  0.7519202E-07  0.2713722E+04  0.7818609E-02  0.8330566E-01
       -1   -1    0    0    0  501  0.00000000000E+00  0.00000000000E+00  0.92325153923E+03  0.92325153925E+03  0.50400001928E-02 0.  1.
        1   -1    0    0  501    0  0.00000000000E+00  0.00000000000E+00 -0.19941179056E+04  0.19941179056E+04  0.50400001928E-02 0. -1.
    10030    2    1    2    0    0  0.00000000000E+00  0.00000000000E+00 -0.10708663664E+04  0.29173694449E+04  0.27137224809E+04 0.  0.
        4    1    3    3  502    0  0.49871070130E+03  0.39114360171E+03 -0.18252008535E+04  0.19321142434E+04  0.12699999809E+01 0. -1.
       -4    1    3    3    0  502 -0.49871070130E+03 -0.39114360171E+03  0.75433448714E+03  0.98525520152E+03  0.12699999809E+01 0.  1.
</event>
<event>
 5   0  0.7726743E-07  0.3114441E+04  0.7818609E-02  0.8211786E-01
        1   -1    0    0  501    0  0.00000000000E+00  0.00000000000E+00  0.10887406211E+04  0.10887406211E+04  0.50400001928E-02 0. -1.
       -1   -1    0    0    0  501  0.00000000000E+00  0.00000000000E+00 -0.22272856252E+04  0.22272856252E+04  0.50400001928E-02 0.  1.
    10030    2    1    2    0    0  0.00000000000E+00  0.00000000000E+00 -0.11385450041E+04  0.33160262462E+04  0.31144414169E+04 0.  0.
        1    1    3    3  502    0 -0.71946700080E+03 -0.16350444288E+03 -0.20293722622E+04  0.21593328245E+04  0.50400001928E-02 0.  1.
       -1    1    3    3    0  502  0.71946700080E+03  0.16350444288E+03  0.89082725815E+03  0.11566934218E+04  0.50400001928E-02 0. -1.
</event>
<event>
 5   0  0.2067926E-06  0.3067101E+04  0.7818609E-02  0.8224825E-01
       -2   -1    0    0    0  501  0.00000000000E+00  0.00000000000E+00  0.91756936713E+03  0.91756936713E+03  0.25500000920E-02 0. -1.
        2   -1    0    0  501    0  0.00000000000E+00  0.00000000000E+00 -0.25630504824E+04  0.25630504824E+04  0.25500000920E-02 0.  1.
    10030    2    1    2    0    0  0.00000000000E+00  0.00000000000E+00 -0.16454811152E+04  0.34806198495E+04  0.30671006563E+04 0.  0.
        1    1    3    3  502    0  0.58707963751E+03 -0.66990550344E+03  0.59390033469E+03  0.10705855836E+04  0.50400001928E-02 0. -1.
       -1    1    3    3    0  502 -0.58707963751E+03  0.66990550344E+03 -0.22393814499E+04  0.24100342659E+04  0.50400001928E-02 0.  1.
</event>
<event>
 5   0  0.7561815E-07  0.2759681E+04  0.7818609E-02  0.8315896E-01
       -1   -1    0    0    0  501  0.00000000000E+00  0.00000000000E+00  0.12172932283E+04  0.12172932283E+04  0.50400001928E-02 0.  1.
        1   -1    0    0  501    0  0.00000000000E+00  0.00000000000E+00 -0.15640932045E+04  0.15640932046E+04  0.50400001928E-02 0. -1.
    10030    2    1    2    0    0  0.00000000000E+00  0.00000000000E+00 -0.34679997629E+03  0.27813864328E+04  0.27596811890E+04 0.  0.
        3    1    3    3  502    0  0.60976749379E+03 -0.91181673279E+03  0.67028240213E+03  0.12854978255E+04  0.10100000352E+00 0.  1.
       -3    1    3    3    0  502 -0.60976749379E+03  0.91181673279E+03 -0.10170823784E+04  0.14958886073E+04  0.10100000352E+00 0. -1.
</event>
<event>
 5   0  0.2133385E-06  0.3114969E+04  0.7818609E-02  0.8211642E-01
       -2   -1    0    0    0  501  0.00000000000E+00  0.00000000000E+00  0.13164288161E+04  0.13164288161E+04  0.25500000920E-02 0. -1.
        2   -1    0    0  501    0  0.00000000000E+00  0.00000000000E+00 -0.18426804804E+04  0.18426804804E+04  0.25500000920E-02 0.  1.
    10030    2    1    2    0    0  0.00000000000E+00  0.00000000000E+00 -0.52625166430E+03  0.31591092964E+04  0.31149688173E+04 0.  0.
        2    1    3    3  502    0 -0.11831153985E+04  0.74433745921E+03 -0.95985235033E+03  0.16956169479E+04  0.25500000920E-02 0.  1.
       -2    1    3    3    0  502  0.11831153985E+04 -0.74433745921E+03  0.43360068603E+03  0.14634923486E+04  0.25500000920E-02 0. -1.
</event>
<event>
 5   0  0.2078009E-06  0.3128430E+04  0.7818609E-02  0.8207979E-01
        2   -1    0    0  501    0  0.00000000000E+00  0.00000000000E+00  0.21674096182E+04  0.21674096182E+04  0.25500000920E-02 0. -1.
       -2   -1    0    0    0  501  0.00000000000E+00  0.00000000000E+00 -0.11288908846E+04  0.11288908847E+04  0.25500000920E-02 0.  1.
    10030    2    1    2    0    0  0.00000000000E+00  0.00000000000E+00  0.10385187335E+04  0.32963005028E+04  0.31284302525E+04 0.  0.
        3    1    3    3  502    0 -0.77731728664E+03 -0.35582237539E+02 -0.91049133776E+03  0.11976989380E+04  0.10100000352E+00 0.  1.
       -3    1    3    3    0  502  0.77731728664E+03  0.35582237539E+02  0.19490100713E+04  0.20986015648E+04  0.10100000352E+00 0. -1.
</event>
<event>
 5   0  0.7413481E-07  0.3079765E+04  0.7818609E-02  0.8221313E-01
        1   -1    0    0  501    0  0.00000000000E+00  0.00000000000E+00  0.23349605576E+04  0.23349605576E+04  0.50400001928E-02 0. -1.
       -1   -1    0    0    0  501  0.00000000000E+00  0.00000000000E+00 -0.10155366362E+04  0.10155366362E+04  0.50400001928E-02 0.  1.
    10030    2    1    2    0    0  0.00000000000E+00  0.00000000000E+00  0.13194239214E+04  0.33504971938E+04  0.30797649198E+04 0.  0.
        5    1    3    3  502    0  0.69638757391E+02 -0.24150195678E+03 -0.99306272523E+03  0.10243868497E+04  0.46999998093E+01 0.  1.
       -5    1    3    3    0  502 -0.69638757391E+02  0.24150195678E+03  0.23124866466E+04  0.23261103440E+04  0.46999998093E+01 0. -1.
</event>
<event>
 5   0  0.2094135E-06  0.3088821E+04  0.7818609E-02  0.8218813E-01
        2   -1    0    0  501    0  0.00000000000E+00  0.00000000000E+00  0.18140151199E+04  0.18140151199E+04  0.25500000920E-02 0.  1.
       -2   -1    0    0    0  501  0.00000000000E+00  0.00000000000E+00 -0.13148755703E+04  0.13148755703E+04  0.25500000920E-02 0. -1.
    10030    2    1    2    0    0  0.00000000000E+00  0.00000000000E+00  0.49913954959E+03  0.31288906902E+04  0.30888212414E+04 0.  0.
        4    1    3    3  502    0 -0.10992875822E+03 -0.16744776663E+03  0.18008004985E+04  0.18119070437E+04  0.12699999809E+01 0.  1.
       -4    1    3    3    0  502  0.10992875822E+03  0.16744776663E+03 -0.13016609489E+04  0.13169836466E+04  0.12699999809E+01 0. -1.
</event>
<event>
 5   0  0.2094135E-06  0.3176463E+04  0.7818609E-02  0.8195061E-01
        2   -1    0    0  501    0  0.00000000000E+00  0.00000000000E+00  0.32592748203E+04  0.32592748203E+04  0.25500000920E-02 0.  1.
       -2   -1    0    0    0  501  0.00000000000E+00  0.00000000000E+00 -0.77393874431E+03  0.77393874431E+03  0.25500000920E-02 0. -1.
    10030    2    1    2    0    0  0.00000000000E+00  0.00000000000E+00  0.24853360760E+04  0.40332135646E+04  0.31764628515E+04 0.  0.
        4    1    3    3  502    0  0.10959558603E+04  0.10769314913E+04  0.17530518507E+04  0.23311141303E+04  0.12699999809E+01 0.  1.
       -4    1    3    3    0  502 -0.10959558603E+04 -0.10769314913E+04  0.73228422532E+03  0.17020994343E+04  0.12699999809E+01 0. -1.
</event>
<event>
 5   0  0.2133385E-06  0.3081444E+04  0.7818609E-02  0.8220849E-01
        2   -1    0    0  501    0  0.00000000000E+00  0.00000000000E+00  0.17555542095E+04  0.17555542095E+04  0.25500000920E-02 0. -1.
       -2   -1    0    0    0  501  0.00000000000E+00  0.00000000000E+00 -0.13521796613E+04  0.13521796613E+04  0.25500000920E-02 0.  1.
    10030    2    1    2    0    0  0.00000000000E+00  0.00000000000E+00  0.40337454814E+03  0.31077338708E+04  0.30814442695E+04 0.  0.
        2    1    3    3  502    0 -0.17625006589E+03 -0.63350453815E+03  0.16069277928E+04  0.17362629458E+04  0.25500000920E-02 0. -1.
       -2    1    3    3    0  502  0.17625006589E+03  0.63350453815E+03 -0.12035532446E+04  0.13714709251E+04  0.25500000920E-02 0.  1.
</event>
<event>
 5   0  0.7413481E-07  0.3097768E+04  0.7818609E-02  0.8216351E-01
        1   -1    0    0  501    0  0.00000000000E+00  0.00000000000E+00  0.25804786154E+04  0.25804786154E+04  0.50400001928E-02 0. -1.
       -1   -1    0    0    0  501  0.00000000000E+00  0.00000000000E+00 -0.92968840965E+03  0.92968840967E+03  0.50400001928E-02 0.  1.
    10030    2    1    2    0    0  0.00000000000E+00  0.00000000000E+00  0.16507902058E+04  0.35101670251E+04  0.30977676221E+04 0.  0.
        5    1    3    3  502    0  0.37904699238E+03 -0.53601081934E+03  0.24150224557E+04  0.25026665324E+04  0.46999998093E+01 0. -1.
       -5    1    3    3    0  502 -0.37904699238E+03  0.53601081934E+03 -0.76423224994E+03  0.10075004927E+04  0.46999998093E+01 0.  1.
</event>
<event>
 5   0  0.2078009E-06  0.3098497E+04  0.7818609E-02  0.8216151E-01
        2   -1    0    0  501    0  0.00000000000E+00  0.00000000000E+00  0.17518273644E+04  0.17518273644E+04  0.25500000920E-02 0. -1.
       -2   -1    0    0    0  501  0.00000000000E+00  0.00000000000E+00 -0.13700955756E+04  0.13700955756E+04  0.25500000920E-02 0.  1.
    10030    2    1    2    0    0  0.00000000000E+00  0.00000000000E+00  0.38173178884E+03  0.31219229400E+04  0.30984970041E+04 0.  0.
        3    1    3    3  502    0  0.10073576106E+04 -0.10068716338E+04 -0.42334203486E+03  0.14858594588E+04  0.10100000352E+00 0.  1.
       -3    1    3    3    0  502 -0.10073576106E+04  0.10068716338E+04  0.80507382370E+03  0.16360634812E+04  0.10100000352E+00 0. -1.
</event>
<event>
 5   0  0.6979625E-07  0.3130458E+04  0.7818609E-02  0.8207428E-01
       -3   -1    0    0    0  501  0.00000000000E+00  0.00000000000E+00  0.20765483044E+04  0.20765483069E+04  0.10100000352E+00 0.  1.
        3   -1    0    0  501    0  0.00000000000E+00  0.00000000000E+00 -0.11798143103E+04  0.11798143147E+04  0.10100000352E+00 0. -1.
    10030    2    1    2    0    0  0.00000000000E+00  0.00000000000E+00  0.89673399406E+03  0.32563626215E+04  0.31304577408E+04 0.  0.
        1    1    3    3  502    0  0.83979407121E+03 -0.62159593095E+02  0.18208351898E+04  0.20061302763E+04  0.50400001928E-02 0.  1.
       -1    1    3    3    0  502 -0.83979407121E+03  0.62159593095E+02 -0.92410119574E+03  0.12502323452E+04  0.50400001928E-02 0. -1.
</event>
<event>
 5   0  0.7561815E-07  0.3112268E+04  0.7818609E-02  0.8212379E-01
        1   -1    0    0  501    0  0.00000000000E+00  0.00000000000E+00  0.13259149863E+04  0.13259149863E+04  0.50400001928E-02 0. -1.
       -1   -1    0    0    0  501  0.00000000000E+00  0.00000000000E+00 -0.18263260081E+04  0.18263260081E+04  0.50400001928E-02 0.  1.
    10030    2    1    2    0    0  0.00000000000E+00  0.00000000000E+00 -0.50041102179E+03  0.31522409945E+04  0.31122679988E+04 0.  0.
        3    1    3    3  502    0  0.81630076047E+03 -0.11492194808E+04 -0.91783828688E+03  0.16821056678E+04  0.10100000352E+00 0.  1.
       -3    1    3    3    0  502 -0.81630076047E+03  0.11492194808E+04  0.41742726510E+03  0.14701353266E+04  0.10100000352E+00 0. -1.
</event>
<event>
 5   0  0.6979625E-07  0.3124040E+04  0.7818609E-02  0.8209171E-01
        3   -1    0    0  501    0  0.00000000000E+00  0.00000000000E+00  0.14510441387E+04  0.14510441422E+04  0.10100000352E+00 0. -1.
       -3   -1    0    0    0  501  0.00000000000E+00  0.00000000000E+00 -0.16814829764E+04  0.16814829795E+04  0.10100000352E+00 0.  1.
    10030    2    1    2    0    0  0.00000000000E+00  0.00000000000E+00 -0.23043883774E+03  0.31325271217E+04  0.31240397101E+04 0.  0.
        3    1    3    3  502    0  0.78370004362E+03  0.13472108674E+04 -0.21915012264E+03  0.15739090399E+04  0.10100000352E+00 0. -1.
       -3    1    3    3    0  502 -0.78370004362E+03 -0.13472108674E+04 -0.11288715095E+02  0.15586180818E+04  0.10100000352E+00 0.  1.
</event>
<event>
 5   0  0.2094135E-06  0.3103115E+04  0.7818609E-02  0.8214883E-01
        2   -1    0    0  501    0  0.00000000000E+00  0.00000000000E+00  0.20153766592E+04  0.20153766592E+04  0.25500000920E-02 0. -1.
       -2   -1    0    0    0  501  0.00000000000E+00  0.00000000000E+00 -0.11944819304E+04  0.11944819304E+04  0.25500000920E-02 0.  1.
    10030    2    1    2    0    0  0.00000000000E+00  0.00000000000E+00  0.82089472878E+03  0.32098585896E+04  0.31031152105E+04 0.  0.
        4    1    3    3  502    0  0.22344759952E+03  0.10473365195E+04 -0.75088665064E+03  0.13079277464E+04  0.12699999809E+01 0.  1.
       -4    1    3    3    0  502 -0.22344759952E+03 -0.10473365195E+04  0.15717813794E+04  0.19019308432E+04  0.12699999809E+01 0. -1.
</event>
<event>
 5   0  0.7519202E-07  0.3112450E+04  0.7818609E-02  0.8212329E-01
        1   -1    0    0  501    0  0.00000000000E+00  0.00000000000E+00  0.11264559679E+04  0.11264559679E+04  0.50400001928E-02 0.  1.
       -1   -1    0    0    0  501  0.00000000000E+00  0.00000000000E+00 -0.21499606195E+04  0.21499606195E+04  0.50400001928E-02 0. -1.
    10030    2    1    2    0    0  0.00000000000E+00  0.00000000000E+00 -0.10235046516E+04  0.32764165875E+04  0.31124498201E+04 0.  0.
        4    1    3    3  502    0  0.37381403192E+03 -0.13662954014E+04 -0.11901676645E+04  0.18501353294E+04  0.12699999809E+01 0.  1.
       -4    1    3    3    0  502 -0.37381403192E+03  0.13662954014E+04  0.16666301293E+03  0.14262812581E+04  0.12699999809E+01 0. -1.
</event>
<event>
 5   0  0.7561815E-07  0.3044621E+04  0.7818609E-02  0.8231103E-01
       -1   -1    0    0    0  501  0.00000000000E+00  0.00000000000E+00  0.11600354007E+04  0.11600354007E+04  0.50400001928E-02 0.  1.
        1   -1    0    0  501    0  0.00000000000E+00  0.00000000000E+00 -0.19977225042E+04  0.19977225042E+04  0.50400001928E-02 0. -1.
    10030    2    1    2    0    0  0.00000000000E+00  0.00000000000E+00 -0.83768710351E+03  0.31577579050E+04  0.30446207158E+04 0.  0.
        3    1    3    3  502    0  0.40756952402E+03  0.14579623062E+04 -0.58498932388E+03  0.16229539496E+04  0.10100000352E+00 0. -1.
       -3    1    3    3    0  502 -0.40756952402E+03 -0.14579623062E+04 -0.25269777963E+03  0.15348039553E+04  0.10100000352E+00 0.  1.
</event>
<event>
 5   0  0.2133385E-06  0.3145817E+04  0.7818609E-02  0.8203275E-01
        2   -1    0    0  501    0  0.00000000000E+00  0.00000000000E+00  0.14824477502E+04  0.14824477502E+04  0.25500000920E-02 0. -1.
       -2   -1    0    0    0  501  0.00000000000E+00  0.00000000000E+00 -0.16688896388E+04  0.16688896388E+04  0.25500000920E-02 0.  1.
    10030    2    1    2    0    0  0.00000000000E+00  0.00000000000E+00 -0.18644188861E+03  0.31513373890E+04  0.31458173440E+04 0.  0.
        2    1    3    3  502    0 -0.12799749158E+04  0.42237013351E+03  0.71894787688E+03  0.15276185272E+04  0.25500000920E-02 0. -1.
       -2    1    3    3    0  502  0.12799749158E+04 -0.42237013351E+03 -0.90538976549E+03  0.16237188618E+04  0.25500000920E-02 0.  1.
</event>
<event>
 5   0  0.7561815E-07  0.3106374E+04  0.7818609E-02  0.8213991E-01
        1   -1    0    0  501    0  0.00000000000E+00  0.00000000000E+00  0.18889754289E+04  0.18889754289E+04  0.50400001928E-02 0.  1.
       -1   -1    0    0    0  501  0.00000000000E+00  0.00000000000E+00 -0.12770887390E+04  0.12770887390E+04  0.50400001928E-02 0. -1.
    10030    2    1    2    0    0  0.00000000000E+00  0.00000000000E+00  0.61188668983E+03  0.31660641679E+04  0.31063736083E+04 0.  0.
        3    1    3    3  502    0  0.87983279611E+01 -0.76240021646E+03  0.16851109396E+04  0.18495757323E+04  0.10100000352E+00 0.  1.
       -3    1    3    3    0  502 -0.87983279611E+01  0.76240021646E+03 -0.10732242497E+04  0.13164884356E+04  0.10100000352E+00 0. -1.
</event>
<event>
 5   0  0.2094135E-06  0.3110403E+04  0.7818609E-02  0.8212889E-01
        2   -1    0    0  501    0  0.00000000000E+00  0.00000000000E+00  0.18673327295E+04  0.18673327295E+04  0.25500000920E-02 0. -1.
       -2   -1    0    0    0  501  0.00000000000E+00  0.00000000000E+00 -0.12952440668E+04  0.12952440668E+04  0.25500000920E-02 0.  1.
    10030    2    1    2    0    0  0.00000000000E+00  0.00000000000E+00  0.57208866274E+03  0.31625767963E+04  0.31104029569E+04 0.  0.
        4    1    3    3  502    0  0.39235450301E+03  0.15500159552E+03 -0.12359554247E+04  0.13059689795E+04  0.12699999809E+01 0.  1.
       -4    1    3    3    0  502 -0.39235450301E+03 -0.15500159552E+03  0.18080440874E+04  0.18566078168E+04  0.12699999809E+01 0. -1.
</event>
<event>
 5   0  0.2067926E-06  0.3098974E+04  0.7818609E-02  0.8216020E-01
        2   -1    0    0  501    0  0.00000000000E+00  0.00000000000E+00  0.20155735611E+04  0.20155735611E+04  0.25500000920E-02 0. -1.
       -2   -1    0    0    0  501  0.00000000000E+00  0.00000000000E+00 -0.11911792378E+04  0.11911792378E+04  0.25500000920E-02 0.  1.
    10030    2    1    2    0    0  0.00000000000E+00  0.00000000000E+00  0.82439432327E+03  0.32067527989E+04  0.30989736225E+04 0.  0.
        1    1    3    3  502    0  0.92061013927E+03  0.70580533209E+03  0.14751651268E+04  0.18766449709E+04  0.50400001928E-02 0. -1.
       -1    1    3    3    0  502 -0.92061013927E+03 -0.70580533209E+03 -0.65077080356E+03  0.13301078280E+04  0.50400001928E-02 0.  1.
</event>
<event>
 5   0  0.2067926E-06  0.3035294E+04  0.7818609E-02  0.8233724E-01
        2   -1    0    0  501    0  0.00000000000E+00  0.00000000000E+00  0.22308131075E+04  0.22308131075E+04  0.25500000920E-02 0. -1.
       -2   -1    0    0    0  501  0.00000000000E+00  0.00000000000E+00 -0.10324724056E+04  0.10324724056E+04  0.25500000920E-02 0.  1.
    10030    2    1    2    0    0  0.00000000000E+00  0.00000000000E+00  0.11983407018E+04  0.32632855131E+04  0.30352943683E+04 0.  0.
        1    1    3    3  502    0 -0.76832361431E+03 -0.10515240110E+04 -0.23861069035E+03  0.13239935739E+04  0.50400001928E-02 0.  1.
       -1    1    3    3    0  502  0.76832361431E+03  0.10515240110E+04  0.14369513922E+04  0.19392919392E+04  0.50400001928E-02 0. -1.
</event>
<event>
 5   0  0.2078009E-06  0.3068519E+04  0.7818609E-02  0.8224431E-01
       -2   -1    0    0    0  501  0.00000000000E+00  0.00000000000E+00  0.15996075467E+04  0.15996075467E+04  0.25500000920E-02 0. -1.
        2   -1    0    0  501    0  0.00000000000E+00  0.00000000000E+00 -0.14715813760E+04  0.14715813760E+04  0.25500000920E-02 0.  1.
    10030    2    1    2    0    0  0.00000000000E+00  0.00000000000E+00  0.12802617077E+03  0.30711889227E+04  0.30685193006E+04 0.  0.
        3    1    3    3  502    0 -0.56932672553E+03  0.71101282942E+03 -0.11716785883E+04  0.14840831811E+04  0.10100000352E+00 0.  1.
       -3    1    3    3    0  502  0.56932672553E+03 -0.71101282942E+03  0.12997047591E+04  0.15871057416E+04  0.10100000352E+00 0. -1.
</event>
<event>
 5   0  0.2226334E-06  0.3108682E+04  0.7818609E-02  0.8213359E-01
       -2   -1    0    0    0  501  0.00000000000E+00  0.00000000000E+00  0.11757190157E+04  0.11757190157E+04  0.25500000920E-02 0.  1.
        2   -1    0    0  501    0  0.00000000000E+00  0.00000000000E+00 -0.20548925174E+04  0.20548925174E+04  0.25500000920E-02 0. -1.
    10030    2    1    2    0    0  0.00000000000E+00  0.00000000000E+00 -0.87917350172E+03  0.32306115331E+04  0.31086821696E+04 0.  0.
        5    1    3    3  502    0 -0.75822622377E+03 -0.30789979219E+03 -0.18128727220E+04  0.19890296339E+04  0.46999998093E+01 0. -1.
       -5    1    3    3    0  502  0.75822622377E+03  0.30789979219E+03  0.93369922027E+03  0.12415818992E+04  0.46999998093E+01 0.  1.
</event>
<event>
 5   0  0.7561815E-07  0.3110465E+04  0.7818609E-02  0.8212872E-01
        1   -1    0    0  501    0  0.00000000000E+00  0.00000000000E+00  0.16920733354E+04  0.16920733354E+04  0.50400001928E-02 0. -1.
       -1   -1    0    0    0  501  0.00000000000E+00  0.00000000000E+00 -0.14294584799E+04  0.14294584799E+04  0.50400001928E-02 0.  1.
    10030    2    1    2    0    0  0.00000000000E+00  0.00000000000E+00  0.26261485546E+03  0.31215318153E+04  0.31104652886E+04 0.  0.
        3    1    3    3  502    0  0.22521788466E+03 -0.18368954731E+03 -0.14019646188E+04  0.14317715418E+04  0.10100000352E+00 0.  1.
       -3    1    3    3    0  502 -0.22521788466E+03  0.18368954731E+03  0.16645794743E+04  0.16897602735E+04  0.10100000352E+00 0. -1.
</event>
<event>
 5   0  0.7519202E-07  0.3097744E+04  0.7818609E-02  0.8216357E-01
        1   -1    0    0  501    0  0.00000000000E+00  0.00000000000E+00  0.16530210502E+04  0.16530210502E+04  0.50400001928E-02 0.  1.
       -1   -1    0    0    0  501  0.00000000000E+00  0.00000000000E+00 -0.14512846440E+04  0.14512846440E+04  0.50400001928E-02 0. -1.
    10030    2    1    2    0    0  0.00000000000E+00  0.00000000000E+00  0.20173640617E+03  0.31043056942E+04  0.30977437379E+04 0.  0.
        4    1    3    3  502    0 -0.45969982992E+03  0.10045714692E+04  0.11887619805E+04  0.16228507108E+04  0.12699999809E+01 0.  1.
       -4    1    3    3    0  502  0.45969982992E+03 -0.10045714692E+04 -0.98702557436E+03  0.14814549834E+04  0.12699999809E+01 0. -1.
</event>
<event>
 5   0  0.2094135E-06  0.3024639E+04  0.7818609E-02  0.8236730E-01
       -2   -1    0    0    0  501  0.00000000000E+00  0.00000000000E+00  0.11331175525E+04  0.11331175525E+04  0.25500000920E-02 0. -1.
        2   -1    0    0  501    0  0.00000000000E+00  0.00000000000E+00 -0.20184223028E+04  0.20184223028E+04  0.25500000920E-02 0.  1.
    10030    2    1    2    0    0  0.00000000000E+00  0.00000000000E+00 -0.88530475027E+03  0.31515398553E+04  0.30246386492E+04 0.  0.
        4    1    3    3  502    0  0.75455950315E+03 -0.93623775555E+02 -0.18047810512E+04  0.19584079531E+04  0.12699999809E+01 0.  1.
       -4    1    3    3    0  502 -0.75455950315E+03  0.93623775555E+02  0.91947630091E+03  0.11931319022E+04  0.12699999809E+01 0. -1.
</event>
<event>
 5   0  0.7561815E-07  0.3098599E+04  0.7818609E-02  0.8216122E-01
       -1   -1    0    0    0  501  0.00000000000E+00  0.00000000000E+00  0.33690984942E+04  0.33690984942E+04  0.50400001928E-02 0.  1.
        1   -1    0    0  501    0  0.00000000000E+00  0.00000000000E+00 -0.71245459653E+03  0.71245459655E+03  0.50400001928E-02 0. -1.
    10030    2    1    2    0    0  0.00000000000E+00  0.00000000000E+00  0.26566438977E+04  0.40815530908E+04  0.30985994955E+04 0.  0.
        3    1    3    3  502    0 -0.82368452988E+03  0.17641043414E+03 -0.38445207781E+03  0.92594830113E+03  0.10100000352E+00 0. -1.
       -3    1    3    3    0  502  0.82368452988E+03 -0.17641043414E+03  0.30410959755E+04  0.31556047897E+04  0.10100000352E+00 0.  1.
</event>
<event>
 5   0  0.7656332E-07  0.3082712E+04  0.7818609E-02  0.8220498E-01
       -1   -1    0    0    0  501  0.00000000000E+00  0.00000000000E+00  0.16002068048E+04  0.16002068048E+04  0.50400001928E-02 0.  1.
        1   -1    0    0  501    0  0.00000000000E+00  0.00000000000E+00 -0.14846696367E+04  0.14846696367E+04  0.50400001928E-02 0. -1.
    10030    2    1    2    0    0  0.00000000000E+00  0.00000000000E+00  0.11553716815E+03  0.30848764415E+04  0.30827120888E+04 0.  0.
        2    1    3    3  502    0  0.93510649098E+03 -0.84733002148E+03  0.94348103625E+03  0.15756106056E+04  0.25500000920E-02 0. -1.
       -2    1    3    3    0  502 -0.93510649098E+03  0.84733002148E+03 -0.82794386809E+03  0.15092658359E+04  0.25500000920E-02 0.  1.
</event>
<event>
 5   0  0.7561815E-07  0.3094996E+04  0.7818609E-02  0.8217113E-01
        1   -1    0    0  501    0  0.00000000000E+00  0.00000000000E+00  0.20145649194E+04  0.20145649194E+04  0.50400001928E-02 0. -1.
       -1   -1    0    0    0  501  0.00000000000E+00  0.00000000000E+00 -0.11887180952E+04  0.11887180952E+04  0.50400001928E-02 0.  1.
    10030    2    1    2    0    0  0.00000000000E+00  0.00000000000E+00  0.82584682425E+03  0.32032830147E+04  0.30949958150E+04 0.  0.
        3    1    3    3  502    0  0.40858104537E+03 -0.43233892486E+03 -0.10656588987E+04  0.12204443105E+04  0.10100000352E+00 0.  1.
       -3    1    3    3    0  502 -0.40858104537E+03  0.43233892486E+03  0.18915057229E+04  0.19828387041E+04  0.10100000352E+00 0. -1.
</event>
<event>
 5   0  0.7561815E-07  0.3055904E+04  0.7818609E-02  0.8227945E-01
       -1   -1    0    0    0  501  0.00000000000E+00  0.00000000000E+00  0.18896475799E+04  0.18896475799E+04  0.50400001928E-02 0.  1.
        1   -1    0    0  501    0  0.00000000000E+00  0.00000000000E+00 -0.12354880380E+04  0.12354880380E+04  0.50400001928E-02 0. -1.
    10030    2    1    2    0    0  0.00000000000E+00  0.00000000000E+00  0.65415954183E+03  0.31251356179E+04  0.30559037819E+04 0.  0.
        3    1    3    3  502    0 -0.91670470844E+03 -0.55915303857E+03 -0.78457847467E+03  0.13298733158E+04  0.10100000352E+00 0. -1.
       -3    1    3    3    0  502  0.91670470844E+03  0.55915303857E+03  0.14387380165E+04  0.17952623021E+04  0.10100000352E+00 0.  1.
</event>
<event>
 5   0  0.7413481E-07  0.3094404E+04  0.7818609E-02  0.8217275E-01
        1   -1    0    0  501    0  0.00000000000E+00  0.00000000000E+00  0.15983532395E+04  0.15983532395E+04  0.50400001928E-02 0. -1.
       -1   -1    0    0    0  501  0.00000000000E+00  0.00000000000E+00 -0.14976880648E+04  0.14976880648E+04  0.50400001928E-02 0.  1.
    10030    2    1    2    0    0  0.00000000000E+00  0.00000000000E+00  0.10066517467E+03  0.30960413044E+04  0.30944043499E+04 0.  0.
        5    1    3    3  502    0  0.77909216448E+03 -0.18159057866E+03 -0.12746990442E+04  0.15049383650E+04  0.46999998093E+01 0.  1.
       -5    1    3    3    0  502 -0.77909216448E+03  0.18159057866E+03  0.13753642189E+04  0.15911029394E+04  0.46999998093E+01 0. -1.
</event>
<event>
 5   0  0.7656332E-07  0.3076957E+04  0.7818609E-02  0.8222090E-01
        1   -1    0    0  501    0  0.00000000000E+00  0.00000000000E+00  0.19205937901E+04  0.19205937902E+04  0.50400001928E-02 0. -1.
       -1   -1    0    0    0  501  0.00000000000E+00  0.00000000000E+00 -0.12323880191E+04  0.12323880191E+04  0.50400001928E-02 0.  1.
    10030    2    1    2    0    0  0.00000000000E+00  0.00000000000E+00  0.68820577103E+03  0.31529818093E+04  0.30769574431E+04 0.  0.
        2    1    3    3  502    0  0.14686943819E+04 -0.45800336727E+03  0.35363347157E+03  0.15785711591E+04  0.25500000920E-02 0.  1.
       -2    1    3    3    0  502 -0.14686943819E+04  0.45800336727E+03  0.33457229946E+03  0.15744106502E+04  0.25500000920E-02 0. -1.
</event>
<event>
 5   0  0.7656332E-07  0.3093870E+04  0.7818609E-02  0.8217422E-01
       -1   -1    0    0    0  501  0.00000000000E+00  0.00000000000E+00  0.14683093999E+04  0.14683093999E+04  0.50400001928E-02 0. -1.
        1   -1    0    0  501    0  0.00000000000E+00  0.00000000000E+00 -0.16297708825E+04  0.16297708825E+04  0.50400001928E-02 0.  1.
    10030    2    1    2    0    0  0.00000000000E+00  0.00000000000E+00 -0.16146148266E+03  0.30980802824E+04  0.30938700079E+04 0.  0.
        2    1    3    3  502    0  0.87995910221E+03  0.29288130853E+03  0.11590576840E+04  0.14844265550E+04  0.25500000920E-02 0. -1.
       -2    1    3    3    0  502 -0.87995910221E+03 -0.29288130853E+03 -0.13205191667E+04  0.16136537274E+04  0.25500000920E-02 0.  1.
</event>
<event>
 5   0  0.2226334E-06  0.3108402E+04  0.7818609E-02  0.8213436E-01
       -2   -1    0    0    0  501  0.00000000000E+00  0.00000000000E+00  0.13158582091E+04  0.13158582091E+04  0.25500000920E-02 0.  1.
        2   -1    0    0  501    0  0.00000000000E+00  0.00000000000E+00 -0.18357146554E+04  0.18357146554E+04  0.25500000920E-02 0. -1.
    10030    2    1    2    0    0  0.00000000000E+00  0.00000000000E+00 -0.51985644632E+03  0.31515728646E+04  0.31084016465E+04 0.  0.
        5    1    3    3  502    0 -0.15210895707E+04 -0.31899921515E+03 -0.26666335369E+03  0.15768974017E+04  0.46999998093E+01 0. -1.
       -5    1    3    3    0  502  0.15210895707E+04  0.31899921515E+03 -0.25319309263E+03  0.15746754629E+04  0.46999998093E+01 0.  1.
</event>
<event>
 5   0  0.7561815E-07  0.3092796E+04  0.7818609E-02  0.8217718E-01
        1   -1    0    0  501    0  0.00000000000E+00  0.00000000000E+00  0.18748382776E+04  0.18748382776E+04  0.50400001928E-02 0.  1.
       -1   -1    0    0    0  501  0.00000000000E+00  0.00000000000E+00 -0.12754946259E+04  0.12754946259E+04  0.50400001928E-02 0. -1.
    10030    2    1    2    0    0  0.00000000000E+00  0.00000000000E+00  0.59934365169E+03  0.31503329036E+04  0.30927955947E+04 0.  0.
        3    1    3    3  502    0 -0.47906544256E+03  0.13314179258E+04  0.93511132710E+03  0.16960573680E+04  0.10100000352E+00 0.  1.
       -3    1    3    3    0  502  0.47906544256E+03 -0.13314179258E+04 -0.33576767541E+03  0.14542755356E+04  0.10100000352E+00 0. -1.
</event>
<event>
 5   0  0.2226334E-06  0.2918203E+04  0.7818609E-02  0.8267482E-01
        2   -1    0    0  501    0  0.00000000000E+00  0.00000000000E+00  0.21206303725E+04  0.21206303725E+04  0.25500000920E-02 0. -1.
       -2   -1    0    0    0  501  0.00000000000E+00  0.00000000000E+00 -0.10039362488E+04  0.10039362488E+04  0.25500000920E-02 0.  1.
    10030    2    1    2    0    0  0.00000000000E+00  0.00000000000E+00  0.11166941237E+04  0.31245666213E+04  0.29182033522E+04 0.  0.
        5    1    3    3  502    0 -0.73686237020E+03  0.12583249678E+04  0.50366990869E+03  0.15427421508E+04  0.46999998093E+01 0.  1.
       -5    1    3    3    0  502  0.73686237020E+03 -0.12583249678E+04  0.61302421501E+03  0.15818244704E+04  0.46999998093E+01 0. -1.
</event>
<event>
 5   0  0.7561815E-07  0.2889727E+04  0.7818609E-02  0.8275941E-01
       -1   -1    0    0    0  501  0.00000000000E+00  0.00000000000E+00  0.15196136339E+04  0.15196136339E+04  0.50400001928E-02 0.  1.
        1   -1    0    0  501    0  0.00000000000E+00  0.00000000000E+00 -0.13737904299E+04  0.13737904299E+04  0.50400001928E-02 0. -1.
    10030    2    1    2    0    0  0.00000000000E+00  0.00000000000E+00  0.14582320404E+03  0.28934040638E+04  0.28897270926E+04 0.  0.
        3    1    3    3  502    0 -0.25972318104E+03 -0.70690969577E+03  0.13075471783E+04  0.15089258042E+04  0.10100000352E+00 0.  1.
       -3    1    3    3    0  502  0.25972318104E+03  0.70690969577E+03 -0.11617239743E+04  0.13844782596E+04  0.10100000352E+00 0. -1.
</event>
<event>
 5   0  0.2094135E-06  0.3164459E+04  0.7818609E-02  0.8198267E-01
        2   -1    0    0  501    0  0.00000000000E+00  0.00000000000E+00  0.17384147982E+04  0.17384147982E+04  0.25500000920E-02 0. -1.
       -2   -1    0    0    0  501  0.00000000000E+00  0.00000000000E+00 -0.14400762425E+04  0.14400762426E+04  0.25500000920E-02 0.  1.
    10030    2    1    2    0    0  0.00000000000E+00  0.00000000000E+00  0.29833855563E+03  0.31784910407E+04  0.31644587850E+04 0.  0.
        4    1    3    3  502    0 -0.72310865810E+03 -0.12665823876E+04 -0.46700936113E+03  0.15314099491E+04  0.12699999809E+01 0.  1.
       -4    1    3    3    0  502  0.72310865810E+03  0.12665823876E+04  0.76534791677E+03  0.16470810916E+04  0.12699999809E+01 0. -1.
</event>
<event>
 5   0  0.7519202E-07  0.3081088E+04  0.7818609E-02  0.8220947E-01
       -1   -1    0    0    0  501  0.00000000000E+00  0.00000000000E+00  0.10632700890E+04  0.10632700891E+04  0.50400001928E-02 0. -1.
        1   -1    0    0  501    0  0.00000000000E+00  0.00000000000E+00 -0.22320529760E+04  0.22320529761E+04  0.50400001928E-02 0.  1.
    10030    2    1    2    0    0  0.00000000000E+00  0.00000000000E+00 -0.11687828870E+04  0.32953230651E+04  0.30810875785E+04 0.  0.
        4    1    3    3  502    0  0.63631253768E+01  0.12133349048E+04  0.43084863853E+03  0.12875768882E+04  0.12699999809E+01 0. -1.
       -4    1    3    3    0  502 -0.63631253768E+01 -0.12133349048E+04 -0.15996315255E+04  0.20077461770E+04  0.12699999809E+01 0.  1.
</event>
<event>
 5   0  0.2094135E-06  0.3105003E+04  0.7818609E-02  0.8214366E-01
        2   -1    0    0  501    0  0.00000000000E+00  0.00000000000E+00  0.25002590016E+04  0.25002590016E+04  0.25500000920E-02 0.  1.
       -2   -1    0    0    0  501  0.00000000000E+00  0.00000000000E+00 -0.96400444438E+03  0.96400444439E+03  0.25500000920E-02 0. -1.
    10030    2    1    2    0    0  0.00000000000E+00  0.00000000000E+00  0.15362545572E+04  0.34642634460E+04  0.31050029241E+04 0.  0.
        4    1    3    3  502    0  0.54354464820E+03  0.12655087641E+04  0.15674774111E+04  0.20866097536E+04  0.12699999809E+01 0.  1.
       -4    1    3    3    0  502 -0.54354464820E+03 -0.12655087641E+04 -0.31222853908E+02  0.13776536924E+04  0.12699999809E+01 0. -1.
</event>
<event>
 5   0  0.2133385E-06  0.3102643E+04  0.7818609E-02  0.8215013E-01
       -2   -1    0    0    0  501  0.00000000000E+00  0.00000000000E+00  0.14087544396E+04  0.14087544396E+04  0.25500000920E-02 0. -1.
        2   -1    0    0  501    0  0.00000000000E+00  0.00000000000E+00 -0.17083161415E+04  0.17083161415E+04  0.25500000920E-02 0.  1.
    10030    2    1    2    0    0  0.00000000000E+00  0.00000000000E+00 -0.29956170184E+03  0.31170705811E+04  0.31026427114E+04 0.  0.
        2    1    3    3  502    0 -0.28956966824E+03 -0.55510477950E+03 -0.15757493621E+04  0.16955759968E+04  0.25500000920E-02 0.  1.
       -2    1    3    3    0  502  0.28956966824E+03  0.55510477950E+03  0.12761876602E+04  0.14214945843E+04  0.25500000920E-02 0. -1.
</event>
<event>
 5   0  0.7726743E-07  0.2996704E+04  0.7818609E-02  0.8244673E-01
       -1   -1    0    0    0  501  0.00000000000E+00  0.00000000000E+00  0.10687886652E+04  0.10687886652E+04  0.50400001928E-02 0.  1.
        1   -1    0    0  501    0  0.00000000000E+00  0.00000000000E+00 -0.21005644194E+04  0.21005644194E+04  0.50400001928E-02 0. -1.
    10030    2    1    2    0    0  0.00000000000E+00  0.00000000000E+00 -0.10317757543E+04  0.31693530846E+04  0.29967044846E+04 0.  0.
        1    1    3    3  502    0  0.77203813467E+03  0.24523553437E+02  0.84198779189E+03  0.11426231784E+04  0.50400001928E-02 0.  1.
       -1    1    3    3    0  502 -0.77203813467E+03 -0.24523553437E+02 -0.18737635461E+04  0.20267299063E+04  0.50400001928E-02 0. -1.
</event>
<event>
 5   0  0.6979625E-07  0.3087150E+04  0.7818609E-02  0.8219273E-01
       -3   -1    0    0    0  501  0.00000000000E+00  0.00000000000E+00  0.10747307984E+04  0.10747308031E+04  0.10100000352E+00 0.  1.
        3   -1    0    0  501    0  0.00000000000E+00  0.00000000000E+00 -0.22169488059E+04  0.22169488082E+04  0.10100000352E+00 0. -1.
    10030    2    1    2    0    0  0.00000000000E+00  0.00000000000E+00 -0.11422180075E+04  0.32916796113E+04  0.30871496055E+04 0.  0.
        5    1    3    3  502    0  0.54804522911E+03  0.12530529088E+04 -0.13341357786E+04  0.19106112978E+04  0.46999998093E+01 0.  1.
       -5    1    3    3    0  502 -0.54804522911E+03 -0.12530529088E+04  0.19191777114E+03  0.13810683134E+04  0.46999998093E+01 0. -1.
</event>
<event>
 5   0  0.7726743E-07  0.3098393E+04  0.7818609E-02  0.8216179E-01
        1   -1    0    0  501    0  0.00000000000E+00  0.00000000000E+00  0.12236035500E+04  0.12236035500E+04  0.50400001928E-02 0.  1.
       -1   -1    0    0    0  501  0.00000000000E+00  0.00000000000E+00 -0.19614281833E+04  0.19614281833E+04  0.50400001928E-02 0. -1.
    10030    2    1    2    0    0  0.00000000000E+00  0.00000000000E+00 -0.73782463334E+03  0.31850317333E+04  0.30983934470E+04 0.  0.
        1    1    3    3  502    0 -0.28477149537E+03 -0.43177178290E+03 -0.18700501781E+04  0.19402601232E+04  0.50400001928E-02 0. -1.
       -1    1    3    3    0  502  0.28477149537E+03  0.43177178290E+03  0.11322255447E+04  0.12447716101E+04  0.50400001928E-02 0.  1.
</event>
<event>
 5   0  0.2226334E-06  0.3102939E+04  0.7818609E-02  0.8214932E-01
        2   -1    0    0  501    0  0.00000000000E+00  0.00000000000E+00  0.97930962291E+03  0.97930962291E+03  0.25500000920E-02 0.  1.
       -2   -1    0    0    0  501  0.00000000000E+00  0.00000000000E+00 -0.24579128318E+04  0.24579128318E+04  0.25500000920E-02 0. -1.
    10030    2    1    2    0    0  0.00000000000E+00  0.00000000000E+00 -0.14786032089E+04  0.34372224547E+04  0.31029390509E+04 0.  0.
        5    1    3    3  502    0  0.13664881898E+04 -0.60906514981E+03 -0.11943961864E+04  0.19143810148E+04  0.46999998093E+01 0. -1.
       -5    1    3    3    0  502 -0.13664881898E+04  0.60906514981E+03 -0.28420702245E+03  0.15228414399E+04  0.46999998093E+01 0.  1.
</event>
<event>
 5   0  0.2078009E-06  0.3106630E+04  0.7818609E-02  0.8213921E-01
       -2   -1    0    0    0  501  0.00000000000E+00  0.00000000000E+00  0.12886882231E+04  0.12886882231E+04  0.25500000920E-02 0. -1.
        2   -1    0    0  501    0  0.00000000000E+00  0.00000000000E+00 -0.18722812247E+04  0.18722812247E+04  0.25500000920E-02 0.  1.
    10030    2    1    2    0    0  0.00000000000E+00  0.00000000000E+00 -0.58359300165E+03  0.31609694478E+04  0.31066295335E+04 0.  0.
        3    1    3    3  502    0 -0.13338948063E+04 -0.79182805033E+03 -0.37395375699E+03  0.15956529818E+04  0.10100000352E+00 0.  1.
       -3    1    3    3    0  502  0.13338948063E+04  0.79182805033E+03 -0.20963924466E+03  0.15653164660E+04  0.10100000352E+00 0. -1.
</event>
<event>
 5   0  0.2078009E-06  0.3104380E+04  0.7818609E-02  0.8214537E-01
       -2   -1    0    0    0  501  0.00000000000E+00  0.00000000000E+00  0.12407780496E+04  0.12407780496E+04  0.25500000920E-02 0. -1.
        2   -1    0    0  501    0  0.00000000000E+00  0.00000000000E+00 -0.19417610100E+04  0.19417610100E+04  0.25500000920E-02 0.  1.
    10030    2    1    2    0    0  0.00000000000E+00  0.00000000000E+00 -0.70098296039E+03  0.31825390596E+04  0.31043804141E+04 0.  0.
        3    1    3    3  502    0  0.11453078129E+03 -0.12270948600E+04  0.61688410596E+03  0.13781963233E+04  0.10100000352E+00 0. -1.
       -3    1    3    3    0  502 -0.11453078129E+03  0.12270948600E+04 -0.13178670664E+04  0.18043427363E+04  0.10100000352E+00 0.  1.
</event>
<event>
 5   0  0.7656332E-07  0.3171718E+04  0.7818609E-02  0.8196327E-01
       -1   -1    0    0    0  501  0.00000000000E+00  0.00000000000E+00  0.23625702015E+04  0.23625702015E+04  0.50400001928E-02 0.  1.
        1   -1    0    0  501    0  0.00000000000E+00  0.00000000000E+00 -0.10644968585E+04  0.10644968585E+04  0.50400001928E-02 0. -1.
    10030    2    1    2    0    0  0.00000000000E+00  0.00000000000E+00  0.12980733430E+04  0.34270670600E+04  0.31717178673E+04 0.  0.
        2    1    3    3  502    0  0.27596564124E+03 -0.11101620365E+04 -0.53771933277E+03  0.12640248665E+04  0.25500000920E-02 0. -1.
       -2    1    3    3    0  502 -0.27596564124E+03  0.11101620365E+04  0.18357926757E+04  0.21630421934E+04  0.25500000920E-02 0.  1.
</event>
<event>
 5   0  0.2094135E-06  0.3066446E+04  0.7818609E-02  0.8225007E-01
       -2   -1    0    0    0  501  0.00000000000E+00  0.00000000000E+00  0.91132049083E+03  0.91132049083E+03  0.25500000920E-02 0.  1.
        2   -1    0    0  501    0  0.00000000000E+00  0.00000000000E+00 -0.25795239203E+04  0.25795239203E+04  0.25500000920E-02 0. -1.
    10030    2    1    2    0    0  0.00000000000E+00  0.00000000000E+00 -0.16682034294E+04  0.34908444111E+04  0.30664461548E+04 0.  0.
        4    1    3    3  502    0 -0.61974866183E+03 -0.77597746016E+03  0.49570523522E+03  0.11099345547E+04  0.12699999809E+01 0.  1.
       -4    1    3    3    0  502  0.61974866183E+03  0.77597746016E+03 -0.21639086646E+04  0.23809098564E+04  0.12699999809E+01 0. -1.
</event>
<event>
 5   0  0.7726743E-07  0.3086275E+04  0.7818609E-02  0.8219515E-01
        1   -1    0    0  501    0  0.00000000000E+00  0.00000000000E+00  0.19514375219E+04  0.19514375219E+04  0.50400001928E-02 0.  1.
       -1   -1    0    0    0  501  0.00000000000E+00  0.00000000000E+00 -0.12202662143E+04  0.12202662143E+04  0.50400001928E-02 0. -1.
    10030    2    1    2    0    0  0.00000000000E+00  0.00000000000E+00  0.73117130759E+03  0.31717037362E+04  0.30862749568E+04 0.  0.
        1    1    3    3  502    0 -0.13954724732E+04  0.64876192239E+03  0.24824175278E+03  0.15588006361E+04  0.50400001928E-02 0. -1.
       -1    1    3    3    0  502  0.13954724732E+04 -0.64876192239E+03  0.48292955481E+03  0.16129031001E+04  0.50400001928E-02 0.  1.
</event>
<event>
 5   0  0.2078009E-06  0.3100751E+04  0.7818609E-02  0.8215532E-01
        2   -1    0    0  501    0  0.00000000000E+00  0.00000000000E+00  0.86398293748E+03  0.86398293748E+03  0.25500000920E-02 0. -1.
       -2   -1    0    0    0  501  0.00000000000E+00  0.00000000000E+00 -0.27820731052E+04  0.27820731052E+04  0.25500000920E-02 0.  1.
    10030    2    1    2    0    0  0.00000000000E+00  0.00000000000E+00 -0.19180901678E+04  0.36460560427E+04  0.31007506793E+04 0.  0.
        3    1    3    3  502    0  0.41348933255E+03  0.28667234894E+03 -0.26834019343E+04  0.27301649062E+04  0.10100000352E+00 0.  1.
       -3    1    3    3    0  502 -0.41348933255E+03 -0.28667234894E+03  0.76531176654E+03  0.91589113654E+03  0.10100000352E+00 0. -1.
</event>
<event>
 5   0  0.7726743E-07  0.3132974E+04  0.7818609E-02  0.8206746E-01
       -1   -1    0    0    0  501  0.00000000000E+00  0.00000000000E+00  0.16798741780E+04  0.16798741780E+04  0.50400001928E-02 0. -1.
        1   -1    0    0  501    0  0.00000000000E+00  0.00000000000E+00 -0.14607529011E+04  0.14607529011E+04  0.50400001928E-02 0.  1.
    10030    2    1    2    0    0  0.00000000000E+00  0.00000000000E+00  0.21912127694E+03  0.31406270791E+04  0.31329737178E+04 0.  0.
        1    1    3    3  502    0 -0.18115323527E+03 -0.85567084310E+03 -0.11931877890E+04  0.14794208956E+04  0.50400001928E-02 0.  1.
       -1    1    3    3    0  502  0.18115323527E+03  0.85567084310E+03  0.14123090660E+04  0.16612061835E+04  0.50400001928E-02 0. -1.
</event>
<event>
 5   0  0.2226334E-06  0.3083904E+04  0.7818609E-02  0.8220169E-01
       -2   -1    0    0    0  501  0.00000000000E+00  0.00000000000E+00  0.11212197972E+04  0.11212197972E+04  0.25500000920E-02 0. -1.
        2   -1    0    0  501    0  0.00000000000E+00  0.00000000000E+00 -0.21205619488E+04  0.21205619488E+04  0.25500000920E-02 0.  1.
    10030    2    1    2    0    0  0.00000000000E+00  0.00000000000E+00 -0.99934215164E+03  0.32417817460E+04  0.30839040440E+04 0.  0.
        5    1    3    3  502    0  0.13599111985E+04 -0.72468026997E+03 -0.44138914695E+03  0.16029243371E+04  0.46999998093E+01 0.  1.
       -5    1    3    3    0  502 -0.13599111985E+04  0.72468026997E+03 -0.55795300469E+03  0.16388574089E+04  0.46999998093E+01 0. -1.
</event>
<event>
 5   0  0.7519202E-07  0.3064884E+04  0.7818609E-02  0.8225442E-01
       -1   -1    0    0    0  501  0.00000000000E+00  0.00000000000E+00  0.99415164759E+03  0.99415164760E+03  0.50400001928E-02 0.  1.
        1   -1    0    0  501    0  0.00000000000E+00  0.00000000000E+00 -0.23621927551E+04  0.23621927551E+04  0.50400001928E-02 0. -1.
    10030    2    1    2    0    0  0.00000000000E+00  0.00000000000E+00 -0.13680411075E+04  0.33563444027E+04  0.30648835667E+04 0.  0.
        4    1    3    3  502    0  0.14392878250E+04  0.86679187902E+02 -0.11571541224E+03  0.14465318504E+04  0.12699999809E+01 0.  1.
       -4    1    3    3    0  502 -0.14392878250E+04 -0.86679187902E+02 -0.12523256952E+04  0.19098125522E+04  0.12699999809E+01 0. -1.
</event>
<event>
 5   0  0.2133385E-06  0.3076865E+04  0.7818609E-02  0.8222116E-01
       -2   -1    0    0    0  501  0.00000000000E+00  0.00000000000E+00  0.15600638055E+04  0.15600638055E+04  0.25500000920E-02 0. -1.
        2   -1    0    0  501    0  0.00000000000E+00  0.00000000000E+00 -0.15171014955E+04  0.15171014955E+04  0.25500000920E-02 0.  1.
    10030    2    1    2    0    0  0.00000000000E+00  0.00000000000E+00  0.42962309931E+02  0.30771653010E+04  0.30768653740E+04 0.  0.
        2    1    3    3  502    0 -0.11549766948E+04 -0.15087367791E+03 -0.98362482127E+03  0.15245497110E+04  0.25500000920E-02 0. -1.
       -2    1    3    3    0  502  0.11549766948E+04  0.15087367791E+03  0.10265871312E+04  0.15526155900E+04  0.25500000920E-02 0.  1.
</event>
<event>
 5   0  0.2078009E-06  0.3093544E+04  0.7818609E-02  0.8217512E-01
       -2   -1    0    0    0  501  0.00000000000E+00  0.00000000000E+00  0.22952338326E+04  0.22952338326E+04  0.25500000920E-02 0.  1.
        2   -1    0    0  501    0  0.00000000000E+00  0.00000000000E+00 -0.10423790204E+04  0.10423790204E+04  0.25500000920E-02 0. -1.
    10030    2    1    2    0    0  0.00000000000E+00  0.00000000000E+00  0.12528548122E+04  0.33376128531E+04  0.30935439833E+04 0.  0.
        3    1    3    3  502    0 -0.94825495048E+03 -0.90992398164E+03 -0.25362028321E+03  0.13384589503E+04  0.10100000352E+00 0. -1.
       -3    1    3    3    0  502  0.94825495048E+03  0.90992398164E+03  0.15064750954E+04  0.19991539027E+04  0.10100000352E+00 0.  1.
</event>
<event>
 5   0  0.7413481E-07  0.3078921E+04  0.7818609E-02  0.8221547E-01
        1   -1    0    0  501    0  0.00000000000E+00  0.00000000000E+00  0.15993994722E+04  0.15993994722E+04  0.50400001928E-02 0. -1.
       -1   -1    0    0    0  501  0.00000000000E+00  0.00000000000E+00 -0.14817677435E+04  0.14817677435E+04  0.50400001928E-02 0.  1.
    10030    2    1    2    0    0  0.00000000000E+00  0.00000000000E+00  0.11763172875E+03  0.30811672157E+04  0.30789209453E+04 0.  0.
        5    1    3    3  502    0 -0.13079661655E+03  0.15045199183E+04  0.35774522170E+03  0.15519960287E+04  0.46999998093E+01 0. -1.
       -5    1    3    3    0  502  0.13079661655E+03 -0.15045199183E+04 -0.24011349295E+03  0.15291711870E+04  0.46999998093E+01 0.  1.
</event>
<event>
 5   0  0.2226334E-06  0.3106897E+04  0.7818609E-02  0.8213848E-01
       -2   -1    0    0    0  501  0.00000000000E+00  0.00000000000E+00  0.30851338854E+04  0.30851338854E+04  0.25500000920E-02 0.  1.
        2   -1    0    0  501    0  0.00000000000E+00  0.00000000000E+00 -0.78220337378E+03  0.78220337379E+03  0.25500000920E-02 0. -1.
    10030    2    1    2    0    0  0.00000000000E+00  0.00000000000E+00  0.23029305116E+04  0.38673372592E+04  0.31068969302E+04 0.  0.
        5    1    3    3  502    0 -0.10855743419E+03 -0.13928691849E+04  0.30602680846E+03  0.14302250803E+04  0.46999998093E+01 0. -1.
       -5    1    3    3    0  502  0.10855743419E+03  0.13928691849E+04  0.19969037032E+04  0.24371121789E+04  0.46999998093E+01 0.  1.
</event>
<event>
 5   0  0.2094135E-06  0.3119178E+04  0.7818609E-02  0.8210494E-01
        2   -1    0    0  501    0  0.00000000000E+00  0.00000000000E+00  0.91680255960E+03  0.91680255960E+03  0.25500000920E-02 0. -1.
       -2   -1    0    0    0  501  0.00000000000E+00  0.00000000000E+00 -0.26530448106E+04  0.26530448106E+04  0.25500000920E-02 0.  1.
    10030    2    1    2    0    0  0.00000000000E+00  0.00000000000E+00 -0.17362422510E+04  0.35698473702E+04  0.31191782720E+04 0.  0.
        4    1    3    3  502    0  0.11515058368E+04 -0.13004955354E+03 -0.20626887144E+04  0.23659173536E+04  0.12699999809E+01 0.  1.
       -4    1    3    3    0  502 -0.11515058368E+04  0.13004955354E+03  0.32644646335E+03  0.12039300166E+04  0.12699999809E+01 0. -1.
</event>
<event>
 5   0  0.2133385E-06  0.3099306E+04  0.7818609E-02  0.8215928E-01
       -2   -1    0    0    0  501  0.00000000000E+00  0.00000000000E+00  0.11457983731E+04  0.11457983731E+04  0.25500000920E-02 0.  1.
        2   -1    0    0  501    0  0.00000000000E+00  0.00000000000E+00 -0.20958527721E+04  0.20958527721E+04  0.25500000920E-02 0. -1.
    10030    2    1    2    0    0  0.00000000000E+00  0.00000000000E+00 -0.95005439904E+03  0.32416511452E+04  0.30993061782E+04 0.  0.
        2    1    3    3  502    0  0.13849758175E+04 -0.13744065703E+03 -0.11877768719E+04  0.18297163296E+04  0.25500000920E-02 0.  1.
       -2    1    3    3    0  502 -0.13849758175E+04  0.13744065703E+03  0.23772247291E+03  0.14119348156E+04  0.25500000920E-02 0. -1.
</event>
<event>
 5   0  0.7656332E-07  0.3043077E+04  0.7818609E-02  0.8231536E-01
        1   -1    0    0  501    0  0.00000000000E+00  0.00000000000E+00  0.13825519402E+04  0.13825519402E+04  0.50400001928E-02 0. -1.
       -1   -1    0    0    0  501  0.00000000000E+00  0.00000000000E+00 -0.16744969287E+04  0.16744969287E+04  0.50400001928E-02 0.  1.
    10030    2    1    2    0    0  0.00000000000E+00  0.00000000000E+00 -0.29194498848E+03  0.30570488689E+04  0.30430767178E+04 0.  0.
        2    1    3    3  502    0 -0.84440887039E+03 -0.79586757159E+03 -0.11346902848E+04  0.16229459554E+04  0.25500000920E-02 0.  1.
       -2    1    3    3    0  502  0.84440887039E+03  0.79586757159E+03  0.84274529630E+03  0.14341029134E+04  0.25500000920E-02 0. -1.
</event>
<event>
 5   0  0.2133385E-06  0.3221293E+04  0.7818609E-02  0.8183216E-01
       -2   -1    0    0    0  501  0.00000000000E+00  0.00000000000E+00  0.10954574226E+04  0.10954574226E+04  0.25500000920E-02 0.  1.
        2   -1    0    0  501    0  0.00000000000E+00  0.00000000000E+00 -0.23681275949E+04  0.23681275949E+04  0.25500000920E-02 0. -1.
    10030    2    1    2    0    0  0.00000000000E+00  0.00000000000E+00 -0.12726701723E+04  0.34635850175E+04  0.32212934989E+04 0.  0.
        2    1    3    3  502    0  0.43679145031E+03 -0.15377442077E+04 -0.42470891332E+03  0.16540319466E+04  0.25500000920E-02 0.  1.
       -2    1    3    3    0  502 -0.43679145031E+03  0.15377442077E+04 -0.84796125901E+03  0.18095530709E+04  0.25500000920E-02 0. -1.
</event>
<event>
 5   0  0.2226334E-06  0.3083492E+04  0.7818609E-02  0.8220283E-01
       -2   -1    0    0    0  501  0.00000000000E+00  0.00000000000E+00  0.13232583600E+04  0.13232583600E+04  0.25500000920E-02 0. -1.
        2   -1    0    0  501    0  0.00000000000E+00  0.00000000000E+00 -0.17963093786E+04  0.17963093786E+04  0.25500000920E-02 0.  1.
    10030    2    1    2    0    0  0.00000000000E+00  0.00000000000E+00 -0.47305101861E+03  0.31195677386E+04  0.30834924371E+04 0.  0.
        5    1    3    3  502    0 -0.39021937393E+03 -0.75582661601E+03  0.10643698810E+04  0.13625161896E+04  0.46999998093E+01 0. -1.
       -5    1    3    3    0  502  0.39021937393E+03  0.75582661601E+03 -0.15374208997E+04  0.17570515490E+04  0.46999998093E+01 0.  1.
</event>
<event>
 5   0  0.2094135E-06  0.3089262E+04  0.7818609E-02  0.8218691E-01
       -2   -1    0    0    0  501  0.00000000000E+00  0.00000000000E+00  0.25119571544E+04  0.25119571544E+04  0.25500000920E-02 0. -1.
        2   -1    0    0  501    0  0.00000000000E+00  0.00000000000E+00 -0.94981104043E+03  0.94981104043E+03  0.25500000920E-02 0.  1.
    10030    2    1    2    0    0  0.00000000000E+00  0.00000000000E+00  0.15621461139E+04  0.34617681948E+04  0.30892618136E+04 0.  0.
        4    1    3    3  502    0 -0.43967895388E+03 -0.12738390668E+04  0.16270185787E+04  0.21126226873E+04  0.12699999809E+01 0. -1.
       -4    1    3    3    0  502  0.43967895388E+03  0.12738390668E+04 -0.64872464796E+02  0.13491455074E+04  0.12699999809E+01 0.  1.
</event>
<event>
 5   0  0.2133385E-06  0.3092013E+04  0.7818609E-02  0.8217933E-01
        2   -1    0    0  501    0  0.00000000000E+00  0.00000000000E+00  0.23643313071E+04  0.23643313071E+04  0.25500000920E-02 0. -1.
       -2   -1    0    0    0  501  0.00000000000E+00  0.00000000000E+00 -0.10109139638E+04  0.10109139638E+04  0.25500000920E-02 0.  1.
    10030    2    1    2    0    0  0.00000000000E+00  0.00000000000E+00  0.13534173433E+04  0.33752452710E+04  0.30920126348E+04 0.  0.
        2    1    3    3  502    0  0.76626725455E+03 -0.10461483765E+04  0.15955644866E+04  0.20560685694E+04  0.25500000920E-02 0. -1.
       -2    1    3    3    0  502 -0.76626725455E+03  0.10461483765E+04 -0.24214714330E+03  0.13191767016E+04  0.25500000920E-02 0.  1.
</event>
<event>
 5   0  0.2226334E-06  0.3106574E+04  0.7818609E-02  0.8213936E-01
        2   -1    0    0  501    0  0.00000000000E+00  0.00000000000E+00  0.79092611870E+03  0.79092611870E+03  0.25500000920E-02 0.  1.
       -2   -1    0    0    0  501  0.00000000000E+00  0.00000000000E+00 -0.30504754755E+04  0.30504754755E+04  0.25500000920E-02 0. -1.
    10030    2    1    2    0    0  0.00000000000E+00  0.00000000000E+00 -0.22595493568E+04  0.38414015942E+04  0.31065741440E+04 0.  0.
        5    1    3    3  502    0 -0.54702914094E+03 -0.14420072982E+04 -0.90159139662E+03  0.17864811965E+04  0.46999998093E+01 0.  1.
       -5    1    3    3    0  502  0.54702914094E+03  0.14420072982E+04 -0.13579579602E+04  0.20549203977E+04  0.46999998093E+01 0. -1.
</event>
<event>
 5   0  0.7726743E-07  0.3048889E+04  0.7818609E-02  0.8229907E-01
        1   -1    0    0  501    0  0.00000000000E+00  0.00000000000E+00  0.28016339202E+04  0.28016339202E+04  0.50400001928E-02 0. -1.
       -1   -1    0    0    0  501  0.00000000000E+00  0.00000000000E+00 -0.82949105748E+03  0.82949105749E+03  0.50400001928E-02 0.  1.
    10030    2    1    2    0    0  0.00000000000E+00  0.00000000000E+00  0.19721428627E+04  0.36311249777E+04  0.30488885078E+04 0.  0.
        1    1    3    3  502    0  0.92813505977E+03 -0.10292182455E+04  0.17423169638E+04  0.22262958672E+04  0.50400001928E-02 0. -1.
       -1    1    3    3    0  502 -0.92813505977E+03  0.10292182455E+04  0.22982589899E+03  0.14048291105E+04  0.50400001928E-02 0.  1.
</event>
<event>
 5   0  0.2078009E-06  0.3081496E+04  0.7818609E-02  0.8220835E-01
       -2   -1    0    0    0  501  0.00000000000E+00  0.00000000000E+00  0.10810742561E+04  0.10810742561E+04  0.25500000920E-02 0. -1.
        2   -1    0    0  501    0  0.00000000000E+00  0.00000000000E+00 -0.21958755453E+04  0.21958755453E+04  0.25500000920E-02 0.  1.
    10030    2    1    2    0    0  0.00000000000E+00  0.00000000000E+00 -0.11148012892E+04  0.32769498015E+04  0.30814960793E+04 0.  0.
        3    1    3    3  502    0  0.11654489806E+04  0.80138403733E+03 -0.12072386412E+04  0.18595464094E+04  0.10100000352E+00 0. -1.
       -3    1    3    3    0  502 -0.11654489806E+04 -0.80138403733E+03  0.92437351994E+02  0.14174033921E+04  0.10100000352E+00 0.  1.
</event>
<event>
 5   0  0.7726743E-07  0.3110179E+04  0.7818609E-02  0.8212950E-01
        1   -1    0    0  501    0  0.00000000000E+00  0.00000000000E+00  0.15757865268E+04  0.15757865268E+04  0.50400001928E-02 0.  1.
       -1   -1    0    0    0  501  0.00000000000E+00  0.00000000000E+00 -0.15346644384E+04  0.15346644384E+04  0.50400001928E-02 0. -1.
    10030    2    1    2    0    0  0.00000000000E+00  0.00000000000E+00  0.41122088434E+02  0.31104509652E+04  0.31101791236E+04 0.  0.
        1    1    3    3  502    0  0.52254283435E+03 -0.12711966906E+04 -0.70704052055E+03  0.15456061392E+04  0.50400001928E-02 0. -1.
       -1    1    3    3    0  502 -0.52254283435E+03  0.12711966906E+04  0.74816260898E+03  0.15648448260E+04  0.50400001928E-02 0.  1.
</event>
<event>
 5   0  0.2133385E-06  0.3106448E+04  0.7818609E-02  0.8213971E-01
       -2   -1    0    0    0  501  0.00000000000E+00  0.00000000000E+00  0.99728782740E+03  0.99728782740E+03  0.25500000920E-02 0.  1.
        2   -1    0    0  501    0  0.00000000000E+00  0.00000000000E+00 -0.24190654899E+04  0.24190654899E+04  0.25500000920E-02 0. -1.
    10030    2    1    2    0    0  0.00000000000E+00  0.00000000000E+00 -0.14217776625E+04  0.34163533173E+04  0.31064478536E+04 0.  0.
        2    1    3    3  502    0 -0.67899192659E+03  0.35955653883E+03  0.77366507701E+03  0.10903525083E+04  0.25500000920E-02 0.  1.
       -2    1    3    3    0  502  0.67899192659E+03 -0.35955653883E+03 -0.21954427395E+04  0.23260008090E+04  0.25500000920E-02 0. -1.
</event>
<event>
 5   0  0.2226334E-06  0.3415001E+04  0.7818609E-02  0.8134234E-01
        2   -1    0    0  501    0  0.00000000000E+00  0.00000000000E+00  0.23432340481E+04  0.23432340481E+04  0.25500000920E-02 0. -1.
       -2   -1    0    0    0  501  0.00000000000E+00  0.00000000000E+00 -0.12442453514E+04  0.12442453514E+04  0.25500000920E-02 0.  1.
    10030    2    1    2    0    0  0.00000000000E+00  0.00000000000E+00  0.10989886967E+04  0.35874793995E+04  0.34150010668E+04 0.  0.
        5    1    3    3  502    0 -0.84589248411E+03  0.24126098908E+03  0.20868966419E+04  0.22647076287E+04  0.46999998093E+01 0. -1.
       -5    1    3    3    0  502  0.84589248411E+03 -0.24126098908E+03 -0.98790794516E+03  0.13227717708E+04  0.46999998093E+01 0.  1.
</event>
<event>
 5   0  0.7561815E-07  0.3091438E+04  0.7818609E-02  0.8218092E-01
        1   -1    0    0  501    0  0.00000000000E+00  0.00000000000E+00  0.20881641001E+04  0.20881641002E+04  0.50400001928E-02 0.  1.
       -1   -1    0    0    0  501  0.00000000000E+00  0.00000000000E+00 -0.11441852199E+04  0.11441852199E+04  0.50400001928E-02 0. -1.
    10030    2    1    2    0    0  0.00000000000E+00  0.00000000000E+00  0.94397888027E+03  0.32323493200E+04  0.30914375298E+04 0.  0.
        3    1    3    3  502    0  0.70354227505E+03  0.24465000343E+02 -0.96684451031E+03  0.11959759974E+04  0.10100000352E+00 0. -1.
       -3    1    3    3    0  502 -0.70354227505E+03 -0.24465000343E+02  0.19108233906E+04  0.20363733227E+04  0.10100000352E+00 0.  1.
</event>
<event>
 5   0  0.7519202E-07  0.3106301E+04  0.7818609E-02  0.8214011E-01
        1   -1    0    0  501    0  0.00000000000E+00  0.00000000000E+00  0.14642520050E+04  0.14642520050E+04  0.50400001928E-02 0.  1.
       -1   -1    0    0    0  501  0.00000000000E+00  0.00000000000E+00 -0.16474462284E+04  0.16474462284E+04  0.50400001928E-02 0. -1.
    10030    2    1    2    0    0  0.00000000000E+00  0.00000000000E+00 -0.18319422338E+03  0.31116982335E+04  0.31063009791E+04 0.  0.
        4    1    3    3  502    0  0.67735216329E+03 -0.88747078360E+03  0.99003102523E+03  0.14921706969E+04  0.12699999809E+01 0.  1.
       -4    1    3    3    0  502 -0.67735216329E+03  0.88747078360E+03 -0.11732252486E+04  0.16195275366E+04  0.12699999809E+01 0. -1.
</event>
<event>
 5   0  0.7413481E-07  0.3074863E+04  0.7818609E-02  0.8222671E-01
       -1   -1    0    0    0  501  0.00000000000E+00  0.00000000000E+00  0.12651394149E+04  0.12651394149E+04  0.50400001928E-02 0. -1.
        1   -1    0    0  501    0  0.00000000000E+00  0.00000000000E+00 -0.18683280972E+04  0.18683280972E+04  0.50400001928E-02 0.  1.
    10030    2    1    2    0    0  0.00000000000E+00  0.00000000000E+00 -0.60318868227E+03  0.31334675121E+04  0.30748629340E+04 0.  0.
        5    1    3    3  502    0 -0.51082455025E+03 -0.96634262700E+03  0.80017490751E+03  0.13546445167E+04  0.46999998093E+01 0. -1.
       -5    1    3    3    0  502  0.51082455025E+03  0.96634262700E+03 -0.14033635898E+04  0.17788229954E+04  0.46999998093E+01 0.  1.
</event>
<event>
 5   0  0.6979625E-07  0.3088323E+04  0.7818609E-02  0.8218950E-01
        3   -1    0    0  501    0  0.00000000000E+00  0.00000000000E+00  0.98893280599E+03  0.98893281115E+03  0.10100000352E+00 0.  1.
       -3   -1    0    0    0  501  0.00000000000E+00  0.00000000000E+00 -0.24111189649E+04  0.24111189670E+04  0.10100000352E+00 0. -1.
    10030    2    1    2    0    0  0.00000000000E+00  0.00000000000E+00 -0.14221861589E+04  0.34000517781E+04  0.30883229468E+04 0.  0.
        1    1    3    3  502    0  0.17210440077E+03  0.52393156404E+03 -0.22990067862E+04  0.23642242727E+04  0.50400001928E-02 0. -1.
       -1    1    3    3    0  502 -0.17210440077E+03 -0.52393156404E+03  0.87682062731E+03  0.10358275055E+04  0.50400001928E-02 0.  1.
</event>
<event>
 5   0  0.7561815E-07  0.3100073E+04  0.7818609E-02  0.8215718E-01
       -1   -1    0    0    0  501  0.00000000000E+00  0.00000000000E+00  0.16133799563E+04  0.16133799563E+04  0.50400001928E-02 0.  1.
        1   -1    0    0  501    0  0.00000000000E+00  0.00000000000E+00 -0.14891799359E+04  0.14891799359E+04  0.50400001928E-02 0. -1.
    10030    2    1    2    0    0  0.00000000000E+00  0.00000000000E+00  0.12420002044E+03  0.31025598923E+04  0.31000729411E+04 0.  0.
        3    1    3    3  502    0 -0.11396576826E+04  0.94244114722E+03  0.52679792794E+03  0.15698824850E+04  0.10100000352E+00 0.  1.
       -3    1    3    3    0  502  0.11396576826E+04 -0.94244114722E+03 -0.40259790750E+03  0.15326774073E+04  0.10100000352E+00 0. -1.
</event>
<event>
 5   0  0.2226334E-06  0.3052691E+04  0.7818609E-02  0.8228843E-01
       -2   -1    0    0    0  501  0.00000000000E+00  0.00000000000E+00  0.17926128303E+04  0.17926128303E+04  0.25500000920E-02 0.  1.
        2   -1    0    0  501    0  0.00000000000E+00  0.00000000000E+00 -0.12996286706E+04  0.12996286706E+04  0.25500000920E-02 0. -1.
    10030    2    1    2    0    0  0.00000000000E+00  0.00000000000E+00  0.49298415969E+03  0.30922415008E+04  0.30526912910E+04 0.  0.
        5    1    3    3  502    0 -0.11465396933E+04 -0.59701199835E+03  0.10686306269E+04  0.16771911344E+04  0.46999998093E+01 0.  1.
       -5    1    3    3    0  502  0.11465396933E+04  0.59701199835E+03 -0.57564646718E+03  0.14150503665E+04  0.46999998093E+01 0. -1.
</event>
<event>
 5   0  0.6979625E-07  0.3111698E+04  0.7818609E-02  0.8212535E-01
       -3   -1    0    0    0  501  0.00000000000E+00  0.00000000000E+00  0.16186230856E+04  0.16186230887E+04  0.10100000352E+00 0. -1.
        3   -1    0    0  501    0  0.00000000000E+00  0.00000000000E+00 -0.14955093892E+04  0.14955093926E+04  0.10100000352E+00 0.  1.
    10030    2    1    2    0    0  0.00000000000E+00  0.00000000000E+00  0.12311369640E+03  0.31141324813E+04  0.31116979495E+04 0.  0.
        1    1    3    3  502    0  0.16122791420E+02 -0.83424318035E+03  0.13757652802E+04  0.16090219808E+04  0.50400001928E-02 0. -1.
       -1    1    3    3    0  502 -0.16122791420E+02  0.83424318035E+03 -0.12526515838E+04  0.15051105005E+04  0.50400001928E-02 0.  1.
</event>
<event>
 5   0  0.2226334E-06  0.3126414E+04  0.7818609E-02  0.8208526E-01
       -2   -1    0    0    0  501  0.00000000000E+00  0.00000000000E+00  0.20133440131E+04  0.20133440131E+04  0.25500000920E-02 0. -1.
        2   -1    0    0  501    0  0.00000000000E+00  0.00000000000E+00 -0.12137102072E+04  0.12137102072E+04  0.25500000920E-02 0.  1.
    10030    2    1    2    0    0  0.00000000000E+00  0.00000000000E+00  0.79963380590E+03  0.32270542202E+04  0.31264140348E+04 0.  0.
        5    1    3    3  502    0 -0.39086340880E+03 -0.99891201582E+03 -0.77388588987E+03  0.13226945529E+04  0.46999998093E+01 0.  1.
       -5    1    3    3    0  502  0.39086340880E+03  0.99891201582E+03  0.15735196958E+04  0.19043596674E+04  0.46999998093E+01 0. -1.
</event>
<event>
 5   0  0.7726743E-07  0.3095461E+04  0.7818609E-02  0.8216985E-01
       -1   -1    0    0    0  501  0.00000000000E+00  0.00000000000E+00  0.10519635133E+04  0.10519635133E+04  0.50400001928E-02 0.  1.
        1   -1    0    0  501    0  0.00000000000E+00  0.00000000000E+00 -0.22771419552E+04  0.22771419553E+04  0.50400001928E-02 0. -1.
    10030    2    1    2    0    0  0.00000000000E+00  0.00000000000E+00 -0.12251784419E+04  0.33291054686E+04  0.30954613560E+04 0.  0.
        1    1    3    3  502    0  0.19248815480E+03 -0.15351380456E+04 -0.65783282803E+03  0.16812033008E+04  0.50400001928E-02 0. -1.
       -1    1    3    3    0  502 -0.19248815480E+03  0.15351380456E+04 -0.56734561392E+03  0.16479021678E+04  0.50400001928E-02 0.  1.
</event>
<event>
 5   0  0.7413481E-07  0.3094755E+04  0.7818609E-02  0.8217179E-01
        1   -1    0    0  501    0  0.00000000000E+00  0.00000000000E+00  0.18511054324E+04  0.18511054324E+04  0.50400001928E-02 0. -1.
       -1   -1    0    0    0  501  0.00000000000E+00  0.00000000000E+00 -0.12934848280E+04  0.12934848280E+04  0.50400001928E-02 0.  1.
    10030    2    1    2    0    0  0.00000000000E+00  0.00000000000E+00  0.55762060442E+03  0.31445902604E+04  0.30947547831E+04 0.  0.
        5    1    3    3  502    0  0.66985048508E+03 -0.13724281459E+04  0.25606814861E+02  0.15273953277E+04  0.46999998093E+01 0.  1.
       -5    1    3    3    0  502 -0.66985048508E+03  0.13724281459E+04  0.53201378956E+03  0.16171949327E+04  0.46999998093E+01 0. -1.
</event>
<event>
 5   0  0.2078009E-06  0.3101377E+04  0.7818609E-02  0.8215360E-01
        2   -1    0    0  501    0  0.00000000000E+00  0.00000000000E+00  0.14455335483E+04  0.14455335483E+04  0.25500000920E-02 0. -1.
       -2   -1    0    0    0  501  0.00000000000E+00  0.00000000000E+00 -0.16634933190E+04  0.16634933190E+04  0.25500000920E-02 0.  1.
    10030    2    1    2    0    0  0.00000000000E+00  0.00000000000E+00 -0.21795977069E+03  0.31090268674E+04  0.31013773715E+04 0.  0.
        3    1    3    3  502    0 -0.76289299056E+03  0.13171414164E+04  0.18800774973E+03  0.15336929778E+04  0.10100000352E+00 0. -1.
       -3    1    3    3    0  502  0.76289299056E+03 -0.13171414164E+04 -0.40596752042E+03  0.15753338896E+04  0.10100000352E+00 0.  1.
</event>
<event>
 5   0  0.2226334E-06  0.3100985E+04  0.7818609E-02  0.8215468E-01
       -2   -1    0    0    0  501  0.00000000000E+00  0.00000000000E+00  0.14618555494E+04  0.14618555494E+04  0.25500000920E-02 0. -1.
        2   -1    0    0  501    0  0.00000000000E+00  0.00000000000E+00 -0.16445038883E+04  0.16445038883E+04  0.25500000920E-02 0.  1.
    10030    2    1    2    0    0  0.00000000000E+00  0.00000000000E+00 -0.18264833897E+03  0.31063594377E+04  0.31009850920E+04 0.  0.
        5    1    3    3  502    0  0.25786185569E+03 -0.17313860135E+02  0.14401198706E+04  0.14631335681E+04  0.46999998093E+01 0. -1.
       -5    1    3    3    0  502 -0.25786185569E+03  0.17313860135E+02 -0.16227682096E+04  0.16432258696E+04  0.46999998093E+01 0.  1.
</event>
<event>
 5   0  0.6979625E-07  0.3062100E+04  0.7818609E-02  0.8226217E-01
        3   -1    0    0  501    0  0.00000000000E+00  0.00000000000E+00  0.15385176499E+04  0.15385176533E+04  0.10100000352E+00 0. -1.
       -3   -1    0    0    0  501  0.00000000000E+00  0.00000000000E+00 -0.15236187651E+04  0.15236187684E+04  0.10100000352E+00 0.  1.
    10030    2    1    2    0    0  0.00000000000E+00  0.00000000000E+00  0.14898884858E+02  0.30621364217E+04  0.30621001761E+04 0.  0.
        3    1    3    3  502    0  0.59006671515E+03  0.44066223276E+03 -0.13348601659E+04  0.15245371771E+04  0.10100000352E+00 0.  1.
       -3    1    3    3    0  502 -0.59006671515E+03 -0.44066223276E+03  0.13497590507E+04  0.15375992446E+04  0.10100000352E+00 0. -1.
</event>
<event>
 5   0  0.2094135E-06  0.3091213E+04  0.7818609E-02  0.8218154E-01
        2   -1    0    0  501    0  0.00000000000E+00  0.00000000000E+00  0.16484467372E+04  0.16484467372E+04  0.25500000920E-02 0. -1.
       -2   -1    0    0    0  501  0.00000000000E+00  0.00000000000E+00 -0.14491817740E+04  0.14491817740E+04  0.25500000920E-02 0.  1.
    10030    2    1    2    0    0  0.00000000000E+00  0.00000000000E+00  0.19926496320E+03  0.30976285112E+04  0.30912126857E+04 0.  0.
        4    1    3    3  502    0 -0.79392325548E+03 -0.18982497337E+03  0.14148159050E+04  0.16334176790E+04  0.12699999809E+01 0. -1.
       -4    1    3    3    0  502  0.79392325548E+03  0.18982497337E+03 -0.12155509418E+04  0.14642108322E+04  0.12699999809E+01 0.  1.
</event>
<event>
 5   0  0.7561815E-07  0.3122835E+04  0.7818609E-02  0.8209499E-01
       -1   -1    0    0    0  501  0.00000000000E+00  0.00000000000E+00  0.12459566582E+04  0.12459566582E+04  0.50400001928E-02 0. -1.
        1   -1    0    0  501    0  0.00000000000E+00  0.00000000000E+00 -0.19567493295E+04  0.19567493295E+04  0.50400001928E-02 0.  1.
    10030    2    1    2    0    0  0.00000000000E+00  0.00000000000E+00 -0.71079267128E+03  0.32027059877E+04  0.31228351577E+04 0.  0.
        3    1    3    3  502    0  0.59779909009E+03  0.94124937382E+03 -0.14763802740E+04  0.18501386055E+04  0.10100000352E+00 0.  1.
       -3    1    3    3    0  502 -0.59779909009E+03 -0.94124937382E+03  0.76558760270E+03  0.13525673822E+04  0.10100000352E+00 0. -1.
</event>
<event>
 5   0  0.7519202E-07  0.3062167E+04  0.7818609E-02  0.8226198E-01
       -1   -1    0    0    0  501  0.00000000000E+00  0.00000000000E+00  0.10606847550E+04  0.10606847550E+04  0.50400001928E-02 0. -1.
        1   -1    0    0  501    0  0.00000000000E+00  0.00000000000E+00 -0.22100974016E+04  0.22100974016E+04  0.50400001928E-02 0.  1.
    10030    2    1    2    0    0  0.00000000000E+00  0.00000000000E+00 -0.11494126466E+04  0.32707821567E+04  0.30621669589E+04 0.  0.
        4    1    3    3  502    0  0.70047685641E+03 -0.22041061407E+03 -0.20097241883E+04  0.21396825912E+04  0.12699999809E+01 0.  1.
       -4    1    3    3    0  502 -0.70047685641E+03  0.22041061407E+03  0.86031154174E+03  0.11310995654E+04  0.12699999809E+01 0. -1.
</event>
<event>
 5   0  0.7519202E-07  0.3062670E+04  0.7818609E-02  0.8226058E-01
        1   -1    0    0  501    0  0.00000000000E+00  0.00000000000E+00  0.21986715708E+04  0.21986715708E+04  0.50400001928E-02 0. -1.
       -1   -1    0    0    0  501  0.00000000000E+00  0.00000000000E+00 -0.10665474482E+04  0.10665474483E+04  0.50400001928E-02 0.  1.
    10030    2    1    2    0    0  0.00000000000E+00  0.00000000000E+00  0.11321241226E+04  0.32652190191E+04  0.30626704383E+04 0.  0.
        4    1    3    3  502    0  0.12373611660E+04  0.85916516459E+03  0.85950776088E+03  0.17343536661E+04  0.12699999809E+01 0. -1.
       -4    1    3    3    0  502 -0.12373611660E+04 -0.85916516459E+03  0.27261636168E+03  0.15308653529E+04  0.12699999809E+01 0.  1.
</event>
<event>
 5   0  0.7519202E-07  0.3107042E+04  0.7818609E-02  0.8213808E-01
       -1   -1    0    0    0  501  0.00000000000E+00  0.00000000000E+00  0.12197276796E+04  0.12197276796E+04  0.50400001928E-02 0.  1.
        1   -1    0    0  501    0  0.00000000000E+00  0.00000000000E+00 -0.19786603934E+04  0.19786603934E+04  0.50400001928E-02 0. -1.
    10030    2    1    2    0    0  0.00000000000E+00  0.00000000000E+00 -0.75893271387E+03  0.31983880730E+04  0.31070415834E+04 0.  0.
        4    1    3    3  502    0 -0.44409250185E+03  0.26592663425E+03  0.11283461808E+04  0.12414112299E+04  0.12699999809E+01 0.  1.
       -4    1    3    3    0  502  0.44409250185E+03 -0.26592663425E+03 -0.18872788947E+04  0.19569768431E+04  0.12699999809E+01 0. -1.
</event>
<event>
 5   0  0.7726743E-07  0.3110726E+04  0.7818609E-02  0.8212800E-01
        1   -1    0    0  501    0  0.00000000000E+00  0.00000000000E+00  0.10318875702E+04  0.10318875702E+04  0.50400001928E-02 0.  1.
       -1   -1    0    0    0  501  0.00000000000E+00  0.00000000000E+00 -0.23443973098E+04  0.23443973098E+04  0.50400001928E-02 0. -1.
    10030    2    1    2    0    0  0.00000000000E+00  0.00000000000E+00 -0.13125097396E+04  0.33762848799E+04  0.31107262454E+04 0.  0.
        1    1    3    3  502    0 -0.97152904965E+03 -0.12034154827E+04 -0.83485302285E+03  0.17575713607E+04  0.50400001928E-02 0. -1.
       -1    1    3    3    0  502  0.97152904965E+03  0.12034154827E+04 -0.47765671672E+03  0.16187135192E+04  0.50400001928E-02 0.  1.
</event>
<event>
 5   0  0.7413481E-07  0.3067921E+04  0.7818609E-02  0.8224597E-01
       -1   -1    0    0    0  501  0.00000000000E+00  0.00000000000E+00  0.36085501725E+04  0.36085501725E+04  0.50400001928E-02 0.  1.
        1   -1    0    0  501    0  0.00000000000E+00  0.00000000000E+00 -0.65207210323E+03  0.65207210325E+03  0.50400001928E-02 0. -1.
    10030    2    1    2    0    0  0.00000000000E+00  0.00000000000E+00  0.29564780693E+04  0.42606222758E+04  0.30679210555E+04 0.  0.
        5    1    3    3  502    0  0.65724554623E+02 -0.11864335844E+04  0.13101612674E+03  0.11954629575E+04  0.46999998093E+01 0. -1.
       -5    1    3    3    0  502 -0.65724554623E+02  0.11864335844E+04  0.28254619425E+04  0.30651593182E+04  0.46999998093E+01 0.  1.
</event>
<event>
 5   0  0.2094135E-06  0.3083365E+04  0.7818609E-02  0.8220318E-01
        2   -1    0    0  501    0  0.00000000000E+00  0.00000000000E+00  0.22350756537E+04  0.22350756537E+04  0.25500000920E-02 0.  1.
       -2   -1    0    0    0  501  0.00000000000E+00  0.00000000000E+00 -0.10634027500E+04  0.10634027500E+04  0.25500000920E-02 0. -1.
    10030    2    1    2    0    0  0.00000000000E+00  0.00000000000E+00  0.11716729038E+04  0.32984784037E+04  0.30833654318E+04 0.  0.
        4    1    3    3  502    0 -0.11221894727E+04 -0.88899785613E+03 -0.26044792510E+02  0.14318890826E+04  0.12699999809E+01 0. -1.
       -4    1    3    3    0  502  0.11221894727E+04  0.88899785613E+03  0.11977176963E+04  0.18665893211E+04  0.12699999809E+01 0.  1.
</event>
<event>
 5   0  0.7413481E-07  0.3021774E+04  0.7818609E-02  0.8237541E-01
       -1   -1    0    0    0  501  0.00000000000E+00  0.00000000000E+00  0.17464814088E+04  0.17464814088E+04  0.50400001928E-02 0. -1.
        1   -1    0    0  501    0  0.00000000000E+00  0.00000000000E+00 -0.13070731316E+04  0.13070731316E+04  0.50400001928E-02 0.  1.
    10030    2    1    2    0    0  0.00000000000E+00  0.00000000000E+00  0.43940827713E+03  0.30535545404E+04  0.30217736012E+04 0.  0.
        5    1    3    3  502    0 -0.24376249876E+02  0.93847881154E+03  0.14159706301E+04  0.16989207152E+04  0.46999998093E+01 0. -1.
       -5    1    3    3    0  502  0.24376249876E+02 -0.93847881154E+03 -0.97656235293E+03  0.13546338252E+04  0.46999998093E+01 0.  1.
</event>
<event>
 5   0  0.2094135E-06  0.2926956E+04  0.7818609E-02  0.8264902E-01
        2   -1    0    0  501    0  0.00000000000E+00  0.00000000000E+00  0.15414670605E+04  0.15414670605E+04  0.25500000920E-02 0.  1.
       -2   -1    0    0    0  501  0.00000000000E+00  0.00000000000E+00 -0.13894348507E+04  0.13894348507E+04  0.25500000920E-02 0. -1.
    10030    2    1    2    0    0  0.00000000000E+00  0.00000000000E+00  0.15203220981E+03  0.29309019113E+04  0.29269561358E+04 0.  0.
        4    1    3    3  502    0  0.19806897000E+03  0.13765075757E+04 -0.38040755489E+03  0.14417752750E+04  0.12699999809E+01 0.  1.
       -4    1    3    3    0  502 -0.19806897000E+03 -0.13765075757E+04  0.53243976470E+03  0.14891266363E+04  0.12699999809E+01 0. -1.
</event>
<event>
 5   0  0.7726743E-07  0.2759485E+04  0.7818609E-02  0.8315958E-01
        1   -1    0    0  501    0  0.00000000000E+00  0.00000000000E+00  0.24733873067E+04  0.24733873067E+04  0.50400001928E-02 0.  1.
       -1   -1    0    0    0  501  0.00000000000E+00  0.00000000000E+00 -0.76966904107E+03  0.76966904109E+03  0.50400001928E-02 0. -1.
    10030    2    1    2    0    0  0.00000000000E+00  0.00000000000E+00  0.17037182656E+04  0.32430563478E+04  0.27594851959E+04 0.  0.
        1    1    3    3  502    0  0.37137472397E+03 -0.44414110101E+03 -0.62001255674E+03  0.84829008820E+03  0.50400001928E-02 0. -1.
       -1    1    3    3    0  502 -0.37137472397E+03  0.44414110101E+03  0.23237308224E+04  0.23947662596E+04  0.50400001928E-02 0.  1.
</event>
<event>
 5   0  0.2067926E-06  0.3087236E+04  0.7818609E-02  0.8219250E-01
        2   -1    0    0  501    0  0.00000000000E+00  0.00000000000E+00  0.12761190738E+04  0.12761190739E+04  0.25500000920E-02 0.  1.
       -2   -1    0    0    0  501  0.00000000000E+00  0.00000000000E+00 -0.18671892651E+04  0.18671892651E+04  0.25500000920E-02 0. -1.
    10030    2    1    2    0    0  0.00000000000E+00  0.00000000000E+00 -0.59107019129E+03  0.31433083390E+04  0.30872355503E+04 0.  0.
        1    1    3    3  502    0 -0.12728216592E+04 -0.44582253092E+03  0.46905236688E+03  0.14278805371E+04  0.50400001928E-02 0.  1.
       -1    1    3    3    0  502  0.12728216592E+04  0.44582253092E+03 -0.10601225582E+04  0.17154278019E+04  0.50400001928E-02 0. -1.
</event>
<event>
 5   0  0.7561815E-07  0.3112005E+04  0.7818609E-02  0.8212451E-01
       -1   -1    0    0    0  501  0.00000000000E+00  0.00000000000E+00  0.92436837654E+03  0.92436837655E+03  0.50400001928E-02 0.  1.
        1   -1    0    0  501    0  0.00000000000E+00  0.00000000000E+00 -0.26192419893E+04  0.26192419893E+04  0.50400001928E-02 0. -1.
    10030    2    1    2    0    0  0.00000000000E+00  0.00000000000E+00 -0.16948736128E+04  0.35436103659E+04  0.31120054405E+04 0.  0.
        3    1    3    3  502    0  0.84575979688E+03  0.12130539169E+03 -0.23282245326E+04  0.24800512326E+04  0.10100000352E+00 0. -1.
       -3    1    3    3    0  502 -0.84575979688E+03 -0.12130539169E+03  0.63335091982E+03  0.10635591332E+04  0.10100000352E+00 0.  1.
</event>
<event>
 5   0  0.2133385E-06  0.3091947E+04  0.7818609E-02  0.8217952E-01
        2   -1    0    0  501    0  0.00000000000E+00  0.00000000000E+00  0.11259984179E+04  0.11259984179E+04  0.25500000920E-02 0.  1.
       -2   -1    0    0    0  501  0.00000000000E+00  0.00000000000E+00 -0.21225906122E+04  0.21225906122E+04  0.25500000920E-02 0. -1.
    10030    2    1    2    0    0  0.00000000000E+00  0.00000000000E+00 -0.99659219434E+03  0.32485890301E+04  0.30919467468E+04 0.  0.
        2    1    3    3  502    0  0.49825592957E+03  0.49069807346E+03 -0.19469101560E+04  0.20686958999E+04  0.25500000920E-02 0. -1.
       -2    1    3    3    0  502 -0.49825592957E+03 -0.49069807346E+03  0.95031796164E+03  0.11798931303E+04  0.25500000920E-02 0.  1.
</event>
<event>
 5   0  0.7726743E-07  0.3097401E+04  0.7818609E-02  0.8216452E-01
       -1   -1    0    0    0  501  0.00000000000E+00  0.00000000000E+00  0.96625306852E+03  0.96625306853E+03  0.50400001928E-02 0. -1.
        1   -1    0    0  501    0  0.00000000000E+00  0.00000000000E+00 -0.24822413916E+04  0.24822413916E+04  0.50400001928E-02 0.  1.
    10030    2    1    2    0    0  0.00000000000E+00  0.00000000000E+00 -0.15159883231E+04  0.34484944602E+04  0.30974010793E+04 0.  0.
        1    1    3    3  502    0 -0.91878615529E+03 -0.15383466927E+03  0.61943303294E+03  0.11187181892E+04  0.50400001928E-02 0. -1.
       -1    1    3    3    0  502  0.91878615529E+03  0.15383466927E+03 -0.21354213561E+04  0.23297762709E+04  0.50400001928E-02 0.  1.
</event>
<event>
 5   0  0.7561815E-07  0.3079870E+04  0.7818609E-02  0.8221284E-01
       -1   -1    0    0    0  501  0.00000000000E+00  0.00000000000E+00  0.10052421084E+04  0.10052421084E+04  0.50400001928E-02 0.  1.
        1   -1    0    0  501    0  0.00000000000E+00  0.00000000000E+00 -0.23590337213E+04  0.23590337213E+04  0.50400001928E-02 0. -1.
    10030    2    1    2    0    0  0.00000000000E+00  0.00000000000E+00 -0.13537916129E+04  0.33642758297E+04  0.30798701478E+04 0.  0.
        3    1    3    3  502    0 -0.66689962014E+03 -0.13487011534E+04 -0.31849709250E+03  0.15379175246E+04  0.10100000352E+00 0.  1.
       -3    1    3    3    0  502  0.66689962014E+03  0.13487011534E+04 -0.10352945204E+04  0.18263583051E+04  0.10100000352E+00 0. -1.
</event>
<event>
 5   0  0.7726743E-07  0.3110187E+04  0.7818609E-02  0.8212948E-01
       -1   -1    0    0    0  501  0.00000000000E+00  0.00000000000E+00  0.21339325735E+04  0.21339325735E+04  0.50400001928E-02 0.  1.
        1   -1    0    0  501    0  0.00000000000E+00  0.00000000000E+00 -0.11332670636E+04  0.11332670636E+04  0.50400001928E-02 0. -1.
    10030    2    1    2    0    0  0.00000000000E+00  0.00000000000E+00  0.10006655099E+04  0.32671996371E+04  0.31101868120E+04 0.  0.
        1    1    3    3  502    0  0.22798694521E+02  0.46159197092E+02  0.21330371227E+04  0.21336583182E+04  0.50400001928E-02 0.  1.
       -1    1    3    3    0  502 -0.22798694521E+02 -0.46159197092E+02 -0.11323716128E+04  0.11335413188E+04  0.50400001928E-02 0. -1.
</event>
<event>
 5   0  0.2226334E-06  0.3028983E+04  0.7818609E-02  0.8235503E-01
       -2   -1    0    0    0  501  0.00000000000E+00  0.00000000000E+00  0.10618405612E+04  0.10618405612E+04  0.25500000920E-02 0. -1.
        2   -1    0    0  501    0  0.00000000000E+00  0.00000000000E+00 -0.21601031176E+04  0.21601031176E+04  0.25500000920E-02 0.  1.
    10030    2    1    2    0    0  0.00000000000E+00  0.00000000000E+00 -0.10982625564E+04  0.32219436788E+04  0.30289833982E+04 0.  0.
        5    1    3    3  502    0  0.12522648850E+03  0.14959121344E+04 -0.33578429316E+03  0.15382483443E+04  0.46999998093E+01 0. -1.
       -5    1    3    3    0  502 -0.12522648850E+03 -0.14959121344E+04 -0.76247826321E+03  0.16836953344E+04  0.46999998093E+01 0.  1.
</event>
<event>
 5   0  0.2078009E-06  0.3103742E+04  0.7818609E-02  0.8214712E-01
        2   -1    0    0  501    0  0.00000000000E+00  0.00000000000E+00  0.16438225783E+04  0.16438225783E+04  0.25500000920E-02 0. -1.
       -2   -1    0    0    0  501  0.00000000000E+00  0.00000000000E+00 -0.14650633775E+04  0.14650633775E+04  0.25500000920E-02 0.  1.
    10030    2    1    2    0    0  0.00000000000E+00  0.00000000000E+00  0.17875920083E+03  0.31088859558E+04  0.31037424240E+04 0.  0.
        3    1    3    3  502    0 -0.64905890054E+03 -0.39938000643E+03  0.14434787745E+04  0.16323029218E+04  0.10100000352E+00 0. -1.
       -3    1    3    3    0  502  0.64905890054E+03  0.39938000643E+03 -0.12647195737E+04  0.14765830340E+04  0.10100000352E+00 0.  1.
</event>
<event>
 5   0  0.2067926E-06  0.3102652E+04  0.7818609E-02  0.8215010E-01
       -2   -1    0    0    0  501  0.00000000000E+00  0.00000000000E+00  0.30583297675E+04  0.30583297675E+04  0.25500000920E-02 0. -1.
        2   -1    0    0  501    0  0.00000000000E+00  0.00000000000E+00 -0.78690427904E+03  0.78690427905E+03  0.25500000920E-02 0.  1.
    10030    2    1    2    0    0  0.00000000000E+00  0.00000000000E+00  0.22714254884E+04  0.38452340465E+04  0.31026522723E+04 0.  0.
        1    1    3    3  502    0 -0.26658196332E+03  0.62716101862E+03 -0.59147053868E+03  0.90234931407E+03  0.50400001928E-02 0.  1.
       -1    1    3    3    0  502  0.26658196332E+03 -0.62716101862E+03  0.28628960271E+04  0.29428847324E+04  0.50400001928E-02 0. -1.
</event>
<event>
 5   0  0.7656332E-07  0.3108472E+04  0.7818609E-02  0.8213417E-01
       -1   -1    0    0    0  501  0.00000000000E+00  0.00000000000E+00  0.11455547338E+04  0.11455547338E+04  0.50400001928E-02 0. -1.
        1   -1    0    0  501    0  0.00000000000E+00  0.00000000000E+00 -0.21087164551E+04  0.21087164551E+04  0.50400001928E-02 0.  1.
    10030    2    1    2    0    0  0.00000000000E+00  0.00000000000E+00 -0.96316172129E+03  0.32542711889E+04  0.31084723691E+04 0.  0.
        2    1    3    3  502    0  0.46829320753E+03 -0.99460787673E+03  0.66863558054E+03  0.12867077742E+04  0.25500000920E-02 0. -1.
       -2    1    3    3    0  502 -0.46829320753E+03  0.99460787673E+03 -0.16317973018E+04  0.19675634147E+04  0.25500000920E-02 0.  1.
</event>
<event>
 5   0  0.7726743E-07  0.3100124E+04  0.7818609E-02  0.8215704E-01
        1   -1    0    0  501    0  0.00000000000E+00  0.00000000000E+00  0.14025104634E+04  0.14025104634E+04  0.50400001928E-02 0.  1.
       -1   -1    0    0    0  501  0.00000000000E+00  0.00000000000E+00 -0.17131363755E+04  0.17131363755E+04  0.50400001928E-02 0. -1.
    10030    2    1    2    0    0  0.00000000000E+00  0.00000000000E+00 -0.31062591211E+03  0.31156468390E+04  0.31001236698E+04 0.  0.
        1    1    3    3  502    0  0.14696131965E+04  0.42800262082E+03 -0.40095963966E+03  0.15823140723E+04  0.50400001928E-02 0. -1.
       -1    1    3    3    0  502 -0.14696131965E+04 -0.42800262082E+03  0.90333727559E+02  0.15333327666E+04  0.50400001928E-02 0.  1.
</event>
<event>
 5   0  0.2226334E-06  0.3117357E+04  0.7818609E-02  0.8210990E-01
        2   -1    0    0  501    0  0.00000000000E+00  0.00000000000E+00  0.26283388143E+04  0.26283388143E+04  0.25500000920E-02 0. -1.
       -2   -1    0    0    0  501  0.00000000000E+00  0.00000000000E+00 -0.92434027375E+03  0.92434027375E+03  0.25500000920E-02 0.  1.
    10030    2    1    2    0    0  0.00000000000E+00  0.00000000000E+00  0.17039985406E+04  0.35526790881E+04  0.31173574829E+04 0.  0.
        5    1    3    3  502    0  0.29727019537E+03  0.94732541722E+01 -0.89169321036E+03  0.93999903351E+03  0.46999998093E+01 0.  1.
       -5    1    3    3    0  502 -0.29727019537E+03 -0.94732541722E+01  0.25956917509E+04  0.26126800545E+04  0.46999998093E+01 0. -1.
</event>
<event>
 5   0  0.7413481E-07  0.3104125E+04  0.7818609E-02  0.8214607E-01
       -1   -1    0    0    0  501  0.00000000000E+00  0.00000000000E+00  0.16275680461E+04  0.16275680461E+04  0.50400001928E-02 0.  1.
        1   -1    0    0  501    0  0.00000000000E+00  0.00000000000E+00 -0.14800596323E+04  0.14800596323E+04  0.50400001928E-02 0. -1.
    10030    2    1    2    0    0  0.00000000000E+00  0.00000000000E+00  0.14750841380E+03  0.31076276783E+04  0.31041248453E+04 0.  0.
        5    1    3    3  502    0  0.88906939273E+03  0.31609015541E+02 -0.11994639927E+04  0.14933785437E+04  0.46999998093E+01 0. -1.
       -5    1    3    3    0  502 -0.88906939273E+03 -0.31609015541E+02  0.13469724065E+04  0.16142491347E+04  0.46999998093E+01 0.  1.
</event>
<event>
 5   0  0.7519202E-07  0.3091689E+04  0.7818609E-02  0.8218023E-01
        1   -1    0    0  501    0  0.00000000000E+00  0.00000000000E+00  0.80196105677E+03  0.80196105679E+03  0.50400001928E-02 0. -1.
       -1   -1    0    0    0  501  0.00000000000E+00  0.00000000000E+00 -0.29797393793E+04  0.29797393793E+04  0.50400001928E-02 0.  1.
    10030    2    1    2    0    0  0.00000000000E+00  0.00000000000E+00 -0.21777783226E+04  0.37817004361E+04  0.30916888211E+04 0.  0.
        4    1    3    3  502    0  0.10697254315E+04 -0.10746345771E+04 -0.14568239875E+04  0.21027338673E+04  0.12699999809E+01 0. -1.
       -4    1    3    3    0  502 -0.10697254315E+04  0.10746345771E+04 -0.72095433509E+03  0.16789665689E+04  0.12699999809E+01 0.  1.
</event>
<event>
 5   0  0.2078009E-06  0.3080437E+04  0.7818609E-02  0.8221127E-01
        2   -1    0    0  501    0  0.00000000000E+00  0.00000000000E+00  0.21194259953E+04  0.21194259953E+04  0.25500000920E-02 0. -1.
       -2   -1    0    0    0  501  0.00000000000E+00  0.00000000000E+00 -0.11192997388E+04  0.11192997388E+04  0.25500000920E-02 0.  1.
    10030    2    1    2    0    0  0.00000000000E+00  0.00000000000E+00  0.10001262565E+04  0.32387257340E+04  0.30804369579E+04 0.  0.
        3    1    3    3  502    0  0.55874857277E+03  0.14342780222E+04  0.55687238034E+03  0.16369057000E+04  0.10100000352E+00 0.  1.
       -3    1    3    3    0  502 -0.55874857277E+03 -0.14342780222E+04  0.44325387616E+03  0.16018200340E+04  0.10100000352E+00 0. -1.
</event>
<event>
 5   0  0.6979625E-07  0.3117325E+04  0.7818609E-02  0.8210999E-01
       -3   -1    0    0    0  501  0.00000000000E+00  0.00000000000E+00  0.10117863412E+04  0.10117863463E+04  0.10100000352E+00 0.  1.
        3   -1    0    0  501    0  0.00000000000E+00  0.00000000000E+00 -0.24011290113E+04  0.24011290135E+04  0.10100000352E+00 0. -1.
    10030    2    1    2    0    0  0.00000000000E+00  0.00000000000E+00 -0.13893426701E+04  0.34129153597E+04  0.31173254879E+04 0.  0.
        2    1    3    3  502    0 -0.11685632233E+03  0.13115483421E+04  0.21844868882E+03  0.13347412795E+04  0.25500000920E-02 0.  1.
       -2    1    3    3    0  502  0.11685632233E+03 -0.13115483421E+04 -0.16077913589E+04  0.20781740802E+04  0.25500000920E-02 0. -1.
</event>
<event>
 5   0  0.2226334E-06  0.3081978E+04  0.7818609E-02  0.8220701E-01
        2   -1    0    0  501    0  0.00000000000E+00  0.00000000000E+00  0.14958871761E+04  0.14958871761E+04  0.25500000920E-02 0.  1.
       -2   -1    0    0    0  501  0.00000000000E+00  0.00000000000E+00 -0.15874502979E+04  0.15874502979E+04  0.25500000920E-02 0. -1.
    10030    2    1    2    0    0  0.00000000000E+00  0.00000000000E+00 -0.91563121791E+02  0.30833374740E+04  0.30819776400E+04 0.  0.
        5    1    3    3  502    0  0.10204461688E+04  0.87010872788E+02 -0.11976988011E+04  0.15758761955E+04  0.46999998093E+01 0. -1.
       -5    1    3    3    0  502 -0.10204461688E+04 -0.87010872788E+02  0.11061356793E+04  0.15074612786E+04  0.46999998093E+01 0.  1.
</event>
<event>
 5   0  0.2094135E-06  0.3109368E+04  0.7818609E-02  0.8213172E-01
        2   -1    0    0  501    0  0.00000000000E+00  0.00000000000E+00  0.18820519219E+04  0.18820519219E+04  0.25500000920E-02 0.  1.
       -2   -1    0    0    0  501  0.00000000000E+00  0.00000000000E+00 -0.12842593932E+04  0.12842593932E+04  0.25500000920E-02 0. -1.
    10030    2    1    2    0    0  0.00000000000E+00  0.00000000000E+00  0.59779252865E+03  0.31663113151E+04  0.31093683341E+04 0.  0.
        4    1    3    3  502    0 -0.10362485932E+03 -0.11952737534E+04  0.13057521707E+04  0.17732478116E+04  0.12699999809E+01 0.  1.
       -4    1    3    3    0  502  0.10362485932E+03  0.11952737534E+04 -0.70795964208E+03  0.13930635035E+04  0.12699999809E+01 0. -1.
</event>
<event>
 5   0  0.2067926E-06  0.3090236E+04  0.7818609E-02  0.8218423E-01
        2   -1    0    0  501    0  0.00000000000E+00  0.00000000000E+00  0.21653827505E+04  0.21653827505E+04  0.25500000920E-02 0.  1.
       -2   -1    0    0    0  501  0.00000000000E+00  0.00000000000E+00 -0.11025255219E+04  0.11025255219E+04  0.25500000920E-02 0. -1.
    10030    2    1    2    0    0  0.00000000000E+00  0.00000000000E+00  0.10628572286E+04  0.32679082724E+04  0.30902360733E+04 0.  0.
        1    1    3    3  502    0 -0.11424978558E+04  0.23915451847E+03  0.16020047838E+04  0.19821492279E+04  0.50400001928E-02 0.  1.
       -1    1    3    3    0  502  0.11424978558E+04 -0.23915451847E+03 -0.53914755521E+03  0.12857590445E+04  0.50400001928E-02 0. -1.
</event>
<event>
 5   0  0.2067926E-06  0.3089149E+04  0.7818609E-02  0.8218722E-01
       -2   -1    0    0    0  501  0.00000000000E+00  0.00000000000E+00  0.13991144804E+04  0.13991144804E+04  0.25500000920E-02 0. -1.
        2   -1    0    0  501    0  0.00000000000E+00  0.00000000000E+00 -0.17051570829E+04  0.17051570829E+04  0.25500000920E-02 0.  1.
    10030    2    1    2    0    0  0.00000000000E+00  0.00000000000E+00 -0.30604260249E+03  0.31042715633E+04  0.30891487280E+04 0.  0.
        1    1    3    3  502    0 -0.12101644469E+04 -0.91587279476E+03  0.13541871235E+03  0.15236991804E+04  0.50400001928E-02 0.  1.
       -1    1    3    3    0  502  0.12101644469E+04  0.91587279476E+03 -0.44146131484E+03  0.15805723828E+04  0.50400001928E-02 0. -1.
</event>
<event>
 5   0  0.7656332E-07  0.3086424E+04  0.7818609E-02  0.8219474E-01
        1   -1    0    0  501    0  0.00000000000E+00  0.00000000000E+00  0.18166626084E+04  0.18166626084E+04  0.50400001928E-02 0.  1.
       -1   -1    0    0    0  501  0.00000000000E+00  0.00000000000E+00 -0.13109223189E+04  0.13109223189E+04  0.50400001928E-02 0. -1.
    10030    2    1    2    0    0  0.00000000000E+00  0.00000000000E+00  0.50574028949E+03  0.31275849274E+04  0.30864241830E+04 0.  0.
        2    1    3    3  502    0 -0.13809165939E+04  0.13025776392E+02  0.95082498874E+03  0.16766539504E+04  0.25500000920E-02 0.  1.
       -2    1    3    3    0  502  0.13809165939E+04 -0.13025776392E+02 -0.44508469925E+03  0.14509309769E+04  0.25500000920E-02 0. -1.
</event>
<event>
 5   0  0.2067926E-06  0.3096073E+04  0.7818609E-02  0.8216817E-01
        2   -1    0    0  501    0  0.00000000000E+00  0.00000000000E+00  0.23782883459E+04  0.23782883459E+04  0.25500000920E-02 0. -1.
       -2   -1    0    0    0  501  0.00000000000E+00  0.00000000000E+00 -0.10076224324E+04  0.10076224324E+04  0.25500000920E-02 0.  1.
    10030    2    1    2    0    0  0.00000000000E+00  0.00000000000E+00  0.13706659135E+04  0.33859107783E+04  0.30960727950E+04 0.  0.
        1    1    3    3  502    0  0.14894850548E+04  0.17902617222E+03  0.11029170875E+04  0.18619995169E+04  0.50400001928E-02 0. -1.
       -1    1    3    3    0  502 -0.14894850548E+04 -0.17902617222E+03  0.26774882601E+03  0.15239112614E+04  0.50400001928E-02 0.  1.
</event>
<event>
 5   0  0.7413481E-07  0.3095287E+04  0.7818609E-02  0.8217032E-01
       -1   -1    0    0    0  501  0.00000000000E+00  0.00000000000E+00  0.11523604391E+04  0.11523604391E+04  0.50400001928E-02 0.  1.
        1   -1    0    0  501    0  0.00000000000E+00  0.00000000000E+00 -0.20785170652E+04  0.20785170652E+04  0.50400001928E-02 0. -1.
    10030    2    1    2    0    0  0.00000000000E+00  0.00000000000E+00 -0.92615662607E+03  0.32308775043E+04  0.30952872810E+04 0.  0.
        5    1    3    3  502    0 -0.10245797286E+04 -0.17686259693E+03  0.73349545852E+03  0.12724314033E+04  0.46999998093E+01 0.  1.
       -5    1    3    3    0  502  0.10245797286E+04  0.17686259693E+03 -0.16596520846E+04  0.19584461010E+04  0.46999998093E+01 0. -1.
</event>
<event>
 5   0  0.7561815E-07  0.3078991E+04  0.7818609E-02  0.8221527E-01
        1   -1    0    0  501    0  0.00000000000E+00  0.00000000000E+00  0.23114868499E+04  0.23114868499E+04  0.50400001928E-02 0.  1.
       -1   -1    0    0    0  501  0.00000000000E+00  0.00000000000E+00 -0.10253342515E+04  0.10253342515E+04  0.50400001928E-02 0. -1.
    10030    2    1    2    0    0  0.00000000000E+00  0.00000000000E+00  0.12861525984E+04  0.33368211014E+04  0.30789911588E+04 0.  0.
        3    1    3    3  502    0  0.15104101436E+04 -0.14824606307E+03  0.36312139795E+03  0.15605040394E+04  0.10100000352E+00 0. -1.
       -3    1    3    3    0  502 -0.15104101436E+04  0.14824606307E+03  0.92303120048E+03  0.17763170619E+04  0.10100000352E+00 0.  1.
</event>
<event>
 5   0  0.2094135E-06  0.3129466E+04  0.7818609E-02  0.8207697E-01
       -2   -1    0    0    0  501  0.00000000000E+00  0.00000000000E+00  0.12667099473E+04  0.12667099474E+04  0.25500000920E-02 0.  1.
        2   -1    0    0  501    0  0.00000000000E+00  0.00000000000E+00 -0.19328727206E+04  0.19328727206E+04  0.25500000920E-02 0. -1.
    10030    2    1    2    0    0  0.00000000000E+00  0.00000000000E+00 -0.66616277324E+03  0.31995826679E+04  0.31294658344E+04 0.  0.
        4    1    3    3  502    0 -0.40226632930E+03 -0.14027249883E+04  0.24431239040E+03  0.14795762060E+04  0.12699999809E+01 0.  1.
       -4    1    3    3    0  502  0.40226632930E+03  0.14027249883E+04 -0.91047516363E+03  0.17200064619E+04  0.12699999809E+01 0. -1.
</event>
<event>
 5   0  0.7519202E-07  0.3059175E+04  0.7818609E-02  0.8227032E-01
        1   -1    0    0  501    0  0.00000000000E+00  0.00000000000E+00  0.17616732610E+04  0.17616732610E+04  0.50400001928E-02 0.  1.
       -1   -1    0    0    0  501  0.00000000000E+00  0.00000000000E+00 -0.13280772660E+04  0.13280772660E+04  0.50400001928E-02 0. -1.
    10030    2    1    2    0    0  0.00000000000E+00  0.00000000000E+00  0.43359599503E+03  0.30897505270E+04  0.30591751883E+04 0.  0.
        4    1    3    3  502    0 -0.96057258452E+03 -0.36463635567E+03 -0.92765438693E+03  0.13842700735E+04  0.12699999809E+01 0. -1.
       -4    1    3    3    0  502  0.96057258452E+03  0.36463635567E+03  0.13612503820E+04  0.17054804535E+04  0.12699999809E+01 0.  1.
</event>
<event>
 5   0  0.2067926E-06  0.3101219E+04  0.7818609E-02  0.8215403E-01
       -2   -1    0    0    0  501  0.00000000000E+00  0.00000000000E+00  0.17213308445E+04  0.17213308445E+04  0.25500000920E-02 0. -1.
        2   -1    0    0  501    0  0.00000000000E+00  0.00000000000E+00 -0.13968202335E+04  0.13968202335E+04  0.25500000920E-02 0.  1.
    10030    2    1    2    0    0  0.00000000000E+00  0.00000000000E+00  0.32451061096E+03  0.31181510780E+04  0.31012189553E+04 0.  0.
        1    1    3    3  502    0 -0.32439798414E+03  0.20774930961E+03 -0.13479426535E+04  0.14019069958E+04  0.50400001928E-02 0.  1.
       -1    1    3    3    0  502  0.32439798414E+03 -0.20774930961E+03  0.16724532645E+04  0.17162440822E+04  0.50400001928E-02 0. -1.
</event>
<event>
 5   0  0.2078009E-06  0.3093980E+04  0.7818609E-02  0.8217392E-01
       -2   -1    0    0    0  501  0.00000000000E+00  0.00000000000E+00  0.11791571669E+04  0.11791571669E+04  0.25500000920E-02 0.  1.
        2   -1    0    0  501    0  0.00000000000E+00  0.00000000000E+00 -0.20295671336E+04  0.20295671336E+04  0.25500000920E-02 0. -1.
    10030    2    1    2    0    0  0.00000000000E+00  0.00000000000E+00 -0.85040996673E+03  0.32087243005E+04  0.30939803693E+04 0.  0.
        3    1    3    3  502    0  0.37828525452E+03  0.40490915937E+03  0.10727034620E+04  0.12073706509E+04  0.10100000352E+00 0.  1.
       -3    1    3    3    0  502 -0.37828525452E+03 -0.40490915937E+03 -0.19231134287E+04  0.20013536496E+04  0.10100000352E+00 0. -1.
</event>
<event>
 5   0  0.2078009E-06  0.3090226E+04  0.7818609E-02  0.8218425E-01
       -2   -1    0    0    0  501  0.00000000000E+00  0.00000000000E+00  0.10927959463E+04  0.10927959463E+04  0.25500000920E-02 0.  1.
        2   -1    0    0  501    0  0.00000000000E+00  0.00000000000E+00 -0.21846483707E+04  0.21846483707E+04  0.25500000920E-02 0. -1.
    10030    2    1    2    0    0  0.00000000000E+00  0.00000000000E+00 -0.10918524244E+04  0.32774443170E+04  0.30902264535E+04 0.  0.
        3    1    3    3  502    0 -0.44738542371E+03 -0.13294907861E+04  0.14114503655E+03  0.14098302732E+04  0.10100000352E+00 0.  1.
       -3    1    3    3    0  502  0.44738542371E+03  0.13294907861E+04 -0.12329974609E+04  0.18676140438E+04  0.10100000352E+00 0. -1.
</event>
<event>
 5   0  0.7656332E-07  0.3084207E+04  0.7818609E-02  0.8220085E-01
        1   -1    0    0  501    0  0.00000000000E+00  0.00000000000E+00  0.20384221270E+04  0.20384221270E+04  0.50400001928E-02 0. -1.
       -1   -1    0    0    0  501  0.00000000000E+00  0.00000000000E+00 -0.11666297098E+04  0.11666297098E+04  0.50400001928E-02 0.  1.
    10030    2    1    2    0    0  0.00000000000E+00  0.00000000000E+00  0.87179241723E+03  0.32050518368E+04  0.30842073954E+04 0.  0.
        2    1    3    3  502    0 -0.35988608090E+03  0.27073261652E+03  0.19685640192E+04  0.20194203224E+04  0.25500000920E-02 0. -1.
       -2    1    3    3    0  502  0.35988608090E+03 -0.27073261652E+03 -0.10967716020E+04  0.11856315143E+04  0.25500000920E-02 0.  1.
</event>
<event>
 5   0  0.2226334E-06  0.3381873E+04  0.7818609E-02  0.8142370E-01
       -2   -1    0    0    0  501  0.00000000000E+00  0.00000000000E+00  0.17246985025E+04  0.17246985025E+04  0.25500000920E-02 0. -1.
        2   -1    0    0  501    0  0.00000000000E+00  0.00000000000E+00 -0.16578357849E+04  0.16578357849E+04  0.25500000920E-02 0.  1.
    10030    2    1    2    0    0  0.00000000000E+00  0.00000000000E+00  0.66862717615E+02  0.33825342873E+04  0.33818733835E+04 0.  0.
        5    1    3    3  502    0  0.85835685441E+03  0.14432868241E+04 -0.16508024587E+03  0.16873431553E+04  0.46999998093E+01 0.  1.
       -5    1    3    3    0  502 -0.85835685441E+03 -0.14432868241E+04  0.23194296349E+03  0.16951911321E+04  0.46999998093E+01 0. -1.
</event>
<event>
 5   0  0.2226334E-06  0.3098202E+04  0.7818609E-02  0.8216232E-01
       -2   -1    0    0    0  501  0.00000000000E+00  0.00000000000E+00  0.91004064712E+03  0.91004064712E+03  0.25500000920E-02 0. -1.
        2   -1    0    0  501    0  0.00000000000E+00  0.00000000000E+00 -0.26369300920E+04  0.26369300920E+04  0.25500000920E-02 0.  1.
    10030    2    1    2    0    0  0.00000000000E+00  0.00000000000E+00 -0.17268894449E+04  0.35469707392E+04  0.30982017800E+04 0.  0.
        5    1    3    3  502    0 -0.56068994168E+03 -0.39173513644E+03 -0.24546856469E+04  0.25482019824E+04  0.46999998093E+01 0.  1.
       -5    1    3    3    0  502  0.56068994168E+03  0.39173513644E+03  0.72779620202E+03  0.99876875677E+03  0.46999998093E+01 0. -1.
</event>
<event>
 5   0  0.2094135E-06  0.3090864E+04  0.7818609E-02  0.8218250E-01
       -2   -1    0    0    0  501  0.00000000000E+00  0.00000000000E+00  0.11524023557E+04  0.11524023557E+04  0.25500000920E-02 0. -1.
        2   -1    0    0  501    0  0.00000000000E+00  0.00000000000E+00 -0.20725057134E+04  0.20725057134E+04  0.25500000920E-02 0.  1.
    10030    2    1    2    0    0  0.00000000000E+00  0.00000000000E+00 -0.92010335771E+03  0.32249080691E+04  0.30908642587E+04 0.  0.
        4    1    3    3  502    0 -0.80592931777E+03  0.12658586841E+04 -0.74656744625E+02  0.15024964279E+04  0.12699999809E+01 0.  1.
       -4    1    3    3    0  502  0.80592931777E+03 -0.12658586841E+04 -0.84544661309E+03  0.17224116412E+04  0.12699999809E+01 0. -1.
</event>
<event>
 5   0  0.2094135E-06  0.3104822E+04  0.7818609E-02  0.8214416E-01
       -2   -1    0    0    0  501  0.00000000000E+00  0.00000000000E+00  0.11836489832E+04  0.11836489832E+04  0.25500000920E-02 0. -1.
        2   -1    0    0  501    0  0.00000000000E+00  0.00000000000E+00 -0.20360597648E+04  0.20360597648E+04  0.25500000920E-02 0.  1.
    10030    2    1    2    0    0  0.00000000000E+00  0.00000000000E+00 -0.85241078158E+03  0.32197087481E+04  0.31048221015E+04 0.  0.
        4    1    3    3  502    0  0.19382154172E+03 -0.42322107975E+03 -0.19619834139E+04  0.20164482145E+04  0.12699999809E+01 0.  1.
       -4    1    3    3    0  502 -0.19382154172E+03  0.42322107975E+03  0.11095726323E+04  0.12032605336E+04  0.12699999809E+01 0. -1.
</event>
<event>
 5   0  0.7656332E-07  0.3101736E+04  0.7818609E-02  0.8215262E-01
        1   -1    0    0  501    0  0.00000000000E+00  0.00000000000E+00  0.16121501526E+04  0.16121501526E+04  0.50400001928E-02 0.  1.
       -1   -1    0    0    0  501  0.00000000000E+00  0.00000000000E+00 -0.14919156447E+04  0.14919156447E+04  0.50400001928E-02 0. -1.
    10030    2    1    2    0    0  0.00000000000E+00  0.00000000000E+00  0.12023450790E+03  0.31040657972E+04  0.31017363100E+04 0.  0.
        2    1    3    3  502    0  0.11455156509E+04  0.87857534017E+03  0.62719200804E+03  0.15739982687E+04  0.25500000920E-02 0.  1.
       -2    1    3    3    0  502 -0.11455156509E+04 -0.87857534017E+03 -0.50695750014E+03  0.15300675285E+04  0.25500000920E-02 0. -1.
</event>
<event>
 5   0  0.2078009E-06  0.3111673E+04  0.7818609E-02  0.8212542E-01
        2   -1    0    0  501    0  0.00000000000E+00  0.00000000000E+00  0.17979728651E+04  0.17979728651E+04  0.25500000920E-02 0.  1.
       -2   -1    0    0    0  501  0.00000000000E+00  0.00000000000E+00 -0.13463094811E+04  0.13463094811E+04  0.25500000920E-02 0. -1.
    10030    2    1    2    0    0  0.00000000000E+00  0.00000000000E+00  0.45166338406E+03  0.31442823462E+04  0.31116734501E+04 0.  0.
        3    1    3    3  502    0  0.14283071980E+04  0.47518991518E+03  0.62335105063E+03  0.16292432139E+04  0.10100000352E+00 0.  1.
       -3    1    3    3    0  502 -0.14283071980E+04 -0.47518991518E+03 -0.17168766658E+03  0.15150391323E+04  0.10100000352E+00 0. -1.
</event>
<event>
 5   0  0.7519202E-07  0.3102378E+04  0.7818609E-02  0.8215086E-01
       -1   -1    0    0    0  501  0.00000000000E+00  0.00000000000E+00  0.10249249549E+04  0.10249249549E+04  0.50400001928E-02 0.  1.
        1   -1    0    0  501    0  0.00000000000E+00  0.00000000000E+00 -0.23476719980E+04  0.23476719980E+04  0.50400001928E-02 0. -1.
    10030    2    1    2    0    0  0.00000000000E+00  0.00000000000E+00 -0.13227470431E+04  0.33725969529E+04  0.31023781952E+04 0.  0.
        4    1    3    3  502    0  0.64165708806E+03 -0.11806992475E+04 -0.15037266532E+04  0.20166730008E+04  0.12699999809E+01 0. -1.
       -4    1    3    3    0  502 -0.64165708806E+03  0.11806992475E+04  0.18097961005E+03  0.13559239521E+04  0.12699999809E+01 0.  1.
</event>
<event>
 5   0  0.2067926E-06  0.3149026E+04  0.7818609E-02  0.8202411E-01
       -2   -1    0    0    0  501  0.00000000000E+00  0.00000000000E+00  0.18225032531E+04  0.18225032531E+04  0.25500000920E-02 0.  1.
        2   -1    0    0  501    0  0.00000000000E+00  0.00000000000E+00 -0.13602667429E+04  0.13602667429E+04  0.25500000920E-02 0. -1.
    10030    2    1    2    0    0  0.00000000000E+00  0.00000000000E+00  0.46223651019E+03  0.31827699960E+04  0.31490256042E+04 0.  0.
        1    1    3    3  502    0  0.48817733390E+03 -0.84890708232E+03  0.14772657820E+04  0.17723641089E+04  0.50400001928E-02 0.  1.
       -1    1    3    3    0  502 -0.48817733390E+03  0.84890708232E+03 -0.10150292718E+04  0.14104058871E+04  0.50400001928E-02 0. -1.
</event>
<event>
 5   0  0.2133385E-06  0.3057708E+04  0.7818609E-02  0.8227441E-01
       -2   -1    0    0    0  501  0.00000000000E+00  0.00000000000E+00  0.16528895556E+04  0.16528895556E+04  0.25500000920E-02 0.  1.
        2   -1    0    0  501    0  0.00000000000E+00  0.00000000000E+00 -0.14141262030E+04  0.14141262030E+04  0.25500000920E-02 0. -1.
    10030    2    1    2    0    0  0.00000000000E+00  0.00000000000E+00  0.23876335268E+03  0.30670157586E+04  0.30577079201E+04 0.  0.
        2    1    3    3  502    0  0.15540150643E+03  0.14221927691E+04 -0.42134423020E+03  0.14914130417E+04  0.25500000920E-02 0. -1.
       -2    1    3    3    0  502 -0.15540150643E+03 -0.14221927691E+04  0.66010758288E+03  0.15756027169E+04  0.25500000920E-02 0.  1.
</event>
<event>
 5   0  0.7519202E-07  0.3218630E+04  0.7818609E-02  0.8183914E-01
        1   -1    0    0  501    0  0.00000000000E+00  0.00000000000E+00  0.15138705668E+04  0.15138705668E+04  0.50400001928E-02 0.  1.
       -1   -1    0    0    0  501  0.00000000000E+00  0.00000000000E+00 -0.17107772113E+04  0.17107772113E+04  0.50400001928E-02 0. -1.
    10030    2    1    2    0    0  0.00000000000E+00  0.00000000000E+00 -0.19690664448E+03  0.32246477781E+04  0.32186303090E+04 0.  0.
        4    1    3    3  502    0 -0.11918531605E+04  0.66449631895E+03  0.75626787630E+03  0.15601320546E+04  0.12699999809E+01 0.  1.
       -4    1    3    3    0  502  0.11918531605E+04 -0.66449631895E+03 -0.95317452078E+03  0.16645157236E+04  0.12699999809E+01 0. -1.
</event>
<event>
 5   0  0.7656332E-07  0.3104838E+04  0.7818609E-02  0.8214411E-01
       -1   -1    0    0    0  501  0.00000000000E+00  0.00000000000E+00  0.14858215572E+04  0.14858215573E+04  0.50400001928E-02 0.  1.
        1   -1    0    0  501    0  0.00000000000E+00  0.00000000000E+00 -0.16220014703E+04  0.16220014703E+04  0.50400001928E-02 0. -1.
    10030    2    1    2    0    0  0.00000000000E+00  0.00000000000E+00 -0.13617991307E+03  0.31078230276E+04  0.31048379993E+04 0.  0.
        2    1    3    3  502    0  0.82262619246E+03 -0.12880667282E+04 -0.34070267781E+03  0.15658569741E+04  0.25500000920E-02 0.  1.
       -2    1    3    3    0  502 -0.82262619246E+03  0.12880667282E+04  0.20452276474E+03  0.15419660535E+04  0.25500000920E-02 0. -1.
</event>
<event>
 5   0  0.2094135E-06  0.3047986E+04  0.7818609E-02  0.8230159E-01
        2   -1    0    0  501    0  0.00000000000E+00  0.00000000000E+00  0.18499437798E+04  0.18499437798E+04  0.25500000920E-02 0. -1.
       -2   -1    0    0    0  501  0.00000000000E+00  0.00000000000E+00 -0.12554733006E+04  0.12554733006E+04  0.25500000920E-02 0.  1.
    10030    2    1    2    0    0  0.00000000000E+00  0.00000000000E+00  0.59447047925E+03  0.31054170804E+04  0.30479862357E+04 0.  0.
        4    1    3    3  502    0 -0.70581396773E+03  0.57352492419E+01 -0.10788986126E+04  0.12892750208E+04  0.12699999809E+01 0.  1.
       -4    1    3    3    0  502  0.70581396773E+03 -0.57352492419E+01  0.16733690919E+04  0.18161420596E+04  0.12699999809E+01 0. -1.
</event>
<event>
 5   0  0.2094135E-06  0.3088381E+04  0.7818609E-02  0.8218934E-01
       -2   -1    0    0    0  501  0.00000000000E+00  0.00000000000E+00  0.17871420964E+04  0.17871420964E+04  0.25500000920E-02 0.  1.
        2   -1    0    0  501    0  0.00000000000E+00  0.00000000000E+00 -0.13342665756E+04  0.13342665756E+04  0.25500000920E-02 0. -1.
    10030    2    1    2    0    0  0.00000000000E+00  0.00000000000E+00  0.45287552075E+03  0.31214086720E+04  0.30883807829E+04 0.  0.
        4    1    3    3  502    0  0.94024209935E+03  0.22080903386E+03  0.14441924277E+04  0.17373845907E+04  0.12699999809E+01 0.  1.
       -4    1    3    3    0  502 -0.94024209935E+03 -0.22080903386E+03 -0.99131690694E+03  0.13840240813E+04  0.12699999809E+01 0. -1.
</event>
<event>
 5   0  0.7519202E-07  0.3026307E+04  0.7818609E-02  0.8236259E-01
        1   -1    0    0  501    0  0.00000000000E+00  0.00000000000E+00  0.14719045752E+04  0.14719045752E+04  0.50400001928E-02 0. -1.
       -1   -1    0    0    0  501  0.00000000000E+00  0.00000000000E+00 -0.15555580747E+04  0.15555580747E+04  0.50400001928E-02 0.  1.
    10030    2    1    2    0    0  0.00000000000E+00  0.00000000000E+00 -0.83653499466E+02  0.30274626499E+04  0.30263066911E+04 0.  0.
        4    1    3    3  502    0  0.14293266474E+04 -0.11658821219E+03 -0.52477813339E+03  0.15270760225E+04  0.12699999809E+01 0.  1.
       -4    1    3    3    0  502 -0.14293266474E+04  0.11658821219E+03  0.44112463392E+03  0.15003866274E+04  0.12699999809E+01 0. -1.
</event>
<event>
 5   0  0.7656332E-07  0.3109650E+04  0.7818609E-02  0.8213095E-01
       -1   -1    0    0    0  501  0.00000000000E+00  0.00000000000E+00  0.13814581530E+04  0.13814581530E+04  0.50400001928E-02 0.  1.
        1   -1    0    0  501    0  0.00000000000E+00  0.00000000000E+00 -0.17499487469E+04  0.17499487469E+04  0.50400001928E-02 0. -1.
    10030    2    1    2    0    0  0.00000000000E+00  0.00000000000E+00 -0.36849059388E+03  0.31314068999E+04  0.31096501178E+04 0.  0.
        2    1    3    3  502    0  0.11561194455E+04  0.13147889537E+03  0.85427140420E+03  0.14434952387E+04  0.25500000920E-02 0.  1.
       -2    1    3    3    0  502 -0.11561194455E+04 -0.13147889537E+03 -0.12227619981E+04  0.16879116612E+04  0.25500000920E-02 0. -1.
</event>
<event>
 5   0  0.2226334E-06  0.3123092E+04  0.7818609E-02  0.8209429E-01
        2   -1    0    0  501    0  0.00000000000E+00  0.00000000000E+00  0.23194517396E+04  0.23194517396E+04  0.25500000920E-02 0. -1.
       -2   -1    0    0    0  501  0.00000000000E+00  0.00000000000E+00 -0.10512940767E+04  0.10512940767E+04  0.25500000920E-02 0.  1.
    10030    2    1    2    0    0  0.00000000000E+00  0.00000000000E+00  0.12681576629E+04  0.33707458163E+04  0.31230919775E+04 0.  0.
        5    1    3    3  502    0  0.37670975099E+03  0.11420397675E+04  0.17091799512E+04  0.20898524500E+04  0.46999998093E+01 0. -1.
       -5    1    3    3    0  502 -0.37670975099E+03 -0.11420397675E+04 -0.44102228834E+03  0.12808933663E+04  0.46999998093E+01 0.  1.
</event>
<event>
 5   0  0.2226334E-06  0.3066572E+04  0.7818609E-02  0.8224972E-01
       -2   -1    0    0    0  501  0.00000000000E+00  0.00000000000E+00  0.75818795601E+03  0.75818795601E+03  0.25500000920E-02 0. -1.
        2   -1    0    0  501    0  0.00000000000E+00  0.00000000000E+00 -0.31007696406E+04  0.31007696406E+04  0.25500000920E-02 0.  1.
    10030    2    1    2    0    0  0.00000000000E+00  0.00000000000E+00 -0.23425816845E+04  0.38589575966E+04  0.30665721552E+04 0.  0.
        5    1    3    3  502    0  0.11841099841E+04 -0.95727995057E+02 -0.23911313953E+04  0.26699834725E+04  0.46999998093E+01 0.  1.
       -5    1    3    3    0  502 -0.11841099841E+04  0.95727995057E+02  0.48549710800E+02  0.11889741241E+04  0.46999998093E+01 0. -1.
</event>
<event>
 5   0  0.7413481E-07  0.3103811E+04  0.7818609E-02  0.8214693E-01
       -1   -1    0    0    0  501  0.00000000000E+00  0.00000000000E+00  0.12161370215E+04  0.12161370215E+04  0.50400001928E-02 0.  1.
        1   -1    0    0  501    0  0.00000000000E+00  0.00000000000E+00 -0.19803779223E+04  0.19803779224E+04  0.50400001928E-02 0. -1.
    10030    2    1    2    0    0  0.00000000000E+00  0.00000000000E+00 -0.76424090085E+03  0.31965149439E+04  0.31038111463E+04 0.  0.
        5    1    3    3  502    0  0.10033450179E+04 -0.54248620260E+03  0.70163922397E+03  0.13391460695E+04  0.46999998093E+01 0.  1.
       -5    1    3    3    0  502 -0.10033450179E+04  0.54248620260E+03 -0.14658801248E+04  0.18573688743E+04  0.46999998093E+01 0. -1.
</event>
<event>
 5   0  0.2133385E-06  0.3074915E+04  0.7818609E-02  0.8222656E-01
        2   -1    0    0  501    0  0.00000000000E+00  0.00000000000E+00  0.27880819535E+04  0.27880819535E+04  0.25500000920E-02 0.  1.
       -2   -1    0    0    0  501  0.00000000000E+00  0.00000000000E+00 -0.84781425746E+03  0.84781425746E+03  0.25500000920E-02 0. -1.
    10030    2    1    2    0    0  0.00000000000E+00  0.00000000000E+00  0.19402676961E+04  0.36358962110E+04  0.30749150435E+04 0.  0.
        2    1    3    3  502    0  0.81222203901E+03  0.77027994196E+03  0.22163245985E+04  0.24829680939E+04  0.25500000920E-02 0.  1.
       -2    1    3    3    0  502 -0.81222203901E+03 -0.77027994196E+03 -0.27605690244E+03  0.11529281170E+04  0.25500000920E-02 0. -1.
</event>
<event>
 5   0  0.7519202E-07  0.2793706E+04  0.7818609E-02  0.8305225E-01
        1   -1    0    0  501    0  0.00000000000E+00  0.00000000000E+00  0.23431125288E+04  0.23431125288E+04  0.50400001928E-02 0.  1.
       -1   -1    0    0    0  501  0.00000000000E+00  0.00000000000E+00 -0.83273782608E+03  0.83273782609E+03  0.50400001928E-02 0. -1.
    10030    2    1    2    0    0  0.00000000000E+00  0.00000000000E+00  0.15103747027E+04  0.31758503549E+04  0.27937060930E+04 0.  0.
        4    1    3    3  502    0  0.69845634878E+03 -0.38315592657E+03 -0.54917277271E+03  0.96759603266E+03  0.12699999809E+01 0. -1.
       -4    1    3    3    0  502 -0.69845634878E+03  0.38315592657E+03  0.20595474754E+04  0.22082543222E+04  0.12699999809E+01 0.  1.
</event>
<event>
 5   0  0.2078009E-06  0.2970151E+04  0.7818609E-02  0.8252306E-01
        2   -1    0    0  501    0  0.00000000000E+00  0.00000000000E+00  0.13934703514E+04  0.13934703514E+04  0.25500000920E-02 0. -1.
       -2   -1    0    0    0  501  0.00000000000E+00  0.00000000000E+00 -0.15827023750E+04  0.15827023750E+04  0.25500000920E-02 0.  1.
    10030    2    1    2    0    0  0.00000000000E+00  0.00000000000E+00 -0.18923202362E+03  0.29761727264E+04  0.29701507266E+04 0.  0.
        3    1    3    3  502    0 -0.57636625079E+03  0.12113229874E+04  0.54381580142E+03  0.14474933751E+04  0.10100000352E+00 0. -1.
       -3    1    3    3    0  502  0.57636625079E+03 -0.12113229874E+04 -0.73304782504E+03  0.15286793513E+04  0.10100000352E+00 0.  1.
</event>
<event>
 5   0  0.2226334E-06  0.2918210E+04  0.7818609E-02  0.8267480E-01
        2   -1    0    0  501    0  0.00000000000E+00  0.00000000000E+00  0.24713101716E+04  0.24713101716E+04  0.25500000920E-02 0. -1.
       -2   -1    0    0    0  501  0.00000000000E+00  0.00000000000E+00 -0.86148137978E+03  0.86148137978E+03  0.25500000920E-02 0.  1.
    10030    2    1    2    0    0  0.00000000000E+00  0.00000000000E+00  0.16098287918E+04  0.33327915514E+04  0.29182102025E+04 0.  0.
        5    1    3    3  502    0  0.80724944543E+03  0.34282038031E+03 -0.52684939408E+03  0.10231177129E+04  0.46999998093E+01 0.  1.
       -5    1    3    3    0  502 -0.80724944543E+03 -0.34282038031E+03  0.21366781859E+04  0.23096738385E+04  0.46999998093E+01 0. -1.
</event>
<event>
 5   0  0.2133385E-06  0.3122621E+04  0.7818609E-02  0.8209557E-01
        2   -1    0    0  501    0  0.00000000000E+00  0.00000000000E+00  0.14041097511E+04  0.14041097511E+04  0.25500000920E-02 0.  1.
       -2   -1    0    0    0  501  0.00000000000E+00  0.00000000000E+00 -0.17361112287E+04  0.17361112287E+04  0.25500000920E-02 0. -1.
    10030    2    1    2    0    0  0.00000000000E+00  0.00000000000E+00 -0.33200147764E+03  0.31402209798E+04  0.31226211459E+04 0.  0.
        2    1    3    3  502    0  0.26665817515E+03  0.73093535879E+03  0.11952599216E+04  0.14261905067E+04  0.25500000920E-02 0.  1.
       -2    1    3    3    0  502 -0.26665817515E+03 -0.73093535879E+03 -0.15272613993E+04  0.17140304731E+04  0.25500000920E-02 0. -1.
</event>
<event>
 5   0  0.7561815E-07  0.3100758E+04  0.7818609E-02  0.8215530E-01
        1   -1    0    0  501    0  0.00000000000E+00  0.00000000000E+00  0.98505826804E+03  0.98505826806E+03  0.50400001928E-02 0. -1.
       -1   -1    0    0    0  501  0.00000000000E+00  0.00000000000E+00 -0.24401353834E+04  0.24401353834E+04  0.50400001928E-02 0.  1.
    10030    2    1    2    0    0  0.00000000000E+00  0.00000000000E+00 -0.14550771153E+04  0.34251936514E+04  0.31007583166E+04 0.  0.
        3    1    3    3  502    0  0.14084893518E+04 -0.60268642909E+03 -0.99034402720E+03  0.18242407978E+04  0.10100000352E+00 0.  1.
       -3    1    3    3    0  502 -0.14084893518E+04  0.60268642909E+03 -0.46473308813E+03  0.16009528536E+04  0.10100000352E+00 0. -1.
</event>
<event>
 5   0  0.2133385E-06  0.3111653E+04  0.7818609E-02  0.8212547E-01
       -2   -1    0    0    0  501  0.00000000000E+00  0.00000000000E+00  0.18296072106E+04  0.18296072106E+04  0.25500000920E-02 0.  1.
        2   -1    0    0  501    0  0.00000000000E+00  0.00000000000E+00 -0.13230138640E+04  0.13230138640E+04  0.25500000920E-02 0. -1.
    10030    2    1    2    0    0  0.00000000000E+00  0.00000000000E+00  0.50659334659E+03  0.31526210746E+04  0.31116527476E+04 0.  0.
        2    1    3    3  502    0 -0.83188030917E+03  0.83612514873E+03  0.12812811757E+04  0.17414969321E+04  0.25500000920E-02 0.  1.
       -2    1    3    3    0  502  0.83188030917E+03 -0.83612514873E+03 -0.77468782913E+03  0.14111241426E+04  0.25500000920E-02 0. -1.
</event>
<event>
 5   0  0.7413481E-07  0.3079850E+04  0.7818609E-02  0.8221290E-01
        1   -1    0    0  501    0  0.00000000000E+00  0.00000000000E+00  0.18082214367E+04  0.18082214367E+04  0.50400001928E-02 0.  1.
       -1   -1    0    0    0  501  0.00000000000E+00  0.00000000000E+00 -0.13114369415E+04  0.13114369415E+04  0.50400001928E-02 0. -1.
    10030    2    1    2    0    0  0.00000000000E+00  0.00000000000E+00  0.49678449522E+03  0.31196583782E+04  0.30798496006E+04 0.  0.
        5    1    3    3  502    0  0.89854639499E+03  0.92902848237E+03  0.10963910911E+04  0.16948672690E+04  0.46999998093E+01 0.  1.
       -5    1    3    3    0  502 -0.89854639499E+03 -0.92902848237E+03 -0.59960659589E+03  0.14247911092E+04  0.46999998093E+01 0. -1.
</event>
<event>
 5   0  0.7519202E-07  0.3098000E+04  0.7818609E-02  0.8216287E-01
       -1   -1    0    0    0  501  0.00000000000E+00  0.00000000000E+00  0.86849695653E+03  0.86849695654E+03  0.50400001928E-02 0.  1.
        1   -1    0    0  501    0  0.00000000000E+00  0.00000000000E+00 -0.27627052955E+04  0.27627052955E+04  0.50400001928E-02 0. -1.
    10030    2    1    2    0    0  0.00000000000E+00  0.00000000000E+00 -0.18942083390E+04  0.36312022521E+04  0.30980000910E+04 0.  0.
        4    1    3    3  502    0  0.55978092610E+03 -0.54900302856E+02  0.74457054766E+03  0.93314288393E+03  0.12699999809E+01 0.  1.
       -4    1    3    3    0  502 -0.55978092610E+03  0.54900302856E+02 -0.26387788867E+04  0.26980593682E+04  0.12699999809E+01 0. -1.
</event>
<event>
 5   0  0.2078009E-06  0.3092024E+04  0.7818609E-02  0.8217930E-01
       -2   -1    0    0    0  501  0.00000000000E+00  0.00000000000E+00  0.13122169493E+04  0.13122169493E+04  0.25500000920E-02 0. -1.
        2   -1    0    0  501    0  0.00000000000E+00  0.00000000000E+00 -0.18214614916E+04  0.18214614916E+04  0.25500000920E-02 0.  1.
    10030    2    1    2    0    0  0.00000000000E+00  0.00000000000E+00 -0.50924454230E+03  0.31336784408E+04  0.30920237009E+04 0.  0.
        3    1    3    3  502    0  0.14185358766E+04  0.59839434582E+03 -0.39734846652E+03  0.15900332199E+04  0.10100000352E+00 0.  1.
       -3    1    3    3    0  502 -0.14185358766E+04 -0.59839434582E+03 -0.11189607578E+03  0.15436452210E+04  0.10100000352E+00 0. -1.
</event>
<event>
 5   0  0.7561815E-07  0.3127333E+04  0.7818609E-02  0.8208276E-01
       -1   -1    0    0    0  501  0.00000000000E+00  0.00000000000E+00  0.11580190722E+04  0.11580190723E+04  0.50400001928E-02 0. -1.
        1   -1    0    0  501    0  0.00000000000E+00  0.00000000000E+00 -0.21114096813E+04  0.21114096813E+04  0.50400001928E-02 0.  1.
    10030    2    1    2    0    0  0.00000000000E+00  0.00000000000E+00 -0.95339060901E+03  0.32694287535E+04  0.31273328446E+04 0.  0.
        3    1    3    3  502    0 -0.86852737134E+03 -0.91119788327E+03  0.49304594659E+03  0.13519303580E+04  0.10100000352E+00 0. -1.
       -3    1    3    3    0  502  0.86852737134E+03  0.91119788327E+03 -0.14464365556E+04  0.19174983955E+04  0.10100000352E+00 0.  1.
</event>
<event>
 5   0  0.7656332E-07  0.3091471E+04  0.7818609E-02  0.8218083E-01
        1   -1    0    0  501    0  0.00000000000E+00  0.00000000000E+00  0.13152251055E+04  0.13152251055E+04  0.50400001928E-02 0.  1.
       -1   -1    0    0    0  501  0.00000000000E+00  0.00000000000E+00 -0.18166458565E+04  0.18166458565E+04  0.50400001928E-02 0. -1.
    10030    2    1    2    0    0  0.00000000000E+00  0.00000000000E+00 -0.50142075101E+03  0.31318709620E+04  0.30914710015E+04 0.  0.
        2    1    3    3  502    0 -0.42535930140E+02  0.14799479985E+04  0.19921379292E+03  0.14939014422E+04  0.25500000920E-02 0.  1.
       -2    1    3    3    0  502  0.42535930140E+02 -0.14799479985E+04 -0.70063454393E+03  0.16379695198E+04  0.25500000920E-02 0. -1.
</event>
<event>
 5   0  0.7656332E-07  0.3085672E+04  0.7818609E-02  0.8219681E-01
       -1   -1    0    0    0  501  0.00000000000E+00  0.00000000000E+00  0.17011596166E+04  0.17011596166E+04  0.50400001928E-02 0. -1.
        1   -1    0    0  501    0  0.00000000000E+00  0.00000000000E+00 -0.13992473461E+04  0.13992473461E+04  0.50400001928E-02 0.  1.
    10030    2    1    2    0    0  0.00000000000E+00  0.00000000000E+00  0.30191227046E+03  0.31004069627E+04  0.30856721011E+04 0.  0.
        2    1    3    3  502    0 -0.82046057024E+03  0.35149732476E+03  0.14153919014E+04  0.16733320505E+04  0.25500000920E-02 0. -1.
       -2    1    3    3    0  502  0.82046057024E+03 -0.35149732476E+03 -0.11134796309E+04  0.14270749122E+04  0.25500000920E-02 0.  1.
</event>
<event>
 5   0  0.2094135E-06  0.3115265E+04  0.7818609E-02  0.8211561E-01
       -2   -1    0    0    0  501  0.00000000000E+00  0.00000000000E+00  0.87648817036E+03  0.87648817036E+03  0.25500000920E-02 0.  1.
        2   -1    0    0  501    0  0.00000000000E+00  0.00000000000E+00 -0.27681141339E+04  0.27681141339E+04  0.25500000920E-02 0. -1.
    10030    2    1    2    0    0  0.00000000000E+00  0.00000000000E+00 -0.18916259636E+04  0.36446023043E+04  0.31152651846E+04 0.  0.
        4    1    3    3  502    0  0.35884125687E+03  0.42553917527E+03  0.75615199443E+03  0.93894520016E+03  0.12699999809E+01 0.  1.
       -4    1    3    3    0  502 -0.35884125687E+03 -0.42553917527E+03 -0.26477779580E+04  0.27056571041E+04  0.12699999809E+01 0. -1.
</event>
<event>
 5   0  0.7726743E-07  0.3102798E+04  0.7818609E-02  0.8214970E-01
        1   -1    0    0  501    0  0.00000000000E+00  0.00000000000E+00  0.23767372376E+04  0.23767372376E+04  0.50400001928E-02 0.  1.
       -1   -1    0    0    0  501  0.00000000000E+00  0.00000000000E+00 -0.10126654060E+04  0.10126654060E+04  0.50400001928E-02 0. -1.
    10030    2    1    2    0    0  0.00000000000E+00  0.00000000000E+00  0.13640718316E+04  0.33894026436E+04  0.31027984657E+04 0.  0.
        1    1    3    3  502    0 -0.22512259728E+03  0.52274516316E+03 -0.89449859359E+03  0.10602218746E+04  0.50400001928E-02 0. -1.
       -1    1    3    3    0  502  0.22512259728E+03 -0.52274516316E+03  0.22585704251E+04  0.23291807690E+04  0.50400001928E-02 0.  1.
</event>
<event>
 5   0  0.7726743E-07  0.3259436E+04  0.7818609E-02  0.8173294E-01
       -1   -1    0    0    0  501  0.00000000000E+00  0.00000000000E+00  0.18392215690E+04  0.18392215690E+04  0.50400001928E-02 0. -1.
        1   -1    0    0  501    0  0.00000000000E+00  0.00000000000E+00 -0.14440790143E+04  0.14440790143E+04  0.50400001928E-02 0.  1.
    10030    2    1    2    0    0  0.00000000000E+00  0.00000000000E+00  0.39514255464E+03  0.32833005833E+04  0.32594363135E+04 0.  0.
        1    1    3    3  502    0  0.94341548249E+03 -0.65483139334E+03 -0.96724462193E+03  0.15014656456E+04  0.50400001928E-02 0.  1.
       -1    1    3    3    0  502 -0.94341548249E+03  0.65483139334E+03  0.13623871766E+04  0.17818349377E+04  0.50400001928E-02 0. -1.
</event>
<event>
 5   0  0.2226334E-06  0.3100111E+04  0.7818609E-02  0.8215707E-01
        2   -1    0    0  501    0  0.00000000000E+00  0.00000000000E+00  0.10775690860E+04  0.10775690860E+04  0.25500000920E-02 0.  1.
       -2   -1    0    0    0  501  0.00000000000E+00  0.00000000000E+00 -0.22297151584E+04  0.22297151584E+04  0.25500000920E-02 0. -1.
    10030    2    1    2    0    0  0.00000000000E+00  0.00000000000E+00 -0.11521460724E+04  0.33072842444E+04  0.31001110466E+04 0.  0.
        5    1    3    3  502    0  0.10863644638E+04 -0.22718516132E+03 -0.17304422904E+04  0.20557853624E+04  0.46999998093E+01 0. -1.
       -5    1    3    3    0  502 -0.10863644638E+04  0.22718516132E+03  0.57829621805E+03  0.12514988820E+04  0.46999998093E+01 0.  1.
</event>
<event>
 5   0  0.2067926E-06  0.3102742E+04  0.7818609E-02  0.8214986E-01
       -2   -1    0    0    0  501  0.00000000000E+00  0.00000000000E+00  0.95845958174E+03  0.95845958174E+03  0.25500000920E-02 0. -1.
        2   -1    0    0  501    0  0.00000000000E+00  0.00000000000E+00 -0.25110631511E+04  0.25110631511E+04  0.25500000920E-02 0.  1.
    10030    2    1    2    0    0  0.00000000000E+00  0.00000000000E+00 -0.15526035693E+04  0.34695227328E+04  0.31027423596E+04 0.  0.
        1    1    3    3  502    0  0.74440446972E+03  0.10365807839E+04  0.21008185607E+03  0.12933569199E+04  0.50400001928E-02 0.  1.
       -1    1    3    3    0  502 -0.74440446972E+03 -0.10365807839E+04 -0.17626854254E+04  0.21761658128E+04  0.50400001928E-02 0. -1.
</event>
<event>
 5   0  0.2067926E-06  0.3096442E+04  0.7818609E-02  0.8216715E-01
       -2   -1    0    0    0  501  0.00000000000E+00  0.00000000000E+00  0.14072369673E+04  0.14072369673E+04  0.25500000920E-02 0. -1.
        2   -1    0    0  501    0  0.00000000000E+00  0.00000000000E+00 -0.17033294215E+04  0.17033294215E+04  0.25500000920E-02 0.  1.
    10030    2    1    2    0    0  0.00000000000E+00  0.00000000000E+00 -0.29609245416E+03  0.31105663889E+04  0.30964419126E+04 0.  0.
        1    1    3    3  502    0  0.67142932745E+03  0.73222476665E+03 -0.13409044166E+04  0.16688304603E+04  0.50400001928E-02 0.  1.
       -1    1    3    3    0  502 -0.67142932745E+03 -0.73222476665E+03  0.10448119625E+04  0.14417359285E+04  0.50400001928E-02 0. -1.
</event>
<event>
 5   0  0.7561815E-07  0.3098115E+04  0.7818609E-02  0.8216255E-01
        1   -1    0    0  501    0  0.00000000000E+00  0.00000000000E+00  0.23591595688E+04  0.23591595688E+04  0.50400001928E-02 0. -1.
       -1   -1    0    0    0  501  0.00000000000E+00  0.00000000000E+00 -0.10171333469E+04  0.10171333469E+04  0.50400001928E-02 0.  1.
    10030    2    1    2    0    0  0.00000000000E+00  0.00000000000E+00  0.13420262220E+04  0.33762929157E+04  0.30981154711E+04 0.  0.
        3    1    3    3  502    0 -0.58939890104E+03 -0.13166650234E+04  0.12861236112E+04  0.19326437338E+04  0.10100000352E+00 0.  1.
       -3    1    3    3    0  502  0.58939890104E+03  0.13166650234E+04  0.55902610796E+02  0.14436491819E+04  0.10100000352E+00 0. -1.
</event>
<event>
 5   0  0.2226334E-06  0.3100207E+04  0.7818609E-02  0.8215681E-01
       -2   -1    0    0    0  501  0.00000000000E+00  0.00000000000E+00  0.10508568665E+04  0.10508568665E+04  0.25500000920E-02 0. -1.
        2   -1    0    0  501    0  0.00000000000E+00  0.00000000000E+00 -0.22865352272E+04  0.22865352272E+04  0.25500000920E-02 0.  1.
    10030    2    1    2    0    0  0.00000000000E+00  0.00000000000E+00 -0.12356783607E+04  0.33373920937E+04  0.31002072473E+04 0.  0.
        5    1    3    3  502    0 -0.18778016929E+03 -0.76799573746E+03 -0.20531574821E+04  0.22001264921E+04  0.46999998093E+01 0.  1.
       -5    1    3    3    0  502  0.18778016929E+03  0.76799573746E+03  0.81747912144E+03  0.11372656017E+04  0.46999998093E+01 0. -1.
</event>
<event>
 5   0  0.2133385E-06  0.3113557E+04  0.7818609E-02  0.8212027E-01
       -2   -1    0    0    0  501  0.00000000000E+00  0.00000000000E+00  0.13677792716E+04  0.13677792716E+04  0.25500000920E-02 0. -1.
        2   -1    0    0  501    0  0.00000000000E+00  0.00000000000E+00 -0.17718933678E+04  0.17718933678E+04  0.25500000920E-02 0.  1.
    10030    2    1    2    0    0  0.00000000000E+00  0.00000000000E+00 -0.40411409614E+03  0.31396726394E+04  0.31135568213E+04 0.  0.
        2    1    3    3  502    0 -0.87734474964E+03  0.80282754943E+03  0.81100543506E+03  0.14394428434E+04  0.25500000920E-02 0. -1.
       -2    1    3    3    0  502  0.87734474964E+03 -0.80282754943E+03 -0.12151195312E+04  0.17002297959E+04  0.25500000920E-02 0.  1.
</event>
<event>
 5   0  0.7413481E-07  0.3071413E+04  0.7818609E-02  0.8223627E-01
       -1   -1    0    0    0  501  0.00000000000E+00  0.00000000000E+00  0.10943204238E+04  0.10943204238E+04  0.50400001928E-02 0.  1.
        1   -1    0    0  501    0  0.00000000000E+00  0.00000000000E+00 -0.21551229508E+04  0.21551229508E+04  0.50400001928E-02 0. -1.
    10030    2    1    2    0    0  0.00000000000E+00  0.00000000000E+00 -0.10608025270E+04  0.32494433746E+04  0.30714133950E+04 0.  0.
        5    1    3    3  502    0  0.67711122445E+03 -0.45477427452E+03 -0.19070040159E+04  0.20741228647E+04  0.46999998093E+01 0. -1.
       -5    1    3    3    0  502 -0.67711122445E+03  0.45477427452E+03  0.84620148894E+03  0.11753205099E+04  0.46999998093E+01 0.  1.
</event>
<event>
 5   0  0.2067926E-06  0.3094093E+04  0.7818609E-02  0.8217361E-01
        2   -1    0    0  501    0  0.00000000000E+00  0.00000000000E+00  0.12194289166E+04  0.12194289166E+04  0.25500000920E-02 0.  1.
       -2   -1    0    0    0  501  0.00000000000E+00  0.00000000000E+00 -0.19626829294E+04  0.19626829294E+04  0.25500000920E-02 0. -1.
    10030    2    1    2    0    0  0.00000000000E+00  0.00000000000E+00 -0.74325401278E+03  0.31821118460E+04  0.30940926413E+04 0.  0.
        1    1    3    3  502    0 -0.14329326316E+04 -0.45981666691E+03 -0.74047282320E+03  0.16772081850E+04  0.50400001928E-02 0. -1.
       -1    1    3    3    0  502  0.14329326316E+04  0.45981666691E+03 -0.27811895707E+01  0.15049036610E+04  0.50400001928E-02 0.  1.
</event>
<event>
 5   0  0.2094135E-06  0.3118224E+04  0.7818609E-02  0.8210754E-01
       -2   -1    0    0    0  501  0.00000000000E+00  0.00000000000E+00  0.16513943718E+04  0.16513943718E+04  0.25500000920E-02 0.  1.
        2   -1    0    0  501    0  0.00000000000E+00  0.00000000000E+00 -0.14719863582E+04  0.14719863582E+04  0.25500000920E-02 0. -1.
    10030    2    1    2    0    0  0.00000000000E+00  0.00000000000E+00  0.17940801363E+03  0.31233807300E+04  0.31182238453E+04 0.  0.
        4    1    3    3  502    0  0.11258102771E+04  0.30937047393E+03 -0.94528576353E+03  0.15022402131E+04  0.12699999809E+01 0.  1.
       -4    1    3    3    0  502 -0.11258102771E+04 -0.30937047393E+03  0.11246937772E+04  0.16211405169E+04  0.12699999809E+01 0. -1.
</event>
<event>
 5   0  0.2067926E-06  0.3088049E+04  0.7818609E-02  0.8219026E-01
        2   -1    0    0  501    0  0.00000000000E+00  0.00000000000E+00  0.21120397368E+04  0.21120397368E+04  0.25500000920E-02 0.  1.
       -2   -1    0    0    0  501  0.00000000000E+00  0.00000000000E+00 -0.11287718510E+04  0.11287718510E+04  0.25500000920E-02 0. -1.
    10030    2    1    2    0    0  0.00000000000E+00  0.00000000000E+00  0.98326788580E+03  0.32408115878E+04  0.30880485768E+04 0.  0.
        1    1    3    3  502    0  0.42386816234E+03 -0.11526244035E+04 -0.49050530025E+03  0.13224230353E+04  0.50400001928E-02 0. -1.
       -1    1    3    3    0  502 -0.42386816234E+03  0.11526244035E+04  0.14737731860E+04  0.19183885525E+04  0.50400001928E-02 0.  1.
</event>
<event>
 5   0  0.2133385E-06  0.3089218E+04  0.7818609E-02  0.8218703E-01
       -2   -1    0    0    0  501  0.00000000000E+00  0.00000000000E+00  0.11907905860E+04  0.11907905860E+04  0.25500000920E-02 0. -1.
        2   -1    0    0  501    0  0.00000000000E+00  0.00000000000E+00 -0.20035576981E+04  0.20035576981E+04  0.25500000920E-02 0.  1.
    10030    2    1    2    0    0  0.00000000000E+00  0.00000000000E+00 -0.81276711212E+03  0.31943482841E+04  0.30892184418E+04 0.  0.
        2    1    3    3  502    0  0.50034374141E+03  0.16819681178E+02 -0.19173401928E+04  0.19816205934E+04  0.25500000920E-02 0.  1.
       -2    1    3    3    0  502 -0.50034374141E+03 -0.16819681178E+02  0.11045730807E+04  0.12127276907E+04  0.25500000920E-02 0. -1.
</event>
<event>
 5   0  0.7656332E-07  0.3112313E+04  0.7818609E-02  0.8212367E-01
       -1   -1    0    0    0  501  0.00000000000E+00  0.00000000000E+00  0.18190057906E+04  0.18190057906E+04  0.50400001928E-02 0.  1.
        1   -1    0    0  501    0  0.00000000000E+00  0.00000000000E+00 -0.13312894822E+04  0.13312894822E+04  0.50400001928E-02 0. -1.
    10030    2    1    2    0    0  0.00000000000E+00  0.00000000000E+00  0.48771630838E+03  0.31502952728E+04  0.31123131444E+04 0.  0.
        2    1    3    3  502    0 -0.69039847125E+03 -0.10932784815E+04  0.11202860406E+04  0.17108327505E+04  0.25500000920E-02 0.  1.
       -2    1    3    3    0  502  0.69039847125E+03  0.10932784815E+04 -0.63256973222E+03  0.14394625224E+04  0.25500000920E-02 0. -1.
</event>
<event>
 5   0  0.7656332E-07  0.2964454E+04  0.7818609E-02  0.8253955E-01
       -1   -1    0    0    0  501  0.00000000000E+00  0.00000000000E+00  0.15753092402E+04  0.15753092402E+04  0.50400001928E-02 0.  1.
        1   -1    0    0  501    0  0.00000000000E+00  0.00000000000E+00 -0.13946452246E+04  0.13946452246E+04  0.50400001928E-02 0. -1.
    10030    2    1    2    0    0  0.00000000000E+00  0.00000000000E+00  0.18066401559E+03  0.29699544647E+04  0.29644544247E+04 0.  0.
        2    1    3    3  502    0 -0.14685799588E+04 -0.19983538332E+03  0.71961326795E+02  0.14838597334E+04  0.25500000920E-02 0.  1.
       -2    1    3    3    0  502  0.14685799588E+04  0.19983538332E+03  0.10870268879E+03  0.14860947313E+04  0.25500000920E-02 0. -1.
</event>
<event>
 5   0  0.2067926E-06  0.3085968E+04  0.7818609E-02  0.8219599E-01
        2   -1    0    0  501    0  0.00000000000E+00  0.00000000000E+00  0.15642887939E+04  0.15642887939E+04  0.25500000920E-02 0.  1.
       -2   -1    0    0    0  501  0.00000000000E+00  0.00000000000E+00 -0.15219692153E+04  0.15219692153E+04  0.25500000920E-02 0. -1.
    10030    2    1    2    0    0  0.00000000000E+00  0.00000000000E+00  0.42319578566E+02  0.30862580092E+04  0.30859678470E+04 0.  0.
        1    1    3    3  502    0 -0.10434232502E+04 -0.10236259137E+04 -0.47311061568E+03  0.15363514393E+04  0.50400001928E-02 0.  1.
       -1    1    3    3    0  502  0.10434232502E+04  0.10236259137E+04  0.51543019425E+03  0.15499065699E+04  0.50400001928E-02 0. -1.
</event>
<event>
 5   0  0.7726743E-07  0.2989810E+04  0.7818609E-02  0.8246647E-01
       -1   -1    0    0    0  501  0.00000000000E+00  0.00000000000E+00  0.21447625327E+04  0.21447625327E+04  0.50400001928E-02 0.  1.
        1   -1    0    0  501    0  0.00000000000E+00  0.00000000000E+00 -0.10419528870E+04  0.10419528870E+04  0.50400001928E-02 0. -1.
    10030    2    1    2    0    0  0.00000000000E+00  0.00000000000E+00  0.11028096458E+04  0.31867154197E+04  0.29898103705E+04 0.  0.
        1    1    3    3  502    0 -0.21645283336E+02 -0.62830377252E+03 -0.89420271204E+03  0.10930840037E+04  0.50400001928E-02 0. -1.
       -1    1    3    3    0  502  0.21645283336E+02  0.62830377252E+03  0.19970123578E+04  0.20936314160E+04  0.50400001928E-02 0.  1.
</event>
<event>
 5   0  0.7413481E-07  0.3106752E+04  0.7818609E-02  0.8213887E-01
       -1   -1    0    0    0  501  0.00000000000E+00  0.00000000000E+00  0.83632931872E+03  0.83632931874E+03  0.50400001928E-02 0.  1.
        1   -1    0    0  501    0  0.00000000000E+00  0.00000000000E+00 -0.28852003988E+04  0.28852003989E+04  0.50400001928E-02 0. -1.
    10030    2    1    2    0    0  0.00000000000E+00  0.00000000000E+00 -0.20488710801E+04  0.37215297176E+04  0.31067524420E+04 0.  0.
        5    1    3    3  502    0 -0.73044119600E+03  0.13596088370E+04 -0.12349193870E+04  0.19766457732E+04  0.46999998093E+01 0. -1.
       -5    1    3    3    0  502  0.73044119600E+03 -0.13596088370E+04 -0.81395169316E+03  0.17448839444E+04  0.46999998093E+01 0.  1.
</event>
<event>
 5   0  0.2067926E-06  0.3101787E+04  0.7818609E-02  0.8215248E-01
       -2   -1    0    0    0  501  0.00000000000E+00  0.00000000000E+00  0.12411024950E+04  0.12411024950E+04  0.25500000920E-02 0. -1.
        2   -1    0    0  501    0  0.00000000000E+00  0.00000000000E+00 -0.19380107713E+04  0.19380107713E+04  0.25500000920E-02 0.  1.
    10030    2    1    2    0    0  0.00000000000E+00  0.00000000000E+00 -0.69690827627E+03  0.31791132662E+04  0.31017865842E+04 0.  0.
        1    1    3    3  502    0 -0.14785305997E+04 -0.43940422184E+03 -0.51416723742E+03  0.16258833761E+04  0.50400001928E-02 0. -1.
       -1    1    3    3    0  502  0.14785305997E+04  0.43940422184E+03 -0.18274103885E+03  0.15532298902E+04  0.50400001928E-02 0.  1.
</event>
<event>
 5   0  0.7519202E-07  0.3114386E+04  0.7818609E-02  0.8211801E-01
        1   -1    0    0  501    0  0.00000000000E+00  0.00000000000E+00  0.15247901756E+04  0.15247901756E+04  0.50400001928E-02 0. -1.
       -1   -1    0    0    0  501  0.00000000000E+00  0.00000000000E+00 -0.15902845078E+04  0.15902845079E+04  0.50400001928E-02 0.  1.
    10030    2    1    2    0    0  0.00000000000E+00  0.00000000000E+00 -0.65494332266E+02  0.31150746834E+04  0.31143860994E+04 0.  0.
        4    1    3    3  502    0  0.42032690219E+03  0.61038725053E+03  0.13370815660E+04  0.15287367423E+04  0.12699999809E+01 0. -1.
       -4    1    3    3    0  502 -0.42032690219E+03 -0.61038725053E+03 -0.14025758982E+04  0.15863379411E+04  0.12699999809E+01 0.  1.
</event>
<event>
 5   0  0.2133385E-06  0.3093979E+04  0.7818609E-02  0.8217392E-01
       -2   -1    0    0    0  501  0.00000000000E+00  0.00000000000E+00  0.93130158037E+03  0.93130158037E+03  0.25500000920E-02 0.  1.
        2   -1    0    0  501    0  0.00000000000E+00  0.00000000000E+00 -0.25697113543E+04  0.25697113543E+04  0.25500000920E-02 0. -1.
    10030    2    1    2    0    0  0.00000000000E+00  0.00000000000E+00 -0.16384097739E+04  0.35010129346E+04  0.30939788269E+04 0.  0.
        2    1    3    3  502    0  0.78832718593E+03  0.57318552881E+00 -0.23253730096E+04  0.24553654951E+04  0.25500000920E-02 0. -1.
       -2    1    3    3    0  502 -0.78832718593E+03 -0.57318552881E+00  0.68696323571E+03  0.10456474396E+04  0.25500000920E-02 0.  1.
</event>
<event>
 5   0  0.7519202E-07  0.3117278E+04  0.7818609E-02  0.8211012E-01
        1   -1    0    0  501    0  0.00000000000E+00  0.00000000000E+00  0.15761554702E+04  0.15761554703E+04  0.50400001928E-02 0. -1.
       -1   -1    0    0    0  501  0.00000000000E+00  0.00000000000E+00 -0.15413173146E+04  0.15413173146E+04  0.50400001928E-02 0.  1.
    10030    2    1    2    0    0  0.00000000000E+00  0.00000000000E+00  0.34838155628E+02  0.31174727849E+04  0.31172781184E+04 0.  0.
        4    1    3    3  502    0 -0.75914552727E+03 -0.10258322433E+04 -0.87746660780E+03  0.15487359309E+04  0.12699999809E+01 0. -1.
       -4    1    3    3    0  502  0.75914552727E+03  0.10258322433E+04  0.91230476342E+03  0.15687368540E+04  0.12699999809E+01 0.  1.
</event>
<event>
 5   0  0.7726743E-07  0.3081523E+04  0.7818609E-02  0.8220827E-01
       -1   -1    0    0    0  501  0.00000000000E+00  0.00000000000E+00  0.17643648987E+04  0.17643648987E+04  0.50400001928E-02 0. -1.
        1   -1    0    0  501    0  0.00000000000E+00  0.00000000000E+00 -0.13454957604E+04  0.13454957604E+04  0.50400001928E-02 0.  1.
    10030    2    1    2    0    0  0.00000000000E+00  0.00000000000E+00  0.41886913827E+03  0.31098606591E+04  0.30815226698E+04 0.  0.
        1    1    3    3  502    0  0.11620786745E+04 -0.19515792302E+03  0.12112527307E+04  0.16898658640E+04  0.50400001928E-02 0. -1.
       -1    1    3    3    0  502 -0.11620786745E+04  0.19515792302E+03 -0.79238359245E+03  0.14199947951E+04  0.50400001928E-02 0.  1.
</event>
<event>
 5   0  0.2226334E-06  0.2983398E+04  0.7818609E-02  0.8248488E-01
        2   -1    0    0  501    0  0.00000000000E+00  0.00000000000E+00  0.91919205661E+03  0.91919205662E+03  0.25500000920E-02 0.  1.
       -2   -1    0    0    0  501  0.00000000000E+00  0.00000000000E+00 -0.24207837645E+04  0.24207837645E+04  0.25500000920E-02 0. -1.
    10030    2    1    2    0    0  0.00000000000E+00  0.00000000000E+00 -0.15015917079E+04  0.33399758211E+04  0.29833975311E+04 0.  0.
        5    1    3    3  502    0  0.65076170635E+03  0.13414883197E+04 -0.69996656194E+03  0.16471359956E+04  0.46999998093E+01 0. -1.
       -5    1    3    3    0  502 -0.65076170635E+03 -0.13414883197E+04 -0.80162514595E+03  0.16928398255E+04  0.46999998093E+01 0.  1.
</event>
<event>
 5   0  0.7561815E-07  0.3117419E+04  0.7818609E-02  0.8210974E-01
        1   -1    0    0  501    0  0.00000000000E+00  0.00000000000E+00  0.16053810146E+04  0.16053810147E+04  0.50400001928E-02 0.  1.
       -1   -1    0    0    0  501  0.00000000000E+00  0.00000000000E+00 -0.15133947272E+04  0.15133947272E+04  0.50400001928E-02 0. -1.
    10030    2    1    2    0    0  0.00000000000E+00  0.00000000000E+00  0.91986287471E+02  0.31187757418E+04  0.31174189085E+04 0.  0.
        3    1    3    3  502    0 -0.93956897166E+03  0.26469666689E+03  0.12617261399E+04  0.15952451348E+04  0.10100000352E+00 0.  1.
       -3    1    3    3    0  502  0.93956897166E+03 -0.26469666689E+03 -0.11697398524E+04  0.15235306070E+04  0.10100000352E+00 0. -1.
</event>
<event>
 5   0  0.7561815E-07  0.3101702E+04  0.7818609E-02  0.8215271E-01
        1   -1    0    0  501    0  0.00000000000E+00  0.00000000000E+00  0.15251326653E+04  0.15251326653E+04  0.50400001928E-02 0. -1.
       -1   -1    0    0    0  501  0.00000000000E+00  0.00000000000E+00 -0.15770026687E+04  0.15770026687E+04  0.50400001928E-02 0.  1.
    10030    2    1    2    0    0  0.00000000000E+00  0.00000000000E+00 -0.51870003386E+02  0.31021353341E+04  0.31017016513E+04 0.  0.
        3    1    3    3  502    0  0.70810887271E+03  0.10449905840E+04 -0.92701312382E+03  0.15661343615E+04  0.10100000352E+00 0.  1.
       -3    1    3    3    0  502 -0.70810887271E+03 -0.10449905840E+04  0.87514312043E+03  0.15360009726E+04  0.10100000352E+00 0. -1.
</event>
<event>
 5   0  0.2133385E-06  0.3142992E+04  0.7818609E-02  0.8204037E-01
        2   -1    0    0  501    0  0.00000000000E+00  0.00000000000E+00  0.14939041784E+04  0.14939041784E+04  0.25500000920E-02 0. -1.
       -2   -1    0    0    0  501  0.00000000000E+00  0.00000000000E+00 -0.16531178423E+04  0.16531178423E+04  0.25500000920E-02 0.  1.
    10030    2    1    2    0    0  0.00000000000E+00  0.00000000000E+00 -0.15921366387E+03  0.31470220207E+04  0.31429919835E+04 0.  0.
        2    1    3    3  502    0  0.86439831913E+03 -0.55288485817E+03  0.11121855225E+04  0.15132160311E+04  0.25500000920E-02 0. -1.
       -2    1    3    3    0  502 -0.86439831913E+03  0.55288485817E+03 -0.12713991864E+04  0.16338059896E+04  0.25500000920E-02 0.  1.
</event>
<event>
 5   0  0.2094135E-06  0.3035712E+04  0.7818609E-02  0.8233606E-01
        2   -1    0    0  501    0  0.00000000000E+00  0.00000000000E+00  0.20912057272E+04  0.20912057272E+04  0.25500000920E-02 0. -1.
       -2   -1    0    0    0  501  0.00000000000E+00  0.00000000000E+00 -0.11017024344E+04  0.11017024344E+04  0.25500000920E-02 0.  1.
    10030    2    1    2    0    0  0.00000000000E+00  0.00000000000E+00  0.98950329279E+03  0.31929081616E+04  0.30357117389E+04 0.  0.
        4    1    3    3  502    0  0.14861755053E+04 -0.13574195696E+03  0.78611875101E+03  0.16867506677E+04  0.12699999809E+01 0. -1.
       -4    1    3    3    0  502 -0.14861755053E+04  0.13574195696E+03  0.20338454178E+03  0.15061574938E+04  0.12699999809E+01 0.  1.
</event>
<event>
 5   0  0.7561815E-07  0.3072139E+04  0.7818609E-02  0.8223426E-01
       -1   -1    0    0    0  501  0.00000000000E+00  0.00000000000E+00  0.15686172438E+04  0.15686172438E+04  0.50400001928E-02 0. -1.
        1   -1    0    0  501    0  0.00000000000E+00  0.00000000000E+00 -0.15041971660E+04  0.15041971660E+04  0.50400001928E-02 0.  1.
    10030    2    1    2    0    0  0.00000000000E+00  0.00000000000E+00  0.64420077779E+02  0.30728144098E+04  0.30721390676E+04 0.  0.
        3    1    3    3  502    0 -0.12753835483E+04  0.49215367509E+03 -0.66843746611E+03  0.15217184666E+04  0.10100000352E+00 0.  1.
       -3    1    3    3    0  502  0.12753835483E+04 -0.49215367509E+03  0.73285754389E+03  0.15510959432E+04  0.10100000352E+00 0. -1.
</event>
<event>
 5   0  0.2133385E-06  0.3081100E+04  0.7818609E-02  0.8220944E-01
       -2   -1    0    0    0  501  0.00000000000E+00  0.00000000000E+00  0.73876482068E+03  0.73876482068E+03  0.25500000920E-02 0.  1.
        2   -1    0    0  501    0  0.00000000000E+00  0.00000000000E+00 -0.32125173863E+04  0.32125173863E+04  0.25500000920E-02 0. -1.
    10030    2    1    2    0    0  0.00000000000E+00  0.00000000000E+00 -0.24737525656E+04  0.39512822070E+04  0.30811003429E+04 0.  0.
        2    1    3    3  502    0  0.43312784207E+02 -0.11949339011E+04 -0.24825809210E+04  0.27555309932E+04  0.25500000920E-02 0. -1.
       -2    1    3    3    0  502 -0.43312784207E+02  0.11949339011E+04  0.88283554396E+01  0.11957512137E+04  0.25500000920E-02 0.  1.
</event>
<event>
 5   0  0.2094135E-06  0.3074211E+04  0.7818609E-02  0.8222851E-01
        2   -1    0    0  501    0  0.00000000000E+00  0.00000000000E+00  0.83779898373E+03  0.83779898373E+03  0.25500000920E-02 0. -1.
       -2   -1    0    0    0  501  0.00000000000E+00  0.00000000000E+00 -0.28201191841E+04  0.28201191841E+04  0.25500000920E-02 0.  1.
    10030    2    1    2    0    0  0.00000000000E+00  0.00000000000E+00 -0.19823202004E+04  0.36579181679E+04  0.30742107842E+04 0.  0.
        4    1    3    3  502    0  0.12964368438E+04  0.41234426750E+03 -0.18424927883E+04  0.22903182253E+04  0.12699999809E+01 0.  1.
       -4    1    3    3    0  502 -0.12964368438E+04 -0.41234426750E+03 -0.13982741207E+03  0.13675999426E+04  0.12699999809E+01 0. -1.
</event>
<event>
 5   0  0.2078009E-06  0.3129482E+04  0.7818609E-02  0.8207693E-01
       -2   -1    0    0    0  501  0.00000000000E+00  0.00000000000E+00  0.18680975199E+04  0.18680975199E+04  0.25500000920E-02 0.  1.
        2   -1    0    0  501    0  0.00000000000E+00  0.00000000000E+00 -0.13106461835E+04  0.13106461835E+04  0.25500000920E-02 0. -1.
    10030    2    1    2    0    0  0.00000000000E+00  0.00000000000E+00  0.55745133640E+03  0.31787437034E+04  0.31294823117E+04 0.  0.
        3    1    3    3  502    0  0.50737058959E+03  0.76538679577E+03  0.15656231066E+04  0.18150530528E+04  0.10100000352E+00 0.  1.
       -3    1    3    3    0  502 -0.50737058959E+03 -0.76538679577E+03 -0.10081717702E+04  0.13636906506E+04  0.10100000352E+00 0. -1.
</event>
<event>
 5   0  0.7561815E-07  0.3117008E+04  0.7818609E-02  0.8211086E-01
        1   -1    0    0  501    0  0.00000000000E+00  0.00000000000E+00  0.17259577282E+04  0.17259577282E+04  0.50400001928E-02 0.  1.
       -1   -1    0    0    0  501  0.00000000000E+00  0.00000000000E+00 -0.14072966310E+04  0.14072966310E+04  0.50400001928E-02 0. -1.
    10030    2    1    2    0    0  0.00000000000E+00  0.00000000000E+00  0.31866109722E+03  0.31332543592E+04  0.31170078576E+04 0.  0.
        3    1    3    3  502    0  0.12162622595E+04 -0.78678642958E+03 -0.41865136458E+03  0.15078447350E+04  0.10100000352E+00 0. -1.
       -3    1    3    3    0  502 -0.12162622595E+04  0.78678642958E+03  0.73731246180E+03  0.16254096241E+04  0.10100000352E+00 0.  1.
</event>
<event>
 5   0  0.2133385E-06  0.3091760E+04  0.7818609E-02  0.8218003E-01
        2   -1    0    0  501    0  0.00000000000E+00  0.00000000000E+00  0.17571502165E+04  0.17571502165E+04  0.25500000920E-02 0. -1.
       -2   -1    0    0    0  501  0.00000000000E+00  0.00000000000E+00 -0.13600118450E+04  0.13600118450E+04  0.25500000920E-02 0.  1.
    10030    2    1    2    0    0  0.00000000000E+00  0.00000000000E+00  0.39713837147E+03  0.31171620616E+04  0.30917600864E+04 0.  0.
        2    1    3    3  502    0 -0.14927346613E+04 -0.29926011297E+03  0.46897363244E+03  0.15930315917E+04  0.25500000920E-02 0.  1.
       -2    1    3    3    0  502  0.14927346613E+04  0.29926011297E+03 -0.71835260978E+02  0.15241304698E+04  0.25500000920E-02 0. -1.
</event>
<event>
 5   0  0.6979625E-07  0.3068854E+04  0.7818609E-02  0.8224338E-01
        3   -1    0    0  501    0  0.00000000000E+00  0.00000000000E+00  0.19618276781E+04  0.19618276807E+04  0.10100000352E+00 0.  1.
       -3   -1    0    0    0  501  0.00000000000E+00  0.00000000000E+00 -0.12001392154E+04  0.12001392197E+04  0.10100000352E+00 0. -1.
    10030    2    1    2    0    0  0.00000000000E+00  0.00000000000E+00  0.76168846267E+03  0.31619669004E+04  0.30688540801E+04 0.  0.
        4    1    3    3  502    0  0.18575886406E+03  0.12834620245E+04 -0.46421373832E+03  0.13774168329E+04  0.12699999809E+01 0. -1.
       -4    1    3    3    0  502 -0.18575886406E+03 -0.12834620245E+04  0.12259022010E+04  0.17845500674E+04  0.12699999809E+01 0.  1.
</event>
<event>
 5   0  0.7519202E-07  0.3144556E+04  0.7818609E-02  0.8203615E-01
        1   -1    0    0  501    0  0.00000000000E+00  0.00000000000E+00  0.30251463838E+04  0.30251463839E+04  0.50400001928E-02 0. -1.
       -1   -1    0    0    0  501  0.00000000000E+00  0.00000000000E+00 -0.81716950562E+03  0.81716950563E+03  0.50400001928E-02 0.  1.
    10030    2    1    2    0    0  0.00000000000E+00  0.00000000000E+00  0.22079768782E+04  0.38423158895E+04  0.31445555329E+04 0.  0.
        4    1    3    3  502    0 -0.26008034221E+01 -0.94700867211E+03 -0.42958613354E+03  0.10398932870E+04  0.12699999809E+01 0.  1.
       -4    1    3    3    0  502  0.26008034221E+01  0.94700867211E+03  0.26375630118E+04  0.28024226025E+04  0.12699999809E+01 0. -1.
</event>
<event>
 5   0  0.2133385E-06  0.3121395E+04  0.7818609E-02  0.8209891E-01
       -2   -1    0    0    0  501  0.00000000000E+00  0.00000000000E+00  0.10209290536E+04  0.10209290536E+04  0.25500000920E-02 0.  1.
        2   -1    0    0  501    0  0.00000000000E+00  0.00000000000E+00 -0.23858439200E+04  0.23858439200E+04  0.25500000920E-02 0. -1.
    10030    2    1    2    0    0  0.00000000000E+00  0.00000000000E+00 -0.13649148665E+04  0.34067729736E+04  0.31213954413E+04 0.  0.
        2    1    3    3  502    0 -0.78130598955E+03 -0.12586278407E+04 -0.14644124286E+03  0.14886329730E+04  0.25500000920E-02 0.  1.
       -2    1    3    3    0  502  0.78130598955E+03  0.12586278407E+04 -0.12184736236E+04  0.19181400006E+04  0.25500000920E-02 0. -1.
</event>
<event>
 5   0  0.7413481E-07  0.3080839E+04  0.7818609E-02  0.8221016E-01
       -1   -1    0    0    0  501  0.00000000000E+00  0.00000000000E+00  0.15447905486E+04  0.15447905487E+04  0.50400001928E-02 0. -1.
        1   -1    0    0  501    0  0.00000000000E+00  0.00000000000E+00 -0.15360608708E+04  0.15360608708E+04  0.50400001928E-02 0.  1.
    10030    2    1    2    0    0  0.00000000000E+00  0.00000000000E+00  0.87296778800E+01  0.30808514194E+04  0.30808390515E+04 0.  0.
        5    1    3    3  502    0 -0.86945093921E+02  0.11235959716E+04  0.10545323128E+04  0.15434013884E+04  0.46999998093E+01 0. -1.
       -5    1    3    3    0  502  0.86945093921E+02 -0.11235959716E+04 -0.10458026349E+04  0.15374500311E+04  0.46999998093E+01 0.  1.
</event>
<event>
 5   0  0.7413481E-07  0.3094606E+04  0.7818609E-02  0.8217220E-01
       -1   -1    0    0    0  501  0.00000000000E+00  0.00000000000E+00  0.17321460942E+04  0.17321460943E+04  0.50400001928E-02 0. -1.
        1   -1    0    0  501    0  0.00000000000E+00  0.00000000000E+00 -0.13821852442E+04  0.13821852442E+04  0.50400001928E-02 0.  1.
    10030    2    1    2    0    0  0.00000000000E+00  0.00000000000E+00  0.34996085005E+03  0.31143313385E+04  0.30946061283E+04 0.  0.
        5    1    3    3  502    0  0.45780093119E+03 -0.13531064649E+04  0.77345229063E+03  0.16244166134E+04  0.46999998093E+01 0. -1.
       -5    1    3    3    0  502 -0.45780093119E+03  0.13531064649E+04 -0.42349144058E+03  0.14899147251E+04  0.46999998093E+01 0.  1.
</event>
<event>
 5   0  0.7561815E-07  0.3140473E+04  0.7818609E-02  0.8204717E-01
        1   -1    0    0  501    0  0.00000000000E+00  0.00000000000E+00  0.18681040466E+04  0.18681040466E+04  0.50400001928E-02 0.  1.
       -1   -1    0    0    0  501  0.00000000000E+00  0.00000000000E+00 -0.13198640584E+04  0.13198640584E+04  0.50400001928E-02 0. -1.
    10030    2    1    2    0    0  0.00000000000E+00  0.00000000000E+00  0.54823998826E+03  0.31879681050E+04  0.31404734601E+04 0.  0.
        3    1    3    3  502    0  0.10645594638E+04  0.11206473302E+04 -0.66604372102E+01  0.15456977914E+04  0.10100000352E+00 0. -1.
       -3    1    3    3    0  502 -0.10645594638E+04 -0.11206473302E+04  0.55490042547E+03  0.16422703136E+04  0.10100000352E+00 0.  1.
</event>
<event>
 5   0  0.7656332E-07  0.3093661E+04  0.7818609E-02  0.8217480E-01
        1   -1    0    0  501    0  0.00000000000E+00  0.00000000000E+00  0.17413346261E+04  0.17413346261E+04  0.50400001928E-02 0. -1.
       -1   -1    0    0    0  501  0.00000000000E+00  0.00000000000E+00 -0.13740517743E+04  0.13740517743E+04  0.50400001928E-02 0.  1.
    10030    2    1    2    0    0  0.00000000000E+00  0.00000000000E+00  0.36728285178E+03  0.31153864004E+04  0.30936605714E+04 0.  0.
        2    1    3    3  502    0  0.53508940149E+03  0.49628233877E+03 -0.11897791950E+04  0.13957762572E+04  0.25500000920E-02 0.  1.
       -2    1    3    3    0  502 -0.53508940149E+03 -0.49628233877E+03  0.15570620467E+04  0.17196101432E+04  0.25500000920E-02 0. -1.
</event>
<event>
 5   0  0.2226334E-06  0.3093125E+04  0.7818609E-02  0.8217627E-01
        2   -1    0    0  501    0  0.00000000000E+00  0.00000000000E+00  0.19568338001E+04  0.19568338001E+04  0.25500000920E-02 0.  1.
       -2   -1    0    0    0  501  0.00000000000E+00  0.00000000000E+00 -0.12223087507E+04  0.12223087507E+04  0.25500000920E-02 0. -1.
    10030    2    1    2    0    0  0.00000000000E+00  0.00000000000E+00  0.73452504938E+03  0.31791425508E+04  0.30931246839E+04 0.  0.
        5    1    3    3  502    0  0.14006236212E+04 -0.63425313747E+03  0.19586343239E+03  0.15499703690E+04  0.46999998093E+01 0. -1.
       -5    1    3    3    0  502 -0.14006236212E+04  0.63425313747E+03  0.53866161699E+03  0.16291721819E+04  0.46999998093E+01 0.  1.
</event>
<event>
 5   0  0.7519202E-07  0.3076894E+04  0.7818609E-02  0.8222108E-01
       -1   -1    0    0    0  501  0.00000000000E+00  0.00000000000E+00  0.12150865240E+04  0.12150865240E+04  0.50400001928E-02 0. -1.
        1   -1    0    0  501    0  0.00000000000E+00  0.00000000000E+00 -0.19478607041E+04  0.19478607041E+04  0.50400001928E-02 0.  1.
    10030    2    1    2    0    0  0.00000000000E+00  0.00000000000E+00 -0.73277418013E+03  0.31629472281E+04  0.30768940782E+04 0.  0.
        4    1    3    3  502    0 -0.14429871690E+04  0.31966970547E+03  0.72660948607E+02  0.14797573844E+04  0.12699999809E+01 0. -1.
       -4    1    3    3    0  502  0.14429871690E+04 -0.31966970547E+03 -0.80543512874E+03  0.16831898437E+04  0.12699999809E+01 0.  1.
</event>
<event>
 5   0  0.7413481E-07  0.3120292E+04  0.7818609E-02  0.8210191E-01
       -1   -1    0    0    0  501  0.00000000000E+00  0.00000000000E+00  0.14867549829E+04  0.14867549830E+04  0.50400001928E-02 0.  1.
        1   -1    0    0  501    0  0.00000000000E+00  0.00000000000E+00 -0.16371599588E+04  0.16371599588E+04  0.50400001928E-02 0. -1.
    10030    2    1    2    0    0  0.00000000000E+00  0.00000000000E+00 -0.15040497587E+03  0.31239149418E+04  0.31202921188E+04 0.  0.
        5    1    3    3  502    0 -0.10471407883E+04  0.10983887221E+04 -0.43766153532E+03  0.15794085364E+04  0.46999998093E+01 0.  1.
       -5    1    3    3    0  502  0.10471407883E+04 -0.10983887221E+04  0.28725655945E+03  0.15445064054E+04  0.46999998093E+01 0. -1.
</event>
<event>
 5   0  0.2133385E-06  0.3058321E+04  0.7818609E-02  0.8227270E-01
       -2   -1    0    0    0  501  0.00000000000E+00  0.00000000000E+00  0.93729767535E+03  0.93729767535E+03  0.25500000920E-02 0.  1.
        2   -1    0    0  501    0  0.00000000000E+00  0.00000000000E+00 -0.24947595689E+04  0.24947595689E+04  0.25500000920E-02 0. -1.
    10030    2    1    2    0    0  0.00000000000E+00  0.00000000000E+00 -0.15574618936E+04  0.34320572443E+04  0.30583213333E+04 0.  0.
        2    1    3    3  502    0  0.15226488260E+04  0.14032419550E+03 -0.79387101030E+03  0.17228991579E+04  0.25500000920E-02 0.  1.
       -2    1    3    3    0  502 -0.15226488260E+04 -0.14032419550E+03 -0.76359088326E+03  0.17091580864E+04  0.25500000920E-02 0. -1.
</event>
<event>
 5   0  0.7656332E-07  0.3093686E+04  0.7818609E-02  0.8217473E-01
        1   -1    0    0  501    0  0.00000000000E+00  0.00000000000E+00  0.23570482329E+04  0.23570482329E+04  0.50400001928E-02 0. -1.
       -1   -1    0    0    0  501  0.00000000000E+00  0.00000000000E+00 -0.10151354987E+04  0.10151354987E+04  0.50400001928E-02 0.  1.
    10030    2    1    2    0    0  0.00000000000E+00  0.00000000000E+00  0.13419127342E+04  0.33721837316E+04  0.30936860432E+04 0.  0.
        2    1    3    3  502    0  0.10107148703E+03 -0.29272979195E+03 -0.98099859440E+03  0.10287197961E+04  0.25500000920E-02 0.  1.
       -2    1    3    3    0  502 -0.10107148703E+03  0.29272979195E+03  0.23229113286E+04  0.23434639356E+04  0.25500000920E-02 0. -1.
</event>
<event>
 5   0  0.2226334E-06  0.3164286E+04  0.7818609E-02  0.8198313E-01
        2   -1    0    0  501    0  0.00000000000E+00  0.00000000000E+00  0.14412135894E+04  0.14412135894E+04  0.25500000920E-02 0. -1.
       -2   -1    0    0    0  501  0.00000000000E+00  0.00000000000E+00 -0.17368528208E+04  0.17368528208E+04  0.25500000920E-02 0.  1.
    10030    2    1    2    0    0  0.00000000000E+00  0.00000000000E+00 -0.29563923144E+03  0.31780664102E+04  0.31642856307E+04 0.  0.
        5    1    3    3  502    0  0.65132391322E+03 -0.60562539271E+03  0.11663700487E+04  0.14667808755E+04  0.46999998093E+01 0. -1.
       -5    1    3    3    0  502 -0.65132391322E+03  0.60562539271E+03 -0.14620092801E+04  0.17112855347E+04  0.46999998093E+01 0.  1.
</event>
<event>
 5   0  0.7726743E-07  0.3069197E+04  0.7818609E-02  0.8224243E-01
       -1   -1    0    0    0  501  0.00000000000E+00  0.00000000000E+00  0.11636576893E+04  0.11636576893E+04  0.50400001928E-02 0.  1.
        1   -1    0    0  501    0  0.00000000000E+00  0.00000000000E+00 -0.20237846425E+04  0.20237846425E+04  0.50400001928E-02 0. -1.
    10030    2    1    2    0    0  0.00000000000E+00  0.00000000000E+00 -0.86012695325E+03  0.31874423318E+04  0.30691970030E+04 0.  0.
        1    1    3    3  502    0 -0.10974860330E+03  0.52390779505E+03 -0.19236900059E+04  0.19967742418E+04  0.50400001928E-02 0. -1.
       -1    1    3    3    0  502  0.10974860330E+03 -0.52390779505E+03  0.10635630527E+04  0.11906680901E+04  0.50400001928E-02 0.  1.
</event>
<event>
 5   0  0.2078009E-06  0.2960823E+04  0.7818609E-02  0.8255007E-01
        2   -1    0    0  501    0  0.00000000000E+00  0.00000000000E+00  0.18492314776E+04  0.18492314776E+04  0.25500000920E-02 0. -1.
       -2   -1    0    0    0  501  0.00000000000E+00  0.00000000000E+00 -0.11851511982E+04  0.11851511982E+04  0.25500000920E-02 0.  1.
    10030    2    1    2    0    0  0.00000000000E+00  0.00000000000E+00  0.66408027936E+03  0.30343826758E+04  0.29608234675E+04 0.  0.
        3    1    3    3  502    0 -0.93704284057E+03 -0.33101343738E+03 -0.79248981149E+03  0.12710858713E+04  0.10100000352E+00 0.  1.
       -3    1    3    3    0  502  0.93704284057E+03  0.33101343738E+03  0.14565700909E+04  0.17632968044E+04  0.10100000352E+00 0. -1.
</event>
<event>
 5   0  0.2226334E-06  0.3079227E+04  0.7818609E-02  0.8221462E-01
        2   -1    0    0  501    0  0.00000000000E+00  0.00000000000E+00  0.22248794926E+04  0.22248794926E+04  0.25500000920E-02 0. -1.
       -2   -1    0    0    0  501  0.00000000000E+00  0.00000000000E+00 -0.10654104225E+04  0.10654104225E+04  0.25500000920E-02 0.  1.
    10030    2    1    2    0    0  0.00000000000E+00  0.00000000000E+00  0.11594690702E+04  0.32902899151E+04  0.30792270460E+04 0.  0.
        5    1    3    3  502    0  0.93542601875E+03  0.71222367082E+03 -0.48243448936E+03  0.12708459861E+04  0.46999998093E+01 0.  1.
       -5    1    3    3    0  502 -0.93542601875E+03 -0.71222367082E+03  0.16419035595E+04  0.20194439290E+04  0.46999998093E+01 0. -1.
</event>
<event>
 5   0  0.7726743E-07  0.3092999E+04  0.7818609E-02  0.8217662E-01
       -1   -1    0    0    0  501  0.00000000000E+00  0.00000000000E+00  0.33286795168E+04  0.33286795168E+04  0.50400001928E-02 0.  1.
        1   -1    0    0  501    0  0.00000000000E+00  0.00000000000E+00 -0.71850128135E+03  0.71850128137E+03  0.50400001928E-02 0. -1.
    10030    2    1    2    0    0  0.00000000000E+00  0.00000000000E+00  0.26101782355E+04  0.40471807982E+04  0.30929988672E+04 0.  0.
        1    1    3    3  502    0 -0.92169912651E+03 -0.32004770233E+03  0.28751227324E+04  0.30361637864E+04  0.50400001928E-02 0.  1.
       -1    1    3    3    0  502  0.92169912651E+03  0.32004770233E+03 -0.26494449695E+03  0.10110170118E+04  0.50400001928E-02 0. -1.
</event>
<event>
 5   0  0.2133385E-06  0.3119495E+04  0.7818609E-02  0.8210408E-01
       -2   -1    0    0    0  501  0.00000000000E+00  0.00000000000E+00  0.11506824455E+04  0.11506824455E+04  0.25500000920E-02 0. -1.
        2   -1    0    0  501    0  0.00000000000E+00  0.00000000000E+00 -0.21142342140E+04  0.21142342140E+04  0.25500000920E-02 0.  1.
    10030    2    1    2    0    0  0.00000000000E+00  0.00000000000E+00 -0.96355176850E+03  0.32649166594E+04  0.31194949563E+04 0.  0.
        2    1    3    3  502    0 -0.14579660853E+04 -0.51695224303E+03 -0.27269472472E+03  0.15707536854E+04  0.25500000920E-02 0.  1.
       -2    1    3    3    0  502  0.14579660853E+04  0.51695224303E+03 -0.69085704378E+03  0.16941629740E+04  0.25500000920E-02 0. -1.
</event>
<event>
 5   0  0.2226334E-06  0.3106211E+04  0.7818609E-02  0.8214035E-01
       -2   -1    0    0    0  501  0.00000000000E+00  0.00000000000E+00  0.16561178353E+04  0.16561178353E+04  0.25500000920E-02 0. -1.
        2   -1    0    0  501    0  0.00000000000E+00  0.00000000000E+00 -0.14565007331E+04  0.14565007331E+04  0.25500000920E-02 0.  1.
    10030    2    1    2    0    0  0.00000000000E+00  0.00000000000E+00  0.19961710213E+03  0.31126185684E+04  0.31062110947E+04 0.  0.
        5    1    3    3  502    0  0.14746721678E+04  0.18480058849E+03 -0.35201565248E+03  0.15273330906E+04  0.46999998093E+01 0.  1.
       -5    1    3    3    0  502 -0.14746721678E+04 -0.18480058849E+03  0.55163275462E+03  0.15852854778E+04  0.46999998093E+01 0. -1.
</event>
<event>
 5   0  0.7656332E-07  0.3077309E+04  0.7818609E-02  0.8221993E-01
        1   -1    0    0  501    0  0.00000000000E+00  0.00000000000E+00  0.29264088946E+04  0.29264088946E+04  0.50400001928E-02 0.  1.
       -1   -1    0    0    0  501  0.00000000000E+00  0.00000000000E+00 -0.80899782756E+03  0.80899782758E+03  0.50400001928E-02 0. -1.
    10030    2    1    2    0    0  0.00000000000E+00  0.00000000000E+00  0.21174110670E+04  0.37354067222E+04  0.30773094991E+04 0.  0.
        2    1    3    3  502    0  0.54523246760E+03 -0.45557912629E+03  0.27153516314E+04  0.28067713241E+04  0.25500000920E-02 0.  1.
       -2    1    3    3    0  502 -0.54523246760E+03  0.45557912629E+03 -0.59794056432E+03  0.92863539805E+03  0.25500000920E-02 0. -1.
</event>
<event>
 5   0  0.2078009E-06  0.3065974E+04  0.7818609E-02  0.8225138E-01
        2   -1    0    0  501    0  0.00000000000E+00  0.00000000000E+00  0.24092099271E+04  0.24092099271E+04  0.25500000920E-02 0. -1.
       -2   -1    0    0    0  501  0.00000000000E+00  0.00000000000E+00 -0.97544420945E+03  0.97544420945E+03  0.25500000920E-02 0.  1.
    10030    2    1    2    0    0  0.00000000000E+00  0.00000000000E+00  0.14337657176E+04  0.33846541365E+04  0.30659744766E+04 0.  0.
        3    1    3    3  502    0  0.50038188300E+02  0.95219826221E+02  0.24050386371E+04  0.24074429363E+04  0.10100000352E+00 0. -1.
       -3    1    3    3    0  502 -0.50038188300E+02 -0.95219826221E+02 -0.97127291944E+03  0.97721120022E+03  0.10100000352E+00 0.  1.
</event>
<event>
 5   0  0.7519202E-07  0.3092084E+04  0.7818609E-02  0.8217914E-01
        1   -1    0    0  501    0  0.00000000000E+00  0.00000000000E+00  0.13244696222E+04  0.13244696222E+04  0.50400001928E-02 0.  1.
       -1   -1    0    0    0  501  0.00000000000E+00  0.00000000000E+00 -0.18046809975E+04  0.18046809975E+04  0.50400001928E-02 0. -1.
    10030    2    1    2    0    0  0.00000000000E+00  0.00000000000E+00 -0.48021137527E+03  0.31291506197E+04  0.30920835429E+04 0.  0.
        4    1    3    3  502    0  0.79313041500E+03 -0.35882938116E+03  0.10528761416E+04  0.13661493925E+04  0.12699999809E+01 0.  1.
       -4    1    3    3    0  502 -0.79313041500E+03  0.35882938116E+03 -0.15330875169E+04  0.17630012273E+04  0.12699999809E+01 0. -1.
</event>
<event>
 5   0  0.7413481E-07  0.3123469E+04  0.7818609E-02  0.8209326E-01
       -1   -1    0    0    0  501  0.00000000000E+00  0.00000000000E+00  0.10889250161E+04  0.10889250161E+04  0.50400001928E-02 0.  1.
        1   -1    0    0  501    0  0.00000000000E+00  0.00000000000E+00 -0.22398368214E+04  0.22398368214E+04  0.50400001928E-02 0. -1.
    10030    2    1    2    0    0  0.00000000000E+00  0.00000000000E+00 -0.11509118053E+04  0.33287618375E+04  0.31234688068E+04 0.  0.
        5    1    3    3  502    0  0.85275231846E+03  0.12762136575E+04 -0.88264471907E+03  0.17705907507E+04  0.46999998093E+01 0. -1.
       -5    1    3    3    0  502 -0.85275231846E+03 -0.12762136575E+04 -0.26826708627E+03  0.15581710868E+04  0.46999998093E+01 0.  1.
</event>
<event>
 5   0  0.7413481E-07  0.3097560E+04  0.7818609E-02  0.8216408E-01
       -1   -1    0    0    0  501  0.00000000000E+00  0.00000000000E+00  0.13877798592E+04  0.13877798592E+04  0.50400001928E-02 0. -1.
        1   -1    0    0  501    0  0.00000000000E+00  0.00000000000E+00 -0.17284579467E+04  0.17284579467E+04  0.50400001928E-02 0.  1.
    10030    2    1    2    0    0  0.00000000000E+00  0.00000000000E+00 -0.34067808752E+03  0.31162378058E+04  0.30975597659E+04 0.  0.
        5    1    3    3  502    0  0.15168374676E+04 -0.27473236962E+03 -0.32098596223E+03  0.15745881544E+04  0.46999998093E+01 0.  1.
       -5    1    3    3    0  502 -0.15168374676E+04  0.27473236962E+03 -0.19692125286E+02  0.15416496514E+04  0.46999998093E+01 0. -1.
</event>
<event>
 5   0  0.6979625E-07  0.3012724E+04  0.7818609E-02  0.8240107E-01
       -3   -1    0    0    0  501  0.00000000000E+00  0.00000000000E+00  0.17349421559E+04  0.17349421588E+04  0.10100000352E+00 0.  1.
        3   -1    0    0  501    0  0.00000000000E+00  0.00000000000E+00 -0.13078979042E+04  0.13078979081E+04  0.10100000352E+00 0. -1.
    10030    2    1    2    0    0  0.00000000000E+00  0.00000000000E+00  0.42704425166E+03  0.30428400669E+04  0.30127244945E+04 0.  0.
        1    1    3    3  502    0 -0.31025331749E+03 -0.60298979232E+03 -0.11450159284E+04  0.13307574110E+04  0.50400001928E-02 0. -1.
       -1    1    3    3    0  502  0.31025331749E+03  0.60298979232E+03  0.15720601801E+04  0.17120826559E+04  0.50400001928E-02 0.  1.
</event>
<event>
 5   0  0.2078009E-06  0.3121349E+04  0.7818609E-02  0.8209903E-01
       -2   -1    0    0    0  501  0.00000000000E+00  0.00000000000E+00  0.11636434807E+04  0.11636434807E+04  0.25500000920E-02 0.  1.
        2   -1    0    0  501    0  0.00000000000E+00  0.00000000000E+00 -0.20931717305E+04  0.20931717305E+04  0.25500000920E-02 0. -1.
    10030    2    1    2    0    0  0.00000000000E+00  0.00000000000E+00 -0.92952824975E+03  0.32568152112E+04  0.31213494762E+04 0.  0.
        3    1    3    3  502    0 -0.80889569037E+03  0.99137533932E+03  0.46764552996E+03  0.13622883884E+04  0.10100000352E+00 0.  1.
       -3    1    3    3    0  502  0.80889569037E+03 -0.99137533932E+03 -0.13971737797E+04  0.18945268228E+04  0.10100000352E+00 0. -1.
</event>
<event>
 5   0  0.7413481E-07  0.3110484E+04  0.7818609E-02  0.8212867E-01
        1   -1    0    0  501    0  0.00000000000E+00  0.00000000000E+00  0.11682010395E+04  0.11682010395E+04  0.50400001928E-02 0. -1.
       -1   -1    0    0    0  501  0.00000000000E+00  0.00000000000E+00 -0.20705151854E+04  0.20705151854E+04  0.50400001928E-02 0.  1.
    10030    2    1    2    0    0  0.00000000000E+00  0.00000000000E+00 -0.90231414599E+03  0.32387162249E+04  0.31104842014E+04 0.  0.
        5    1    3    3  502    0  0.24303598949E+03  0.11558321797E+04 -0.15046703823E+04  0.19128694595E+04  0.46999998093E+01 0.  1.
       -5    1    3    3    0  502 -0.24303598949E+03 -0.11558321797E+04  0.60235623632E+03  0.13258467654E+04  0.46999998093E+01 0. -1.
</event>
<event>
 5   0  0.7413481E-07  0.3105287E+04  0.7818609E-02  0.8214288E-01
       -1   -1    0    0    0  501  0.00000000000E+00  0.00000000000E+00  0.10208968054E+04  0.10208968054E+04  0.50400001928E-02 0. -1.
        1   -1    0    0  501    0  0.00000000000E+00  0.00000000000E+00 -0.23613570533E+04  0.23613570533E+04  0.50400001928E-02 0.  1.
    10030    2    1    2    0    0  0.00000000000E+00  0.00000000000E+00 -0.13404602479E+04  0.33822538587E+04  0.31052870220E+04 0.  0.
        5    1    3    3  502    0  0.68031297188E+03 -0.12737134644E+04 -0.12916502595E+04  0.19374091494E+04  0.46999998093E+01 0.  1.
       -5    1    3    3    0  502 -0.68031297188E+03  0.12737134644E+04 -0.48809988319E+02  0.14448447093E+04  0.46999998093E+01 0. -1.
</event>
<event>
 5   0  0.2078009E-06  0.2787648E+04  0.7818609E-02  0.8307113E-01
       -2   -1    0    0    0  501  0.00000000000E+00  0.00000000000E+00  0.97872394756E+03  0.97872394756E+03  0.25500000920E-02 0. -1.
        2   -1    0    0  501    0  0.00000000000E+00  0.00000000000E+00 -0.19849779662E+04  0.19849779662E+04  0.25500000920E-02 0.  1.
    10030    2    1    2    0    0  0.00000000000E+00  0.00000000000E+00 -0.10062540186E+04  0.29637019137E+04  0.27876480918E+04 0.  0.
        3    1    3    3  502    0  0.10370718726E+04 -0.32718501053E+03  0.42381814412E+03  0.11671289258E+04  0.10100000352E+00 0. -1.
       -3    1    3    3    0  502 -0.10370718726E+04  0.32718501053E+03 -0.14300721627E+04  0.17965729879E+04  0.10100000352E+00 0.  1.
</event>
<event>
 5   0  0.2067926E-06  0.3139649E+04  0.7818609E-02  0.8204940E-01
        2   -1    0    0  501    0  0.00000000000E+00  0.00000000000E+00  0.14226413314E+04  0.14226413314E+04  0.25500000920E-02 0. -1.
       -2   -1    0    0    0  501  0.00000000000E+00  0.00000000000E+00 -0.17322351088E+04  0.17322351088E+04  0.25500000920E-02 0.  1.
    10030    2    1    2    0    0  0.00000000000E+00  0.00000000000E+00 -0.30959377738E+03  0.31548764402E+04  0.31396491915E+04 0.  0.
        1    1    3    3  502    0  0.15847278395E+03 -0.66727694488E+03  0.12641342353E+04  0.14381959218E+04  0.50400001928E-02 0. -1.
       -1    1    3    3    0  502 -0.15847278395E+03  0.66727694488E+03 -0.15737280127E+04  0.17166805184E+04  0.50400001928E-02 0.  1.
</event>
<event>
 5   0  0.2094135E-06  0.3095012E+04  0.7818609E-02  0.8217108E-01
       -2   -1    0    0    0  501  0.00000000000E+00  0.00000000000E+00  0.12840875822E+04  0.12840875822E+04  0.25500000920E-02 0.  1.
        2   -1    0    0  501    0  0.00000000000E+00  0.00000000000E+00 -0.18649626027E+04  0.18649626027E+04  0.25500000920E-02 0. -1.
    10030    2    1    2    0    0  0.00000000000E+00  0.00000000000E+00 -0.58087502042E+03  0.31490501849E+04  0.30950123227E+04 0.  0.
        4    1    3    3  502    0  0.12902115108E+04 -0.66425060833E+03 -0.83731530361E+03  0.16754023827E+04  0.12699999809E+01 0. -1.
       -4    1    3    3    0  502 -0.12902115108E+04  0.66425060833E+03  0.25644028319E+03  0.14736478022E+04  0.12699999809E+01 0.  1.
</event>
<event>
 5   0  0.7656332E-07  0.3097371E+04  0.7818609E-02  0.8216460E-01
       -1   -1    0    0    0  501  0.00000000000E+00  0.00000000000E+00  0.17338307981E+04  0.17338307981E+04  0.50400001928E-02 0. -1.
        1   -1    0    0  501    0  0.00000000000E+00  0.00000000000E+00 -0.13833110242E+04  0.13833110242E+04  0.50400001928E-02 0.  1.
    10030    2    1    2    0    0  0.00000000000E+00  0.00000000000E+00  0.35051977391E+03  0.31171418223E+04  0.30973713094E+04 0.  0.
        2    1    3    3  502    0 -0.17797265129E+03 -0.26704633288E+03  0.17000012867E+04  0.17300267002E+04  0.25500000920E-02 0. -1.
       -2    1    3    3    0  502  0.17797265129E+03  0.26704633288E+03 -0.13494815128E+04  0.13871151221E+04  0.25500000920E-02 0.  1.
</event>
<event>
 5   0  0.2226334E-06  0.3123409E+04  0.7818609E-02  0.8209343E-01
        2   -1    0    0  501    0  0.00000000000E+00  0.00000000000E+00  0.18417075722E+04  0.18417075722E+04  0.25500000920E-02 0. -1.
       -2   -1    0    0    0  501  0.00000000000E+00  0.00000000000E+00 -0.13242711394E+04  0.13242711394E+04  0.25500000920E-02 0.  1.
    10030    2    1    2    0    0  0.00000000000E+00  0.00000000000E+00  0.51743643277E+03  0.31659787116E+04  0.31234085132E+04 0.  0.
        5    1    3    3  502    0  0.12844819793E+04 -0.67349626448E+03  0.84575485951E+03  0.16789325614E+04  0.46999998093E+01 0. -1.
       -5    1    3    3    0  502 -0.12844819793E+04  0.67349626448E+03 -0.32831842675E+03  0.14870461502E+04  0.46999998093E+01 0.  1.
</event>
<event>
 5   0  0.7519202E-07  0.3151395E+04  0.7818609E-02  0.8201773E-01
        1   -1    0    0  501    0  0.00000000000E+00  0.00000000000E+00  0.11666698204E+04  0.11666698204E+04  0.50400001928E-02 0.  1.
       -1   -1    0    0    0  501  0.00000000000E+00  0.00000000000E+00 -0.21281285635E+04  0.21281285635E+04  0.50400001928E-02 0. -1.
    10030    2    1    2    0    0  0.00000000000E+00  0.00000000000E+00 -0.96145874306E+03  0.32947983839E+04  0.31513954808E+04 0.  0.
        4    1    3    3  502    0  0.13669639778E+03  0.38283141906E+03 -0.20723623337E+04  0.21118553586E+04  0.12699999809E+01 0. -1.
       -4    1    3    3    0  502 -0.13669639778E+03 -0.38283141906E+03  0.11109035906E+04  0.11829430253E+04  0.12699999809E+01 0.  1.
</event>
<event>
 5   0  0.2067926E-06  0.3008750E+04  0.7818609E-02  0.8241237E-01
       -2   -1    0    0    0  501  0.00000000000E+00  0.00000000000E+00  0.13128899613E+04  0.13128899613E+04  0.25500000920E-02 0. -1.
        2   -1    0    0  501    0  0.00000000000E+00  0.00000000000E+00 -0.17237878717E+04  0.17237878717E+04  0.25500000920E-02 0.  1.
    10030    2    1    2    0    0  0.00000000000E+00  0.00000000000E+00 -0.41089791036E+03  0.30366778330E+04  0.30087497684E+04 0.  0.
        1    1    3    3  502    0 -0.92132786048E+03  0.80575460810E+03 -0.10882440440E+04  0.16377913831E+04  0.50400001928E-02 0.  1.
       -1    1    3    3    0  502  0.92132786048E+03 -0.80575460810E+03  0.67734613368E+03  0.13988864499E+04  0.50400001928E-02 0. -1.
</event>
<event>
 5   0  0.2226334E-06  0.3108283E+04  0.7818609E-02  0.8213468E-01
       -2   -1    0    0    0  501  0.00000000000E+00  0.00000000000E+00  0.15341223152E+04  0.15341223152E+04  0.25500000920E-02 0.  1.
        2   -1    0    0  501    0  0.00000000000E+00  0.00000000000E+00 -0.15744217826E+04  0.15744217826E+04  0.25500000920E-02 0. -1.
    10030    2    1    2    0    0  0.00000000000E+00  0.00000000000E+00 -0.40299467457E+02  0.31085440978E+04  0.31082828637E+04 0.  0.
        5    1    3    3  502    0 -0.15388598561E+04  0.71070375008E+02 -0.22557596833E+03  0.15569352145E+04  0.46999998093E+01 0.  1.
       -5    1    3    3    0  502  0.15388598561E+04 -0.71070375008E+02  0.18527650088E+03  0.15516088833E+04  0.46999998093E+01 0. -1.
</event>
<event>
 5   0  0.2133385E-06  0.3101360E+04  0.7818609E-02  0.8215365E-01
       -2   -1    0    0    0  501  0.00000000000E+00  0.00000000000E+00  0.17234665703E+04  0.17234665703E+04  0.25500000920E-02 0.  1.
        2   -1    0    0  501    0  0.00000000000E+00  0.00000000000E+00 -0.13952162716E+04  0.13952162716E+04  0.25500000920E-02 0. -1.
    10030    2    1    2    0    0  0.00000000000E+00  0.00000000000E+00  0.32825029869E+03  0.31186828419E+04  0.31013600903E+04 0.  0.
        2    1    3    3  502    0 -0.47036147406E+03  0.45388150904E+03 -0.12499155775E+04  0.14105095857E+04  0.25500000920E-02 0. -1.
       -2    1    3    3    0  502  0.47036147406E+03 -0.45388150904E+03  0.15781658762E+04  0.17081732562E+04  0.25500000920E-02 0.  1.
</event>
<event>
 5   0  0.7726743E-07  0.3140099E+04  0.7818609E-02  0.8204819E-01
        1   -1    0    0  501    0  0.00000000000E+00  0.00000000000E+00  0.20096908419E+04  0.20096908419E+04  0.50400001928E-02 0. -1.
       -1   -1    0    0    0  501  0.00000000000E+00  0.00000000000E+00 -0.12265842242E+04  0.12265842243E+04  0.50400001928E-02 0.  1.
    10030    2    1    2    0    0  0.00000000000E+00  0.00000000000E+00  0.78310661767E+03  0.32362750662E+04  0.31400987770E+04 0.  0.
        1    1    3    3  502    0 -0.81835804488E+03  0.57059227748E+03 -0.85791934183E+03  0.13157929297E+04  0.50400001928E-02 0.  1.
       -1    1    3    3    0  502  0.81835804488E+03 -0.57059227748E+03  0.16410259595E+04  0.19204821365E+04  0.50400001928E-02 0. -1.
</event>
<event>
 5   0  0.7519202E-07  0.3165070E+04  0.7818609E-02  0.8198103E-01
        1   -1    0    0  501    0  0.00000000000E+00  0.00000000000E+00  0.22909405577E+04  0.22909405577E+04  0.50400001928E-02 0.  1.
       -1   -1    0    0    0  501  0.00000000000E+00  0.00000000000E+00 -0.10931830029E+04  0.10931830029E+04  0.50400001928E-02 0. -1.
    10030    2    1    2    0    0  0.00000000000E+00  0.00000000000E+00  0.11977575548E+04  0.33841235606E+04  0.31650701593E+04 0.  0.
        4    1    3    3  502    0 -0.11576470840E+04  0.91832493036E+03  0.12046105488E+04  0.19064510579E+04  0.12699999809E+01 0.  1.
       -4    1    3    3    0  502  0.11576470840E+04 -0.91832493036E+03 -0.68529939880E+01  0.14776725027E+04  0.12699999809E+01 0. -1.
</event>
<event>
 5   0  0.2133385E-06  0.3097266E+04  0.7818609E-02  0.8216489E-01
        2   -1    0    0  501    0  0.00000000000E+00  0.00000000000E+00  0.16755087067E+04  0.16755087067E+04  0.25500000920E-02 0.  1.
       -2   -1    0    0    0  501  0.00000000000E+00  0.00000000000E+00 -0.14313644833E+04  0.14313644833E+04  0.25500000920E-02 0. -1.
    10030    2    1    2    0    0  0.00000000000E+00  0.00000000000E+00  0.24414422345E+03  0.31068731900E+04  0.30972656678E+04 0.  0.
        2    1    3    3  502    0  0.39138149965E+03  0.13723598534E+04  0.72536317610E+03  0.16008443968E+04  0.25500000920E-02 0.  1.
       -2    1    3    3    0  502 -0.39138149965E+03 -0.13723598534E+04 -0.48121895265E+03  0.15060287932E+04  0.25500000920E-02 0. -1.
</event>
<event>
 5   0  0.2226334E-06  0.3108881E+04  0.7818609E-02  0.8213305E-01
       -2   -1    0    0    0  501  0.00000000000E+00  0.00000000000E+00  0.11983452893E+04  0.11983452893E+04  0.25500000920E-02 0.  1.
        2   -1    0    0  501    0  0.00000000000E+00  0.00000000000E+00 -0.20163511973E+04  0.20163511973E+04  0.25500000920E-02 0. -1.
    10030    2    1    2    0    0  0.00000000000E+00  0.00000000000E+00 -0.81800590798E+03  0.32146964866E+04  0.31088808011E+04 0.  0.
        5    1    3    3  502    0  0.99321899840E+03 -0.11948692438E+04 -0.36199827936E+03  0.15953875180E+04  0.46999998093E+01 0.  1.
       -5    1    3    3    0  502 -0.99321899840E+03  0.11948692438E+04 -0.45600762862E+03  0.16193089686E+04  0.46999998093E+01 0. -1.
</event>
<event>
 5   0  0.7519202E-07  0.3090982E+04  0.7818609E-02  0.8218217E-01
        1   -1    0    0  501    0  0.00000000000E+00  0.00000000000E+00  0.12189947596E+04  0.12189947596E+04  0.50400001928E-02 0. -1.
       -1   -1    0    0    0  501  0.00000000000E+00  0.00000000000E+00 -0.19594357946E+04  0.19594357946E+04  0.50400001928E-02 0.  1.
    10030    2    1    2    0    0  0.00000000000E+00  0.00000000000E+00 -0.74044103501E+03  0.31784305542E+04  0.30909816987E+04 0.  0.
        4    1    3    3  502    0 -0.72469138113E+03 -0.12747796262E+04 -0.87219079651E+03  0.17061533025E+04  0.12699999809E+01 0. -1.
       -4    1    3    3    0  502  0.72469138113E+03  0.12747796262E+04  0.13174976150E+03  0.14722772517E+04  0.12699999809E+01 0.  1.
</event>
<event>
 5   0  0.7656332E-07  0.3113498E+04  0.7818609E-02  0.8212043E-01
        1   -1    0    0  501    0  0.00000000000E+00  0.00000000000E+00  0.27297614592E+04  0.27297614592E+04  0.50400001928E-02 0.  1.
       -1   -1    0    0    0  501  0.00000000000E+00  0.00000000000E+00 -0.88779479594E+03  0.88779479596E+03  0.50400001928E-02 0. -1.
    10030    2    1    2    0    0  0.00000000000E+00  0.00000000000E+00  0.18419666633E+04  0.36175562552E+04  0.31134983653E+04 0.  0.
        2    1    3    3  502    0 -0.33295683903E+03 -0.14832483169E+04  0.53112977520E+03  0.16102747170E+04  0.25500000920E-02 0.  1.
       -2    1    3    3    0  502  0.33295683903E+03  0.14832483169E+04  0.13108368881E+04  0.20072815381E+04  0.25500000920E-02 0. -1.
</event>
<event>
 5   0  0.2094135E-06  0.3069707E+04  0.7818609E-02  0.8224101E-01
        2   -1    0    0  501    0  0.00000000000E+00  0.00000000000E+00  0.21544340040E+04  0.21544340040E+04  0.25500000920E-02 0.  1.
       -2   -1    0    0    0  501  0.00000000000E+00  0.00000000000E+00 -0.10934545118E+04  0.10934545118E+04  0.25500000920E-02 0. -1.
    10030    2    1    2    0    0  0.00000000000E+00  0.00000000000E+00  0.10609794922E+04  0.32478885158E+04  0.30697072056E+04 0.  0.
        4    1    3    3  502    0 -0.14639371356E+04 -0.45811851193E+03  0.58637076641E+03  0.16421987689E+04  0.12699999809E+01 0. -1.
       -4    1    3    3    0  502  0.14639371356E+04  0.45811851193E+03  0.47460872577E+03  0.16056897469E+04  0.12699999809E+01 0.  1.
</event>
<event>
 5   0  0.6979625E-07  0.3106932E+04  0.7818609E-02  0.8213838E-01
       -3   -1    0    0    0  501  0.00000000000E+00  0.00000000000E+00  0.18462760720E+04  0.18462760748E+04  0.10100000352E+00 0.  1.
        3   -1    0    0  501    0  0.00000000000E+00  0.00000000000E+00 -0.13070939321E+04  0.13070939360E+04  0.10100000352E+00 0. -1.
    10030    2    1    2    0    0  0.00000000000E+00  0.00000000000E+00  0.53918213990E+03  0.31533700109E+04  0.31069317735E+04 0.  0.
        2    1    3    3  502    0 -0.97612520829E+03 -0.26567516613E+03  0.14661320574E+04  0.17812767685E+04  0.25500000920E-02 0.  1.
       -2    1    3    3    0  502  0.97612520829E+03  0.26567516613E+03 -0.92694991752E+03  0.13720932424E+04  0.25500000920E-02 0. -1.
</event>
<event>
 5   0  0.2094135E-06  0.3097070E+04  0.7818609E-02  0.8216543E-01
        2   -1    0    0  501    0  0.00000000000E+00  0.00000000000E+00  0.14227329643E+04  0.14227329643E+04  0.25500000920E-02 0.  1.
       -2   -1    0    0    0  501  0.00000000000E+00  0.00000000000E+00 -0.16854605674E+04  0.16854605674E+04  0.25500000920E-02 0. -1.
    10030    2    1    2    0    0  0.00000000000E+00  0.00000000000E+00 -0.26272760313E+03  0.31081935316E+04  0.30970697823E+04 0.  0.
        4    1    3    3  502    0  0.14630030367E+04 -0.32655348457E+03  0.25854627611E+03  0.15211386700E+04  0.12699999809E+01 0. -1.
       -4    1    3    3    0  502 -0.14630030367E+04  0.32655348457E+03 -0.52127387925E+03  0.15870548616E+04  0.12699999809E+01 0.  1.
</event>
<event>
 5   0  0.2094135E-06  0.3017509E+04  0.7818609E-02  0.8238749E-01
       -2   -1    0    0    0  501  0.00000000000E+00  0.00000000000E+00  0.10503656922E+04  0.10503656922E+04  0.25500000920E-02 0. -1.
        2   -1    0    0  501    0  0.00000000000E+00  0.00000000000E+00 -0.21671875569E+04  0.21671875569E+04  0.25500000920E-02 0.  1.
    10030    2    1    2    0    0  0.00000000000E+00  0.00000000000E+00 -0.11168218646E+04  0.32175532491E+04  0.30175085474E+04 0.  0.
        4    1    3    3  502    0  0.12524197822E+04  0.77778658146E+03 -0.90034183428E+03  0.17274618111E+04  0.12699999809E+01 0.  1.
       -4    1    3    3    0  502 -0.12524197822E+04 -0.77778658146E+03 -0.21648003033E+03  0.14900914380E+04  0.12699999809E+01 0. -1.
</event>
<event>
 5   0  0.2078009E-06  0.3087214E+04  0.7818609E-02  0.8219256E-01
       -2   -1    0    0    0  501  0.00000000000E+00  0.00000000000E+00  0.20420976239E+04  0.20420976239E+04  0.25500000920E-02 0. -1.
        2   -1    0    0  501    0  0.00000000000E+00  0.00000000000E+00 -0.11668012055E+04  0.11668012055E+04  0.25500000920E-02 0.  1.
    10030    2    1    2    0    0  0.00000000000E+00  0.00000000000E+00  0.87529641837E+03  0.32088988295E+04  0.30872136106E+04 0.  0.
        3    1    3    3  502    0 -0.37288945184E+03 -0.11418228360E+04 -0.57005785508E+03  0.13295758348E+04  0.10100000352E+00 0.  1.
       -3    1    3    3    0  502  0.37288945184E+03  0.11418228360E+04  0.14453542735E+04  0.18793229946E+04  0.10100000352E+00 0. -1.
</event>
<event>
 5   0  0.7656332E-07  0.3087597E+04  0.7818609E-02  0.8219150E-01
       -1   -1    0    0    0  501  0.00000000000E+00  0.00000000000E+00  0.97340235142E+03  0.97340235143E+03  0.50400001928E-02 0.  1.
        1   -1    0    0  501    0  0.00000000000E+00  0.00000000000E+00 -0.24484369329E+04  0.24484369329E+04  0.50400001928E-02 0. -1.
    10030    2    1    2    0    0  0.00000000000E+00  0.00000000000E+00 -0.14750345815E+04  0.34218392844E+04  0.30875972975E+04 0.  0.
        2    1    3    3  502    0 -0.71102843991E+03  0.12956537438E+04 -0.24308957077E+03  0.14977892394E+04  0.25500000920E-02 0.  1.
       -2    1    3    3    0  502  0.71102843991E+03 -0.12956537438E+04 -0.12319450107E+04  0.19240500450E+04  0.25500000920E-02 0. -1.
</event>
<event>
 5   0  0.7726743E-07  0.3082301E+04  0.7818609E-02  0.8220612E-01
       -1   -1    0    0    0  501  0.00000000000E+00  0.00000000000E+00  0.15733328355E+04  0.15733328355E+04  0.50400001928E-02 0.  1.
        1   -1    0    0  501    0  0.00000000000E+00  0.00000000000E+00 -0.15096266982E+04  0.15096266982E+04  0.50400001928E-02 0. -1.
    10030    2    1    2    0    0  0.00000000000E+00  0.00000000000E+00  0.63706137238E+02  0.30829595337E+04  0.30823012531E+04 0.  0.
        1    1    3    3  502    0  0.42454598204E+03 -0.11460775684E+04  0.97088911317E+03  0.15608839655E+04  0.50400001928E-02 0. -1.
       -1    1    3    3    0  502 -0.42454598204E+03  0.11460775684E+04 -0.90718297593E+03  0.15220755682E+04  0.50400001928E-02 0.  1.
</event>
<event>
 5   0  0.7413481E-07  0.3089718E+04  0.7818609E-02  0.8218565E-01
       -1   -1    0    0    0  501  0.00000000000E+00  0.00000000000E+00  0.11084901370E+04  0.11084901370E+04  0.50400001928E-02 0. -1.
        1   -1    0    0  501    0  0.00000000000E+00  0.00000000000E+00 -0.21530087586E+04  0.21530087586E+04  0.50400001928E-02 0.  1.
    10030    2    1    2    0    0  0.00000000000E+00  0.00000000000E+00 -0.10445186216E+04  0.32614988957E+04  0.30897177696E+04 0.  0.
        5    1    3    3  502    0 -0.60091798245E+03 -0.73049670530E+03  0.76705679316E+03  0.12178366360E+04  0.46999998093E+01 0. -1.
       -5    1    3    3    0  502  0.60091798245E+03  0.73049670530E+03 -0.18115754148E+04  0.20436622596E+04  0.46999998093E+01 0.  1.
</event>
<event>
 5   0  0.2067926E-06  0.3106202E+04  0.7818609E-02  0.8214038E-01
        2   -1    0    0  501    0  0.00000000000E+00  0.00000000000E+00  0.23786151247E+04  0.23786151247E+04  0.25500000920E-02 0.  1.
       -2   -1    0    0    0  501  0.00000000000E+00  0.00000000000E+00 -0.10140868664E+04  0.10140868664E+04  0.25500000920E-02 0. -1.
    10030    2    1    2    0    0  0.00000000000E+00  0.00000000000E+00  0.13645282583E+04  0.33927019911E+04  0.31062017695E+04 0.  0.
        1    1    3    3  502    0 -0.58152044630E+03 -0.46767605163E+03  0.21699648272E+04  0.22946969887E+04  0.50400001928E-02 0.  1.
       -1    1    3    3    0  502  0.58152044630E+03  0.46767605163E+03 -0.80543656892E+03  0.10980050024E+04  0.50400001928E-02 0. -1.
</event>
<event>
 5   0  0.2226334E-06  0.3105986E+04  0.7818609E-02  0.8214097E-01
        2   -1    0    0  501    0  0.00000000000E+00  0.00000000000E+00  0.12505842334E+04  0.12505842334E+04  0.25500000920E-02 0.  1.
       -2   -1    0    0    0  501  0.00000000000E+00  0.00000000000E+00 -0.19285285784E+04  0.19285285784E+04  0.25500000920E-02 0. -1.
    10030    2    1    2    0    0  0.00000000000E+00  0.00000000000E+00 -0.67794434500E+03  0.31791128119E+04  0.31059861132E+04 0.  0.
        5    1    3    3  502    0 -0.32153609810E+03  0.13338413243E+04  0.40564957369E+03  0.14307661610E+04  0.46999998093E+01 0.  1.
       -5    1    3    3    0  502  0.32153609810E+03 -0.13338413243E+04 -0.10835939187E+04  0.17483466508E+04  0.46999998093E+01 0. -1.
</event>
<event>
 5   0  0.2094135E-06  0.3111148E+04  0.7818609E-02  0.8212685E-01
       -2   -1    0    0    0  501  0.00000000000E+00  0.00000000000E+00  0.13986211232E+04  0.13986211232E+04  0.25500000920E-02 0.  1.
        2   -1    0    0  501    0  0.00000000000E+00  0.00000000000E+00 -0.17301403634E+04  0.17301403634E+04  0.25500000920E-02 0. -1.
    10030    2    1    2    0    0  0.00000000000E+00  0.00000000000E+00 -0.33151924016E+03  0.31287614866E+04  0.31111482500E+04 0.  0.
        4    1    3    3  502    0  0.11255097475E+04 -0.86058317337E+03 -0.81160536026E+03  0.16328136647E+04  0.12699999809E+01 0. -1.
       -4    1    3    3    0  502 -0.11255097475E+04  0.86058317337E+03  0.48008612010E+03  0.14959478218E+04  0.12699999809E+01 0.  1.
</event>
<event>
 5   0  0.7413481E-07  0.3105597E+04  0.7818609E-02  0.8214203E-01
        1   -1    0    0  501    0  0.00000000000E+00  0.00000000000E+00  0.12719717261E+04  0.12719717261E+04  0.50400001928E-02 0. -1.
       -1   -1    0    0    0  501  0.00000000000E+00  0.00000000000E+00 -0.18956266999E+04  0.18956266999E+04  0.50400001928E-02 0.  1.
    10030    2    1    2    0    0  0.00000000000E+00  0.00000000000E+00 -0.62365497384E+03  0.31675984260E+04  0.31055972472E+04 0.  0.
        5    1    3    3  502    0 -0.59692680358E+03 -0.46524552018E+03  0.10711126881E+04  0.13115180073E+04  0.46999998093E+01 0. -1.
       -5    1    3    3    0  502  0.59692680358E+03  0.46524552018E+03 -0.16947676619E+04  0.18560804187E+04  0.46999998093E+01 0.  1.
</event>
<event>
 5   0  0.7726743E-07  0.3090304E+04  0.7818609E-02  0.8218404E-01
        1   -1    0    0  501    0  0.00000000000E+00  0.00000000000E+00  0.25691319343E+04  0.25691319343E+04  0.50400001928E-02 0. -1.
       -1   -1    0    0    0  501  0.00000000000E+00  0.00000000000E+00 -0.92930015056E+03  0.92930015058E+03  0.50400001928E-02 0.  1.
    10030    2    1    2    0    0  0.00000000000E+00  0.00000000000E+00  0.16398317837E+04  0.34984320849E+04  0.30903039937E+04 0.  0.
        1    1    3    3  502    0  0.68677655492E+03 -0.14113088796E+03  0.23786844768E+04  0.24798628599E+04  0.50400001928E-02 0. -1.
       -1    1    3    3    0  502 -0.68677655492E+03  0.14113088796E+03 -0.73885269306E+03  0.10185692249E+04  0.50400001928E-02 0.  1.
</event>
<event>
 5   0  0.7656332E-07  0.3092803E+04  0.7818609E-02  0.8217716E-01
       -1   -1    0    0    0  501  0.00000000000E+00  0.00000000000E+00  0.21267145001E+04  0.21267145001E+04  0.50400001928E-02 0.  1.
        1   -1    0    0  501    0  0.00000000000E+00  0.00000000000E+00 -0.11244378597E+04  0.11244378597E+04  0.50400001928E-02 0. -1.
    10030    2    1    2    0    0  0.00000000000E+00  0.00000000000E+00  0.10022766404E+04  0.32511523598E+04  0.30928034536E+04 0.  0.
        2    1    3    3  502    0 -0.16207366641E+03 -0.12800218839E+04  0.13972104691E+04  0.19018204415E+04  0.25500000920E-02 0.  1.
       -2    1    3    3    0  502  0.16207366641E+03  0.12800218839E+04 -0.39493382873E+03  0.13493319183E+04  0.25500000920E-02 0. -1.
</event>
<event>
 5   0  0.7656332E-07  0.3141039E+04  0.7818609E-02  0.8204564E-01
       -1   -1    0    0    0  501  0.00000000000E+00  0.00000000000E+00  0.13869211494E+04  0.13869211494E+04  0.50400001928E-02 0.  1.
        1   -1    0    0  501    0  0.00000000000E+00  0.00000000000E+00 -0.17784224519E+04  0.17784224519E+04  0.50400001928E-02 0. -1.
    10030    2    1    2    0    0  0.00000000000E+00  0.00000000000E+00 -0.39150130246E+03  0.31653436013E+04  0.31410391345E+04 0.  0.
        2    1    3    3  502    0 -0.12487486456E+03  0.15404541493E+04  0.85585089888E+02  0.15478751647E+04  0.25500000920E-02 0.  1.
       -2    1    3    3    0  502  0.12487486456E+03 -0.15404541493E+04 -0.47708639234E+03  0.16174684367E+04  0.25500000920E-02 0. -1.
</event>
<event>
 5   0  0.7413481E-07  0.3113098E+04  0.7818609E-02  0.8212152E-01
        1   -1    0    0  501    0  0.00000000000E+00  0.00000000000E+00  0.84618309824E+03  0.84618309825E+03  0.50400001928E-02 0.  1.
       -1   -1    0    0    0  501  0.00000000000E+00  0.00000000000E+00 -0.28632630556E+04  0.28632630556E+04  0.50400001928E-02 0. -1.
    10030    2    1    2    0    0  0.00000000000E+00  0.00000000000E+00 -0.20170799573E+04  0.37094461538E+04  0.31130980090E+04 0.  0.
        5    1    3    3  502    0  0.14516241142E+04  0.25208354211E+03 -0.16067748400E+04  0.21800243479E+04  0.46999998093E+01 0. -1.
       -5    1    3    3    0  502 -0.14516241142E+04 -0.25208354211E+03 -0.41030511738E+03  0.15294218059E+04  0.46999998093E+01 0.  1.
</event>
<event>
 5   0  0.2067926E-06  0.3088903E+04  0.7818609E-02  0.8218790E-01
        2   -1    0    0  501    0  0.00000000000E+00  0.00000000000E+00  0.14143740415E+04  0.14143740415E+04  0.25500000920E-02 0. -1.
       -2   -1    0    0    0  501  0.00000000000E+00  0.00000000000E+00 -0.16864917138E+04  0.16864917138E+04  0.25500000920E-02 0.  1.
    10030    2    1    2    0    0  0.00000000000E+00  0.00000000000E+00 -0.27211767234E+03  0.31008657553E+04  0.30889027833E+04 0.  0.
        1    1    3    3  502    0  0.47818140194E+03 -0.10122782272E+04  0.93200032246E+03  0.14567049336E+04  0.50400001928E-02 0. -1.
       -1    1    3    3    0  502 -0.47818140194E+03  0.10122782272E+04 -0.12041179948E+04  0.16441608218E+04  0.50400001928E-02 0.  1.
</event>
<event>
 5   0  0.7656332E-07  0.3073461E+04  0.7818609E-02  0.8223059E-01
        1   -1    0    0  501    0  0.00000000000E+00  0.00000000000E+00  0.24852048640E+04  0.24852048640E+04  0.50400001928E-02 0. -1.
       -1   -1    0    0    0  501  0.00000000000E+00  0.00000000000E+00 -0.95023983533E+03  0.95023983534E+03  0.50400001928E-02 0.  1.
    10030    2    1    2    0    0  0.00000000000E+00  0.00000000000E+00  0.15349650287E+04  0.34354446994E+04  0.30734610203E+04 0.  0.
        2    1    3    3  502    0 -0.11337306240E+04 -0.62959815353E+03  0.16890908096E+04  0.21294991725E+04  0.25500000920E-02 0. -1.
       -2    1    3    3    0  502  0.11337306240E+04  0.62959815353E+03 -0.15412578095E+03  0.13059455268E+04  0.25500000920E-02 0.  1.
</event>
<event>
 5   0  0.7726743E-07  0.3025414E+04  0.7818609E-02  0.8236511E-01
        1   -1    0    0  501    0  0.00000000000E+00  0.00000000000E+00  0.21685323630E+04  0.21685323631E+04  0.50400001928E-02 0.  1.
       -1   -1    0    0    0  501  0.00000000000E+00  0.00000000000E+00 -0.10552219291E+04  0.10552219291E+04  0.50400001928E-02 0. -1.
    10030    2    1    2    0    0  0.00000000000E+00  0.00000000000E+00  0.11133104339E+04  0.32237542922E+04  0.30254142880E+04 0.  0.
        1    1    3    3  502    0 -0.41197736654E+03  0.44920615202E+02  0.21068643399E+04  0.21472355621E+04  0.50400001928E-02 0.  1.
       -1    1    3    3    0  502  0.41197736654E+03 -0.44920615202E+02 -0.99355390596E+03  0.10765187301E+04  0.50400001928E-02 0. -1.
</event>
<event>
 5   0  0.2094135E-06  0.3116739E+04  0.7818609E-02  0.8211159E-01
       -2   -1    0    0    0  501  0.00000000000E+00  0.00000000000E+00  0.10844315915E+04  0.10844315915E+04  0.25500000920E-02 0.  1.
        2   -1    0    0  501    0  0.00000000000E+00  0.00000000000E+00 -0.22394363417E+04  0.22394363417E+04  0.25500000920E-02 0. -1.
    10030    2    1    2    0    0  0.00000000000E+00  0.00000000000E+00 -0.11550047502E+04  0.33238679331E+04  0.31167390112E+04 0.  0.
        4    1    3    3  502    0 -0.58568456982E+03  0.65815155307E+03 -0.19483555146E+04  0.21382892008E+04  0.12699999809E+01 0. -1.
       -4    1    3    3    0  502  0.58568456982E+03 -0.65815155307E+03  0.79335076445E+03  0.11855787323E+04  0.12699999809E+01 0.  1.
</event>
<event>
 5   0  0.7413481E-07  0.3103393E+04  0.7818609E-02  0.8214807E-01
       -1   -1    0    0    0  501  0.00000000000E+00  0.00000000000E+00  0.11071548640E+04  0.11071548640E+04  0.50400001928E-02 0.  1.
        1   -1    0    0  501    0  0.00000000000E+00  0.00000000000E+00 -0.21747297207E+04  0.21747297207E+04  0.50400001928E-02 0. -1.
    10030    2    1    2    0    0  0.00000000000E+00  0.00000000000E+00 -0.10675748567E+04  0.32818845847E+04  0.31033933609E+04 0.  0.
        5    1    3    3  502    0  0.80602944761E+03  0.87529446186E+02 -0.19329062104E+04  0.20960661685E+04  0.46999998093E+01 0. -1.
       -5    1    3    3    0  502 -0.80602944761E+03 -0.87529446186E+02  0.86533135374E+03  0.11858184162E+04  0.46999998093E+01 0.  1.
</event>
<event>
 5   0  0.7413481E-07  0.3083781E+04  0.7818609E-02  0.8220203E-01
       -1   -1    0    0    0  501  0.00000000000E+00  0.00000000000E+00  0.10891891799E+04  0.10891891799E+04  0.50400001928E-02 0. -1.
        1   -1    0    0  501    0  0.00000000000E+00  0.00000000000E+00 -0.21827489829E+04  0.21827489830E+04  0.50400001928E-02 0.  1.
    10030    2    1    2    0    0  0.00000000000E+00  0.00000000000E+00 -0.10935598031E+04  0.32719381629E+04  0.30837811691E+04 0.  0.
        5    1    3    3  502    0  0.13094466423E+04  0.57203632846E+03 -0.11613708892E+04  0.18413800538E+04  0.46999998093E+01 0.  1.
       -5    1    3    3    0  502 -0.13094466423E+04 -0.57203632846E+03  0.67811086130E+02  0.14305581091E+04  0.46999998093E+01 0. -1.
</event>
<event>
 5   0  0.7656332E-07  0.3116397E+04  0.7818609E-02  0.8211252E-01
       -1   -1    0    0    0  501  0.00000000000E+00  0.00000000000E+00  0.17326109040E+04  0.17326109040E+04  0.50400001928E-02 0. -1.
        1   -1    0    0  501    0  0.00000000000E+00  0.00000000000E+00 -0.14013428724E+04  0.14013428724E+04  0.50400001928E-02 0.  1.
    10030    2    1    2    0    0  0.00000000000E+00  0.00000000000E+00  0.33126803154E+03  0.31339537764E+04  0.31163965993E+04 0.  0.
        2    1    3    3  502    0 -0.17044859616E+03 -0.11839364340E+04 -0.83860286929E+03  0.14608261279E+04  0.25500000920E-02 0.  1.
       -2    1    3    3    0  502  0.17044859616E+03  0.11839364340E+04  0.11698709008E+04  0.16731276485E+04  0.25500000920E-02 0. -1.
</event>
<event>
 5   0  0.2067926E-06  0.3060445E+04  0.7818609E-02  0.8226678E-01
        2   -1    0    0  501    0  0.00000000000E+00  0.00000000000E+00  0.22417818772E+04  0.22417818772E+04  0.25500000920E-02 0. -1.
       -2   -1    0    0    0  501  0.00000000000E+00  0.00000000000E+00 -0.10445174639E+04  0.10445174639E+04  0.25500000920E-02 0.  1.
    10030    2    1    2    0    0  0.00000000000E+00  0.00000000000E+00  0.11972644133E+04  0.32862993411E+04  0.30604446219E+04 0.  0.
        1    1    3    3  502    0  0.61483906648E+03 -0.10932007025E+04 -0.34268234499E+03  0.13002099997E+04  0.50400001928E-02 0.  1.
       -1    1    3    3    0  502 -0.61483906648E+03  0.10932007025E+04  0.15399467583E+04  0.19860893414E+04  0.50400001928E-02 0. -1.
</event>
<event>
 5   0  0.7519202E-07  0.3082176E+04  0.7818609E-02  0.8220647E-01
        1   -1    0    0  501    0  0.00000000000E+00  0.00000000000E+00  0.81112087969E+03  0.81112087971E+03  0.50400001928E-02 0.  1.
       -1   -1    0    0    0  501  0.00000000000E+00  0.00000000000E+00 -0.29279881536E+04  0.29279881536E+04  0.50400001928E-02 0. -1.
    10030    2    1    2    0    0  0.00000000000E+00  0.00000000000E+00 -0.21168672739E+04  0.37391090333E+04  0.30821760670E+04 0.  0.
        4    1    3    3  502    0  0.21292767503E+03  0.12559680980E+04 -0.63147008141E+01  0.12739056270E+04  0.12699999809E+01 0.  1.
       -4    1    3    3    0  502 -0.21292767503E+03 -0.12559680980E+04 -0.21105525731E+04  0.24652034064E+04  0.12699999809E+01 0. -1.
</event>
<event>
 5   0  0.2067926E-06  0.3100245E+04  0.7818609E-02  0.8215671E-01
        2   -1    0    0  501    0  0.00000000000E+00  0.00000000000E+00  0.16684008706E+04  0.16684008706E+04  0.25500000920E-02 0.  1.
       -2   -1    0    0    0  501  0.00000000000E+00  0.00000000000E+00 -0.14402295542E+04  0.14402295542E+04  0.25500000920E-02 0. -1.
    10030    2    1    2    0    0  0.00000000000E+00  0.00000000000E+00  0.22817131644E+03  0.31086304248E+04  0.31002453077E+04 0.  0.
        1    1    3    3  502    0 -0.11237040878E+04 -0.53068658614E+03 -0.81499535042E+03  0.14861213109E+04  0.50400001928E-02 0. -1.
       -1    1    3    3    0  502  0.11237040878E+04  0.53068658614E+03  0.10431666669E+04  0.16225091138E+04  0.50400001928E-02 0.  1.
</event>
<event>
 5   0  0.2078009E-06  0.3092594E+04  0.7818609E-02  0.8217773E-01
       -2   -1    0    0    0  501  0.00000000000E+00  0.00000000000E+00  0.12255722387E+04  0.12255722387E+04  0.25500000920E-02 0.  1.
        2   -1    0    0  501    0  0.00000000000E+00  0.00000000000E+00 -0.19509537015E+04  0.19509537015E+04  0.25500000920E-02 0. -1.
    10030    2    1    2    0    0  0.00000000000E+00  0.00000000000E+00 -0.72538146283E+03  0.31765259402E+04  0.30925941833E+04 0.  0.
        3    1    3    3  502    0 -0.11625059112E+04  0.88614277248E+03 -0.88072528357E+03  0.17065597095E+04  0.10100000352E+00 0. -1.
       -3    1    3    3    0  502  0.11625059112E+04 -0.88614277248E+03  0.15534382074E+03  0.14699662308E+04  0.10100000352E+00 0.  1.
</event>
<event>
 5   0  0.2078009E-06  0.3097233E+04  0.7818609E-02  0.8216498E-01
       -2   -1    0    0    0  501  0.00000000000E+00  0.00000000000E+00  0.12918863083E+04  0.12918863083E+04  0.25500000920E-02 0.  1.
        2   -1    0    0  501    0  0.00000000000E+00  0.00000000000E+00 -0.18563650603E+04  0.18563650603E+04  0.25500000920E-02 0. -1.
    10030    2    1    2    0    0  0.00000000000E+00  0.00000000000E+00 -0.56447875201E+03  0.31482513687E+04  0.30972327034E+04 0.  0.
        3    1    3    3  502    0 -0.68240648615E+03 -0.94419742048E+02  0.11275527534E+04  0.13213511728E+04  0.10100000352E+00 0.  1.
       -3    1    3    3    0  502  0.68240648615E+03  0.94419742048E+02 -0.16920315054E+04  0.18269001958E+04  0.10100000352E+00 0. -1.
</event>
<event>
 5   0  0.7726743E-07  0.3108935E+04  0.7818609E-02  0.8213290E-01
       -1   -1    0    0    0  501  0.00000000000E+00  0.00000000000E+00  0.13942555964E+04  0.13942555964E+04  0.50400001928E-02 0. -1.
        1   -1    0    0  501    0  0.00000000000E+00  0.00000000000E+00 -0.17330889949E+04  0.17330889950E+04  0.50400001928E-02 0.  1.
    10030    2    1    2    0    0  0.00000000000E+00  0.00000000000E+00 -0.33883339858E+03  0.31273445913E+04  0.31089348853E+04 0.  0.
        1    1    3    3  502    0  0.66537674531E+03  0.28039698029E+03  0.12153322691E+04  0.14136411157E+04  0.50400001928E-02 0. -1.
       -1    1    3    3    0  502 -0.66537674531E+03 -0.28039698029E+03 -0.15541656677E+04  0.17137034756E+04  0.50400001928E-02 0.  1.
</event>
<event>
 5   0  0.7413481E-07  0.3089640E+04  0.7818609E-02  0.8218587E-01
       -1   -1    0    0    0  501  0.00000000000E+00  0.00000000000E+00  0.98548685695E+03  0.98548685697E+03  0.50400001928E-02 0.  1.
        1   -1    0    0  501    0  0.00000000000E+00  0.00000000000E+00 -0.24216140033E+04  0.24216140033E+04  0.50400001928E-02 0. -1.
    10030    2    1    2    0    0  0.00000000000E+00  0.00000000000E+00 -0.14361271463E+04  0.34071008603E+04  0.30896399615E+04 0.  0.
        5    1    3    3  502    0  0.11455417204E+04  0.10297751243E+04 -0.58878267245E+03  0.16490572353E+04  0.46999998093E+01 0.  1.
       -5    1    3    3    0  502 -0.11455417204E+04 -0.10297751243E+04 -0.84734447387E+03  0.17580436250E+04  0.46999998093E+01 0. -1.
</event>
<event>
 5   0  0.2078009E-06  0.3097470E+04  0.7818609E-02  0.8216433E-01
        2   -1    0    0  501    0  0.00000000000E+00  0.00000000000E+00  0.25748727443E+04  0.25748727443E+04  0.25500000920E-02 0.  1.
       -2   -1    0    0    0  501  0.00000000000E+00  0.00000000000E+00 -0.93153358638E+03  0.93153358638E+03  0.25500000920E-02 0. -1.
    10030    2    1    2    0    0  0.00000000000E+00  0.00000000000E+00  0.16433391579E+04  0.35064063307E+04  0.30974702207E+04 0.  0.
        3    1    3    3  502    0  0.93250299122E+03 -0.11181051238E+04  0.22388067206E+03  0.14730388529E+04  0.10100000352E+00 0. -1.
       -3    1    3    3    0  502 -0.93250299122E+03  0.11181051238E+04  0.14194584859E+04  0.20333674778E+04  0.10100000352E+00 0.  1.
</event>
<event>
 5   0  0.7413481E-07  0.3098340E+04  0.7818609E-02  0.8216194E-01
        1   -1    0    0  501    0  0.00000000000E+00  0.00000000000E+00  0.15917911423E+04  0.15917911423E+04  0.50400001928E-02 0.  1.
       -1   -1    0    0    0  501  0.00000000000E+00  0.00000000000E+00 -0.15076896662E+04  0.15076896663E+04  0.50400001928E-02 0. -1.
    10030    2    1    2    0    0  0.00000000000E+00  0.00000000000E+00  0.84101476048E+02  0.30994808086E+04  0.30983395915E+04 0.  0.
        5    1    3    3  502    0 -0.11561691992E+03 -0.11262008545E+04  0.10998944056E+04  0.15784439903E+04  0.46999998093E+01 0.  1.
       -5    1    3    3    0  502  0.11561691992E+03  0.11262008545E+04 -0.10157929295E+04  0.15210368183E+04  0.46999998093E+01 0. -1.
</event>
<event>
 5   0  0.2133385E-06  0.3089676E+04  0.7818609E-02  0.8218577E-01
       -2   -1    0    0    0  501  0.00000000000E+00  0.00000000000E+00  0.12012733277E+04  0.12012733277E+04  0.25500000920E-02 0.  1.
        2   -1    0    0  501    0  0.00000000000E+00  0.00000000000E+00 -0.19866624346E+04  0.19866624346E+04  0.25500000920E-02 0. -1.
    10030    2    1    2    0    0  0.00000000000E+00  0.00000000000E+00 -0.78538910693E+03  0.31879357623E+04  0.30896760955E+04 0.  0.
        2    1    3    3  502    0 -0.16067616267E+02 -0.85096040216E+03  0.93754381858E+03  0.12662464950E+04  0.25500000920E-02 0.  1.
       -2    1    3    3    0  502  0.16067616267E+02  0.85096040216E+03 -0.17229329255E+04  0.19216892673E+04  0.25500000920E-02 0. -1.
</event>
<event>
 5   0  0.7561815E-07  0.2998441E+04  0.7818609E-02  0.8244176E-01
        1   -1    0    0  501    0  0.00000000000E+00  0.00000000000E+00  0.13462909592E+04  0.13462909592E+04  0.50400001928E-02 0. -1.
       -1   -1    0    0    0  501  0.00000000000E+00  0.00000000000E+00 -0.16695219406E+04  0.16695219406E+04  0.50400001928E-02 0.  1.
    10030    2    1    2    0    0  0.00000000000E+00  0.00000000000E+00 -0.32323098142E+03  0.30158128998E+04  0.29984411248E+04 0.  0.
        3    1    3    3  502    0  0.82420393147E+03  0.12497538615E+04 -0.80741619183E+02  0.14992384914E+04  0.10100000352E+00 0. -1.
       -3    1    3    3    0  502 -0.82420393147E+03 -0.12497538615E+04 -0.24248936223E+03  0.15165744083E+04  0.10100000352E+00 0.  1.
</event>
<event>
 5   0  0.7726743E-07  0.3081666E+04  0.7818609E-02  0.8220788E-01
       -1   -1    0    0    0  501  0.00000000000E+00  0.00000000000E+00  0.15896196480E+04  0.15896196480E+04  0.50400001928E-02 0.  1.
        1   -1    0    0  501    0  0.00000000000E+00  0.00000000000E+00 -0.14935434920E+04  0.14935434920E+04  0.50400001928E-02 0. -1.
    10030    2    1    2    0    0  0.00000000000E+00  0.00000000000E+00  0.96076155923E+02  0.30831631400E+04  0.30816658353E+04 0.  0.
        1    1    3    3  502    0  0.44005133741E+03  0.50714973205E+01 -0.14293293753E+04  0.14955445037E+04  0.50400001928E-02 0. -1.
       -1    1    3    3    0  502 -0.44005133741E+03 -0.50714973205E+01  0.15254055312E+04  0.15876186363E+04  0.50400001928E-02 0.  1.
</event>
<event>
 5   0  0.7519202E-07  0.3082842E+04  0.7818609E-02  0.8220463E-01
       -1   -1    0    0    0  501  0.00000000000E+00  0.00000000000E+00  0.16146196701E+04  0.16146196702E+04  0.50400001928E-02 0.  1.
        1   -1    0    0  501    0  0.00000000000E+00  0.00000000000E+00 -0.14715404295E+04  0.14715404295E+04  0.50400001928E-02 0. -1.
    10030    2    1    2    0    0  0.00000000000E+00  0.00000000000E+00  0.14307924068E+03  0.30861600996E+04  0.30828416261E+04 0.  0.
        4    1    3    3  502    0 -0.11892644860E+04 -0.63859114837E+03 -0.67345755865E+03  0.15085408078E+04  0.12699999809E+01 0. -1.
       -4    1    3    3    0  502  0.11892644860E+04  0.63859114837E+03  0.81653679932E+03  0.15776192919E+04  0.12699999809E+01 0.  1.
</event>
<event>
 5   0  0.2094135E-06  0.2987623E+04  0.7818609E-02  0.8247274E-01
        2   -1    0    0  501    0  0.00000000000E+00  0.00000000000E+00  0.19911661242E+04  0.19911661242E+04  0.25500000920E-02 0.  1.
       -2   -1    0    0    0  501  0.00000000000E+00  0.00000000000E+00 -0.11206863942E+04  0.11206863942E+04  0.25500000920E-02 0. -1.
    10030    2    1    2    0    0  0.00000000000E+00  0.00000000000E+00  0.87047972996E+03  0.31118525184E+04  0.29876229910E+04 0.  0.
        4    1    3    3  502    0  0.62980585467E+03 -0.67602869250E+03  0.16578456749E+04  0.18979262637E+04  0.12699999809E+01 0.  1.
       -4    1    3    3    0  502 -0.62980585467E+03  0.67602869250E+03 -0.78736594497E+03  0.12139262547E+04  0.12699999809E+01 0. -1.
</event>
<event>
 5   0  0.7561815E-07  0.3086567E+04  0.7818609E-02  0.8219434E-01
        1   -1    0    0  501    0  0.00000000000E+00  0.00000000000E+00  0.26127354318E+04  0.26127354318E+04  0.50400001928E-02 0. -1.
       -1   -1    0    0    0  501  0.00000000000E+00  0.00000000000E+00 -0.91158243948E+03  0.91158243950E+03  0.50400001928E-02 0.  1.
    10030    2    1    2    0    0  0.00000000000E+00  0.00000000000E+00  0.17011529923E+04  0.35243178713E+04  0.30865668557E+04 0.  0.
        3    1    3    3  502    0 -0.14195496676E+04 -0.20129794080E+03  0.19855406580E+03  0.14474342289E+04  0.10100000352E+00 0.  1.
       -3    1    3    3    0  502  0.14195496676E+04  0.20129794080E+03  0.15025989265E+04  0.20768836424E+04  0.10100000352E+00 0. -1.
</event>
<event>
 5   0  0.7413481E-07  0.3105508E+04  0.7818609E-02  0.8214228E-01
       -1   -1    0    0    0  501  0.00000000000E+00  0.00000000000E+00  0.13369494396E+04  0.13369494396E+04  0.50400001928E-02 0.  1.
        1   -1    0    0  501    0  0.00000000000E+00  0.00000000000E+00 -0.18033930507E+04  0.18033930507E+04  0.50400001928E-02 0. -1.
    10030    2    1    2    0    0  0.00000000000E+00  0.00000000000E+00 -0.46644361114E+03  0.31403424903E+04  0.31055082215E+04 0.  0.
        5    1    3    3  502    0  0.46650591542E+03  0.23171878528E+03 -0.17124015996E+04  0.17898778430E+04  0.46999998093E+01 0. -1.
       -5    1    3    3    0  502 -0.46650591542E+03 -0.23171878528E+03  0.12459579885E+04  0.13504646473E+04  0.46999998093E+01 0.  1.
</event>
<event>
 5   0  0.7519202E-07  0.3107069E+04  0.7818609E-02  0.8213801E-01
       -1   -1    0    0    0  501  0.00000000000E+00  0.00000000000E+00  0.12449990783E+04  0.12449990783E+04  0.50400001928E-02 0.  1.
        1   -1    0    0  501    0  0.00000000000E+00  0.00000000000E+00 -0.19385309278E+04  0.19385309278E+04  0.50400001928E-02 0. -1.
    10030    2    1    2    0    0  0.00000000000E+00  0.00000000000E+00 -0.69353184949E+03  0.31835300061E+04  0.31070688556E+04 0.  0.
        4    1    3    3  502    0 -0.90796860666E+03 -0.10923782719E+04 -0.99135016655E+03  0.17321876473E+04  0.12699999809E+01 0.  1.
       -4    1    3    3    0  502  0.90796860666E+03  0.10923782719E+04  0.29781831706E+03  0.14513423588E+04  0.12699999809E+01 0. -1.
</event>
<event>
 5   0  0.2133385E-06  0.2824440E+04  0.7818609E-02  0.8295721E-01
        2   -1    0    0  501    0  0.00000000000E+00  0.00000000000E+00  0.11175610178E+04  0.11175610178E+04  0.25500000920E-02 0. -1.
       -2   -1    0    0    0  501  0.00000000000E+00  0.00000000000E+00 -0.17845692331E+04  0.17845692331E+04  0.25500000920E-02 0.  1.
    10030    2    1    2    0    0  0.00000000000E+00  0.00000000000E+00 -0.66700821525E+03  0.29021302509E+04  0.28244397735E+04 0.  0.
        2    1    3    3  502    0  0.11997477888E+04 -0.14918148527E+03  0.41644553069E+03  0.12787011974E+04  0.25500000920E-02 0. -1.
       -2    1    3    3    0  502 -0.11997477888E+04  0.14918148527E+03 -0.10834537459E+04  0.16234290535E+04  0.25500000920E-02 0.  1.
</event>
<event>
 5   0  0.2094135E-06  0.3265952E+04  0.7818609E-02  0.8171613E-01
       -2   -1    0    0    0  501  0.00000000000E+00  0.00000000000E+00  0.19277517678E+04  0.19277517678E+04  0.25500000920E-02 0. -1.
        2   -1    0    0  501    0  0.00000000000E+00  0.00000000000E+00 -0.13832748449E+04  0.13832748449E+04  0.25500000920E-02 0.  1.
    10030    2    1    2    0    0  0.00000000000E+00  0.00000000000E+00  0.54447692291E+03  0.33110266128E+04  0.32659519456E+04 0.  0.
        4    1    3    3  502    0  0.78414392707E+03  0.10410335069E+04  0.12696750099E+04  0.18195352990E+04  0.12699999809E+01 0. -1.
       -4    1    3    3    0  502 -0.78414392707E+03 -0.10410335069E+04 -0.72519808696E+03  0.14914913138E+04  0.12699999809E+01 0.  1.
</event>
<event>
 5   0  0.2094135E-06  0.3104818E+04  0.7818609E-02  0.8214417E-01
       -2   -1    0    0    0  501  0.00000000000E+00  0.00000000000E+00  0.26895082663E+04  0.26895082663E+04  0.25500000920E-02 0. -1.
        2   -1    0    0  501    0  0.00000000000E+00  0.00000000000E+00 -0.89606484523E+03  0.89606484523E+03  0.25500000920E-02 0.  1.
    10030    2    1    2    0    0  0.00000000000E+00  0.00000000000E+00  0.17934434211E+04  0.35855731115E+04  0.31048180677E+04 0.  0.
        4    1    3    3  502    0 -0.40044776659E+03 -0.15443750672E+03  0.26196288431E+04  0.26545557530E+04  0.12699999809E+01 0. -1.
       -4    1    3    3    0  502  0.40044776659E+03  0.15443750672E+03 -0.82618542208E+03  0.93101735849E+03  0.12699999809E+01 0.  1.
</event>
<event>
 5   0  0.7519202E-07  0.3085788E+04  0.7818609E-02  0.8219649E-01
        1   -1    0    0  501    0  0.00000000000E+00  0.00000000000E+00  0.15365551003E+04  0.15365551003E+04  0.50400001928E-02 0.  1.
       -1   -1    0    0    0  501  0.00000000000E+00  0.00000000000E+00 -0.15492591094E+04  0.15492591095E+04  0.50400001928E-02 0. -1.
    10030    2    1    2    0    0  0.00000000000E+00  0.00000000000E+00 -0.12704009194E+02  0.30858142097E+04  0.30857880590E+04 0.  0.
        4    1    3    3  502    0  0.24486025943E+03 -0.15207989310E+04 -0.94298404143E+02  0.15432691720E+04  0.12699999809E+01 0. -1.
       -4    1    3    3    0  502 -0.24486025943E+03  0.15207989310E+04  0.81594394949E+02  0.15425450377E+04  0.12699999809E+01 0.  1.
</event>
<event>
 5   0  0.2133385E-06  0.3082383E+04  0.7818609E-02  0.8220589E-01
        2   -1    0    0  501    0  0.00000000000E+00  0.00000000000E+00  0.17961684026E+04  0.17961684026E+04  0.25500000920E-02 0. -1.
       -2   -1    0    0    0  501  0.00000000000E+00  0.00000000000E+00 -0.13224103237E+04  0.13224103237E+04  0.25500000920E-02 0.  1.
    10030    2    1    2    0    0  0.00000000000E+00  0.00000000000E+00  0.47375807894E+03  0.31185787263E+04  0.30823832589E+04 0.  0.
        2    1    3    3  502    0  0.70127014301E+03 -0.10318453354E+04  0.11523731436E+04  0.16983664127E+04  0.25500000920E-02 0.  1.
       -2    1    3    3    0  502 -0.70127014301E+03  0.10318453354E+04 -0.67861506468E+03  0.14202123136E+04  0.25500000920E-02 0. -1.
</event>
<event>
 5   0  0.2094135E-06  0.3115207E+04  0.7818609E-02  0.8211577E-01
       -2   -1    0    0    0  501  0.00000000000E+00  0.00000000000E+00  0.26781710084E+04  0.26781710084E+04  0.25500000920E-02 0. -1.
        2   -1    0    0  501    0  0.00000000000E+00  0.00000000000E+00 -0.90588992893E+03  0.90588992893E+03  0.25500000920E-02 0.  1.
    10030    2    1    2    0    0  0.00000000000E+00  0.00000000000E+00  0.17722810795E+04  0.35840609373E+04  0.31152066670E+04 0.  0.
        4    1    3    3  502    0 -0.26989260190E+03 -0.82786589944E+03  0.23719956555E+04  0.25267704618E+04  0.12699999809E+01 0. -1.
       -4    1    3    3    0  502  0.26989260190E+03  0.82786589944E+03 -0.59971457604E+03  0.10572904755E+04  0.12699999809E+01 0.  1.
</event>
<event>
 5   0  0.2226334E-06  0.3106031E+04  0.7818609E-02  0.8214085E-01
       -2   -1    0    0    0  501  0.00000000000E+00  0.00000000000E+00  0.17799285655E+04  0.17799285655E+04  0.25500000920E-02 0.  1.
        2   -1    0    0  501    0  0.00000000000E+00  0.00000000000E+00 -0.13550300007E+04  0.13550300007E+04  0.25500000920E-02 0. -1.
    10030    2    1    2    0    0  0.00000000000E+00  0.00000000000E+00  0.42489856490E+03  0.31349585662E+04  0.31060306536E+04 0.  0.
        5    1    3    3  502    0 -0.35209918477E+02 -0.11157521832E+03 -0.13505682686E+04  0.13556347243E+04  0.46999998093E+01 0. -1.
       -5    1    3    3    0  502  0.35209918477E+02  0.11157521832E+03  0.17754668334E+04  0.17793238419E+04  0.46999998093E+01 0.  1.
</event>
<event>
 5   0  0.6979625E-07  0.3091149E+04  0.7818609E-02  0.8218171E-01
       -4   -1    0    0    0  501  0.00000000000E+00  0.00000000000E+00  0.14567260175E+04  0.14567265711E+04  0.12699999809E+01 0. -1.
        4   -1    0    0  501    0  0.00000000000E+00  0.00000000000E+00 -0.16398406540E+04  0.16398411457E+04  0.12699999809E+01 0.  1.
    10030    2    1    2    0    0  0.00000000000E+00  0.00000000000E+00 -0.18311463644E+03  0.30965677169E+04  0.30911487598E+04 0.  0.
        1    1    3    3  502    0  0.35158608654E+03  0.38092698013E+03 -0.15501600003E+04  0.16345379062E+04  0.50400001928E-02 0.  1.
       -1    1    3    3    0  502 -0.35158608654E+03 -0.38092698013E+03  0.13670453638E+04  0.14620298106E+04  0.50400001928E-02 0. -1.
</event>
<event>
 5   0  0.2078009E-06  0.3112659E+04  0.7818609E-02  0.8212272E-01
        2   -1    0    0  501    0  0.00000000000E+00  0.00000000000E+00  0.25908463808E+04  0.25908463808E+04  0.25500000920E-02 0. -1.
       -2   -1    0    0    0  501  0.00000000000E+00  0.00000000000E+00 -0.93489218313E+03  0.93489218314E+03  0.25500000920E-02 0.  1.
    10030    2    1    2    0    0  0.00000000000E+00  0.00000000000E+00  0.16559541977E+04  0.35257385640E+04  0.31126593319E+04 0.  0.
        3    1    3    3  502    0 -0.12407964000E+04 -0.20896043288E+03 -0.20950178811E+03  0.12755905213E+04  0.10100000352E+00 0.  1.
       -3    1    3    3    0  502  0.12407964000E+04  0.20896043288E+03  0.18654559858E+04  0.22501480427E+04  0.10100000352E+00 0. -1.
</event>
<event>
 5   0  0.7413481E-07  0.3110123E+04  0.7818609E-02  0.8212965E-01
       -1   -1    0    0    0  501  0.00000000000E+00  0.00000000000E+00  0.28533339099E+04  0.28533339099E+04  0.50400001928E-02 0. -1.
        1   -1    0    0  501    0  0.00000000000E+00  0.00000000000E+00 -0.84750553119E+03  0.84750553121E+03  0.50400001928E-02 0.  1.
    10030    2    1    2    0    0  0.00000000000E+00  0.00000000000E+00  0.20058283787E+04  0.37008394411E+04  0.31101230014E+04 0.  0.
        5    1    3    3  502    0  0.79483621674E+02  0.11445438011E+04 -0.24617366761E+03  0.11734230794E+04  0.46999998093E+01 0.  1.
       -5    1    3    3    0  502 -0.79483621674E+02 -0.11445438011E+04  0.22520020463E+04  0.25274163617E+04  0.46999998093E+01 0. -1.
</event>
<event>
 5   0  0.7656332E-07  0.3059919E+04  0.7818609E-02  0.8226825E-01
       -1   -1    0    0    0  501  0.00000000000E+00  0.00000000000E+00  0.11965406437E+04  0.11965406437E+04  0.50400001928E-02 0. -1.
        1   -1    0    0  501    0  0.00000000000E+00  0.00000000000E+00 -0.19562867480E+04  0.19562867480E+04  0.50400001928E-02 0.  1.
    10030    2    1    2    0    0  0.00000000000E+00  0.00000000000E+00 -0.75974610431E+03  0.31528273918E+04  0.30599193485E+04 0.  0.
        2    1    3    3  502    0 -0.72847738538E+03  0.88357956086E+03  0.66551858087E+03  0.13245025945E+04  0.25500000920E-02 0. -1.
       -2    1    3    3    0  502  0.72847738538E+03 -0.88357956086E+03 -0.14252646852E+04  0.18283247972E+04  0.25500000920E-02 0.  1.
</event>
<event>
 5   0  0.2067926E-06  0.3113258E+04  0.7818609E-02  0.8212109E-01
       -2   -1    0    0    0  501  0.00000000000E+00  0.00000000000E+00  0.10627821810E+04  0.10627821810E+04  0.25500000920E-02 0.  1.
        2   -1    0    0  501    0  0.00000000000E+00  0.00000000000E+00 -0.22799541093E+04  0.22799541093E+04  0.25500000920E-02 0. -1.
    10030    2    1    2    0    0  0.00000000000E+00  0.00000000000E+00 -0.12171719283E+04  0.33427362903E+04  0.31132584865E+04 0.  0.
        1    1    3    3  502    0  0.15085112121E+04 -0.23538912482E+03 -0.93440070689E+03  0.17900052509E+04  0.50400001928E-02 0. -1.
       -1    1    3    3    0  502 -0.15085112121E+04  0.23538912482E+03 -0.28277122141E+03  0.15527310394E+04  0.50400001928E-02 0.  1.
</event>
<event>
 5   0  0.7519202E-07  0.3070537E+04  0.7818609E-02  0.8223871E-01
        1   -1    0    0  501    0  0.00000000000E+00  0.00000000000E+00  0.19115098575E+04  0.19115098575E+04  0.50400001928E-02 0.  1.
       -1   -1    0    0    0  501  0.00000000000E+00  0.00000000000E+00 -0.12330822462E+04  0.12330822462E+04  0.50400001928E-02 0. -1.
    10030    2    1    2    0    0  0.00000000000E+00  0.00000000000E+00  0.67842761127E+03  0.31445921037E+04  0.30705366754E+04 0.  0.
        4    1    3    3  502    0 -0.10381703117E+04 -0.47357410899E+02  0.14965156850E+04  0.18219772581E+04  0.12699999809E+01 0.  1.
       -4    1    3    3    0  502  0.10381703117E+04  0.47357410899E+02 -0.81808807377E+03  0.13226148456E+04  0.12699999809E+01 0. -1.
</event>
<event>
 5   0  0.2078009E-06  0.3101405E+04  0.7818609E-02  0.8215353E-01
       -2   -1    0    0    0  501  0.00000000000E+00  0.00000000000E+00  0.22262737257E+04  0.22262737257E+04  0.25500000920E-02 0. -1.
        2   -1    0    0  501    0  0.00000000000E+00  0.00000000000E+00 -0.10801356898E+04  0.10801356898E+04  0.25500000920E-02 0.  1.
    10030    2    1    2    0    0  0.00000000000E+00  0.00000000000E+00  0.11461380359E+04  0.33064094155E+04  0.31014046536E+04 0.  0.
        3    1    3    3  502    0 -0.15261908262E+04 -0.26273247881E+03  0.65829643007E+03  0.16827480481E+04  0.10100000352E+00 0. -1.
       -3    1    3    3    0  502  0.15261908262E+04  0.26273247881E+03  0.48784160588E+03  0.16236613674E+04  0.10100000352E+00 0.  1.
</event>
<event>
 5   0  0.7413481E-07  0.3188008E+04  0.7818609E-02  0.8191991E-01
        1   -1    0    0  501    0  0.00000000000E+00  0.00000000000E+00  0.19884265878E+04  0.19884265878E+04  0.50400001928E-02 0.  1.
       -1   -1    0    0    0  501  0.00000000000E+00  0.00000000000E+00 -0.12778191352E+04  0.12778191352E+04  0.50400001928E-02 0. -1.
    10030    2    1    2    0    0  0.00000000000E+00  0.00000000000E+00  0.71060745258E+03  0.32662457230E+04  0.31880084961E+04 0.  0.
        5    1    3    3  502    0  0.13986611498E+04 -0.57690983739E+03  0.86936356466E+03  0.17449621973E+04  0.46999998093E+01 0.  1.
       -5    1    3    3    0  502 -0.13986611498E+04  0.57690983739E+03 -0.15875611207E+03  0.15212835257E+04  0.46999998093E+01 0. -1.
</event>
<event>
 5   0  0.7561815E-07  0.2730460E+04  0.7818609E-02  0.8325189E-01
        1   -1    0    0  501    0  0.00000000000E+00  0.00000000000E+00  0.20081164618E+04  0.20081164618E+04  0.50400001928E-02 0.  1.
       -1   -1    0    0    0  501  0.00000000000E+00  0.00000000000E+00 -0.92815978326E+03  0.92815978327E+03  0.50400001928E-02 0. -1.
    10030    2    1    2    0    0  0.00000000000E+00  0.00000000000E+00  0.10799566785E+04  0.29362762450E+04  0.27304599905E+04 0.  0.
        3    1    3    3  502    0 -0.12680929357E+04 -0.31372722120E+03  0.96657745553E+03  0.16250404458E+04  0.10100000352E+00 0.  1.
       -3    1    3    3    0  502  0.12680929357E+04  0.31372722120E+03  0.11337922297E+03  0.13112357992E+04  0.10100000352E+00 0. -1.
</event>
<event>
 5   0  0.6979625E-07  0.2820307E+04  0.7818609E-02  0.8296992E-01
       -3   -1    0    0    0  501  0.00000000000E+00  0.00000000000E+00  0.10213939027E+04  0.10213939077E+04  0.10100000352E+00 0.  1.
        3   -1    0    0  501    0  0.00000000000E+00  0.00000000000E+00 -0.19468809282E+04  0.19468809308E+04  0.10100000352E+00 0. -1.
    10030    2    1    2    0    0  0.00000000000E+00  0.00000000000E+00 -0.92548702547E+03  0.29682748386E+04  0.28203065938E+04 0.  0.
        1    1    3    3  502    0  0.11692246042E+04 -0.33348563821E+03  0.28903907347E+03  0.12497369452E+04  0.50400001928E-02 0.  1.
       -1    1    3    3    0  502 -0.11692246042E+04  0.33348563821E+03 -0.12145260989E+04  0.17185378934E+04  0.50400001928E-02 0. -1.
</event>
<event>
 5   0  0.2133385E-06  0.3178531E+04  0.7818609E-02  0.8194510E-01
        2   -1    0    0  501    0  0.00000000000E+00  0.00000000000E+00  0.12889660456E+04  0.12889660456E+04  0.25500000920E-02 0.  1.
       -2   -1    0    0    0  501  0.00000000000E+00  0.00000000000E+00 -0.19595281408E+04  0.19595281408E+04  0.25500000920E-02 0. -1.
    10030    2    1    2    0    0  0.00000000000E+00  0.00000000000E+00 -0.67056209524E+03  0.32484941864E+04  0.31785312576E+04 0.  0.
        2    1    3    3  502    0 -0.96292875489E+03 -0.12293452811E+04 -0.63715279965E+03  0.16865601967E+04  0.25500000920E-02 0. -1.
       -2    1    3    3    0  502  0.96292875489E+03  0.12293452811E+04 -0.33409295588E+02  0.15619339897E+04  0.25500000920E-02 0.  1.
</event>
<event>
 5   0  0.2226334E-06  0.3107951E+04  0.7818609E-02  0.8213559E-01
       -2   -1    0    0    0  501  0.00000000000E+00  0.00000000000E+00  0.93488942539E+03  0.93488942539E+03  0.25500000920E-02 0.  1.
        2   -1    0    0  501    0  0.00000000000E+00  0.00000000000E+00 -0.25830213144E+04  0.25830213144E+04  0.25500000920E-02 0. -1.
    10030    2    1    2    0    0  0.00000000000E+00  0.00000000000E+00 -0.16481318890E+04  0.35179107398E+04  0.31079506511E+04 0.  0.
        5    1    3    3  502    0 -0.57174337982E+03  0.13637529203E+04 -0.13646681593E+04  0.20122260795E+04  0.46999998093E+01 0. -1.
       -5    1    3    3    0  502  0.57174337982E+03 -0.13637529203E+04 -0.28346372970E+03  0.15056846603E+04  0.46999998093E+01 0.  1.
</event>
<event>
 5   0  0.7519202E-07  0.2939919E+04  0.7818609E-02  0.8261099E-01
        1   -1    0    0  501    0  0.00000000000E+00  0.00000000000E+00  0.19435714578E+04  0.19435714578E+04  0.50400001928E-02 0.  1.
       -1   -1    0    0    0  501  0.00000000000E+00  0.00000000000E+00 -0.11117576535E+04  0.11117576535E+04  0.50400001928E-02 0. -1.
    10030    2    1    2    0    0  0.00000000000E+00  0.00000000000E+00  0.83181380431E+03  0.30553291114E+04  0.29399186679E+04 0.  0.
        4    1    3    3  502    0 -0.94797663621E+03  0.92917803908E+03  0.10721602917E+04  0.17063296384E+04  0.12699999809E+01 0. -1.
       -4    1    3    3    0  502  0.94797663621E+03 -0.92917803908E+03 -0.24034648735E+03  0.13489994729E+04  0.12699999809E+01 0.  1.
</event>
<event>
 5   0  0.2094135E-06  0.3102906E+04  0.7818609E-02  0.8214941E-01
       -2   -1    0    0    0  501  0.00000000000E+00  0.00000000000E+00  0.12847429248E+04  0.12847429248E+04  0.25500000920E-02 0. -1.
        2   -1    0    0  501    0  0.00000000000E+00  0.00000000000E+00 -0.18735320694E+04  0.18735320694E+04  0.25500000920E-02 0.  1.
    10030    2    1    2    0    0  0.00000000000E+00  0.00000000000E+00 -0.58878914458E+03  0.31582749942E+04  0.31029064250E+04 0.  0.
        4    1    3    3  502    0 -0.24608790935E+03 -0.15289913104E+04 -0.19982939883E+03  0.15615079532E+04  0.12699999809E+01 0. -1.
       -4    1    3    3    0  502  0.24608790935E+03  0.15289913104E+04 -0.38895974575E+03  0.15967670410E+04  0.12699999809E+01 0.  1.
</event>
<event>
 5   0  0.7413481E-07  0.3070685E+04  0.7818609E-02  0.8223829E-01
        1   -1    0    0  501    0  0.00000000000E+00  0.00000000000E+00  0.25801661179E+04  0.25801661179E+04  0.50400001928E-02 0. -1.
       -1   -1    0    0    0  501  0.00000000000E+00  0.00000000000E+00 -0.91361428499E+03  0.91361428500E+03  0.50400001928E-02 0.  1.
    10030    2    1    2    0    0  0.00000000000E+00  0.00000000000E+00  0.16665518329E+04  0.34937804029E+04  0.30706850200E+04 0.  0.
        5    1    3    3  502    0  0.39495044721E+03 -0.16235123553E+02  0.25212697602E+04  0.25520722421E+04  0.46999998093E+01 0. -1.
       -5    1    3    3    0  502 -0.39495044721E+03  0.16235123553E+02 -0.85471792729E+03  0.94170816085E+03  0.46999998093E+01 0.  1.
</event>
<event>
 5   0  0.2133385E-06  0.3098839E+04  0.7818609E-02  0.8216057E-01
       -2   -1    0    0    0  501  0.00000000000E+00  0.00000000000E+00  0.28625468893E+04  0.28625468893E+04  0.25500000920E-02 0.  1.
        2   -1    0    0  501    0  0.00000000000E+00  0.00000000000E+00 -0.83865876140E+03  0.83865876141E+03  0.25500000920E-02 0. -1.
    10030    2    1    2    0    0  0.00000000000E+00  0.00000000000E+00  0.20238881279E+04  0.37012056507E+04  0.30988385106E+04 0.  0.
        2    1    3    3  502    0 -0.34109102892E+03 -0.10876925960E+04  0.22653550422E+04  0.25359912738E+04  0.25500000920E-02 0.  1.
       -2    1    3    3    0  502  0.34109102892E+03  0.10876925960E+04 -0.24146691429E+03  0.11652143769E+04  0.25500000920E-02 0. -1.
</event>
<event>
 5   0  0.2078009E-06  0.3096580E+04  0.7818609E-02  0.8216677E-01
        2   -1    0    0  501    0  0.00000000000E+00  0.00000000000E+00  0.20555394331E+04  0.20555394331E+04  0.25500000920E-02 0.  1.
       -2   -1    0    0    0  501  0.00000000000E+00  0.00000000000E+00 -0.11662151907E+04  0.11662151907E+04  0.25500000920E-02 0. -1.
    10030    2    1    2    0    0  0.00000000000E+00  0.00000000000E+00  0.88932424241E+03  0.32217546238E+04  0.30965796046E+04 0.  0.
        3    1    3    3  502    0  0.59700100209E+03 -0.13767594549E+04  0.48037525073E+02  0.15013941545E+04  0.10100000352E+00 0. -1.
       -3    1    3    3    0  502 -0.59700100209E+03  0.13767594549E+04  0.84128671734E+03  0.17203604693E+04  0.10100000352E+00 0.  1.
</event>
<event>
 5   0  0.7656332E-07  0.3089244E+04  0.7818609E-02  0.8218696E-01
       -1   -1    0    0    0  501  0.00000000000E+00  0.00000000000E+00  0.12783087198E+04  0.12783087198E+04  0.50400001928E-02 0. -1.
        1   -1    0    0  501    0  0.00000000000E+00  0.00000000000E+00 -0.18664168281E+04  0.18664168281E+04  0.50400001928E-02 0.  1.
    10030    2    1    2    0    0  0.00000000000E+00  0.00000000000E+00 -0.58810810834E+03  0.31447255479E+04  0.30892438596E+04 0.  0.
        2    1    3    3  502    0  0.14045621978E+04 -0.63548343511E+03 -0.39181391934E+03  0.15906452499E+04  0.25500000920E-02 0. -1.
       -2    1    3    3    0  502 -0.14045621978E+04  0.63548343511E+03 -0.19629418900E+03  0.15540802979E+04  0.25500000920E-02 0.  1.
</event>
<event>
 5   0  0.7413481E-07  0.3251615E+04  0.7818609E-02  0.8175317E-01
       -1   -1    0    0    0  501  0.00000000000E+00  0.00000000000E+00  0.18955163623E+04  0.18955163623E+04  0.50400001928E-02 0. -1.
        1   -1    0    0  501    0  0.00000000000E+00  0.00000000000E+00 -0.13944745970E+04  0.13944745970E+04  0.50400001928E-02 0.  1.
    10030    2    1    2    0    0  0.00000000000E+00  0.00000000000E+00  0.50104176522E+03  0.32899909593E+04  0.32516146238E+04 0.  0.
        5    1    3    3  502    0 -0.40924465690E+03 -0.79862118964E+03  0.16222315686E+04  0.18538970700E+04  0.46999998093E+01 0. -1.
       -5    1    3    3    0  502  0.40924465690E+03  0.79862118964E+03 -0.11211898034E+04  0.14360938894E+04  0.46999998093E+01 0.  1.
</event>
<event>
 5   0  0.2078009E-06  0.3123440E+04  0.7818609E-02  0.8209334E-01
       -2   -1    0    0    0  501  0.00000000000E+00  0.00000000000E+00  0.24966543175E+04  0.24966543175E+04  0.25500000920E-02 0.  1.
        2   -1    0    0  501    0  0.00000000000E+00  0.00000000000E+00 -0.97689521722E+03  0.97689521722E+03  0.25500000920E-02 0. -1.
    10030    2    1    2    0    0  0.00000000000E+00  0.00000000000E+00  0.15197591003E+04  0.34735495348E+04  0.31234401943E+04 0.  0.
        3    1    3    3  502    0 -0.98379785979E+03 -0.47079034666E+03  0.20029703394E+04  0.22806560394E+04  0.10100000352E+00 0.  1.
       -3    1    3    3    0  502  0.98379785979E+03  0.47079034666E+03 -0.48321123909E+03  0.11928934953E+04  0.10100000352E+00 0. -1.
</event>
<event>
 5   0  0.2078009E-06  0.3107496E+04  0.7818609E-02  0.8213684E-01
        2   -1    0    0  501    0  0.00000000000E+00  0.00000000000E+00  0.16342485647E+04  0.16342485647E+04  0.25500000920E-02 0.  1.
       -2   -1    0    0    0  501  0.00000000000E+00  0.00000000000E+00 -0.14772127675E+04  0.14772127675E+04  0.25500000920E-02 0. -1.
    10030    2    1    2    0    0  0.00000000000E+00  0.00000000000E+00  0.15703579723E+03  0.31114613322E+04  0.31074959984E+04 0.  0.
        3    1    3    3  502    0  0.14301706111E+04  0.55321544935E+03  0.32923215359E+03  0.15683842423E+04  0.10100000352E+00 0.  1.
       -3    1    3    3    0  502 -0.14301706111E+04 -0.55321544935E+03 -0.17219635636E+03  0.15430770900E+04  0.10100000352E+00 0. -1.
</event>
<event>
 5   0  0.2133385E-06  0.3112203E+04  0.7818609E-02  0.8212397E-01
       -2   -1    0    0    0  501  0.00000000000E+00  0.00000000000E+00  0.99550501967E+03  0.99550501968E+03  0.25500000920E-02 0. -1.
        2   -1    0    0  501    0  0.00000000000E+00  0.00000000000E+00 -0.24323852118E+04  0.24323852118E+04  0.25500000920E-02 0.  1.
    10030    2    1    2    0    0  0.00000000000E+00  0.00000000000E+00 -0.14368801921E+04  0.34278902315E+04  0.31122028778E+04 0.  0.
        2    1    3    3  502    0 -0.95685516161E+03  0.96588019417E+03 -0.15521585060E+04  0.20634176449E+04  0.25500000920E-02 0.  1.
       -2    1    3    3    0  502  0.95685516161E+03 -0.96588019417E+03  0.11527831383E+03  0.13644725865E+04  0.25500000920E-02 0. -1.
</event>
<event>
 5   0  0.7726743E-07  0.3091034E+04  0.7818609E-02  0.8218203E-01
       -1   -1    0    0    0  501  0.00000000000E+00  0.00000000000E+00  0.12315265438E+04  0.12315265438E+04  0.50400001928E-02 0.  1.
        1   -1    0    0  501    0  0.00000000000E+00  0.00000000000E+00 -0.19395621862E+04  0.19395621863E+04  0.50400001928E-02 0. -1.
    10030    2    1    2    0    0  0.00000000000E+00  0.00000000000E+00 -0.70803564241E+03  0.31710887301E+04  0.30910336885E+04 0.  0.
        1    1    3    3  502    0 -0.15270060422E+04 -0.72846178866E+02 -0.12104993977E+03  0.15335276674E+04  0.50400001928E-02 0. -1.
       -1    1    3    3    0  502  0.15270060422E+04  0.72846178866E+02 -0.58698570265E+03  0.16375610627E+04  0.50400001928E-02 0.  1.
</event>
<event>
 5   0  0.2094135E-06  0.3109276E+04  0.7818609E-02  0.8213197E-01
        2   -1    0    0  501    0  0.00000000000E+00  0.00000000000E+00  0.90013331796E+03  0.90013331796E+03  0.25500000920E-02 0.  1.
       -2   -1    0    0    0  501  0.00000000000E+00  0.00000000000E+00 -0.26850454642E+04  0.26850454642E+04  0.25500000920E-02 0. -1.
    10030    2    1    2    0    0  0.00000000000E+00  0.00000000000E+00 -0.17849121462E+04  0.35851787822E+04  0.31092757244E+04 0.  0.
        4    1    3    3  502    0  0.49379413152E+03 -0.55179565346E+03 -0.24686445490E+04  0.25773084041E+04  0.12699999809E+01 0. -1.
       -4    1    3    3    0  502 -0.49379413152E+03  0.55179565346E+03  0.68373240277E+03  0.10078703781E+04  0.12699999809E+01 0.  1.
</event>
<event>
 5   0  0.2078009E-06  0.3053229E+04  0.7818609E-02  0.8228692E-01
       -2   -1    0    0    0  501  0.00000000000E+00  0.00000000000E+00  0.19002578750E+04  0.19002578750E+04  0.25500000920E-02 0. -1.
        2   -1    0    0  501    0  0.00000000000E+00  0.00000000000E+00 -0.12264399205E+04  0.12264399205E+04  0.25500000920E-02 0.  1.
    10030    2    1    2    0    0  0.00000000000E+00  0.00000000000E+00  0.67381795452E+03  0.31266977955E+04  0.30532291870E+04 0.  0.
        3    1    3    3  502    0  0.87451097788E+03  0.89513207250E+03  0.12323176093E+04  0.17563136332E+04  0.10100000352E+00 0. -1.
       -3    1    3    3    0  502 -0.87451097788E+03 -0.89513207250E+03 -0.55849965480E+03  0.13703841623E+04  0.10100000352E+00 0.  1.
</event>
<event>
 5   0  0.7656332E-07  0.3081812E+04  0.7818609E-02  0.8220747E-01
        1   -1    0    0  501    0  0.00000000000E+00  0.00000000000E+00  0.20949595639E+04  0.20949595639E+04  0.50400001928E-02 0.  1.
       -1   -1    0    0    0  501  0.00000000000E+00  0.00000000000E+00 -0.11333831802E+04  0.11333831802E+04  0.50400001928E-02 0. -1.
    10030    2    1    2    0    0  0.00000000000E+00  0.00000000000E+00  0.96157638370E+03  0.32283427442E+04  0.30818124103E+04 0.  0.
        2    1    3    3  502    0  0.10666051652E+04 -0.10906200288E+04  0.70859845176E+03  0.16820256810E+04  0.25500000920E-02 0.  1.
       -2    1    3    3    0  502 -0.10666051652E+04  0.10906200288E+04  0.25297793194E+03  0.15463170632E+04  0.25500000920E-02 0. -1.
</event>
<event>
 5   0  0.7726743E-07  0.3105838E+04  0.7818609E-02  0.8214138E-01
        1   -1    0    0  501    0  0.00000000000E+00  0.00000000000E+00  0.22546464113E+04  0.22546464113E+04  0.50400001928E-02 0. -1.
       -1   -1    0    0    0  501  0.00000000000E+00  0.00000000000E+00 -0.10695942263E+04  0.10695942263E+04  0.50400001928E-02 0.  1.
    10030    2    1    2    0    0  0.00000000000E+00  0.00000000000E+00  0.11850521850E+04  0.33242406377E+04  0.31058375901E+04 0.  0.
        1    1    3    3  502    0  0.12007394530E+04 -0.90126169746E+03  0.16774393603E+03  0.15106905406E+04  0.50400001928E-02 0.  1.
       -1    1    3    3    0  502 -0.12007394530E+04  0.90126169746E+03  0.10173082490E+04  0.18135500971E+04  0.50400001928E-02 0. -1.
</event>
<event>
 5   0  0.2067926E-06  0.3069426E+04  0.7818609E-02  0.8224179E-01
        2   -1    0    0  501    0  0.00000000000E+00  0.00000000000E+00  0.20750466823E+04  0.20750466823E+04  0.25500000920E-02 0. -1.
       -2   -1    0    0    0  501  0.00000000000E+00  0.00000000000E+00 -0.11350798748E+04  0.11350798748E+04  0.25500000920E-02 0.  1.
    10030    2    1    2    0    0  0.00000000000E+00  0.00000000000E+00  0.93996680756E+03  0.32101265571E+04  0.30694258280E+04 0.  0.
        1    1    3    3  502    0 -0.26434501976E+03 -0.12566982366E+04 -0.40887958334E+03  0.13477207652E+04  0.50400001928E-02 0.  1.
       -1    1    3    3    0  502  0.26434501976E+03  0.12566982366E+04  0.13488463909E+04  0.18624057919E+04  0.50400001928E-02 0. -1.
</event>
<event>
 5   0  0.7413481E-07  0.3058967E+04  0.7818609E-02  0.8227090E-01
        1   -1    0    0  501    0  0.00000000000E+00  0.00000000000E+00  0.16759589529E+04  0.16759589529E+04  0.50400001928E-02 0. -1.
       -1   -1    0    0    0  501  0.00000000000E+00  0.00000000000E+00 -0.13958095463E+04  0.13958095463E+04  0.50400001928E-02 0.  1.
    10030    2    1    2    0    0  0.00000000000E+00  0.00000000000E+00  0.28014940655E+03  0.30717684992E+04  0.30589668227E+04 0.  0.
        5    1    3    3  502    0  0.94560151209E+02 -0.14799189119E+04 -0.23591956915E+03  0.15015930677E+04  0.46999998093E+01 0.  1.
       -5    1    3    3    0  502 -0.94560151209E+02  0.14799189119E+04  0.51606897570E+03  0.15701754315E+04  0.46999998093E+01 0. -1.
</event>
<event>
 5   0  0.7726743E-07  0.3104706E+04  0.7818609E-02  0.8214448E-01
        1   -1    0    0  501    0  0.00000000000E+00  0.00000000000E+00  0.14707332702E+04  0.14707332702E+04  0.50400001928E-02 0.  1.
       -1   -1    0    0    0  501  0.00000000000E+00  0.00000000000E+00 -0.16385018776E+04  0.16385018777E+04  0.50400001928E-02 0. -1.
    10030    2    1    2    0    0  0.00000000000E+00  0.00000000000E+00 -0.16776860742E+03  0.31092351479E+04  0.31047056059E+04 0.  0.
        1    1    3    3  502    0  0.18387474167E+03  0.75910377175E+03 -0.14273894255E+04  0.16271106382E+04  0.50400001928E-02 0. -1.
       -1    1    3    3    0  502 -0.18387474167E+03 -0.75910377175E+03  0.12596208181E+04  0.14821245097E+04  0.50400001928E-02 0.  1.
</event>
<event>
 5   0  0.2078009E-06  0.3216998E+04  0.7818609E-02  0.8184342E-01
       -2   -1    0    0    0  501  0.00000000000E+00  0.00000000000E+00  0.11579665547E+04  0.11579665548E+04  0.25500000920E-02 0.  1.
        2   -1    0    0  501    0  0.00000000000E+00  0.00000000000E+00 -0.22343213340E+04  0.22343213340E+04  0.25500000920E-02 0. -1.
    10030    2    1    2    0    0  0.00000000000E+00  0.00000000000E+00 -0.10763547792E+04  0.33922878887E+04  0.32169982140E+04 0.  0.
        3    1    3    3  502    0  0.15436876332E+04  0.36172996204E+03 -0.82395992920E+03  0.17868212136E+04  0.10100000352E+00 0.  1.
       -3    1    3    3    0  502 -0.15436876332E+04 -0.36172996204E+03 -0.25239485000E+03  0.16054666751E+04  0.10100000352E+00 0. -1.
</event>
<event>
 5   0  0.7726743E-07  0.3088527E+04  0.7818609E-02  0.8218894E-01
       -1   -1    0    0    0  501  0.00000000000E+00  0.00000000000E+00  0.16412106206E+04  0.16412106206E+04  0.50400001928E-02 0.  1.
        1   -1    0    0  501    0  0.00000000000E+00  0.00000000000E+00 -0.14530430350E+04  0.14530430350E+04  0.50400001928E-02 0. -1.
    10030    2    1    2    0    0  0.00000000000E+00  0.00000000000E+00  0.18816758562E+03  0.30942536555E+04  0.30885269376E+04 0.  0.
        1    1    3    3  502    0  0.16469031101E+03 -0.36405451160E+03  0.15885235579E+04  0.16380066178E+04  0.50400001928E-02 0.  1.
       -1    1    3    3    0  502 -0.16469031101E+03  0.36405451160E+03 -0.14003559723E+04  0.14562470378E+04  0.50400001928E-02 0. -1.
</event>
<event>
 5   0  0.7726743E-07  0.3095383E+04  0.7818609E-02  0.8217006E-01
        1   -1    0    0  501    0  0.00000000000E+00  0.00000000000E+00  0.17427995182E+04  0.17427995182E+04  0.50400001928E-02 0.  1.
       -1   -1    0    0    0  501  0.00000000000E+00  0.00000000000E+00 -0.13744260617E+04  0.13744260617E+04  0.50400001928E-02 0. -1.
    10030    2    1    2    0    0  0.00000000000E+00  0.00000000000E+00  0.36837345649E+03  0.31172255799E+04  0.30953830639E+04 0.  0.
        1    1    3    3  502    0 -0.14975180716E+04  0.12594115103E+03 -0.18846163338E+03  0.15145756289E+04  0.50400001928E-02 0. -1.
       -1    1    3    3    0  502  0.14975180716E+04 -0.12594115103E+03  0.55683508987E+03  0.16026499510E+04  0.50400001928E-02 0.  1.
</event>
<event>
 5   0  0.7656332E-07  0.3090227E+04  0.7818609E-02  0.8218425E-01
       -1   -1    0    0    0  501  0.00000000000E+00  0.00000000000E+00  0.14320410625E+04  0.14320410625E+04  0.50400001928E-02 0. -1.
        1   -1    0    0  501    0  0.00000000000E+00  0.00000000000E+00 -0.16671142819E+04  0.16671142819E+04  0.50400001928E-02 0.  1.
    10030    2    1    2    0    0  0.00000000000E+00  0.00000000000E+00 -0.23507321943E+03  0.30991553445E+04  0.30902272458E+04 0.  0.
        2    1    3    3  502    0 -0.21955175332E+03  0.14861722713E+04  0.24470649677E+03  0.15221012653E+04  0.25500000920E-02 0.  1.
       -2    1    3    3    0  502  0.21955175332E+03 -0.14861722713E+04 -0.47977971621E+03  0.15770540791E+04  0.25500000920E-02 0. -1.
</event>
<event>
 5   0  0.2067926E-06  0.3135594E+04  0.7818609E-02  0.8206037E-01
        2   -1    0    0  501    0  0.00000000000E+00  0.00000000000E+00  0.17721446971E+04  0.17721446971E+04  0.25500000920E-02 0. -1.
       -2   -1    0    0    0  501  0.00000000000E+00  0.00000000000E+00 -0.13870131648E+04  0.13870131648E+04  0.25500000920E-02 0.  1.
    10030    2    1    2    0    0  0.00000000000E+00  0.00000000000E+00  0.38513153226E+03  0.31591578619E+04  0.31355943773E+04 0.  0.
        1    1    3    3  502    0 -0.15310624696E+04 -0.97231437613E+01  0.53235557786E+03  0.16210025560E+04  0.50400001928E-02 0.  1.
       -1    1    3    3    0  502  0.15310624696E+04  0.97231437613E+01 -0.14722404560E+03  0.15381553059E+04  0.50400001928E-02 0. -1.
</event>
<event>
 5   0  0.6979625E-07  0.3043135E+04  0.7818609E-02  0.8231520E-01
       -3   -1    0    0    0  501  0.00000000000E+00  0.00000000000E+00  0.13919948696E+04  0.13919948733E+04  0.10100000352E+00 0.  1.
        3   -1    0    0  501    0  0.00000000000E+00  0.00000000000E+00 -0.16632013220E+04  0.16632013251E+04  0.10100000352E+00 0. -1.
    10030    2    1    2    0    0  0.00000000000E+00  0.00000000000E+00 -0.27120645237E+03  0.30551961984E+04  0.30431350399E+04 0.  0.
        1    1    3    3  502    0 -0.13835393457E+04  0.38105269943E+03  0.37215361964E+03  0.14825250748E+04  0.50400001928E-02 0.  1.
       -1    1    3    3    0  502  0.13835393457E+04 -0.38105269943E+03 -0.64336007201E+03  0.15726711236E+04  0.50400001928E-02 0. -1.
</event>
<event>
 5   0  0.2078009E-06  0.3055388E+04  0.7818609E-02  0.8228089E-01
        2   -1    0    0  501    0  0.00000000000E+00  0.00000000000E+00  0.19745152535E+04  0.19745152535E+04  0.25500000920E-02 0. -1.
       -2   -1    0    0    0  501  0.00000000000E+00  0.00000000000E+00 -0.11819861318E+04  0.11819861318E+04  0.25500000920E-02 0.  1.
    10030    2    1    2    0    0  0.00000000000E+00  0.00000000000E+00  0.79252912167E+03  0.31565013852E+04  0.30553884510E+04 0.  0.
        3    1    3    3  502    0 -0.59449820772E+03 -0.35859156152E+03  0.18021195696E+04  0.19312304317E+04  0.10100000352E+00 0. -1.
       -3    1    3    3    0  502  0.59449820772E+03  0.35859156152E+03 -0.10095904479E+04  0.12252709536E+04  0.10100000352E+00 0.  1.
</event>
<event>
 5   0  0.2133385E-06  0.3084260E+04  0.7818609E-02  0.8220071E-01
       -2   -1    0    0    0  501  0.00000000000E+00  0.00000000000E+00  0.10922011321E+04  0.10922011321E+04  0.25500000920E-02 0. -1.
        2   -1    0    0  501    0  0.00000000000E+00  0.00000000000E+00 -0.21774052229E+04  0.21774052229E+04  0.25500000920E-02 0.  1.
    10030    2    1    2    0    0  0.00000000000E+00  0.00000000000E+00 -0.10852040908E+04  0.32696063550E+04  0.30842596839E+04 0.  0.
        2    1    3    3  502    0  0.39369992239E+02 -0.33695463716E+03 -0.21373575275E+04  0.21641131265E+04  0.25500000920E-02 0.  1.
       -2    1    3    3    0  502 -0.39369992239E+02  0.33695463716E+03  0.10521534367E+04  0.11054932285E+04  0.25500000920E-02 0. -1.
</event>
<event>
 5   0  0.2094135E-06  0.3148674E+04  0.7818609E-02  0.8202505E-01
       -2   -1    0    0    0  501  0.00000000000E+00  0.00000000000E+00  0.13682942110E+04  0.13682942110E+04  0.25500000920E-02 0. -1.
        2   -1    0    0  501    0  0.00000000000E+00  0.00000000000E+00 -0.18114061982E+04  0.18114061982E+04  0.25500000920E-02 0.  1.
    10030    2    1    2    0    0  0.00000000000E+00  0.00000000000E+00 -0.44311198720E+03  0.31797004092E+04  0.31486737619E+04 0.  0.
        4    1    3    3  502    0 -0.41945886533E+03 -0.15172846393E+04 -0.20045546925E+03  0.15869097089E+04  0.12699999809E+01 0. -1.
       -4    1    3    3    0  502  0.41945886533E+03  0.15172846393E+04 -0.24265651796E+03  0.15927907003E+04  0.12699999809E+01 0.  1.
</event>
<event>
 5   0  0.2078009E-06  0.3167119E+04  0.7818609E-02  0.8197555E-01
       -2   -1    0    0    0  501  0.00000000000E+00  0.00000000000E+00  0.15480468444E+04  0.15480468444E+04  0.25500000920E-02 0. -1.
        2   -1    0    0  501    0  0.00000000000E+00  0.00000000000E+00 -0.16198864035E+04  0.16198864035E+04  0.25500000920E-02 0.  1.
    10030    2    1    2    0    0  0.00000000000E+00  0.00000000000E+00 -0.71839559152E+02  0.31679332479E+04  0.31671185865E+04 0.  0.
        3    1    3    3  502    0 -0.12834983430E+04 -0.12769756176E+03  0.88300328851E+03  0.15631281078E+04  0.10100000352E+00 0. -1.
       -3    1    3    3    0  502  0.12834983430E+04  0.12769756176E+03 -0.95484284767E+03  0.16048051401E+04  0.10100000352E+00 0.  1.
</event>
<event>
 5   0  0.7726743E-07  0.3034973E+04  0.7818609E-02  0.8233814E-01
        1   -1    0    0  501    0  0.00000000000E+00  0.00000000000E+00  0.17150777104E+04  0.17150777104E+04  0.50400001928E-02 0. -1.
       -1   -1    0    0    0  501  0.00000000000E+00  0.00000000000E+00 -0.13426597723E+04  0.13426597723E+04  0.50400001928E-02 0.  1.
    10030    2    1    2    0    0  0.00000000000E+00  0.00000000000E+00  0.37241793815E+03  0.30577374827E+04  0.30349733759E+04 0.  0.
        1    1    3    3  502    0  0.71286666408E+03 -0.12752551613E+04 -0.22712573662E+03  0.14785265325E+04  0.50400001928E-02 0.  1.
       -1    1    3    3    0  502 -0.71286666408E+03  0.12752551613E+04  0.59954367477E+03  0.15792109502E+04  0.50400001928E-02 0. -1.
</event>
<event>
 5   0  0.6979625E-07  0.3089809E+04  0.7818609E-02  0.8218540E-01
        3   -1    0    0  501    0  0.00000000000E+00  0.00000000000E+00  0.22330568909E+04  0.22330568932E+04  0.10100000352E+00 0. -1.
       -3   -1    0    0    0  501  0.00000000000E+00  0.00000000000E+00 -0.10688170538E+04  0.10688170585E+04  0.10100000352E+00 0.  1.
    10030    2    1    2    0    0  0.00000000000E+00  0.00000000000E+00  0.11642398371E+04  0.33018739517E+04  0.30898086016E+04 0.  0.
        4    1    3    3  502    0  0.77582912780E+03 -0.22258677737E+03 -0.82558843879E+03  0.11545794005E+04  0.12699999809E+01 0.  1.
       -4    1    3    3    0  502 -0.77582912780E+03  0.22258677737E+03  0.19898282759E+04  0.21472945512E+04  0.12699999809E+01 0. -1.
</event>
<event>
 5   0  0.2094135E-06  0.3104246E+04  0.7818609E-02  0.8214574E-01
       -2   -1    0    0    0  501  0.00000000000E+00  0.00000000000E+00  0.98282460462E+03  0.98282460463E+03  0.25500000920E-02 0. -1.
        2   -1    0    0  501    0  0.00000000000E+00  0.00000000000E+00 -0.24511856840E+04  0.24511856840E+04  0.25500000920E-02 0.  1.
    10030    2    1    2    0    0  0.00000000000E+00  0.00000000000E+00 -0.14683610794E+04  0.34340102887E+04  0.31042458670E+04 0.  0.
        4    1    3    3  502    0  0.31160544586E+03 -0.15013725811E+04 -0.46807204489E+03  0.16032188351E+04  0.12699999809E+01 0. -1.
       -4    1    3    3    0  502 -0.31160544586E+03  0.15013725811E+04 -0.10002890345E+04  0.18307914536E+04  0.12699999809E+01 0.  1.
</event>
<event>
 5   0  0.2133385E-06  0.3122028E+04  0.7818609E-02  0.8209718E-01
       -2   -1    0    0    0  501  0.00000000000E+00  0.00000000000E+00  0.10126989502E+04  0.10126989502E+04  0.25500000920E-02 0.  1.
        2   -1    0    0  501    0  0.00000000000E+00  0.00000000000E+00 -0.24062089573E+04  0.24062089573E+04  0.25500000920E-02 0. -1.
    10030    2    1    2    0    0  0.00000000000E+00  0.00000000000E+00 -0.13935100070E+04  0.34189079075E+04  0.31220283696E+04 0.  0.
        2    1    3    3  502    0  0.14579600445E+04 -0.47082498656E+03 -0.36924814420E+03  0.15759656885E+04  0.25500000920E-02 0.  1.
       -2    1    3    3    0  502 -0.14579600445E+04  0.47082498656E+03 -0.10242618628E+04  0.18429422191E+04  0.25500000920E-02 0. -1.
</event>
<event>
 5   0  0.7656332E-07  0.3104066E+04  0.7818609E-02  0.8214623E-01
        1   -1    0    0  501    0  0.00000000000E+00  0.00000000000E+00  0.11153171126E+04  0.11153171126E+04  0.50400001928E-02 0.  1.
       -1   -1    0    0    0  501  0.00000000000E+00  0.00000000000E+00 -0.21597508447E+04  0.21597508447E+04  0.50400001928E-02 0. -1.
    10030    2    1    2    0    0  0.00000000000E+00  0.00000000000E+00 -0.10444337321E+04  0.32750679573E+04  0.31040664142E+04 0.  0.
        2    1    3    3  502    0 -0.32345975705E+03  0.12919302242E+04 -0.13630491838E+04  0.19056791430E+04  0.25500000920E-02 0. -1.
       -2    1    3    3    0  502  0.32345975705E+03 -0.12919302242E+04  0.31861545173E+03  0.13693888143E+04  0.25500000920E-02 0.  1.
</event>
<event>
 5   0  0.7656332E-07  0.3097103E+04  0.7818609E-02  0.8216533E-01
       -1   -1    0    0    0  501  0.00000000000E+00  0.00000000000E+00  0.13241304337E+04  0.13241304337E+04  0.50400001928E-02 0.  1.
        1   -1    0    0  501    0  0.00000000000E+00  0.00000000000E+00 -0.18110091481E+04  0.18110091481E+04  0.50400001928E-02 0. -1.
    10030    2    1    2    0    0  0.00000000000E+00  0.00000000000E+00 -0.48687871448E+03  0.31351395818E+04  0.30971033749E+04 0.  0.
        2    1    3    3  502    0 -0.91486941204E+03  0.44079838927E+03 -0.14268662712E+04  0.17513527963E+04  0.25500000920E-02 0. -1.
       -2    1    3    3    0  502  0.91486941204E+03 -0.44079838927E+03  0.93998755672E+03  0.13837867856E+04  0.25500000920E-02 0.  1.
</event>
<event>
 5   0  0.2067926E-06  0.3130800E+04  0.7818609E-02  0.8207336E-01
       -2   -1    0    0    0  501  0.00000000000E+00  0.00000000000E+00  0.13770003360E+04  0.13770003360E+04  0.25500000920E-02 0. -1.
        2   -1    0    0  501    0  0.00000000000E+00  0.00000000000E+00 -0.17795761911E+04  0.17795761911E+04  0.25500000920E-02 0.  1.
    10030    2    1    2    0    0  0.00000000000E+00  0.00000000000E+00 -0.40257585513E+03  0.31565765271E+04  0.31307999062E+04 0.  0.
        1    1    3    3  502    0 -0.12548376401E+04  0.15620208749E+03 -0.11316312447E+04  0.16969401490E+04  0.50400001928E-02 0.  1.
       -1    1    3    3    0  502  0.12548376401E+04 -0.15620208749E+03  0.72905538959E+03  0.14596363781E+04  0.50400001928E-02 0. -1.
</event>
<event>
 5   0  0.7726743E-07  0.2765093E+04  0.7818609E-02  0.8314188E-01
       -1   -1    0    0    0  501  0.00000000000E+00  0.00000000000E+00  0.11271610697E+04  0.11271610697E+04  0.50400001928E-02 0.  1.
        1   -1    0    0  501    0  0.00000000000E+00  0.00000000000E+00 -0.16957957089E+04  0.16957957089E+04  0.50400001928E-02 0. -1.
    10030    2    1    2    0    0  0.00000000000E+00  0.00000000000E+00 -0.56863463921E+03  0.28229567786E+04  0.27650930583E+04 0.  0.
        1    1    3    3  502    0  0.41767515696E+03 -0.10566804378E+04 -0.10884606400E+04  0.15734588172E+04  0.50400001928E-02 0. -1.
       -1    1    3    3    0  502 -0.41767515696E+03  0.10566804378E+04  0.51982600078E+03  0.12494979614E+04  0.50400001928E-02 0.  1.
</event>
<event>
 5   0  0.7413481E-07  0.3113108E+04  0.7818609E-02  0.8212150E-01
        1   -1    0    0  501    0  0.00000000000E+00  0.00000000000E+00  0.13670548740E+04  0.13670548740E+04  0.50400001928E-02 0. -1.
       -1   -1    0    0    0  501  0.00000000000E+00  0.00000000000E+00 -0.17723214011E+04  0.17723214011E+04  0.50400001928E-02 0.  1.
    10030    2    1    2    0    0  0.00000000000E+00  0.00000000000E+00 -0.40526652711E+03  0.31393762751E+04  0.31131081636E+04 0.  0.
        5    1    3    3  502    0 -0.12549902630E+04 -0.90909474459E+03 -0.55164244912E+02  0.15506511532E+04  0.46999998093E+01 0. -1.
       -5    1    3    3    0  502  0.12549902630E+04  0.90909474459E+03 -0.35010228220E+03  0.15887251219E+04  0.46999998093E+01 0.  1.
</event>
<event>
 5   0  0.7726743E-07  0.3133559E+04  0.7818609E-02  0.8206588E-01
        1   -1    0    0  501    0  0.00000000000E+00  0.00000000000E+00  0.26239264611E+04  0.26239264611E+04  0.50400001928E-02 0. -1.
       -1   -1    0    0    0  501  0.00000000000E+00  0.00000000000E+00 -0.93554349136E+03  0.93554349137E+03  0.50400001928E-02 0.  1.
    10030    2    1    2    0    0  0.00000000000E+00  0.00000000000E+00  0.16883829697E+04  0.35594699525E+04  0.31335585666E+04 0.  0.
        1    1    3    3  502    0  0.13900472067E+04  0.38703522199E+03  0.15377256951E+04  0.21087028746E+04  0.50400001928E-02 0. -1.
       -1    1    3    3    0  502 -0.13900472067E+04 -0.38703522199E+03  0.15065727466E+03  0.14507670779E+04  0.50400001928E-02 0.  1.
</event>
<event>
 5   0  0.7561815E-07  0.3111153E+04  0.7818609E-02  0.8212684E-01
        1   -1    0    0  501    0  0.00000000000E+00  0.00000000000E+00  0.23448423453E+04  0.23448423453E+04  0.50400001928E-02 0. -1.
       -1   -1    0    0    0  501  0.00000000000E+00  0.00000000000E+00 -0.10319744879E+04  0.10319744879E+04  0.50400001928E-02 0.  1.
    10030    2    1    2    0    0  0.00000000000E+00  0.00000000000E+00  0.13128678574E+04  0.33768168332E+04  0.31111525058E+04 0.  0.
        3    1    3    3  502    0 -0.11586275070E+04  0.10023095569E+04  0.36362907791E+03  0.15745692313E+04  0.10100000352E+00 0. -1.
       -3    1    3    3    0  502  0.11586275070E+04 -0.10023095569E+04  0.94923877947E+03  0.18022476019E+04  0.10100000352E+00 0.  1.
</event>
<event>
 5   0  0.2067926E-06  0.3186187E+04  0.7818609E-02  0.8192475E-01
       -2   -1    0    0    0  501  0.00000000000E+00  0.00000000000E+00  0.10906480826E+04  0.10906480826E+04  0.25500000920E-02 0. -1.
        2   -1    0    0  501    0  0.00000000000E+00  0.00000000000E+00 -0.23270086153E+04  0.23270086153E+04  0.25500000920E-02 0.  1.
    10030    2    1    2    0    0  0.00000000000E+00  0.00000000000E+00 -0.12363605327E+04  0.34176566979E+04  0.31861873671E+04 0.  0.
        1    1    3    3  502    0 -0.13441929158E+04 -0.63132485655E+03  0.35888744265E+00  0.14850676073E+04  0.50400001928E-02 0. -1.
       -1    1    3    3    0  502  0.13441929158E+04  0.63132485655E+03 -0.12367194201E+04  0.19325890907E+04  0.50400001928E-02 0.  1.
</event>
<event>
 5   0  0.2067926E-06  0.3092747E+04  0.7818609E-02  0.8217731E-01
       -2   -1    0    0    0  501  0.00000000000E+00  0.00000000000E+00  0.95060136950E+03  0.95060136950E+03  0.25500000920E-02 0.  1.
        2   -1    0    0  501    0  0.00000000000E+00  0.00000000000E+00 -0.25155349160E+04  0.25155349160E+04  0.25500000920E-02 0. -1.
    10030    2    1    2    0    0  0.00000000000E+00  0.00000000000E+00 -0.15649335465E+04  0.34661362855E+04  0.30927469578E+04 0.  0.
        1    1    3    3  502    0 -0.82869098162E+03  0.12097183314E+04 -0.23213923829E+03  0.14845995454E+04  0.50400001928E-02 0. -1.
       -1    1    3    3    0  502  0.82869098162E+03 -0.12097183314E+04 -0.13327943082E+04  0.19815367401E+04  0.50400001928E-02 0.  1.
</event>
<event>
 5   0  0.6979625E-07  0.2956661E+04  0.7818609E-02  0.8256216E-01
       -3   -1    0    0    0  501  0.00000000000E+00  0.00000000000E+00  0.24602463146E+04  0.24602463167E+04  0.10100000352E+00 0.  1.
        3   -1    0    0  501    0  0.00000000000E+00  0.00000000000E+00 -0.88831005410E+03  0.88831005984E+03  0.10100000352E+00 0. -1.
    10030    2    1    2    0    0  0.00000000000E+00  0.00000000000E+00  0.15719362605E+04  0.33485563766E+04  0.29566613265E+04 0.  0.
        3    1    3    3  502    0 -0.35100296453E+03 -0.25395528143E+03 -0.81479935156E+03  0.92281870353E+03  0.10100000352E+00 0. -1.
       -3    1    3    3    0  502  0.35100296453E+03  0.25395528143E+03  0.23867356121E+04  0.24257376730E+04  0.10100000352E+00 0.  1.
</event>
<event>
 5   0  0.2094135E-06  0.3145054E+04  0.7818609E-02  0.8203481E-01
        2   -1    0    0  501    0  0.00000000000E+00  0.00000000000E+00  0.17063036710E+04  0.17063036710E+04  0.25500000920E-02 0.  1.
       -2   -1    0    0    0  501  0.00000000000E+00  0.00000000000E+00 -0.14492385893E+04  0.14492385893E+04  0.25500000920E-02 0. -1.
    10030    2    1    2    0    0  0.00000000000E+00  0.00000000000E+00  0.25706508177E+03  0.31555422603E+04  0.31450539741E+04 0.  0.
        4    1    3    3  502    0  0.64269272041E+02  0.71308511433E+03 -0.12762145773E+04  0.14633339263E+04  0.12699999809E+01 0. -1.
       -4    1    3    3    0  502 -0.64269272041E+02 -0.71308511433E+03  0.15332796591E+04  0.16922083340E+04  0.12699999809E+01 0.  1.
</event>
<event>
 5   0  0.7656332E-07  0.3103453E+04  0.7818609E-02  0.8214791E-01
        1   -1    0    0  501    0  0.00000000000E+00  0.00000000000E+00  0.21560629037E+04  0.21560629037E+04  0.50400001928E-02 0. -1.
       -1   -1    0    0    0  501  0.00000000000E+00  0.00000000000E+00 -0.11167836401E+04  0.11167836401E+04  0.50400001928E-02 0.  1.
    10030    2    1    2    0    0  0.00000000000E+00  0.00000000000E+00  0.10392792636E+04  0.32728465438E+04  0.31034534170E+04 0.  0.
        2    1    3    3  502    0  0.10698955393E+04  0.81824364099E+03 -0.29290660400E+03  0.13784024811E+04  0.25500000920E-02 0.  1.
       -2    1    3    3    0  502 -0.10698955393E+04 -0.81824364099E+03  0.13321858676E+04  0.18944440627E+04  0.25500000920E-02 0. -1.
</event>
<event>
 5   0  0.2226334E-06  0.3096508E+04  0.7818609E-02  0.8216697E-01
       -2   -1    0    0    0  501  0.00000000000E+00  0.00000000000E+00  0.92601806751E+03  0.92601806751E+03  0.25500000920E-02 0. -1.
        2   -1    0    0  501    0  0.00000000000E+00  0.00000000000E+00 -0.25886003279E+04  0.25886003279E+04  0.25500000920E-02 0.  1.
    10030    2    1    2    0    0  0.00000000000E+00  0.00000000000E+00 -0.16625822604E+04  0.35146183954E+04  0.30965081451E+04 0.  0.
        5    1    3    3  502    0 -0.19242625842E+03  0.14901055183E+04 -0.12554118674E+04  0.19579385505E+04  0.46999998093E+01 0.  1.
       -5    1    3    3    0  502  0.19242625842E+03 -0.14901055183E+04 -0.40717039299E+03  0.15566798449E+04  0.46999998093E+01 0. -1.
</event>
<event>
 5   0  0.2226334E-06  0.3097673E+04  0.7818609E-02  0.8216377E-01
       -2   -1    0    0    0  501  0.00000000000E+00  0.00000000000E+00  0.15430143586E+04  0.15430143586E+04  0.25500000920E-02 0.  1.
        2   -1    0    0  501    0  0.00000000000E+00  0.00000000000E+00 -0.15546805656E+04  0.15546805656E+04  0.25500000920E-02 0. -1.
    10030    2    1    2    0    0  0.00000000000E+00  0.00000000000E+00 -0.11666207006E+02  0.30976949242E+04  0.30976729561E+04 0.  0.
        5    1    3    3  502    0 -0.30318836311E+01  0.33316614507E+03  0.15067461253E+04  0.15431509481E+04  0.46999998093E+01 0.  1.
       -5    1    3    3    0  502  0.30318836311E+01 -0.33316614507E+03 -0.15184123323E+04  0.15545439760E+04  0.46999998093E+01 0. -1.
</event>
<event>
 5   0  0.2078009E-06  0.2992771E+04  0.7818609E-02  0.8245798E-01
       -2   -1    0    0    0  501  0.00000000000E+00  0.00000000000E+00  0.20758844087E+04  0.20758844087E+04  0.25500000920E-02 0. -1.
        2   -1    0    0  501    0  0.00000000000E+00  0.00000000000E+00 -0.10786584209E+04  0.10786584209E+04  0.25500000920E-02 0.  1.
    10030    2    1    2    0    0  0.00000000000E+00  0.00000000000E+00  0.99722598780E+03  0.31545428296E+04  0.29927714234E+04 0.  0.
        3    1    3    3  502    0 -0.14947163473E+04 -0.39488124707E+02  0.43684581309E+03  0.15577453404E+04  0.10100000352E+00 0.  1.
       -3    1    3    3    0  502  0.14947163473E+04  0.39488124707E+02  0.56038017470E+03  0.15967974892E+04  0.10100000352E+00 0. -1.
</event>
<event>
 5   0  0.2226334E-06  0.3101681E+04  0.7818609E-02  0.8215277E-01
       -2   -1    0    0    0  501  0.00000000000E+00  0.00000000000E+00  0.84654921310E+03  0.84654921310E+03  0.25500000920E-02 0.  1.
        2   -1    0    0  501    0  0.00000000000E+00  0.00000000000E+00 -0.28410710666E+04  0.28410710666E+04  0.25500000920E-02 0. -1.
    10030    2    1    2    0    0  0.00000000000E+00  0.00000000000E+00 -0.19945218535E+04  0.36876202797E+04  0.31016811415E+04 0.  0.
        5    1    3    3  502    0  0.13237525732E+04 -0.58912752156E+03 -0.33991908599E+03  0.14882738950E+04  0.46999998093E+01 0.  1.
       -5    1    3    3    0  502 -0.13237525732E+04  0.58912752156E+03 -0.16546027675E+04  0.21993463847E+04  0.46999998093E+01 0. -1.
</event>
<event>
 5   0  0.2133385E-06  0.3087639E+04  0.7818609E-02  0.8219139E-01
        2   -1    0    0  501    0  0.00000000000E+00  0.00000000000E+00  0.22107296046E+04  0.22107296046E+04  0.25500000920E-02 0. -1.
       -2   -1    0    0    0  501  0.00000000000E+00  0.00000000000E+00 -0.10780956814E+04  0.10780956814E+04  0.25500000920E-02 0.  1.
    10030    2    1    2    0    0  0.00000000000E+00  0.00000000000E+00  0.11326339231E+04  0.32888252860E+04  0.30876386055E+04 0.  0.
        2    1    3    3  502    0 -0.12641963367E+04  0.52213481915E+03 -0.19626595868E+03  0.13817877817E+04  0.25500000920E-02 0.  1.
       -2    1    3    3    0  502  0.12641963367E+04 -0.52213481915E+03  0.13288998818E+04  0.19070375043E+04  0.25500000920E-02 0. -1.
</event>
<event>
 5   0  0.2226334E-06  0.3097728E+04  0.7818609E-02  0.8216362E-01
       -2   -1    0    0    0  501  0.00000000000E+00  0.00000000000E+00  0.99763468734E+03  0.99763468735E+03  0.25500000920E-02 0.  1.
        2   -1    0    0  501    0  0.00000000000E+00  0.00000000000E+00 -0.24046676229E+04  0.24046676230E+04  0.25500000920E-02 0. -1.
    10030    2    1    2    0    0  0.00000000000E+00  0.00000000000E+00 -0.14070329356E+04  0.34023023103E+04  0.30977280915E+04 0.  0.
        5    1    3    3  502    0  0.10627531441E+04  0.89928085980E+03 -0.14490880450E+04  0.20094846509E+04  0.46999998093E+01 0. -1.
       -5    1    3    3    0  502 -0.10627531441E+04 -0.89928085980E+03  0.42055109364E+02  0.13928176594E+04  0.46999998093E+01 0.  1.
</event>
<event>
 5   0  0.2133385E-06  0.3097869E+04  0.7818609E-02  0.8216323E-01
        2   -1    0    0  501    0  0.00000000000E+00  0.00000000000E+00  0.15842447293E+04  0.15842447293E+04  0.25500000920E-02 0. -1.
       -2   -1    0    0    0  501  0.00000000000E+00  0.00000000000E+00 -0.15144111686E+04  0.15144111686E+04  0.25500000920E-02 0.  1.
    10030    2    1    2    0    0  0.00000000000E+00  0.00000000000E+00  0.69833560630E+02  0.30986558979E+04  0.30978688880E+04 0.  0.
        2    1    3    3  502    0  0.15367752421E+03  0.29401761060E+03 -0.14784562823E+04  0.15152214741E+04  0.25500000920E-02 0.  1.
       -2    1    3    3    0  502 -0.15367752421E+03 -0.29401761060E+03  0.15482898429E+04  0.15834344238E+04  0.25500000920E-02 0. -1.
</event>
<event>
 5   0  0.2094135E-06  0.3102267E+04  0.7818609E-02  0.8215116E-01
        2   -1    0    0  501    0  0.00000000000E+00  0.00000000000E+00  0.17336974005E+04  0.17336974005E+04  0.25500000920E-02 0. -1.
       -2   -1    0    0    0  501  0.00000000000E+00  0.00000000000E+00 -0.13877943451E+04  0.13877943451E+04  0.25500000920E-02 0.  1.
    10030    2    1    2    0    0  0.00000000000E+00  0.00000000000E+00  0.34590305537E+03  0.31214917456E+04  0.31022672023E+04 0.  0.
        4    1    3    3  502    0 -0.10376486566E+04  0.67856107815E+03  0.11108511974E+04  0.16646777066E+04  0.12699999809E+01 0. -1.
       -4    1    3    3    0  502  0.10376486566E+04 -0.67856107815E+03 -0.76494814204E+03  0.14568140390E+04  0.12699999809E+01 0.  1.
</event>
<event>
 5   0  0.2067926E-06  0.3090047E+04  0.7818609E-02  0.8218475E-01
       -2   -1    0    0    0  501  0.00000000000E+00  0.00000000000E+00  0.18793032741E+04  0.18793032741E+04  0.25500000920E-02 0.  1.
        2   -1    0    0  501    0  0.00000000000E+00  0.00000000000E+00 -0.12702039122E+04  0.12702039122E+04  0.25500000920E-02 0. -1.
    10030    2    1    2    0    0  0.00000000000E+00  0.00000000000E+00  0.60909936194E+03  0.31495071863E+04  0.30900474889E+04 0.  0.
        1    1    3    3  502    0  0.73418407140E+03  0.38771708600E+03 -0.10234990463E+04  0.13179154326E+04  0.50400001928E-02 0. -1.
       -1    1    3    3    0  502 -0.73418407140E+03 -0.38771708600E+03  0.16325984083E+04  0.18315917537E+04  0.50400001928E-02 0.  1.
</event>
<event>
 5   0  0.7726743E-07  0.3104897E+04  0.7818609E-02  0.8214395E-01
       -1   -1    0    0    0  501  0.00000000000E+00  0.00000000000E+00  0.13279803978E+04  0.13279803978E+04  0.50400001928E-02 0.  1.
        1   -1    0    0  501    0  0.00000000000E+00  0.00000000000E+00 -0.18148577928E+04  0.18148577928E+04  0.50400001928E-02 0. -1.
    10030    2    1    2    0    0  0.00000000000E+00  0.00000000000E+00 -0.48687739499E+03  0.31428381905E+04  0.31048965030E+04 0.  0.
        1    1    3    3  502    0  0.92497267492E+03  0.11517912763E+04 -0.72665895413E+03  0.16462778712E+04  0.50400001928E-02 0. -1.
       -1    1    3    3    0  502 -0.92497267492E+03 -0.11517912763E+04  0.23978155914E+03  0.14965603194E+04  0.50400001928E-02 0.  1.
</event>
<event>
 5   0  0.7413481E-07  0.3189312E+04  0.7818609E-02  0.8191646E-01
       -1   -1    0    0    0  501  0.00000000000E+00  0.00000000000E+00  0.10614602186E+04  0.10614602186E+04  0.50400001928E-02 0. -1.
        1   -1    0    0  501    0  0.00000000000E+00  0.00000000000E+00 -0.23956885084E+04  0.23956885084E+04  0.50400001928E-02 0.  1.
    10030    2    1    2    0    0  0.00000000000E+00  0.00000000000E+00 -0.13342282898E+04  0.34571487271E+04  0.31893121816E+04 0.  0.
        5    1    3    3  502    0  0.20684899884E+03  0.11988057759E+04 -0.17847090891E+04  0.21598912981E+04  0.46999998093E+01 0.  1.
       -5    1    3    3    0  502 -0.20684899884E+03 -0.11988057759E+04  0.45048079933E+03  0.12972574290E+04  0.46999998093E+01 0. -1.
</event>
<event>
 5   0  0.7656332E-07  0.3106093E+04  0.7818609E-02  0.8214068E-01
        1   -1    0    0  501    0  0.00000000000E+00  0.00000000000E+00  0.22090714105E+04  0.22090714105E+04  0.50400001928E-02 0.  1.
       -1   -1    0    0    0  501  0.00000000000E+00  0.00000000000E+00 -0.10918406100E+04  0.10918406101E+04  0.50400001928E-02 0. -1.
    10030    2    1    2    0    0  0.00000000000E+00  0.00000000000E+00  0.11172308005E+04  0.33009120206E+04  0.31060932868E+04 0.  0.
        2    1    3    3  502    0  0.72941852146E+03 -0.45483838132E+03  0.19331972667E+04  0.21156987036E+04  0.25500000920E-02 0.  1.
       -2    1    3    3    0  502 -0.72941852146E+03  0.45483838132E+03 -0.81596646624E+03  0.11852133169E+04  0.25500000920E-02 0. -1.
</event>
<event>
 5   0  0.7413481E-07  0.3102645E+04  0.7818609E-02  0.8215012E-01
        1   -1    0    0  501    0  0.00000000000E+00  0.00000000000E+00  0.11034088959E+04  0.11034088959E+04  0.50400001928E-02 0.  1.
       -1   -1    0    0    0  501  0.00000000000E+00  0.00000000000E+00 -0.21810609210E+04  0.21810609210E+04  0.50400001928E-02 0. -1.
    10030    2    1    2    0    0  0.00000000000E+00  0.00000000000E+00 -0.10776520251E+04  0.32844698169E+04  0.31026453376E+04 0.  0.
        5    1    3    3  502    0 -0.96381142867E+03 -0.12068538387E+04 -0.69278371243E+03  0.16927492491E+04  0.46999998093E+01 0. -1.
       -5    1    3    3    0  502  0.96381142867E+03  0.12068538387E+04 -0.38486831265E+03  0.15917205678E+04  0.46999998093E+01 0.  1.
</event>
<event>
 5   0  0.2067926E-06  0.3107108E+04  0.7818609E-02  0.8213790E-01
       -2   -1    0    0    0  501  0.00000000000E+00  0.00000000000E+00  0.15528714965E+04  0.15528714965E+04  0.25500000920E-02 0. -1.
        2   -1    0    0  501    0  0.00000000000E+00  0.00000000000E+00 -0.15542370089E+04  0.15542370089E+04  0.25500000920E-02 0.  1.
    10030    2    1    2    0    0  0.00000000000E+00  0.00000000000E+00 -0.13655123756E+01  0.31071085054E+04  0.31071082054E+04 0.  0.
        1    1    3    3  502    0  0.74902078196E+03 -0.11725271650E+04 -0.69182554737E+03  0.15538579962E+04  0.50400001928E-02 0.  1.
       -1    1    3    3    0  502 -0.74902078196E+03  0.11725271650E+04  0.69046003499E+03  0.15532505092E+04  0.50400001928E-02 0. -1.
</event>
<event>
 5   0  0.2094135E-06  0.3081250E+04  0.7818609E-02  0.8220903E-01
        2   -1    0    0  501    0  0.00000000000E+00  0.00000000000E+00  0.10687620906E+04  0.10687620907E+04  0.25500000920E-02 0.  1.
       -2   -1    0    0    0  501  0.00000000000E+00  0.00000000000E+00 -0.22208174242E+04  0.22208174242E+04  0.25500000920E-02 0. -1.
    10030    2    1    2    0    0  0.00000000000E+00  0.00000000000E+00 -0.11520553335E+04  0.32895795148E+04  0.30812500536E+04 0.  0.
        4    1    3    3  502    0 -0.29710296382E+03 -0.14865085402E+04 -0.86946767248E+03  0.17475564247E+04  0.12699999809E+01 0.  1.
       -4    1    3    3    0  502  0.29710296382E+03  0.14865085402E+04 -0.28258766103E+03  0.15420230901E+04  0.12699999809E+01 0. -1.
</event>
<event>
 5   0  0.7519202E-07  0.3084374E+04  0.7818609E-02  0.8220039E-01
        1   -1    0    0  501    0  0.00000000000E+00  0.00000000000E+00  0.11354533742E+04  0.11354533742E+04  0.50400001928E-02 0.  1.
       -1   -1    0    0    0  501  0.00000000000E+00  0.00000000000E+00 -0.20946174278E+04  0.20946174278E+04  0.50400001928E-02 0. -1.
    10030    2    1    2    0    0  0.00000000000E+00  0.00000000000E+00 -0.95916405360E+03  0.32300708019E+04  0.30843737944E+04 0.  0.
        4    1    3    3  502    0  0.89202825790E+03  0.10779011372E+04 -0.11588778214E+04  0.18167511366E+04  0.12699999809E+01 0. -1.
       -4    1    3    3    0  502 -0.89202825790E+03 -0.10779011372E+04  0.19971376782E+03  0.14133196653E+04  0.12699999809E+01 0.  1.
</event>
<event>
 5   0  0.7656332E-07  0.3097112E+04  0.7818609E-02  0.8216531E-01
        1   -1    0    0  501    0  0.00000000000E+00  0.00000000000E+00  0.11834050178E+04  0.11834050178E+04  0.50400001928E-02 0.  1.
       -1   -1    0    0    0  501  0.00000000000E+00  0.00000000000E+00 -0.20263774882E+04  0.20263774882E+04  0.50400001928E-02 0. -1.
    10030    2    1    2    0    0  0.00000000000E+00  0.00000000000E+00 -0.84297247036E+03  0.32097825060E+04  0.30971117432E+04 0.  0.
        2    1    3    3  502    0  0.18353931991E+03  0.44344069457E+03  0.11043861559E+04  0.12041574286E+04  0.25500000920E-02 0.  1.
       -2    1    3    3    0  502 -0.18353931991E+03 -0.44344069457E+03 -0.19473586263E+04  0.20056250773E+04  0.25500000920E-02 0. -1.
</event>
<event>
 5   0  0.7656332E-07  0.3106622E+04  0.7818609E-02  0.8213923E-01
        1   -1    0    0  501    0  0.00000000000E+00  0.00000000000E+00  0.27611341678E+04  0.27611341678E+04  0.50400001928E-02 0. -1.
       -1   -1    0    0    0  501  0.00000000000E+00  0.00000000000E+00 -0.87383463122E+03  0.87383463124E+03  0.50400001928E-02 0.  1.
    10030    2    1    2    0    0  0.00000000000E+00  0.00000000000E+00  0.18872995365E+04  0.36349687990E+04  0.31066217390E+04 0.  0.
        2    1    3    3  502    0  0.98697025631E+03 -0.22677202448E+03 -0.43447306102E+03  0.11019540275E+04  0.25500000920E-02 0.  1.
       -2    1    3    3    0  502 -0.98697025631E+03  0.22677202448E+03  0.23217725976E+04  0.25330147715E+04  0.25500000920E-02 0. -1.
</event>
<event>
 5   0  0.2133385E-06  0.3167440E+04  0.7818609E-02  0.8197469E-01
        2   -1    0    0  501    0  0.00000000000E+00  0.00000000000E+00  0.13437911824E+04  0.13437911824E+04  0.25500000920E-02 0. -1.
       -2   -1    0    0    0  501  0.00000000000E+00  0.00000000000E+00 -0.18664876029E+04  0.18664876029E+04  0.25500000920E-02 0.  1.
    10030    2    1    2    0    0  0.00000000000E+00  0.00000000000E+00 -0.52269642046E+03  0.32102787853E+04  0.31674403438E+04 0.  0.
        2    1    3    3  502    0  0.65040642428E+03 -0.30372281263E+03 -0.16921397127E+04  0.18381003430E+04  0.25500000920E-02 0.  1.
       -2    1    3    3    0  502 -0.65040642428E+03  0.30372281263E+03  0.11694432923E+04  0.13721784423E+04  0.25500000920E-02 0. -1.
</event>
<event>
 5   0  0.7726743E-07  0.2877118E+04  0.7818609E-02  0.8279718E-01
       -1   -1    0    0    0  501  0.00000000000E+00  0.00000000000E+00  0.18550853086E+04  0.18550853086E+04  0.50400001928E-02 0.  1.
        1   -1    0    0  501    0  0.00000000000E+00  0.00000000000E+00 -0.11155560280E+04  0.11155560280E+04  0.50400001928E-02 0. -1.
    10030    2    1    2    0    0  0.00000000000E+00  0.00000000000E+00  0.73952928059E+03  0.29706413366E+04  0.28771177234E+04 0.  0.
        1    1    3    3  502    0  0.89625309788E+03 -0.97852361839E+03 -0.20387911314E+03  0.13425143500E+04  0.50400001928E-02 0. -1.
       -1    1    3    3    0  502 -0.89625309788E+03  0.97852361839E+03  0.94340839373E+03  0.16281269866E+04  0.50400001928E-02 0.  1.
</event>
<event>
 5   0  0.7656332E-07  0.3113317E+04  0.7818609E-02  0.8212093E-01
       -1   -1    0    0    0  501  0.00000000000E+00  0.00000000000E+00  0.16940988400E+04  0.16940988400E+04  0.50400001928E-02 0. -1.
        1   -1    0    0  501    0  0.00000000000E+00  0.00000000000E+00 -0.14303686561E+04  0.14303686562E+04  0.50400001928E-02 0.  1.
    10030    2    1    2    0    0  0.00000000000E+00  0.00000000000E+00  0.26373018385E+03  0.31244674962E+04  0.31133171256E+04 0.  0.
        2    1    3    3  502    0  0.13800036571E+04 -0.53199618269E+03 -0.35542085732E+03  0.15211028952E+04  0.25500000920E-02 0. -1.
       -2    1    3    3    0  502 -0.13800036571E+04  0.53199618269E+03  0.61915104117E+03  0.16033646010E+04  0.25500000920E-02 0.  1.
</event>
<event>
 5   0  0.7561815E-07  0.3078853E+04  0.7818609E-02  0.8221566E-01
        1   -1    0    0  501    0  0.00000000000E+00  0.00000000000E+00  0.19558921772E+04  0.19558921772E+04  0.50400001928E-02 0. -1.
       -1   -1    0    0    0  501  0.00000000000E+00  0.00000000000E+00 -0.12116379533E+04  0.12116379533E+04  0.50400001928E-02 0.  1.
    10030    2    1    2    0    0  0.00000000000E+00  0.00000000000E+00  0.74425422384E+03  0.31675301305E+04  0.30788525100E+04 0.  0.
        3    1    3    3  502    0 -0.25515612850E+03  0.20095137959E+03  0.19202426438E+04  0.19475158351E+04  0.10100000352E+00 0. -1.
       -3    1    3    3    0  502  0.25515612850E+03 -0.20095137959E+03 -0.11759884200E+04  0.12200142954E+04  0.10100000352E+00 0.  1.
</event>
<event>
 5   0  0.7519202E-07  0.3101623E+04  0.7818609E-02  0.8215293E-01
        1   -1    0    0  501    0  0.00000000000E+00  0.00000000000E+00  0.19238969658E+04  0.19238969658E+04  0.50400001928E-02 0.  1.
       -1   -1    0    0    0  501  0.00000000000E+00  0.00000000000E+00 -0.12500751703E+04  0.12500751703E+04  0.50400001928E-02 0. -1.
    10030    2    1    2    0    0  0.00000000000E+00  0.00000000000E+00  0.67382179549E+03  0.31739721362E+04  0.31016226897E+04 0.  0.
        4    1    3    3  502    0 -0.16215166602E+03  0.14140876368E+04  0.96696519918E+03  0.17207441171E+04  0.12699999809E+01 0. -1.
       -4    1    3    3    0  502  0.16215166602E+03 -0.14140876368E+04 -0.29314340368E+03  0.14532280190E+04  0.12699999809E+01 0.  1.
</event>
<event>
 5   0  0.2094135E-06  0.3019152E+04  0.7818609E-02  0.8238283E-01
        2   -1    0    0  501    0  0.00000000000E+00  0.00000000000E+00  0.23338241006E+04  0.23338241006E+04  0.25500000920E-02 0.  1.
       -2   -1    0    0    0  501  0.00000000000E+00  0.00000000000E+00 -0.97643160996E+03  0.97643160997E+03  0.25500000920E-02 0. -1.
    10030    2    1    2    0    0  0.00000000000E+00  0.00000000000E+00  0.13573924907E+04  0.33102557106E+04  0.30191519498E+04 0.  0.
        4    1    3    3  502    0  0.16584106654E+03  0.10608419686E+04 -0.48471186874E+03  0.11780645781E+04  0.12699999809E+01 0. -1.
       -4    1    3    3    0  502 -0.16584106654E+03 -0.10608419686E+04  0.18421043594E+04  0.21321911325E+04  0.12699999809E+01 0.  1.
</event>
<event>
 5   0  0.2133385E-06  0.3112752E+04  0.7818609E-02  0.8212247E-01
        2   -1    0    0  501    0  0.00000000000E+00  0.00000000000E+00  0.27571151923E+04  0.27571151923E+04  0.25500000920E-02 0.  1.
       -2   -1    0    0    0  501  0.00000000000E+00  0.00000000000E+00 -0.87856542748E+03  0.87856542748E+03  0.25500000920E-02 0. -1.
    10030    2    1    2    0    0  0.00000000000E+00  0.00000000000E+00  0.18785497649E+04  0.36356806198E+04  0.31127518935E+04 0.  0.
        2    1    3    3  502    0 -0.64573347649E+03  0.13593124996E+04  0.47558812806E+03  0.15782541816E+04  0.25500000920E-02 0. -1.
       -2    1    3    3    0  502  0.64573347649E+03 -0.13593124996E+04  0.14029616368E+04  0.20574264382E+04  0.25500000920E-02 0.  1.
</event>
<event>
 5   0  0.2226334E-06  0.3128971E+04  0.7818609E-02  0.8207832E-01
       -2   -1    0    0    0  501  0.00000000000E+00  0.00000000000E+00  0.19295211522E+04  0.19295211522E+04  0.25500000920E-02 0.  1.
        2   -1    0    0  501    0  0.00000000000E+00  0.00000000000E+00 -0.12685093466E+04  0.12685093466E+04  0.25500000920E-02 0. -1.
    10030    2    1    2    0    0  0.00000000000E+00  0.00000000000E+00  0.66101180560E+03  0.31980304988E+04  0.31289714707E+04 0.  0.
        5    1    3    3  502    0 -0.68692327693E+03 -0.90370150847E+03  0.14308607051E+04  0.18264513276E+04  0.46999998093E+01 0.  1.
       -5    1    3    3    0  502  0.68692327693E+03  0.90370150847E+03 -0.76984889951E+03  0.13715791712E+04  0.46999998093E+01 0. -1.
</event>
<event>
 5   0  0.2078009E-06  0.3098075E+04  0.7818609E-02  0.8216266E-01
        2   -1    0    0  501    0  0.00000000000E+00  0.00000000000E+00  0.18229248130E+04  0.18229248131E+04  0.25500000920E-02 0. -1.
       -2   -1    0    0    0  501  0.00000000000E+00  0.00000000000E+00 -0.13163010239E+04  0.13163010239E+04  0.25500000920E-02 0.  1.
    10030    2    1    2    0    0  0.00000000000E+00  0.00000000000E+00  0.50662378920E+03  0.31392258369E+04  0.30980754012E+04 0.  0.
        3    1    3    3  502    0 -0.12583677864E+04 -0.80370239388E+03 -0.16458673056E+03  0.15021703718E+04  0.10100000352E+00 0.  1.
       -3    1    3    3    0  502  0.12583677864E+04  0.80370239388E+03  0.67121051976E+03  0.16370554651E+04  0.10100000352E+00 0. -1.
</event>
<event>
 5   0  0.2067926E-06  0.3079721E+04  0.7818609E-02  0.8221326E-01
        2   -1    0    0  501    0  0.00000000000E+00  0.00000000000E+00  0.20659641120E+04  0.20659641120E+04  0.25500000920E-02 0. -1.
       -2   -1    0    0    0  501  0.00000000000E+00  0.00000000000E+00 -0.11477303729E+04  0.11477303729E+04  0.25500000920E-02 0.  1.
    10030    2    1    2    0    0  0.00000000000E+00  0.00000000000E+00  0.91823373910E+03  0.32136944850E+04  0.30797206112E+04 0.  0.
        1    1    3    3  502    0 -0.68044307883E+03  0.13336419010E+04  0.83505072054E+02  0.14995254585E+04  0.50400001928E-02 0. -1.
       -1    1    3    3    0  502  0.68044307883E+03 -0.13336419010E+04  0.83472866705E+03  0.17141690264E+04  0.50400001928E-02 0.  1.
</event>
<event>
 5   0  0.7561815E-07  0.3107274E+04  0.7818609E-02  0.8213744E-01
       -1   -1    0    0    0  501  0.00000000000E+00  0.00000000000E+00  0.22935757287E+04  0.22935757287E+04  0.50400001928E-02 0. -1.
        1   -1    0    0  501    0  0.00000000000E+00  0.00000000000E+00 -0.10524128180E+04  0.10524128180E+04  0.50400001928E-02 0.  1.
    10030    2    1    2    0    0  0.00000000000E+00  0.00000000000E+00  0.12411629108E+04  0.33459885467E+04  0.31072743657E+04 0.  0.
        3    1    3    3  502    0  0.15529677051E+04 -0.17052056620E+02  0.66612768619E+03  0.16898892183E+04  0.10100000352E+00 0.  1.
       -3    1    3    3    0  502 -0.15529677051E+04  0.17052056620E+02  0.57503522457E+03  0.16560993284E+04  0.10100000352E+00 0. -1.
</event>
<event>
 5   0  0.7561815E-07  0.3138420E+04  0.7818609E-02  0.8205272E-01
       -1   -1    0    0    0  501  0.00000000000E+00  0.00000000000E+00  0.13134899989E+04  0.13134899989E+04  0.50400001928E-02 0. -1.
        1   -1    0    0  501    0  0.00000000000E+00  0.00000000000E+00 -0.18747154625E+04  0.18747154625E+04  0.50400001928E-02 0.  1.
    10030    2    1    2    0    0  0.00000000000E+00  0.00000000000E+00 -0.56122546362E+03  0.31882054614E+04  0.31384199915E+04 0.  0.
        3    1    3    3  502    0 -0.22546483962E+03 -0.90806846773E+03  0.99913193671E+03  0.13688270063E+04  0.10100000352E+00 0. -1.
       -3    1    3    3    0  502  0.22546483962E+03  0.90806846773E+03 -0.15603574003E+04  0.18193784551E+04  0.10100000352E+00 0.  1.
</event>
<event>
 5   0  0.2078009E-06  0.3098291E+04  0.7818609E-02  0.8216207E-01
        2   -1    0    0  501    0  0.00000000000E+00  0.00000000000E+00  0.20698169301E+04  0.20698169301E+04  0.25500000920E-02 0. -1.
       -2   -1    0    0    0  501  0.00000000000E+00  0.00000000000E+00 -0.11594510858E+04  0.11594510858E+04  0.25500000920E-02 0.  1.
    10030    2    1    2    0    0  0.00000000000E+00  0.00000000000E+00  0.91036584427E+03  0.32292680159E+04  0.30982908108E+04 0.  0.
        3    1    3    3  502    0  0.12016162484E+04 -0.28154997571E+03 -0.52072150148E+03  0.13395159161E+04  0.10100000352E+00 0.  1.
       -3    1    3    3    0  502 -0.12016162484E+04  0.28154997571E+03  0.14310873458E+04  0.18897520998E+04  0.10100000352E+00 0. -1.
</event>
<event>
 5   0  0.7519202E-07  0.3121877E+04  0.7818609E-02  0.8209759E-01
       -1   -1    0    0    0  501  0.00000000000E+00  0.00000000000E+00  0.26156104996E+04  0.26156104996E+04  0.50400001928E-02 0. -1.
        1   -1    0    0  501    0  0.00000000000E+00  0.00000000000E+00 -0.93153367418E+03  0.93153367420E+03  0.50400001928E-02 0.  1.
    10030    2    1    2    0    0  0.00000000000E+00  0.00000000000E+00  0.16840768254E+04  0.35471441738E+04  0.31218771654E+04 0.  0.
        4    1    3    3  502    0  0.51810928830E+03 -0.71847712320E+03  0.23023731405E+04  0.24668948705E+04  0.12699999809E+01 0. -1.
       -4    1    3    3    0  502 -0.51810928830E+03  0.71847712320E+03 -0.61829631506E+03  0.10802493033E+04  0.12699999809E+01 0.  1.
</event>
<event>
 5   0  0.2067926E-06  0.3119321E+04  0.7818609E-02  0.8210455E-01
       -2   -1    0    0    0  501  0.00000000000E+00  0.00000000000E+00  0.13122019892E+04  0.13122019892E+04  0.25500000920E-02 0.  1.
        2   -1    0    0  501    0  0.00000000000E+00  0.00000000000E+00 -0.18537853548E+04  0.18537853548E+04  0.25500000920E-02 0. -1.
    10030    2    1    2    0    0  0.00000000000E+00  0.00000000000E+00 -0.54158336558E+03  0.31659873440E+04  0.31193209711E+04 0.  0.
        1    1    3    3  502    0  0.11768155405E+04 -0.47909636556E+03 -0.11888191450E+04  0.17400342248E+04  0.50400001928E-02 0. -1.
       -1    1    3    3    0  502 -0.11768155405E+04  0.47909636556E+03  0.64723577946E+03  0.14259531192E+04  0.50400001928E-02 0.  1.
</event>
<event>
 5   0  0.2078009E-06  0.3191694E+04  0.7818609E-02  0.8191014E-01
        2   -1    0    0  501    0  0.00000000000E+00  0.00000000000E+00  0.15348795343E+04  0.15348795343E+04  0.25500000920E-02 0.  1.
       -2   -1    0    0    0  501  0.00000000000E+00  0.00000000000E+00 -0.16592363827E+04  0.16592363827E+04  0.25500000920E-02 0. -1.
    10030    2    1    2    0    0  0.00000000000E+00  0.00000000000E+00 -0.12435684836E+03  0.31941159170E+04  0.31916941999E+04 0.  0.
        3    1    3    3  502    0  0.11884935309E+04 -0.21766856481E+03 -0.11054815367E+04  0.16376769875E+04  0.10100000352E+00 0. -1.
       -3    1    3    3    0  502 -0.11884935309E+04  0.21766856481E+03  0.98112468839E+03  0.15564389295E+04  0.10100000352E+00 0.  1.
</event>
<event>
 5   0  0.7561815E-07  0.3068317E+04  0.7818609E-02  0.8224487E-01
        1   -1    0    0  501    0  0.00000000000E+00  0.00000000000E+00  0.18320679603E+04  0.18320679603E+04  0.50400001928E-02 0.  1.
       -1   -1    0    0    0  501  0.00000000000E+00  0.00000000000E+00 -0.12846914894E+04  0.12846914894E+04  0.50400001928E-02 0. -1.
    10030    2    1    2    0    0  0.00000000000E+00  0.00000000000E+00  0.54737647083E+03  0.31167594497E+04  0.30683168784E+04 0.  0.
        3    1    3    3  502    0  0.50857313663E+03 -0.76607762092E+03  0.15211323682E+04  0.17774603366E+04  0.10100000352E+00 0.  1.
       -3    1    3    3    0  502 -0.50857313663E+03  0.76607762092E+03 -0.97375589732E+03  0.13392991131E+04  0.10100000352E+00 0. -1.
</event>
<event>
 5   0  0.2078009E-06  0.3046641E+04  0.7818609E-02  0.8230536E-01
       -2   -1    0    0    0  501  0.00000000000E+00  0.00000000000E+00  0.12383373138E+04  0.12383373138E+04  0.25500000920E-02 0. -1.
        2   -1    0    0  501    0  0.00000000000E+00  0.00000000000E+00 -0.18738877134E+04  0.18738877134E+04  0.25500000920E-02 0.  1.
    10030    2    1    2    0    0  0.00000000000E+00  0.00000000000E+00 -0.63555039954E+03  0.31122250272E+04  0.30466408239E+04 0.  0.
        3    1    3    3  502    0 -0.62286235450E+03  0.13742728188E+04 -0.53186189110E+03  0.15998313582E+04  0.10100000352E+00 0.  1.
       -3    1    3    3    0  502  0.62286235450E+03 -0.13742728188E+04 -0.10368850844E+03  0.15123936690E+04  0.10100000352E+00 0. -1.
</event>
<event>
 5   0  0.2067926E-06  0.3152385E+04  0.7818609E-02  0.8201507E-01
       -2   -1    0    0    0  501  0.00000000000E+00  0.00000000000E+00  0.98509574101E+03  0.98509574101E+03  0.25500000920E-02 0. -1.
        2   -1    0    0  501    0  0.00000000000E+00  0.00000000000E+00 -0.25219703088E+04  0.25219703088E+04  0.25500000920E-02 0.  1.
    10030    2    1    2    0    0  0.00000000000E+00  0.00000000000E+00 -0.15368745677E+04  0.35070660498E+04  0.31523846276E+04 0.  0.
        1    1    3    3  502    0  0.82472688709E+03 -0.86407477077E+03 -0.19125317497E+04  0.22549007387E+04  0.50400001928E-02 0.  1.
       -1    1    3    3    0  502 -0.82472688709E+03  0.86407477077E+03  0.37565718198E+03  0.12521653110E+04  0.50400001928E-02 0. -1.
</event>
<event>
 5   0  0.7656332E-07  0.3101511E+04  0.7818609E-02  0.8215323E-01
        1   -1    0    0  501    0  0.00000000000E+00  0.00000000000E+00  0.97249111331E+03  0.97249111332E+03  0.50400001928E-02 0.  1.
       -1   -1    0    0    0  501  0.00000000000E+00  0.00000000000E+00 -0.24728681501E+04  0.24728681501E+04  0.50400001928E-02 0. -1.
    10030    2    1    2    0    0  0.00000000000E+00  0.00000000000E+00 -0.15003770368E+04  0.34453592634E+04  0.31015107934E+04 0.  0.
        2    1    3    3  502    0 -0.73294221528E+03  0.45369787938E+03  0.68183484689E+03  0.10990654280E+04  0.25500000920E-02 0.  1.
       -2    1    3    3    0  502  0.73294221528E+03 -0.45369787938E+03 -0.21822118837E+04  0.23462938354E+04  0.25500000920E-02 0. -1.
</event>
<event>
 5   0  0.2094135E-06  0.3095496E+04  0.7818609E-02  0.8216975E-01
        2   -1    0    0  501    0  0.00000000000E+00  0.00000000000E+00  0.23055291278E+04  0.23055291278E+04  0.25500000920E-02 0.  1.
       -2   -1    0    0    0  501  0.00000000000E+00  0.00000000000E+00 -0.10390345111E+04  0.10390345111E+04  0.25500000920E-02 0. -1.
    10030    2    1    2    0    0  0.00000000000E+00  0.00000000000E+00  0.12664946167E+04  0.33445636389E+04  0.30954962963E+04 0.  0.
        4    1    3    3  502    0  0.86905350334E+03  0.42925249491E+03 -0.67049424086E+03  0.11785906142E+04  0.12699999809E+01 0. -1.
       -4    1    3    3    0  502 -0.86905350334E+03 -0.42925249491E+03  0.19369888576E+04  0.21659730246E+04  0.12699999809E+01 0.  1.
</event>
<event>
 5   0  0.2133385E-06  0.3108955E+04  0.7818609E-02  0.8213285E-01
       -2   -1    0    0    0  501  0.00000000000E+00  0.00000000000E+00  0.10531074227E+04  0.10531074227E+04  0.25500000920E-02 0.  1.
        2   -1    0    0  501    0  0.00000000000E+00  0.00000000000E+00 -0.22945422946E+04  0.22945422946E+04  0.25500000920E-02 0. -1.
    10030    2    1    2    0    0  0.00000000000E+00  0.00000000000E+00 -0.12414348719E+04  0.33476497173E+04  0.31089545009E+04 0.  0.
        2    1    3    3  502    0  0.29630639673E+03  0.12748415521E+04  0.28235165342E+03  0.13389327541E+04  0.25500000920E-02 0.  1.
       -2    1    3    3    0  502 -0.29630639673E+03 -0.12748415521E+04 -0.15237865253E+04  0.20087169632E+04  0.25500000920E-02 0. -1.
</event>
<event>
 5   0  0.7561815E-07  0.3128586E+04  0.7818609E-02  0.8207936E-01
        1   -1    0    0  501    0  0.00000000000E+00  0.00000000000E+00  0.13625994969E+04  0.13625994969E+04  0.50400001928E-02 0. -1.
       -1   -1    0    0    0  501  0.00000000000E+00  0.00000000000E+00 -0.17958414625E+04  0.17958414625E+04  0.50400001928E-02 0.  1.
    10030    2    1    2    0    0  0.00000000000E+00  0.00000000000E+00 -0.43324196566E+03  0.31584409594E+04  0.31285860534E+04 0.  0.
        3    1    3    3  502    0 -0.62984286658E+02  0.29347011405E+02 -0.17942826885E+04  0.17956276462E+04  0.10100000352E+00 0.  1.
       -3    1    3    3    0  502  0.62984286658E+02 -0.29347011405E+02  0.13610407228E+04  0.13628133132E+04  0.10100000352E+00 0. -1.
</event>
<event>
 5   0  0.7519202E-07  0.3125146E+04  0.7818609E-02  0.8208870E-01
        1   -1    0    0  501    0  0.00000000000E+00  0.00000000000E+00  0.25336236261E+04  0.25336236261E+04  0.50400001928E-02 0.  1.
       -1   -1    0    0    0  501  0.00000000000E+00  0.00000000000E+00 -0.96369269135E+03  0.96369269136E+03  0.50400001928E-02 0. -1.
    10030    2    1    2    0    0  0.00000000000E+00  0.00000000000E+00  0.15699309348E+04  0.34973163175E+04  0.31251461221E+04 0.  0.
        4    1    3    3  502    0  0.71013253220E+03  0.12600404288E+04  0.14466895179E+04  0.20457033679E+04  0.12699999809E+01 0.  1.
       -4    1    3    3    0  502 -0.71013253220E+03 -0.12600404288E+04  0.12324141687E+03  0.14516129495E+04  0.12699999809E+01 0. -1.
</event>
<event>
 5   0  0.7413481E-07  0.3107577E+04  0.7818609E-02  0.8213661E-01
        1   -1    0    0  501    0  0.00000000000E+00  0.00000000000E+00  0.18765557424E+04  0.18765557424E+04  0.50400001928E-02 0.  1.
       -1   -1    0    0    0  501  0.00000000000E+00  0.00000000000E+00 -0.12865375734E+04  0.12865375735E+04  0.50400001928E-02 0. -1.
    10030    2    1    2    0    0  0.00000000000E+00  0.00000000000E+00  0.59001816897E+03  0.31630933159E+04  0.31075774946E+04 0.  0.
        5    1    3    3  502    0  0.73858257254E+03 -0.85866850705E+03  0.13776944386E+04  0.17835021383E+04  0.46999998093E+01 0.  1.
       -5    1    3    3    0  502 -0.73858257254E+03  0.85866850705E+03 -0.78767626958E+03  0.13795911775E+04  0.46999998093E+01 0. -1.
</event>
<event>
 5   0  0.7519202E-07  0.3070026E+04  0.7818609E-02  0.8224012E-01
       -1   -1    0    0    0  501  0.00000000000E+00  0.00000000000E+00  0.15672598554E+04  0.15672598554E+04  0.50400001928E-02 0.  1.
        1   -1    0    0  501    0  0.00000000000E+00  0.00000000000E+00 -0.15034299502E+04  0.15034299502E+04  0.50400001928E-02 0. -1.
    10030    2    1    2    0    0  0.00000000000E+00  0.00000000000E+00  0.63829905160E+02  0.30706898056E+04  0.30700263232E+04 0.  0.
        4    1    3    3  502    0 -0.18932207038E+03  0.86576230174E+03  0.12855319759E+04  0.15614036260E+04  0.12699999809E+01 0.  1.
       -4    1    3    3    0  502  0.18932207038E+03 -0.86576230174E+03 -0.12217020707E+04  0.15092861796E+04  0.12699999809E+01 0. -1.
</event>
<event>
 5   0  0.7726743E-07  0.3112808E+04  0.7818609E-02  0.8212232E-01
        1   -1    0    0  501    0  0.00000000000E+00  0.00000000000E+00  0.10615208174E+04  0.10615208174E+04  0.50400001928E-02 0.  1.
       -1   -1    0    0    0  501  0.00000000000E+00  0.00000000000E+00 -0.22820025620E+04  0.22820025620E+04  0.50400001928E-02 0. -1.
    10030    2    1    2    0    0  0.00000000000E+00  0.00000000000E+00 -0.12204817447E+04  0.33435233794E+04  0.31128078803E+04 0.  0.
        1    1    3    3  502    0 -0.40566906647E+03  0.44443743645E+03 -0.21520031113E+04  0.22345490412E+04  0.50400001928E-02 0. -1.
       -1    1    3    3    0  502  0.40566906647E+03 -0.44443743645E+03  0.93152136660E+03  0.11089743382E+04  0.50400001928E-02 0.  1.
</event>
<event>
 5   0  0.2226334E-06  0.3152069E+04  0.7818609E-02  0.8201592E-01
       -2   -1    0    0    0  501  0.00000000000E+00  0.00000000000E+00  0.15012610672E+04  0.15012610672E+04  0.25500000920E-02 0. -1.
        2   -1    0    0  501    0  0.00000000000E+00  0.00000000000E+00 -0.16545318517E+04  0.16545318517E+04  0.25500000920E-02 0.  1.
    10030    2    1    2    0    0  0.00000000000E+00  0.00000000000E+00 -0.15327078447E+03  0.31557929189E+04  0.31520686880E+04 0.  0.
        5    1    3    3  502    0 -0.11720771961E+04  0.87511104561E+03  0.51080983112E+03  0.15493653763E+04  0.46999998093E+01 0. -1.
       -5    1    3    3    0  502  0.11720771961E+04 -0.87511104561E+03 -0.66408061558E+03  0.16064275426E+04  0.46999998093E+01 0.  1.
</event>
<event>
 5   0  0.7519202E-07  0.3134469E+04  0.7818609E-02  0.8206341E-01
        1   -1    0    0  501    0  0.00000000000E+00  0.00000000000E+00  0.18891639524E+04  0.18891639524E+04  0.50400001928E-02 0. -1.
       -1   -1    0    0    0  501  0.00000000000E+00  0.00000000000E+00 -0.13001648710E+04  0.13001648710E+04  0.50400001928E-02 0.  1.
    10030    2    1    2    0    0  0.00000000000E+00  0.00000000000E+00  0.58899908145E+03  0.31893288234E+04  0.31344694010E+04 0.  0.
        4    1    3    3  502    0  0.64633339461E+03  0.14262556446E+04  0.22800305928E+03  0.15823839701E+04  0.12699999809E+01 0. -1.
       -4    1    3    3    0  502 -0.64633339461E+03 -0.14262556446E+04  0.36099602217E+03  0.16069448533E+04  0.12699999809E+01 0.  1.
</event>
<event>
 5   0  0.2226334E-06  0.3084278E+04  0.7818609E-02  0.8220066E-01
        2   -1    0    0  501    0  0.00000000000E+00  0.00000000000E+00  0.35044712186E+04  0.35044712186E+04  0.25500000920E-02 0.  1.
       -2   -1    0    0    0  501  0.00000000000E+00  0.00000000000E+00 -0.67861676787E+03  0.67861676788E+03  0.25500000920E-02 0. -1.
    10030    2    1    2    0    0  0.00000000000E+00  0.00000000000E+00  0.28258544507E+04  0.41830879865E+04  0.30842781531E+04 0.  0.
        5    1    3    3  502    0  0.11144380566E+04  0.50613495292E+03  0.14062223500E+03  0.12320476758E+04  0.46999998093E+01 0. -1.
       -5    1    3    3    0  502 -0.11144380566E+04 -0.50613495292E+03  0.26852322157E+04  0.29510403106E+04  0.46999998093E+01 0.  1.
</event>
<event>
 5   0  0.2078009E-06  0.3101554E+04  0.7818609E-02  0.8215312E-01
        2   -1    0    0  501    0  0.00000000000E+00  0.00000000000E+00  0.16433987347E+04  0.16433987347E+04  0.25500000920E-02 0. -1.
       -2   -1    0    0    0  501  0.00000000000E+00  0.00000000000E+00 -0.14633752399E+04  0.14633752399E+04  0.25500000920E-02 0.  1.
    10030    2    1    2    0    0  0.00000000000E+00  0.00000000000E+00  0.18002349482E+03  0.31067739746E+04  0.31015538155E+04 0.  0.
        3    1    3    3  502    0 -0.11011511643E+03 -0.51016182749E+02 -0.14586113552E+04  0.14636512855E+04  0.10100000352E+00 0.  1.
       -3    1    3    3    0  502  0.11011511643E+03  0.51016182749E+02  0.16386348500E+04  0.16431226892E+04  0.10100000352E+00 0. -1.
</event>
<event>
 5   0  0.2078009E-06  0.2869403E+04  0.7818609E-02  0.8282040E-01
        2   -1    0    0  501    0  0.00000000000E+00  0.00000000000E+00  0.16786921748E+04  0.16786921748E+04  0.25500000920E-02 0. -1.
       -2   -1    0    0    0  501  0.00000000000E+00  0.00000000000E+00 -0.12261739641E+04  0.12261739641E+04  0.25500000920E-02 0.  1.
    10030    2    1    2    0    0  0.00000000000E+00  0.00000000000E+00  0.45251821072E+03  0.29048661389E+04  0.28694031703E+04 0.  0.
        3    1    3    3  502    0 -0.45838345632E+03 -0.54894801807E+03 -0.10328604726E+04  0.12562882176E+04  0.10100000352E+00 0.  1.
       -3    1    3    3    0  502  0.45838345632E+03  0.54894801807E+03  0.14853786833E+04  0.16485779213E+04  0.10100000352E+00 0. -1.
</event>
<event>
 5   0  0.7413481E-07  0.3093782E+04  0.7818609E-02  0.8217446E-01
       -1   -1    0    0    0  501  0.00000000000E+00  0.00000000000E+00  0.18757923502E+04  0.18757923502E+04  0.50400001928E-02 0. -1.
        1   -1    0    0  501    0  0.00000000000E+00  0.00000000000E+00 -0.12756593030E+04  0.12756593030E+04  0.50400001928E-02 0.  1.
    10030    2    1    2    0    0  0.00000000000E+00  0.00000000000E+00  0.60013304713E+03  0.31514516532E+04  0.30937821268E+04 0.  0.
        5    1    3    3  502    0 -0.12202267007E+04  0.86650023387E+03 -0.98473241483E+02  0.14998316325E+04  0.46999998093E+01 0.  1.
       -5    1    3    3    0  502  0.12202267007E+04 -0.86650023387E+03  0.69860628861E+03  0.16516200207E+04  0.46999998093E+01 0. -1.
</event>
<event>
 5   0  0.2226334E-06  0.3121892E+04  0.7818609E-02  0.8209756E-01
       -2   -1    0    0    0  501  0.00000000000E+00  0.00000000000E+00  0.16466259673E+04  0.16466259673E+04  0.25500000920E-02 0.  1.
        2   -1    0    0  501    0  0.00000000000E+00  0.00000000000E+00 -0.14797239523E+04  0.14797239523E+04  0.25500000920E-02 0. -1.
    10030    2    1    2    0    0  0.00000000000E+00  0.00000000000E+00  0.16690201503E+03  0.31263499196E+04  0.31218916600E+04 0.  0.
        5    1    3    3  502    0 -0.40329735416E+03 -0.65656380071E+03  0.14428891478E+04  0.16357493583E+04  0.46999998093E+01 0.  1.
       -5    1    3    3    0  502  0.40329735416E+03  0.65656380071E+03 -0.12759871328E+04  0.14906005613E+04  0.46999998093E+01 0. -1.
</event>
<event>
 5   0  0.2078009E-06  0.3125285E+04  0.7818609E-02  0.8208833E-01
       -2   -1    0    0    0  501  0.00000000000E+00  0.00000000000E+00  0.13979365370E+04  0.13979365370E+04  0.25500000920E-02 0. -1.
        2   -1    0    0  501    0  0.00000000000E+00  0.00000000000E+00 -0.17467546150E+04  0.17467546150E+04  0.25500000920E-02 0.  1.
    10030    2    1    2    0    0  0.00000000000E+00  0.00000000000E+00 -0.34881807806E+03  0.31446911520E+04  0.31252853293E+04 0.  0.
        3    1    3    3  502    0 -0.11154927736E+04  0.10611867276E+04 -0.44329611923E+03  0.16021712950E+04  0.10100000352E+00 0.  1.
       -3    1    3    3    0  502  0.11154927736E+04 -0.10611867276E+04  0.94478041171E+02  0.15425198570E+04  0.10100000352E+00 0. -1.
</event>
<event>
 5   0  0.7561815E-07  0.3101892E+04  0.7818609E-02  0.8215219E-01
       -1   -1    0    0    0  501  0.00000000000E+00  0.00000000000E+00  0.13541109404E+04  0.13541109404E+04  0.50400001928E-02 0.  1.
        1   -1    0    0  501    0  0.00000000000E+00  0.00000000000E+00 -0.17763936002E+04  0.17763936002E+04  0.50400001928E-02 0. -1.
    10030    2    1    2    0    0  0.00000000000E+00  0.00000000000E+00 -0.42228265972E+03  0.31305045406E+04  0.31018923312E+04 0.  0.
        3    1    3    3  502    0 -0.52463989543E+03 -0.91901619719E+03 -0.13554413624E+04  0.17196101558E+04  0.10100000352E+00 0. -1.
       -3    1    3    3    0  502  0.52463989543E+03  0.91901619719E+03  0.93315870271E+03  0.14108943849E+04  0.10100000352E+00 0.  1.
</event>
<event>
 5   0  0.7561815E-07  0.3078247E+04  0.7818609E-02  0.8221733E-01
        1   -1    0    0  501    0  0.00000000000E+00  0.00000000000E+00  0.19776424085E+04  0.19776424085E+04  0.50400001928E-02 0.  1.
       -1   -1    0    0    0  501  0.00000000000E+00  0.00000000000E+00 -0.11978412805E+04  0.11978412805E+04  0.50400001928E-02 0. -1.
    10030    2    1    2    0    0  0.00000000000E+00  0.00000000000E+00  0.77980112800E+03  0.31754836890E+04  0.30782473683E+04 0.  0.
        3    1    3    3  502    0  0.73078324308E+03 -0.12627971395E+04 -0.11568390164E+03  0.14635858497E+04  0.10100000352E+00 0. -1.
       -3    1    3    3    0  502 -0.73078324308E+03  0.12627971395E+04  0.89548502964E+03  0.17118978394E+04  0.10100000352E+00 0.  1.
</event>
<event>
 5   0  0.7519202E-07  0.3105015E+04  0.7818609E-02  0.8214363E-01
        1   -1    0    0  501    0  0.00000000000E+00  0.00000000000E+00  0.16242723692E+04  0.16242723692E+04  0.50400001928E-02 0. -1.
       -1   -1    0    0    0  501  0.00000000000E+00  0.00000000000E+00 -0.14839132152E+04  0.14839132152E+04  0.50400001928E-02 0.  1.
    10030    2    1    2    0    0  0.00000000000E+00  0.00000000000E+00  0.14035915398E+03  0.31081855844E+04  0.31050148043E+04 0.  0.
        4    1    3    3  502    0 -0.11810963685E+04  0.17688955636E+03 -0.92280067511E+03  0.15092518828E+04  0.12699999809E+01 0.  1.
       -4    1    3    3    0  502  0.11810963685E+04 -0.17688955636E+03  0.10631598291E+04  0.15989337016E+04  0.12699999809E+01 0. -1.
</event>
<event>
 5   0  0.2067926E-06  0.3103685E+04  0.7818609E-02  0.8214727E-01
        2   -1    0    0  501    0  0.00000000000E+00  0.00000000000E+00  0.20219960531E+04  0.20219960531E+04  0.25500000920E-02 0.  1.
       -2   -1    0    0    0  501  0.00000000000E+00  0.00000000000E+00 -0.11910086668E+04  0.11910086668E+04  0.25500000920E-02 0. -1.
    10030    2    1    2    0    0  0.00000000000E+00  0.00000000000E+00  0.83098738632E+03  0.32130047198E+04  0.31036847929E+04 0.  0.
        1    1    3    3  502    0  0.13263556056E+04 -0.67322390302E+03  0.87353169282E+03  0.17249658648E+04  0.50400001928E-02 0.  1.
       -1    1    3    3    0  502 -0.13263556056E+04  0.67322390302E+03 -0.42544306503E+02  0.14880388551E+04  0.50400001928E-02 0. -1.
</event>
<event>
 5   0  0.2226334E-06  0.3110464E+04  0.7818609E-02  0.8212872E-01
       -2   -1    0    0    0  501  0.00000000000E+00  0.00000000000E+00  0.12160426402E+04  0.12160426402E+04  0.25500000920E-02 0.  1.
        2   -1    0    0  501    0  0.00000000000E+00  0.00000000000E+00 -0.19890315139E+04  0.19890315139E+04  0.25500000920E-02 0. -1.
    10030    2    1    2    0    0  0.00000000000E+00  0.00000000000E+00 -0.77298887365E+03  0.32050741541E+04  0.31104643600E+04 0.  0.
        5    1    3    3  502    0 -0.54448943096E+03  0.10575750737E+04 -0.14188624952E+04  0.18515200910E+04  0.46999998093E+01 0. -1.
       -5    1    3    3    0  502  0.54448943096E+03 -0.10575750737E+04  0.64587362158E+03  0.13535540632E+04  0.46999998093E+01 0.  1.
</event>
<event>
 5   0  0.2133385E-06  0.3119269E+04  0.7818609E-02  0.8210470E-01
       -2   -1    0    0    0  501  0.00000000000E+00  0.00000000000E+00  0.12259974317E+04  0.12259974317E+04  0.25500000920E-02 0.  1.
        2   -1    0    0  501    0  0.00000000000E+00  0.00000000000E+00 -0.19840656307E+04  0.19840656307E+04  0.25500000920E-02 0. -1.
    10030    2    1    2    0    0  0.00000000000E+00  0.00000000000E+00 -0.75806819898E+03  0.32100630625E+04  0.31192687397E+04 0.  0.
        2    1    3    3  502    0 -0.39839685978E+02 -0.54453619428E+03  0.11244327098E+04  0.12499823144E+04  0.25500000920E-02 0.  1.
       -2    1    3    3    0  502  0.39839685978E+02  0.54453619428E+03 -0.18825009088E+04  0.19600807481E+04  0.25500000920E-02 0. -1.
</event>
<event>
 5   0  0.2078009E-06  0.3105434E+04  0.7818609E-02  0.8214248E-01
       -2   -1    0    0    0  501  0.00000000000E+00  0.00000000000E+00  0.17460591454E+04  0.17460591454E+04  0.25500000920E-02 0.  1.
        2   -1    0    0  501    0  0.00000000000E+00  0.00000000000E+00 -0.13807838719E+04  0.13807838719E+04  0.25500000920E-02 0. -1.
    10030    2    1    2    0    0  0.00000000000E+00  0.00000000000E+00  0.36527527344E+03  0.31268430173E+04  0.31054341451E+04 0.  0.
        3    1    3    3  502    0  0.82207999364E+03  0.10353228130E+04 -0.63736082458E+03  0.14676299513E+04  0.10100000352E+00 0.  1.
       -3    1    3    3    0  502 -0.82207999364E+03 -0.10353228130E+04  0.10026360980E+04  0.16592130660E+04  0.10100000352E+00 0. -1.
</event>
<event>
 5   0  0.7656332E-07  0.3106309E+04  0.7818609E-02  0.8214009E-01
       -1   -1    0    0    0  501  0.00000000000E+00  0.00000000000E+00  0.13788443279E+04  0.13788443279E+04  0.50400001928E-02 0.  1.
        1   -1    0    0  501    0  0.00000000000E+00  0.00000000000E+00 -0.17495004709E+04  0.17495004710E+04  0.50400001928E-02 0. -1.
    10030    2    1    2    0    0  0.00000000000E+00  0.00000000000E+00 -0.37065614300E+03  0.31283447989E+04  0.31063089358E+04 0.  0.
        2    1    3    3  502    0 -0.23349585736E+02  0.13218056361E+04 -0.10063248711E+04  0.16614466856E+04  0.25500000920E-02 0. -1.
       -2    1    3    3    0  502  0.23349585736E+02 -0.13218056361E+04  0.63566872811E+03  0.14668981133E+04  0.25500000920E-02 0.  1.
</event>
<event>
 5   0  0.7726743E-07  0.3094370E+04  0.7818609E-02  0.8217285E-01
       -1   -1    0    0    0  501  0.00000000000E+00  0.00000000000E+00  0.87984957228E+03  0.87984957230E+03  0.50400001928E-02 0.  1.
        1   -1    0    0  501    0  0.00000000000E+00  0.00000000000E+00 -0.27206706844E+04  0.27206706844E+04  0.50400001928E-02 0. -1.
    10030    2    1    2    0    0  0.00000000000E+00  0.00000000000E+00 -0.18408211122E+04  0.36005202567E+04  0.30943696858E+04 0.  0.
        1    1    3    3  502    0  0.41565923862E+03  0.58851033957E+03  0.67273248466E+03  0.98574135470E+03  0.50400001928E-02 0. -1.
       -1    1    3    3    0  502 -0.41565923862E+03 -0.58851033957E+03 -0.25135535968E+04  0.26147789020E+04  0.50400001928E-02 0.  1.
</event>
<event>
 5   0  0.2078009E-06  0.3071173E+04  0.7818609E-02  0.8223694E-01
       -2   -1    0    0    0  501  0.00000000000E+00  0.00000000000E+00  0.11403711254E+04  0.11403711254E+04  0.25500000920E-02 0.  1.
        2   -1    0    0  501    0  0.00000000000E+00  0.00000000000E+00 -0.20677702425E+04  0.20677702425E+04  0.25500000920E-02 0. -1.
    10030    2    1    2    0    0  0.00000000000E+00  0.00000000000E+00 -0.92739911713E+03  0.32081413679E+04  0.30711727262E+04 0.  0.
        3    1    3    3  502    0  0.83542124017E+02  0.75328138518E+03  0.93138204077E+03  0.12007850132E+04  0.10100000352E+00 0.  1.
       -3    1    3    3    0  502 -0.83542124017E+02 -0.75328138518E+03 -0.18587811579E+04  0.20073563547E+04  0.10100000352E+00 0. -1.
</event>
<event>
 5   0  0.2226334E-06  0.3097072E+04  0.7818609E-02  0.8216542E-01
        2   -1    0    0  501    0  0.00000000000E+00  0.00000000000E+00  0.10583938149E+04  0.10583938150E+04  0.25500000920E-02 0.  1.
       -2   -1    0    0    0  501  0.00000000000E+00  0.00000000000E+00 -0.22656623555E+04  0.22656623555E+04  0.25500000920E-02 0. -1.
    10030    2    1    2    0    0  0.00000000000E+00  0.00000000000E+00 -0.12072685406E+04  0.33240561705E+04  0.30970715354E+04 0.  0.
        5    1    3    3  502    0 -0.84475047588E+03  0.41662688753E+03  0.71557835542E+03  0.11829014340E+04  0.46999998093E+01 0.  1.
       -5    1    3    3    0  502  0.84475047588E+03 -0.41662688753E+03 -0.19228468960E+04  0.21411547364E+04  0.46999998093E+01 0. -1.
</event>
<event>
 5   0  0.7561815E-07  0.3106923E+04  0.7818609E-02  0.8213840E-01
        1   -1    0    0  501    0  0.00000000000E+00  0.00000000000E+00  0.14447022543E+04  0.14447022543E+04  0.50400001928E-02 0. -1.
       -1   -1    0    0    0  501  0.00000000000E+00  0.00000000000E+00 -0.16704086973E+04  0.16704086973E+04  0.50400001928E-02 0.  1.
    10030    2    1    2    0    0  0.00000000000E+00  0.00000000000E+00 -0.22570644298E+03  0.31151109515E+04  0.31069233724E+04 0.  0.
        3    1    3    3  502    0  0.13306678163E+04  0.59256693788E+03 -0.65411915251E+03  0.15967730863E+04  0.10100000352E+00 0.  1.
       -3    1    3    3    0  502 -0.13306678163E+04 -0.59256693788E+03  0.42841270953E+03  0.15183378653E+04  0.10100000352E+00 0. -1.
</event>
<event>
 5   0  0.7519202E-07  0.3099354E+04  0.7818609E-02  0.8215915E-01
       -1   -1    0    0    0  501  0.00000000000E+00  0.00000000000E+00  0.16385935137E+04  0.16385935137E+04  0.50400001928E-02 0.  1.
        1   -1    0    0  501    0  0.00000000000E+00  0.00000000000E+00 -0.14655855781E+04  0.14655855781E+04  0.50400001928E-02 0. -1.
    10030    2    1    2    0    0  0.00000000000E+00  0.00000000000E+00  0.17300793565E+03  0.31041790918E+04  0.30993541405E+04 0.  0.
        4    1    3    3  502    0 -0.52412485487E+03  0.14532661818E+04  0.20838132941E+03  0.15588822438E+04  0.12699999809E+01 0. -1.
       -4    1    3    3    0  502  0.52412485487E+03 -0.14532661818E+04 -0.35373393760E+02  0.15452968480E+04  0.12699999809E+01 0.  1.
</event>
<event>
 5   0  0.7656332E-07  0.3060620E+04  0.7818609E-02  0.8226629E-01
        1   -1    0    0  501    0  0.00000000000E+00  0.00000000000E+00  0.20837783691E+04  0.20837783691E+04  0.50400001928E-02 0. -1.
       -1   -1    0    0    0  501  0.00000000000E+00  0.00000000000E+00 -0.11238475500E+04  0.11238475500E+04  0.50400001928E-02 0.  1.
    10030    2    1    2    0    0  0.00000000000E+00  0.00000000000E+00  0.95993081916E+03  0.32076259191E+04  0.30606203390E+04 0.  0.
        2    1    3    3  502    0 -0.14719728668E+04 -0.10135609187E+03  0.90551262780E+03  0.17311644339E+04  0.25500000920E-02 0. -1.
       -2    1    3    3    0  502  0.14719728668E+04  0.10135609187E+03  0.54418191360E+02  0.14764614853E+04  0.25500000920E-02 0.  1.
</event>
<event>
 5   0  0.2094135E-06  0.3099763E+04  0.7818609E-02  0.8215803E-01
        2   -1    0    0  501    0  0.00000000000E+00  0.00000000000E+00  0.21606880066E+04  0.21606880066E+04  0.25500000920E-02 0.  1.
       -2   -1    0    0    0  501  0.00000000000E+00  0.00000000000E+00 -0.11117446060E+04  0.11117446060E+04  0.25500000920E-02 0. -1.
    10030    2    1    2    0    0  0.00000000000E+00  0.00000000000E+00  0.10489434007E+04  0.32724326126E+04  0.30997633694E+04 0.  0.
        4    1    3    3  502    0 -0.41583528729E+03  0.28618369008E+03 -0.10225261088E+04  0.11403426445E+04  0.12699999809E+01 0. -1.
       -4    1    3    3    0  502  0.41583528729E+03 -0.28618369008E+03  0.20714695095E+04  0.21320899681E+04  0.12699999809E+01 0.  1.
</event>
<event>
 5   0  0.7413481E-07  0.3296789E+04  0.7818609E-02  0.8163713E-01
       -1   -1    0    0    0  501  0.00000000000E+00  0.00000000000E+00  0.26183591192E+04  0.26183591192E+04  0.50400001928E-02 0.  1.
        1   -1    0    0  501    0  0.00000000000E+00  0.00000000000E+00 -0.10377507212E+04  0.10377507212E+04  0.50400001928E-02 0. -1.
    10030    2    1    2    0    0  0.00000000000E+00  0.00000000000E+00  0.15806083980E+04  0.36561098404E+04  0.32967887795E+04 0.  0.
        5    1    3    3  502    0  0.90174273405E+03 -0.12156246054E+04  0.66226479573E+02  0.15150218402E+04  0.46999998093E+01 0. -1.
       -5    1    3    3    0  502 -0.90174273405E+03  0.12156246054E+04  0.15143819185E+04  0.21410880002E+04  0.46999998093E+01 0.  1.
</event>
<event>
 5   0  0.2226334E-06  0.3464950E+04  0.7818609E-02  0.8122147E-01
       -2   -1    0    0    0  501  0.00000000000E+00  0.00000000000E+00  0.16166533633E+04  0.16166533633E+04  0.25500000920E-02 0.  1.
        2   -1    0    0  501    0  0.00000000000E+00  0.00000000000E+00 -0.18565944585E+04  0.18565944585E+04  0.25500000920E-02 0. -1.
    10030    2    1    2    0    0  0.00000000000E+00  0.00000000000E+00 -0.23994109521E+03  0.34732478218E+04  0.34649500289E+04 0.  0.
        5    1    3    3  502    0  0.15102790528E+04  0.24762016593E+03  0.69387834962E+03  0.16804010884E+04  0.46999998093E+01 0.  1.
       -5    1    3    3    0  502 -0.15102790528E+04 -0.24762016593E+03 -0.93381944483E+03  0.17928467334E+04  0.46999998093E+01 0. -1.
</event>
<event>
 5   0  0.7656332E-07  0.3088460E+04  0.7818609E-02  0.8218912E-01
        1   -1    0    0  501    0  0.00000000000E+00  0.00000000000E+00  0.97392782061E+03  0.97392782062E+03  0.50400001928E-02 0. -1.
       -1   -1    0    0    0  501  0.00000000000E+00  0.00000000000E+00 -0.24484841753E+04  0.24484841753E+04  0.50400001928E-02 0.  1.
    10030    2    1    2    0    0  0.00000000000E+00  0.00000000000E+00 -0.14745563547E+04  0.34224119960E+04  0.30884603651E+04 0.  0.
        2    1    3    3  502    0  0.71928330817E+02  0.24124498818E+03 -0.24255931161E+04  0.24386214946E+04  0.25500000920E-02 0.  1.
       -2    1    3    3    0  502 -0.71928330817E+02 -0.24124498818E+03  0.95103676136E+03  0.98379050136E+03  0.25500000920E-02 0. -1.
</event>
<event>
 5   0  0.2067926E-06  0.3099478E+04  0.7818609E-02  0.8215881E-01
        2   -1    0    0  501    0  0.00000000000E+00  0.00000000000E+00  0.18214198744E+04  0.18214198744E+04  0.25500000920E-02 0. -1.
       -2   -1    0    0    0  501  0.00000000000E+00  0.00000000000E+00 -0.13185814636E+04  0.13185814636E+04  0.25500000920E-02 0.  1.
    10030    2    1    2    0    0  0.00000000000E+00  0.00000000000E+00  0.50283841073E+03  0.31400013380E+04  0.30994776875E+04 0.  0.
        1    1    3    3  502    0 -0.85258615052E+03 -0.48139443417E+03 -0.96555540484E+03  0.13751148989E+04  0.50400001928E-02 0.  1.
       -1    1    3    3    0  502  0.85258615052E+03  0.48139443417E+03  0.14683938156E+04  0.17648864391E+04  0.50400001928E-02 0. -1.
</event>
<event>
 5   0  0.7413481E-07  0.3122191E+04  0.7818609E-02  0.8209674E-01
       -1   -1    0    0    0  501  0.00000000000E+00  0.00000000000E+00  0.17707537010E+04  0.17707537010E+04  0.50400001928E-02 0. -1.
        1   -1    0    0  501    0  0.00000000000E+00  0.00000000000E+00 -0.13762609748E+04  0.13762609748E+04  0.50400001928E-02 0.  1.
    10030    2    1    2    0    0  0.00000000000E+00  0.00000000000E+00  0.39449272620E+03  0.31470146758E+04  0.31221910350E+04 0.  0.
        5    1    3    3  502    0  0.30585216201E+03 -0.91960404339E+03  0.14308149657E+04  0.17281408211E+04  0.46999998093E+01 0. -1.
       -5    1    3    3    0  502 -0.30585216201E+03  0.91960404339E+03 -0.10363222395E+04  0.14188738547E+04  0.46999998093E+01 0.  1.
</event>
<event>
 5   0  0.7656332E-07  0.3109891E+04  0.7818609E-02  0.8213029E-01
       -1   -1    0    0    0  501  0.00000000000E+00  0.00000000000E+00  0.10136041828E+04  0.10136041828E+04  0.50400001928E-02 0.  1.
        1   -1    0    0  501    0  0.00000000000E+00  0.00000000000E+00 -0.23854047121E+04  0.23854047121E+04  0.50400001928E-02 0. -1.
    10030    2    1    2    0    0  0.00000000000E+00  0.00000000000E+00 -0.13718005292E+04  0.33990088949E+04  0.31098914411E+04 0.  0.
        2    1    3    3  502    0 -0.28027461617E+03  0.97514643965E+03  0.60194321924E+03  0.11797457686E+04  0.25500000920E-02 0.  1.
       -2    1    3    3    0  502  0.28027461617E+03 -0.97514643965E+03 -0.19737437485E+04  0.22192631263E+04  0.25500000920E-02 0. -1.
</event>
<event>
 5   0  0.2133385E-06  0.3102646E+04  0.7818609E-02  0.8215012E-01
        2   -1    0    0  501    0  0.00000000000E+00  0.00000000000E+00  0.87616425799E+03  0.87616425800E+03  0.25500000920E-02 0. -1.
       -2   -1    0    0    0  501  0.00000000000E+00  0.00000000000E+00 -0.27467483081E+04  0.27467483081E+04  0.25500000920E-02 0.  1.
    10030    2    1    2    0    0  0.00000000000E+00  0.00000000000E+00 -0.18705840501E+04  0.36229125661E+04  0.31026457698E+04 0.  0.
        2    1    3    3  502    0  0.55984018870E+03 -0.14195847364E+03 -0.26165269141E+04  0.26795123320E+04  0.25500000920E-02 0.  1.
       -2    1    3    3    0  502 -0.55984018870E+03  0.14195847364E+03  0.74594286406E+03  0.94340023403E+03  0.25500000920E-02 0. -1.
</event>
<event>
 5   0  0.2133385E-06  0.3100305E+04  0.7818609E-02  0.8215654E-01
        2   -1    0    0  501    0  0.00000000000E+00  0.00000000000E+00  0.22195283036E+04  0.22195283036E+04  0.25500000920E-02 0. -1.
       -2   -1    0    0    0  501  0.00000000000E+00  0.00000000000E+00 -0.10826502039E+04  0.10826502039E+04  0.25500000920E-02 0.  1.
    10030    2    1    2    0    0  0.00000000000E+00  0.00000000000E+00  0.11368780997E+04  0.33021785075E+04  0.31003049982E+04 0.  0.
        2    1    3    3  502    0 -0.10555076017E+04  0.11339588283E+04  0.50996585028E+03  0.16309580283E+04  0.25500000920E-02 0.  1.
       -2    1    3    3    0  502  0.10555076017E+04 -0.11339588283E+04  0.62691224938E+03  0.16712204792E+04  0.25500000920E-02 0. -1.
</event>
<event>
 5   0  0.2094135E-06  0.3100957E+04  0.7818609E-02  0.8215475E-01
        2   -1    0    0  501    0  0.00000000000E+00  0.00000000000E+00  0.20279060601E+04  0.20279060601E+04  0.25500000920E-02 0.  1.
       -2   -1    0    0    0  501  0.00000000000E+00  0.00000000000E+00 -0.11854510438E+04  0.11854510438E+04  0.25500000920E-02 0. -1.
    10030    2    1    2    0    0  0.00000000000E+00  0.00000000000E+00  0.84245501628E+03  0.32133571039E+04  0.31009568560E+04 0.  0.
        4    1    3    3  502    0  0.99634379151E+03 -0.40605294259E+03  0.15781181330E+04  0.19099838737E+04  0.12699999809E+01 0.  1.
       -4    1    3    3    0  502 -0.99634379151E+03  0.40605294259E+03 -0.73566311672E+03  0.13033732302E+04  0.12699999809E+01 0. -1.
</event>
<event>
 5   0  0.2133385E-06  0.3105072E+04  0.7818609E-02  0.8214347E-01
        2   -1    0    0  501    0  0.00000000000E+00  0.00000000000E+00  0.12736978784E+04  0.12736978784E+04  0.25500000920E-02 0.  1.
       -2   -1    0    0    0  501  0.00000000000E+00  0.00000000000E+00 -0.18924179459E+04  0.18924179459E+04  0.25500000920E-02 0. -1.
    10030    2    1    2    0    0  0.00000000000E+00  0.00000000000E+00 -0.61872006747E+03  0.31661158244E+04  0.31050724454E+04 0.  0.
        2    1    3    3  502    0 -0.97959049835E+03  0.10333412995E+04  0.32165742001E+03  0.14597449372E+04  0.25500000920E-02 0.  1.
       -2    1    3    3    0  502  0.97959049835E+03 -0.10333412995E+04 -0.94037748747E+03  0.17063708872E+04  0.25500000920E-02 0. -1.
</event>
<event>
 5   0  0.2133385E-06  0.3072971E+04  0.7818609E-02  0.8223195E-01
        2   -1    0    0  501    0  0.00000000000E+00  0.00000000000E+00  0.20647723166E+04  0.20647723166E+04  0.25500000920E-02 0. -1.
       -2   -1    0    0    0  501  0.00000000000E+00  0.00000000000E+00 -0.11433645587E+04  0.11433645587E+04  0.25500000920E-02 0.  1.
    10030    2    1    2    0    0  0.00000000000E+00  0.00000000000E+00  0.92140775788E+03  0.32081368753E+04  0.30729708678E+04 0.  0.
        2    1    3    3  502    0  0.11965906080E+04  0.73481949457E+03 -0.19042735714E+03  0.14170572858E+04  0.25500000920E-02 0. -1.
       -2    1    3    3    0  502 -0.11965906080E+04 -0.73481949457E+03  0.11118351150E+04  0.17910795895E+04  0.25500000920E-02 0.  1.
</event>
<event>
 5   0  0.2078009E-06  0.3079207E+04  0.7818609E-02  0.8221468E-01
       -2   -1    0    0    0  501  0.00000000000E+00  0.00000000000E+00  0.85582341940E+03  0.85582341940E+03  0.25500000920E-02 0.  1.
        2   -1    0    0  501    0  0.00000000000E+00  0.00000000000E+00 -0.27697058798E+04  0.27697058798E+04  0.25500000920E-02 0. -1.
    10030    2    1    2    0    0  0.00000000000E+00  0.00000000000E+00 -0.19138824604E+04  0.36255292992E+04  0.30792071426E+04 0.  0.
        3    1    3    3  502    0  0.10026650563E+04 -0.96038043285E+03 -0.17403579654E+04  0.22263228986E+04  0.10100000352E+00 0.  1.
       -3    1    3    3    0  502 -0.10026650563E+04  0.96038043285E+03 -0.17352449496E+03  0.13992064006E+04  0.10100000352E+00 0. -1.
</event>
<event>
 5   0  0.7519202E-07  0.3105536E+04  0.7818609E-02  0.8214220E-01
       -1   -1    0    0    0  501  0.00000000000E+00  0.00000000000E+00  0.14499938817E+04  0.14499938817E+04  0.50400001928E-02 0. -1.
        1   -1    0    0  501    0  0.00000000000E+00  0.00000000000E+00 -0.16628266267E+04  0.16628266267E+04  0.50400001928E-02 0.  1.
    10030    2    1    2    0    0  0.00000000000E+00  0.00000000000E+00 -0.21283274497E+03  0.31128205084E+04  0.31055359828E+04 0.  0.
        4    1    3    3  502    0  0.11681639961E+04 -0.81990825957E+03 -0.71959484347E+03  0.15983350799E+04  0.12699999809E+01 0.  1.
       -4    1    3    3    0  502 -0.11681639961E+04  0.81990825957E+03  0.50676209850E+03  0.15144854285E+04  0.12699999809E+01 0. -1.
</event>
<event>
 5   0  0.7726743E-07  0.3167967E+04  0.7818609E-02  0.8197329E-01
        1   -1    0    0  501    0  0.00000000000E+00  0.00000000000E+00  0.10675443547E+04  0.10675443547E+04  0.50400001928E-02 0.  1.
       -1   -1    0    0    0  501  0.00000000000E+00  0.00000000000E+00 -0.23502564830E+04  0.23502564830E+04  0.50400001928E-02 0. -1.
    10030    2    1    2    0    0  0.00000000000E+00  0.00000000000E+00 -0.12827121283E+04  0.34178008377E+04  0.31679665658E+04 0.  0.
        1    1    3    3  502    0  0.41951788746E+03  0.54353108605E+03  0.89865443801E+03  0.11309293074E+04  0.50400001928E-02 0.  1.
       -1    1    3    3    0  502 -0.41951788746E+03 -0.54353108605E+03 -0.21813665663E+04  0.22868715303E+04  0.50400001928E-02 0. -1.
</event>
<event>
 5   0  0.7561815E-07  0.3060239E+04  0.7818609E-02  0.8226735E-01
       -1   -1    0    0    0  501  0.00000000000E+00  0.00000000000E+00  0.16604651431E+04  0.16604651431E+04  0.50400001928E-02 0. -1.
        1   -1    0    0  501    0  0.00000000000E+00  0.00000000000E+00 -0.14100060625E+04  0.14100060625E+04  0.50400001928E-02 0.  1.
    10030    2    1    2    0    0  0.00000000000E+00  0.00000000000E+00  0.25045908060E+03  0.30704712057E+04  0.30602391531E+04 0.  0.
        3    1    3    3  502    0  0.12762450218E+04 -0.78913712633E+03  0.42577598508E+03  0.15597512492E+04  0.10100000352E+00 0. -1.
       -3    1    3    3    0  502 -0.12762450218E+04  0.78913712633E+03 -0.17531690447E+03  0.15107199565E+04  0.10100000352E+00 0.  1.
</event>
<event>
 5   0  0.7656332E-07  0.3103716E+04  0.7818609E-02  0.8214719E-01
       -1   -1    0    0    0  501  0.00000000000E+00  0.00000000000E+00  0.24269598776E+04  0.24269598776E+04  0.50400001928E-02 0.  1.
        1   -1    0    0  501    0  0.00000000000E+00  0.00000000000E+00 -0.99229616393E+03  0.99229616394E+03  0.50400001928E-02 0. -1.
    10030    2    1    2    0    0  0.00000000000E+00  0.00000000000E+00  0.14346637136E+04  0.34192560415E+04  0.31037158224E+04 0.  0.
        2    1    3    3  502    0  0.26344715885E+03 -0.13226912067E+04 -0.12840458221E+03  0.13547708923E+04  0.25500000920E-02 0. -1.
       -2    1    3    3    0  502 -0.26344715885E+03  0.13226912067E+04  0.15630682959E+04  0.20644851492E+04  0.25500000920E-02 0.  1.
</event>
<event>
 5   0  0.7561815E-07  0.3129613E+04  0.7818609E-02  0.8207658E-01
       -1   -1    0    0    0  501  0.00000000000E+00  0.00000000000E+00  0.13630643574E+04  0.13630643575E+04  0.50400001928E-02 0.  1.
        1   -1    0    0  501    0  0.00000000000E+00  0.00000000000E+00 -0.17964074053E+04  0.17964074053E+04  0.50400001928E-02 0. -1.
    10030    2    1    2    0    0  0.00000000000E+00  0.00000000000E+00 -0.43334304787E+03  0.31594717628E+04  0.31296126953E+04 0.  0.
        3    1    3    3  502    0 -0.47657781785E+03 -0.45316230154E+03 -0.16501257837E+04  0.17763438857E+04  0.10100000352E+00 0. -1.
       -3    1    3    3    0  502  0.47657781785E+03  0.45316230154E+03  0.12167827358E+04  0.13831278771E+04  0.10100000352E+00 0.  1.
</event>
<event>
 5   0  0.2094135E-06  0.3112527E+04  0.7818609E-02  0.8212308E-01
       -2   -1    0    0    0  501  0.00000000000E+00  0.00000000000E+00  0.12297079393E+04  0.12297079393E+04  0.25500000920E-02 0.  1.
        2   -1    0    0  501    0  0.00000000000E+00  0.00000000000E+00 -0.19695372390E+04  0.19695372390E+04  0.25500000920E-02 0. -1.
    10030    2    1    2    0    0  0.00000000000E+00  0.00000000000E+00 -0.73982929977E+03  0.31992451783E+04  0.31125266775E+04 0.  0.
        4    1    3    3  502    0 -0.72599970489E+03  0.81786133952E+03  0.76817467880E+03  0.13364380615E+04  0.12699999809E+01 0.  1.
       -4    1    3    3    0  502  0.72599970489E+03 -0.81786133952E+03 -0.15080039786E+04  0.18628071168E+04  0.12699999809E+01 0. -1.
</event>
<event>
 5   0  0.2094135E-06  0.3110667E+04  0.7818609E-02  0.8212817E-01
        2   -1    0    0  501    0  0.00000000000E+00  0.00000000000E+00  0.20661002859E+04  0.20661002859E+04  0.25500000920E-02 0. -1.
       -2   -1    0    0    0  501  0.00000000000E+00  0.00000000000E+00 -0.11708349626E+04  0.11708349626E+04  0.25500000920E-02 0.  1.
    10030    2    1    2    0    0  0.00000000000E+00  0.00000000000E+00  0.89526532322E+03  0.32369352485E+04  0.31106670995E+04 0.  0.
        4    1    3    3  502    0  0.13570820724E+04  0.46047272277E+03 -0.18134813261E+03  0.14445053263E+04  0.12699999809E+01 0. -1.
       -4    1    3    3    0  502 -0.13570820724E+04 -0.46047272277E+03  0.10766134558E+04  0.17924299222E+04  0.12699999809E+01 0.  1.
</event>
<event>
 5   0  0.2133385E-06  0.3052004E+04  0.7818609E-02  0.8229035E-01
        2   -1    0    0  501    0  0.00000000000E+00  0.00000000000E+00  0.15869558408E+04  0.15869558408E+04  0.25500000920E-02 0. -1.
       -2   -1    0    0    0  501  0.00000000000E+00  0.00000000000E+00 -0.14673898245E+04  0.14673898245E+04  0.25500000920E-02 0.  1.
    10030    2    1    2    0    0  0.00000000000E+00  0.00000000000E+00  0.11956601631E+03  0.30543456653E+04  0.30520044907E+04 0.  0.
        2    1    3    3  502    0 -0.61378912247E+03 -0.13952029808E+04  0.13301296220E+03  0.15300395068E+04  0.25500000920E-02 0.  1.
       -2    1    3    3    0  502  0.61378912247E+03  0.13952029808E+04 -0.13446945893E+02  0.15243061585E+04  0.25500000920E-02 0. -1.
</event>
<event>
 5   0  0.6979625E-07  0.3095572E+04  0.7818609E-02  0.8216954E-01
        3   -1    0    0  501    0  0.00000000000E+00  0.00000000000E+00  0.14244638811E+04  0.14244638847E+04  0.10100000352E+00 0. -1.
       -3   -1    0    0    0  501  0.00000000000E+00  0.00000000000E+00 -0.16817843807E+04  0.16817843837E+04  0.10100000352E+00 0.  1.
    10030    2    1    2    0    0  0.00000000000E+00  0.00000000000E+00 -0.25732049962E+03  0.31062482684E+04  0.30955717510E+04 0.  0.
        4    1    3    3  502    0  0.83021317022E+03 -0.90137187092E+03  0.82007108051E+03  0.14745315689E+04  0.12699999809E+01 0. -1.
       -4    1    3    3    0  502 -0.83021317022E+03  0.90137187092E+03 -0.10773915801E+04  0.16317166995E+04  0.12699999809E+01 0.  1.
</event>
<event>
 5   0  0.7519202E-07  0.3092823E+04  0.7818609E-02  0.8217710E-01
       -1   -1    0    0    0  501  0.00000000000E+00  0.00000000000E+00  0.14503297903E+04  0.14503297903E+04  0.50400001928E-02 0. -1.
        1   -1    0    0  501    0  0.00000000000E+00  0.00000000000E+00 -0.16488580650E+04  0.16488580650E+04  0.50400001928E-02 0.  1.
    10030    2    1    2    0    0  0.00000000000E+00  0.00000000000E+00 -0.19852827477E+03  0.30991878553E+04  0.30928226407E+04 0.  0.
        4    1    3    3  502    0  0.10511521486E+04  0.90869445863E+03 -0.77943934453E+03  0.15931647006E+04  0.12699999809E+01 0.  1.
       -4    1    3    3    0  502 -0.10511521486E+04 -0.90869445863E+03  0.58091106976E+03  0.15060231547E+04  0.12699999809E+01 0. -1.
</event>
<event>
 5   0  0.7561815E-07  0.3075650E+04  0.7818609E-02  0.8222453E-01
       -1   -1    0    0    0  501  0.00000000000E+00  0.00000000000E+00  0.88960843194E+03  0.88960843196E+03  0.50400001928E-02 0. -1.
        1   -1    0    0  501    0  0.00000000000E+00  0.00000000000E+00 -0.26583664552E+04  0.26583664552E+04  0.50400001928E-02 0.  1.
    10030    2    1    2    0    0  0.00000000000E+00  0.00000000000E+00 -0.17687580233E+04  0.35479748872E+04  0.30756496639E+04 0.  0.
        3    1    3    3  502    0  0.12464774323E+04 -0.85691353739E+03 -0.12042702422E+04  0.19334615658E+04  0.10100000352E+00 0.  1.
       -3    1    3    3    0  502 -0.12464774323E+04  0.85691353739E+03 -0.56448778111E+03  0.16145133214E+04  0.10100000352E+00 0. -1.
</event>
<event>
 5   0  0.7519202E-07  0.3096800E+04  0.7818609E-02  0.8216617E-01
        1   -1    0    0  501    0  0.00000000000E+00  0.00000000000E+00  0.21521256256E+04  0.21521256256E+04  0.50400001928E-02 0.  1.
       -1   -1    0    0    0  501  0.00000000000E+00  0.00000000000E+00 -0.11140346658E+04  0.11140346658E+04  0.50400001928E-02 0. -1.
    10030    2    1    2    0    0  0.00000000000E+00  0.00000000000E+00  0.10380909598E+04  0.32661602914E+04  0.30967999949E+04 0.  0.
        4    1    3    3  502    0  0.53393549993E+03  0.99171136585E+03  0.16396801994E+04  0.19892539607E+04  0.12699999809E+01 0.  1.
       -4    1    3    3    0  502 -0.53393549993E+03 -0.99171136585E+03 -0.60158923956E+03  0.12769063307E+04  0.12699999809E+01 0. -1.
</event>
<event>
 5   0  0.7519202E-07  0.3083659E+04  0.7818609E-02  0.8220237E-01
       -1   -1    0    0    0  501  0.00000000000E+00  0.00000000000E+00  0.16635486786E+04  0.16635486786E+04  0.50400001928E-02 0. -1.
        1   -1    0    0  501    0  0.00000000000E+00  0.00000000000E+00 -0.14290164923E+04  0.14290164923E+04  0.50400001928E-02 0.  1.
    10030    2    1    2    0    0  0.00000000000E+00  0.00000000000E+00  0.23453218638E+03  0.30925651709E+04  0.30836591883E+04 0.  0.
        4    1    3    3  502    0 -0.77131362966E+03 -0.13284275271E+04  0.25028579019E+03  0.15563704571E+04  0.12699999809E+01 0.  1.
       -4    1    3    3    0  502  0.77131362966E+03  0.13284275271E+04 -0.15753603811E+02  0.15361947139E+04  0.12699999809E+01 0. -1.
</event>
<event>
 5   0  0.2067926E-06  0.3112811E+04  0.7818609E-02  0.8212231E-01
       -2   -1    0    0    0  501  0.00000000000E+00  0.00000000000E+00  0.12882830081E+04  0.12882830081E+04  0.25500000920E-02 0. -1.
        2   -1    0    0  501    0  0.00000000000E+00  0.00000000000E+00 -0.18803309232E+04  0.18803309232E+04  0.25500000920E-02 0.  1.
    10030    2    1    2    0    0  0.00000000000E+00  0.00000000000E+00 -0.59204791514E+03  0.31686139313E+04  0.31128111912E+04 0.  0.
        1    1    3    3  502    0  0.98429152868E+03 -0.43173501361E+03 -0.14418919260E+04  0.17984096479E+04  0.50400001928E-02 0.  1.
       -1    1    3    3    0  502 -0.98429152868E+03  0.43173501361E+03  0.84984401086E+03  0.13702042834E+04  0.50400001928E-02 0. -1.
</event>
<event>
 5   0  0.2133385E-06  0.3108452E+04  0.7818609E-02  0.8213422E-01
        2   -1    0    0  501    0  0.00000000000E+00  0.00000000000E+00  0.17529965883E+04  0.17529965883E+04  0.25500000920E-02 0.  1.
       -2   -1    0    0    0  501  0.00000000000E+00  0.00000000000E+00 -0.13779936378E+04  0.13779936378E+04  0.25500000920E-02 0. -1.
    10030    2    1    2    0    0  0.00000000000E+00  0.00000000000E+00  0.37500295057E+03  0.31309902261E+04  0.31084517984E+04 0.  0.
        2    1    3    3  502    0 -0.49548979019E+03 -0.10817441818E+04 -0.81971775950E+03  0.14448590977E+04  0.25500000920E-02 0. -1.
       -2    1    3    3    0  502  0.49548979019E+03  0.10817441818E+04  0.11947207101E+04  0.16861311284E+04  0.25500000920E-02 0.  1.
</event>
<event>
 5   0  0.2078009E-06  0.3058270E+04  0.7818609E-02  0.8227285E-01
        2   -1    0    0  501    0  0.00000000000E+00  0.00000000000E+00  0.19534222522E+04  0.19534222522E+04  0.25500000920E-02 0.  1.
       -2   -1    0    0    0  501  0.00000000000E+00  0.00000000000E+00 -0.11970034690E+04  0.11970034690E+04  0.25500000920E-02 0. -1.
    10030    2    1    2    0    0  0.00000000000E+00  0.00000000000E+00  0.75641878316E+03  0.31504257212E+04  0.30582695842E+04 0.  0.
        3    1    3    3  502    0  0.50072710794E+03  0.11183878641E+04  0.13205051289E+04  0.18014585360E+04  0.10100000352E+00 0.  1.
       -3    1    3    3    0  502 -0.50072710794E+03 -0.11183878641E+04 -0.56408634572E+03  0.13489671852E+04  0.10100000352E+00 0. -1.
</event>
<event>
 5   0  0.2226334E-06  0.3068604E+04  0.7818609E-02  0.8224407E-01
       -2   -1    0    0    0  501  0.00000000000E+00  0.00000000000E+00  0.12992086008E+04  0.12992086008E+04  0.25500000920E-02 0.  1.
        2   -1    0    0  501    0  0.00000000000E+00  0.00000000000E+00 -0.18119359973E+04  0.18119359973E+04  0.25500000920E-02 0. -1.
    10030    2    1    2    0    0  0.00000000000E+00  0.00000000000E+00 -0.51272739647E+03  0.31111445981E+04  0.30686041334E+04 0.  0.
        5    1    3    3  502    0 -0.59632482956E+03  0.86617863082E+03  0.87634968411E+03  0.13688972137E+04  0.46999998093E+01 0.  1.
       -5    1    3    3    0  502  0.59632482956E+03 -0.86617863082E+03 -0.13890770806E+04  0.17422473844E+04  0.46999998093E+01 0. -1.
</event>
<event>
 5   0  0.7413481E-07  0.3101282E+04  0.7818609E-02  0.8215386E-01
       -1   -1    0    0    0  501  0.00000000000E+00  0.00000000000E+00  0.82384039376E+03  0.82384039377E+03  0.50400001928E-02 0. -1.
        1   -1    0    0  501    0  0.00000000000E+00  0.00000000000E+00 -0.29186320111E+04  0.29186320111E+04  0.50400001928E-02 0.  1.
    10030    2    1    2    0    0  0.00000000000E+00  0.00000000000E+00 -0.20947916173E+04  0.37424724048E+04  0.31012816352E+04 0.  0.
        5    1    3    3  502    0  0.98986040319E+03  0.68836257501E+03  0.12929287121E+03  0.12126027334E+04  0.46999998093E+01 0. -1.
       -5    1    3    3    0  502 -0.98986040319E+03 -0.68836257501E+03 -0.22240844885E+04  0.25298696714E+04  0.46999998093E+01 0.  1.
</event>
<event>
 5   0  0.7656332E-07  0.3105161E+04  0.7818609E-02  0.8214323E-01
       -1   -1    0    0    0  501  0.00000000000E+00  0.00000000000E+00  0.12382711149E+04  0.12382711149E+04  0.50400001928E-02 0.  1.
        1   -1    0    0  501    0  0.00000000000E+00  0.00000000000E+00 -0.19466710181E+04  0.19466710181E+04  0.50400001928E-02 0. -1.
    10030    2    1    2    0    0  0.00000000000E+00  0.00000000000E+00 -0.70839990321E+03  0.31849421330E+04  0.31051611823E+04 0.  0.
        2    1    3    3  502    0  0.21201503518E+03  0.10357387422E+03 -0.19281721093E+04  0.19425564613E+04  0.25500000920E-02 0. -1.
       -2    1    3    3    0  502 -0.21201503518E+03 -0.10357387422E+03  0.12197722061E+04  0.12423856717E+04  0.25500000920E-02 0.  1.
</event>
<event>
 5   0  0.7413481E-07  0.3055678E+04  0.7818609E-02  0.8228008E-01
        1   -1    0    0  501    0  0.00000000000E+00  0.00000000000E+00  0.17090653402E+04  0.17090653402E+04  0.50400001928E-02 0.  1.
       -1   -1    0    0    0  501  0.00000000000E+00  0.00000000000E+00 -0.13658299910E+04  0.13658299910E+04  0.50400001928E-02 0. -1.
    10030    2    1    2    0    0  0.00000000000E+00  0.00000000000E+00  0.34323534917E+03  0.30748953313E+04  0.30556784506E+04 0.  0.
        5    1    3    3  502    0  0.47978057045E+03 -0.94686085028E+03  0.12774077377E+04  0.16608815382E+04  0.46999998093E+01 0.  1.
       -5    1    3    3    0  502 -0.47978057045E+03  0.94686085028E+03 -0.93417238851E+03  0.14140137931E+04  0.46999998093E+01 0. -1.
</event>
<event>
 5   0  0.2133385E-06  0.3124515E+04  0.7818609E-02  0.8209042E-01
        2   -1    0    0  501    0  0.00000000000E+00  0.00000000000E+00  0.25242474408E+04  0.25242474408E+04  0.25500000920E-02 0. -1.
       -2   -1    0    0    0  501  0.00000000000E+00  0.00000000000E+00 -0.96688145501E+03  0.96688145501E+03  0.25500000920E-02 0.  1.
    10030    2    1    2    0    0  0.00000000000E+00  0.00000000000E+00  0.15573659858E+04  0.34911288958E+04  0.31245147069E+04 0.  0.
        2    1    3    3  502    0 -0.14740585952E+04 -0.32371056733E+03  0.32756364573E+03  0.15443235462E+04  0.25500000920E-02 0.  1.
       -2    1    3    3    0  502  0.14740585952E+04  0.32371056733E+03  0.12298023401E+04  0.19468053496E+04  0.25500000920E-02 0. -1.
</event>
<event>
 5   0  0.2067926E-06  0.3101231E+04  0.7818609E-02  0.8215400E-01
       -2   -1    0    0    0  501  0.00000000000E+00  0.00000000000E+00  0.12423951537E+04  0.12423951537E+04  0.25500000920E-02 0. -1.
        2   -1    0    0  501    0  0.00000000000E+00  0.00000000000E+00 -0.19353009659E+04  0.19353009659E+04  0.25500000920E-02 0.  1.
    10030    2    1    2    0    0  0.00000000000E+00  0.00000000000E+00 -0.69290581221E+03  0.31776961196E+04  0.31012310723E+04 0.  0.
        1    1    3    3  502    0  0.31817382582E+03 -0.14347051751E+04 -0.85341971185E+03  0.16993936353E+04  0.50400001928E-02 0. -1.
       -1    1    3    3    0  502 -0.31817382582E+03  0.14347051751E+04  0.16051389964E+03  0.14783024843E+04  0.50400001928E-02 0.  1.
</event>
<event>
 5   0  0.2067926E-06  0.2956200E+04  0.7818609E-02  0.8256350E-01
        2   -1    0    0  501    0  0.00000000000E+00  0.00000000000E+00  0.23555560255E+04  0.23555560255E+04  0.25500000920E-02 0. -1.
       -2   -1    0    0    0  501  0.00000000000E+00  0.00000000000E+00 -0.92750064644E+03  0.92750064645E+03  0.25500000920E-02 0.  1.
    10030    2    1    2    0    0  0.00000000000E+00  0.00000000000E+00  0.14280553791E+04  0.32830566720E+04  0.29562000855E+04 0.  0.
        1    1    3    3  502    0  0.13090969118E+03 -0.42614567316E+03  0.22791158151E+04  0.23223062633E+04  0.50400001928E-02 0. -1.
       -1    1    3    3    0  502 -0.13090969118E+03  0.42614567316E+03 -0.85106043600E+03  0.96075040867E+03  0.50400001928E-02 0.  1.
</event>
<event>
 5   0  0.2078009E-06  0.3025586E+04  0.7818609E-02  0.8236462E-01
        2   -1    0    0  501    0  0.00000000000E+00  0.00000000000E+00  0.21911775532E+04  0.21911775532E+04  0.25500000920E-02 0. -1.
       -2   -1    0    0    0  501  0.00000000000E+00  0.00000000000E+00 -0.10444350225E+04  0.10444350225E+04  0.25500000920E-02 0.  1.
    10030    2    1    2    0    0  0.00000000000E+00  0.00000000000E+00  0.11467425307E+04  0.32356125758E+04  0.30255859447E+04 0.  0.
        3    1    3    3  502    0  0.10166841487E+04  0.10893262360E+04  0.85278240405E+03  0.17168331735E+04  0.10100000352E+00 0. -1.
       -3    1    3    3    0  502 -0.10166841487E+04 -0.10893262360E+04  0.29396012668E+03  0.15187794023E+04  0.10100000352E+00 0.  1.
</event>
<event>
 5   0  0.7519202E-07  0.3072988E+04  0.7818609E-02  0.8223190E-01
        1   -1    0    0  501    0  0.00000000000E+00  0.00000000000E+00  0.99930556743E+03  0.99930556744E+03  0.50400001928E-02 0. -1.
       -1   -1    0    0    0  501  0.00000000000E+00  0.00000000000E+00 -0.23624540689E+04  0.23624540689E+04  0.50400001928E-02 0.  1.
    10030    2    1    2    0    0  0.00000000000E+00  0.00000000000E+00 -0.13631485015E+04  0.33617596364E+04  0.30729877995E+04 0.  0.
        4    1    3    3  502    0 -0.33267363671E+03  0.14074994079E+03 -0.23153421032E+04  0.23433507979E+04  0.12699999809E+01 0.  1.
       -4    1    3    3    0  502  0.33267363671E+03 -0.14074994079E+03  0.95219360166E+03  0.10184088385E+04  0.12699999809E+01 0. -1.
</event>
<event>
 5   0  0.2067926E-06  0.3098243E+04  0.7818609E-02  0.8216220E-01
        2   -1    0    0  501    0  0.00000000000E+00  0.00000000000E+00  0.26112589662E+04  0.26112589662E+04  0.25500000920E-02 0. -1.
       -2   -1    0    0    0  501  0.00000000000E+00  0.00000000000E+00 -0.91901168730E+03  0.91901168730E+03  0.25500000920E-02 0.  1.
    10030    2    1    2    0    0  0.00000000000E+00  0.00000000000E+00  0.16922472789E+04  0.35302706535E+04  0.30982430560E+04 0.  0.
        1    1    3    3  502    0  0.14752922608E+04  0.10702401449E+03  0.13705596656E+04  0.20165255247E+04  0.50400001928E-02 0.  1.
       -1    1    3    3    0  502 -0.14752922608E+04 -0.10702401449E+03  0.32168761327E+03  0.15137451288E+04  0.50400001928E-02 0. -1.
</event>
<event>
 5   0  0.7656332E-07  0.3086368E+04  0.7818609E-02  0.8219489E-01
       -1   -1    0    0    0  501  0.00000000000E+00  0.00000000000E+00  0.19808668577E+04  0.19808668577E+04  0.50400001928E-02 0.  1.
        1   -1    0    0  501    0  0.00000000000E+00  0.00000000000E+00 -0.12022094872E+04  0.12022094872E+04  0.50400001928E-02 0. -1.
    10030    2    1    2    0    0  0.00000000000E+00  0.00000000000E+00  0.77865737047E+03  0.31830763449E+04  0.30863680462E+04 0.  0.
        2    1    3    3  502    0  0.43105086891E+03 -0.10776777793E+04  0.14381617501E+04  0.18481080777E+04  0.25500000920E-02 0.  1.
       -2    1    3    3    0  502 -0.43105086891E+03  0.10776777793E+04 -0.65950437961E+03  0.13349682671E+04  0.25500000920E-02 0. -1.
</event>
<event>
 5   0  0.2226334E-06  0.3045182E+04  0.7818609E-02  0.8230945E-01
       -2   -1    0    0    0  501  0.00000000000E+00  0.00000000000E+00  0.11531096220E+04  0.11531096220E+04  0.25500000920E-02 0.  1.
        2   -1    0    0  501    0  0.00000000000E+00  0.00000000000E+00 -0.20104620668E+04  0.20104620668E+04  0.25500000920E-02 0. -1.
    10030    2    1    2    0    0  0.00000000000E+00  0.00000000000E+00 -0.85735244480E+03  0.31635716889E+04  0.30451818691E+04 0.  0.
        5    1    3    3  502    0 -0.57438177247E+03 -0.19748264619E+03  0.10217947758E+04  0.11886969630E+04  0.46999998093E+01 0.  1.
       -5    1    3    3    0  502  0.57438177247E+03  0.19748264619E+03 -0.18791472206E+04  0.19748747259E+04  0.46999998093E+01 0. -1.
</event>
<event>
 5   0  0.2078009E-06  0.3070600E+04  0.7818609E-02  0.8223853E-01
       -2   -1    0    0    0  501  0.00000000000E+00  0.00000000000E+00  0.12094899148E+04  0.12094899148E+04  0.25500000920E-02 0. -1.
        2   -1    0    0  501    0  0.00000000000E+00  0.00000000000E+00 -0.19488763826E+04  0.19488763826E+04  0.25500000920E-02 0.  1.
    10030    2    1    2    0    0  0.00000000000E+00  0.00000000000E+00 -0.73938646777E+03  0.31583662974E+04  0.30706001563E+04 0.  0.
        3    1    3    3  502    0  0.13540737232E+03  0.70220554609E+03  0.10277107134E+04  0.12520451693E+04  0.10100000352E+00 0. -1.
       -3    1    3    3    0  502 -0.13540737232E+03 -0.70220554609E+03 -0.17670971811E+04  0.19063211281E+04  0.10100000352E+00 0.  1.
</event>
<event>
 5   0  0.7656332E-07  0.2976944E+04  0.7818609E-02  0.8250346E-01
        1   -1    0    0  501    0  0.00000000000E+00  0.00000000000E+00  0.12451263035E+04  0.12451263035E+04  0.50400001928E-02 0.  1.
       -1   -1    0    0    0  501  0.00000000000E+00  0.00000000000E+00 -0.17793765019E+04  0.17793765019E+04  0.50400001928E-02 0. -1.
    10030    2    1    2    0    0  0.00000000000E+00  0.00000000000E+00 -0.53425019839E+03  0.30245028054E+04  0.29769437256E+04 0.  0.
        2    1    3    3  502    0  0.27061780765E+03  0.25607372341E+03 -0.17312377985E+04  0.17708732491E+04  0.25500000920E-02 0. -1.
       -2    1    3    3    0  502 -0.27061780765E+03 -0.25607372341E+03  0.11969876001E+04  0.12536295563E+04  0.25500000920E-02 0.  1.
</event>
<event>
 5   0  0.7656332E-07  0.3097860E+04  0.7818609E-02  0.8216325E-01
        1   -1    0    0  501    0  0.00000000000E+00  0.00000000000E+00  0.18414449781E+04  0.18414449781E+04  0.50400001928E-02 0. -1.
       -1   -1    0    0    0  501  0.00000000000E+00  0.00000000000E+00 -0.13028815101E+04  0.13028815101E+04  0.50400001928E-02 0.  1.
    10030    2    1    2    0    0  0.00000000000E+00  0.00000000000E+00  0.53856346803E+03  0.31443264882E+04  0.30978603027E+04 0.  0.
        2    1    3    3  502    0  0.74527320475E+02  0.53578243031E+03  0.17424538586E+04  0.18244896776E+04  0.25500000920E-02 0. -1.
       -2    1    3    3    0  502 -0.74527320475E+02 -0.53578243031E+03 -0.12038903906E+04  0.13198368106E+04  0.25500000920E-02 0.  1.
</event>
<event>
 5   0  0.7413481E-07  0.3092152E+04  0.7818609E-02  0.8217895E-01
       -1   -1    0    0    0  501  0.00000000000E+00  0.00000000000E+00  0.91167758825E+03  0.91167758827E+03  0.50400001928E-02 0. -1.
        1   -1    0    0  501    0  0.00000000000E+00  0.00000000000E+00 -0.26219252826E+04  0.26219252826E+04  0.50400001928E-02 0.  1.
    10030    2    1    2    0    0  0.00000000000E+00  0.00000000000E+00 -0.17102476944E+04  0.35336028709E+04  0.30921516899E+04 0.  0.
        5    1    3    3  502    0 -0.25356432156E+03  0.10542816554E+04 -0.21145130194E+04  0.23763400584E+04  0.46999998093E+01 0.  1.
       -5    1    3    3    0  502  0.25356432156E+03 -0.10542816554E+04  0.40426532503E+03  0.11572628125E+04  0.46999998093E+01 0. -1.
</event>
<event>
 5   0  0.2133385E-06  0.3106597E+04  0.7818609E-02  0.8213930E-01
        2   -1    0    0  501    0  0.00000000000E+00  0.00000000000E+00  0.20600138015E+04  0.20600138015E+04  0.25500000920E-02 0. -1.
       -2   -1    0    0    0  501  0.00000000000E+00  0.00000000000E+00 -0.11712233245E+04  0.11712233245E+04  0.25500000920E-02 0.  1.
    10030    2    1    2    0    0  0.00000000000E+00  0.00000000000E+00  0.88879047693E+03  0.32312371260E+04  0.31065969891E+04 0.  0.
        2    1    3    3  502    0 -0.10550386122E+03  0.11569753507E+04  0.15167864323E+04  0.19105926065E+04  0.25500000920E-02 0. -1.
       -2    1    3    3    0  502  0.10550386122E+03 -0.11569753507E+04 -0.62799595533E+03  0.13206445195E+04  0.25500000920E-02 0.  1.
</event>
<event>
 5   0  0.2133385E-06  0.3088762E+04  0.7818609E-02  0.8218829E-01
        2   -1    0    0  501    0  0.00000000000E+00  0.00000000000E+00  0.16712674872E+04  0.16712674872E+04  0.25500000920E-02 0.  1.
       -2   -1    0    0    0  501  0.00000000000E+00  0.00000000000E+00 -0.14271276235E+04  0.14271276235E+04  0.25500000920E-02 0. -1.
    10030    2    1    2    0    0  0.00000000000E+00  0.00000000000E+00  0.24413986375E+03  0.30983951107E+04  0.30887615624E+04 0.  0.
        2    1    3    3  502    0 -0.15339589071E+04  0.12995081547E+03  0.24572180001E+03  0.15589407770E+04  0.25500000920E-02 0.  1.
       -2    1    3    3    0  502  0.15339589071E+04 -0.12995081547E+03 -0.15819362621E+01  0.15394543337E+04  0.25500000920E-02 0. -1.
</event>
<event>
 5   0  0.7561815E-07  0.3102774E+04  0.7818609E-02  0.8214977E-01
       -1   -1    0    0    0  501  0.00000000000E+00  0.00000000000E+00  0.21538489656E+04  0.21538489656E+04  0.50400001928E-02 0.  1.
        1   -1    0    0  501    0  0.00000000000E+00  0.00000000000E+00 -0.11174420654E+04  0.11174420654E+04  0.50400001928E-02 0. -1.
    10030    2    1    2    0    0  0.00000000000E+00  0.00000000000E+00  0.10364069002E+04  0.32712910310E+04  0.31027738794E+04 0.  0.
        3    1    3    3  502    0  0.13716695697E+04 -0.24253103807E+03 -0.20190207543E+03  0.14075024587E+04  0.10100000352E+00 0. -1.
       -3    1    3    3    0  502 -0.13716695697E+04  0.24253103807E+03  0.12383089756E+04  0.18637885723E+04  0.10100000352E+00 0.  1.
</event>
<event>
 5   0  0.2094135E-06  0.3116749E+04  0.7818609E-02  0.8211156E-01
        2   -1    0    0  501    0  0.00000000000E+00  0.00000000000E+00  0.95992734869E+03  0.95992734870E+03  0.25500000920E-02 0.  1.
       -2   -1    0    0    0  501  0.00000000000E+00  0.00000000000E+00 -0.25299112230E+04  0.25299112230E+04  0.25500000920E-02 0. -1.
    10030    2    1    2    0    0  0.00000000000E+00  0.00000000000E+00 -0.15699838743E+04  0.34898385717E+04  0.31167489297E+04 0.  0.
        4    1    3    3  502    0 -0.59753227265E+03 -0.12073433311E+04  0.92249837464E+02  0.13502719657E+04  0.12699999809E+01 0.  1.
       -4    1    3    3    0  502  0.59753227265E+03  0.12073433311E+04 -0.16622337118E+04  0.21395666060E+04  0.12699999809E+01 0. -1.
</event>
<event>
 5   0  0.7726743E-07  0.3110771E+04  0.7818609E-02  0.8212788E-01
       -1   -1    0    0    0  501  0.00000000000E+00  0.00000000000E+00  0.10989988143E+04  0.10989988143E+04  0.50400001928E-02 0. -1.
        1   -1    0    0  501    0  0.00000000000E+00  0.00000000000E+00 -0.22012982894E+04  0.22012982894E+04  0.50400001928E-02 0.  1.
    10030    2    1    2    0    0  0.00000000000E+00  0.00000000000E+00 -0.11022994751E+04  0.33002971037E+04  0.31107711005E+04 0.  0.
        1    1    3    3  502    0 -0.85494882451E+03 -0.14722573982E+03  0.81847674111E+03  0.11926932073E+04  0.50400001928E-02 0. -1.
       -1    1    3    3    0  502  0.85494882451E+03  0.14722573982E+03 -0.19207762163E+04  0.21076038964E+04  0.50400001928E-02 0.  1.
</event>
<event>
 5   0  0.2133385E-06  0.3049446E+04  0.7818609E-02  0.8229751E-01
        2   -1    0    0  501    0  0.00000000000E+00  0.00000000000E+00  0.16358571581E+04  0.16358571581E+04  0.25500000920E-02 0. -1.
       -2   -1    0    0    0  501  0.00000000000E+00  0.00000000000E+00 -0.14211386299E+04  0.14211386299E+04  0.25500000920E-02 0.  1.
    10030    2    1    2    0    0  0.00000000000E+00  0.00000000000E+00  0.21471852823E+03  0.30569957880E+04  0.30494457204E+04 0.  0.
        2    1    3    3  502    0 -0.11159204188E+03  0.14183164859E+04  0.65708303815E+03  0.15671096187E+04  0.25500000920E-02 0. -1.
       -2    1    3    3    0  502  0.11159204188E+03 -0.14183164859E+04 -0.44236450992E+03  0.14898861693E+04  0.25500000920E-02 0.  1.
</event>
<event>
 5   0  0.7413481E-07  0.3084808E+04  0.7818609E-02  0.8219919E-01
        1   -1    0    0  501    0  0.00000000000E+00  0.00000000000E+00  0.17717300580E+04  0.17717300580E+04  0.50400001928E-02 0. -1.
       -1   -1    0    0    0  501  0.00000000000E+00  0.00000000000E+00 -0.13427614712E+04  0.13427614712E+04  0.50400001928E-02 0.  1.
    10030    2    1    2    0    0  0.00000000000E+00  0.00000000000E+00  0.42896858684E+03  0.31144915293E+04  0.30848084928E+04 0.  0.
        5    1    3    3  502    0 -0.12686081184E+04 -0.73009497572E+03 -0.27659453027E+03  0.14896079538E+04  0.46999998093E+01 0.  1.
       -5    1    3    3    0  502  0.12686081184E+04  0.73009497572E+03  0.70556311711E+03  0.16248835755E+04  0.46999998093E+01 0. -1.
</event>
<event>
 5   0  0.2067926E-06  0.3090138E+04  0.7818609E-02  0.8218450E-01
        2   -1    0    0  501    0  0.00000000000E+00  0.00000000000E+00  0.12583447770E+04  0.12583447770E+04  0.25500000920E-02 0. -1.
       -2   -1    0    0    0  501  0.00000000000E+00  0.00000000000E+00 -0.18971251982E+04  0.18971251982E+04  0.25500000920E-02 0.  1.
    10030    2    1    2    0    0  0.00000000000E+00  0.00000000000E+00 -0.63878042120E+03  0.31554699752E+04  0.30901375920E+04 0.  0.
        1    1    3    3  502    0  0.28736119178E+03 -0.77243671037E+03  0.10151464418E+04  0.13075768522E+04  0.50400001928E-02 0. -1.
       -1    1    3    3    0  502 -0.28736119178E+03  0.77243671037E+03 -0.16539268630E+04  0.18478931230E+04  0.50400001928E-02 0.  1.
</event>
<event>
 5   0  0.2226334E-06  0.3093367E+04  0.7818609E-02  0.8217561E-01
        2   -1    0    0  501    0  0.00000000000E+00  0.00000000000E+00  0.85526729336E+03  0.85526729336E+03  0.25500000920E-02 0. -1.
       -2   -1    0    0    0  501  0.00000000000E+00  0.00000000000E+00 -0.27970544085E+04  0.27970544085E+04  0.25500000920E-02 0.  1.
    10030    2    1    2    0    0  0.00000000000E+00  0.00000000000E+00 -0.19417871152E+04  0.36523217019E+04  0.30933665501E+04 0.  0.
        5    1    3    3  502    0 -0.10430676206E+04  0.32812181009E+03 -0.22624209548E+04  0.25128121001E+04  0.46999998093E+01 0.  1.
       -5    1    3    3    0  502  0.10430676206E+04 -0.32812181009E+03  0.32063383966E+03  0.11395096018E+04  0.46999998093E+01 0. -1.
</event>
<event>
 5   0  0.7726743E-07  0.3083604E+04  0.7818609E-02  0.8220252E-01
        1   -1    0    0  501    0  0.00000000000E+00  0.00000000000E+00  0.16561804965E+04  0.16561804965E+04  0.50400001928E-02 0. -1.
       -1   -1    0    0    0  501  0.00000000000E+00  0.00000000000E+00 -0.14353230971E+04  0.14353230971E+04  0.50400001928E-02 0.  1.
    10030    2    1    2    0    0  0.00000000000E+00  0.00000000000E+00  0.22085739944E+03  0.30915035936E+04  0.30836044621E+04 0.  0.
        1    1    3    3  502    0  0.14892897916E+04 -0.22201881004E+03  0.44275586198E+03  0.15694932904E+04  0.50400001928E-02 0.  1.
       -1    1    3    3    0  502 -0.14892897916E+04  0.22201881004E+03 -0.22189846254E+03  0.15220103032E+04  0.50400001928E-02 0. -1.
</event>
<event>
 5   0  0.7519202E-07  0.3212144E+04  0.7818609E-02  0.8185617E-01
        1   -1    0    0  501    0  0.00000000000E+00  0.00000000000E+00  0.20716573542E+04  0.20716573542E+04  0.50400001928E-02 0.  1.
       -1   -1    0    0    0  501  0.00000000000E+00  0.00000000000E+00 -0.12451225389E+04  0.12451225389E+04  0.50400001928E-02 0. -1.
    10030    2    1    2    0    0  0.00000000000E+00  0.00000000000E+00  0.82653481530E+03  0.33167798930E+04  0.32121439971E+04 0.  0.
        4    1    3    3  502    0  0.33632081763E+03 -0.67605930444E+03 -0.10504047032E+04  0.12936458282E+04  0.12699999809E+01 0. -1.
       -4    1    3    3    0  502 -0.33632081763E+03  0.67605930444E+03  0.18769395185E+04  0.20231340648E+04  0.12699999809E+01 0.  1.
</event>
<event>
 5   0  0.7519202E-07  0.3099953E+04  0.7818609E-02  0.8215751E-01
        1   -1    0    0  501    0  0.00000000000E+00  0.00000000000E+00  0.18369994751E+04  0.18369994751E+04  0.50400001928E-02 0.  1.
       -1   -1    0    0    0  501  0.00000000000E+00  0.00000000000E+00 -0.13077993296E+04  0.13077993296E+04  0.50400001928E-02 0. -1.
    10030    2    1    2    0    0  0.00000000000E+00  0.00000000000E+00  0.52920014550E+03  0.31447988046E+04  0.30999526976E+04 0.  0.
        4    1    3    3  502    0  0.11672042030E+04 -0.92971088181E+03  0.68982634340E+03  0.16439555871E+04  0.12699999809E+01 0.  1.
       -4    1    3    3    0  502 -0.11672042030E+04  0.92971088181E+03 -0.16062619790E+03  0.15008432176E+04  0.12699999809E+01 0. -1.
</event>
<event>
 5   0  0.2133385E-06  0.3100043E+04  0.7818609E-02  0.8215726E-01
       -2   -1    0    0    0  501  0.00000000000E+00  0.00000000000E+00  0.10150933043E+04  0.10150933044E+04  0.25500000920E-02 0. -1.
        2   -1    0    0  501    0  0.00000000000E+00  0.00000000000E+00 -0.23668429648E+04  0.23668429648E+04  0.25500000920E-02 0.  1.
    10030    2    1    2    0    0  0.00000000000E+00  0.00000000000E+00 -0.13517496605E+04  0.33819362692E+04  0.31000428681E+04 0.  0.
        2    1    3    3  502    0 -0.14929459395E+03  0.67401314543E+03  0.83811877372E+03  0.10858294870E+04  0.25500000920E-02 0. -1.
       -2    1    3    3    0  502  0.14929459395E+03 -0.67401314543E+03 -0.21898684342E+04  0.22961067822E+04  0.25500000920E-02 0.  1.
</event>
<event>
 5   0  0.2133385E-06  0.3102173E+04  0.7818609E-02  0.8215142E-01
        2   -1    0    0  501    0  0.00000000000E+00  0.00000000000E+00  0.18318046584E+04  0.18318046584E+04  0.25500000920E-02 0.  1.
       -2   -1    0    0    0  501  0.00000000000E+00  0.00000000000E+00 -0.13133872653E+04  0.13133872653E+04  0.25500000920E-02 0. -1.
    10030    2    1    2    0    0  0.00000000000E+00  0.00000000000E+00  0.51841739315E+03  0.31451919237E+04  0.31021727295E+04 0.  0.
        2    1    3    3  502    0  0.12953477240E+04  0.81063662994E+03  0.52900306882E+03  0.16170657744E+04  0.25500000920E-02 0. -1.
       -2    1    3    3    0  502 -0.12953477240E+04 -0.81063662994E+03 -0.10585675668E+02  0.15281261494E+04  0.25500000920E-02 0.  1.
</event>
<event>
 5   0  0.2094135E-06  0.3055741E+04  0.7818609E-02  0.8227990E-01
       -2   -1    0    0    0  501  0.00000000000E+00  0.00000000000E+00  0.16268703764E+04  0.16268703764E+04  0.25500000920E-02 0. -1.
        2   -1    0    0  501    0  0.00000000000E+00  0.00000000000E+00 -0.14348953675E+04  0.14348953675E+04  0.25500000920E-02 0.  1.
    10030    2    1    2    0    0  0.00000000000E+00  0.00000000000E+00  0.19197500895E+03  0.30617657439E+04  0.30557413284E+04 0.  0.
        4    1    3    3  502    0  0.40934225653E+03 -0.14674426101E+04  0.21213954366E+03  0.15381656919E+04  0.12699999809E+01 0. -1.
       -4    1    3    3    0  502 -0.40934225653E+03  0.14674426101E+04 -0.20164534708E+02  0.15236000520E+04  0.12699999809E+01 0.  1.
</event>
<event>
 5   0  0.2226334E-06  0.3107021E+04  0.7818609E-02  0.8213814E-01
        2   -1    0    0  501    0  0.00000000000E+00  0.00000000000E+00  0.16808088097E+04  0.16808088097E+04  0.25500000920E-02 0.  1.
       -2   -1    0    0    0  501  0.00000000000E+00  0.00000000000E+00 -0.14358535426E+04  0.14358535426E+04  0.25500000920E-02 0. -1.
    10030    2    1    2    0    0  0.00000000000E+00  0.00000000000E+00  0.24495526711E+03  0.31166623523E+04  0.31070212641E+04 0.  0.
        5    1    3    3  502    0 -0.96618130870E+03 -0.60993981553E+03 -0.93332832341E+03  0.14753497040E+04  0.46999998093E+01 0. -1.
       -5    1    3    3    0  502  0.96618130870E+03  0.60993981553E+03  0.11782835905E+04  0.16413126483E+04  0.46999998093E+01 0.  1.
</event>
<event>
 5   0  0.2133385E-06  0.3091579E+04  0.7818609E-02  0.8218053E-01
        2   -1    0    0  501    0  0.00000000000E+00  0.00000000000E+00  0.15253602034E+04  0.15253602034E+04  0.25500000920E-02 0. -1.
       -2   -1    0    0    0  501  0.00000000000E+00  0.00000000000E+00 -0.15664921878E+04  0.15664921878E+04  0.25500000920E-02 0.  1.
    10030    2    1    2    0    0  0.00000000000E+00  0.00000000000E+00 -0.41131984403E+02  0.30918523912E+04  0.30915787825E+04 0.  0.
        2    1    3    3  502    0 -0.14224455922E+03 -0.92731177503E+03 -0.12492202827E+04  0.15622714096E+04  0.25500000920E-02 0.  1.
       -2    1    3    3    0  502  0.14224455922E+03  0.92731177503E+03  0.12080882982E+04  0.15295809815E+04  0.25500000920E-02 0. -1.
</event>
<event>
 5   0  0.2067926E-06  0.3104691E+04  0.7818609E-02  0.8214452E-01
       -2   -1    0    0    0  501  0.00000000000E+00  0.00000000000E+00  0.18039687624E+04  0.18039687624E+04  0.25500000920E-02 0. -1.
        2   -1    0    0  501    0  0.00000000000E+00  0.00000000000E+00 -0.13358194854E+04  0.13358194854E+04  0.25500000920E-02 0.  1.
    10030    2    1    2    0    0  0.00000000000E+00  0.00000000000E+00  0.46814927691E+03  0.31397882478E+04  0.31046910467E+04 0.  0.
        1    1    3    3  502    0  0.14279899912E+02 -0.57773175563E+03  0.16911250937E+04  0.17871435252E+04  0.50400001928E-02 0. -1.
       -1    1    3    3    0  502 -0.14279899912E+02  0.57773175563E+03 -0.12229758168E+04  0.13526447226E+04  0.50400001928E-02 0.  1.
</event>
<event>
 5   0  0.2094135E-06  0.3081560E+04  0.7818609E-02  0.8220817E-01
       -2   -1    0    0    0  501  0.00000000000E+00  0.00000000000E+00  0.34101084287E+04  0.34101084287E+04  0.25500000920E-02 0. -1.
        2   -1    0    0  501    0  0.00000000000E+00  0.00000000000E+00 -0.69616633870E+03  0.69616633871E+03  0.25500000920E-02 0.  1.
    10030    2    1    2    0    0  0.00000000000E+00  0.00000000000E+00  0.27139420900E+04  0.41062747674E+04  0.30815597995E+04 0.  0.
        4    1    3    3  502    0 -0.57999057806E+03 -0.30779565942E+03  0.32143465242E+04  0.32807243757E+04  0.12699999809E+01 0. -1.
       -4    1    3    3    0  502  0.57999057806E+03  0.30779565942E+03 -0.50040443422E+03  0.82555039172E+03  0.12699999809E+01 0.  1.
</event>
<event>
 5   0  0.2094135E-06  0.3146729E+04  0.7818609E-02  0.8203029E-01
        2   -1    0    0  501    0  0.00000000000E+00  0.00000000000E+00  0.28436262405E+04  0.28436262405E+04  0.25500000920E-02 0.  1.
       -2   -1    0    0    0  501  0.00000000000E+00  0.00000000000E+00 -0.87053497533E+03  0.87053497533E+03  0.25500000920E-02 0. -1.
    10030    2    1    2    0    0  0.00000000000E+00  0.00000000000E+00  0.19730912652E+04  0.37141612159E+04  0.31467291584E+04 0.  0.
        4    1    3    3  502    0  0.94103541113E+03 -0.46624061349E+03 -0.39627205059E+03  0.11224798910E+04  0.12699999809E+01 0. -1.
       -4    1    3    3    0  502 -0.94103541113E+03  0.46624061349E+03  0.23693633158E+04  0.25916813249E+04  0.12699999809E+01 0.  1.
</event>
<event>
 5   0  0.2226334E-06  0.3118016E+04  0.7818609E-02  0.8210811E-01
       -2   -1    0    0    0  501  0.00000000000E+00  0.00000000000E+00  0.12081876090E+04  0.12081876090E+04  0.25500000920E-02 0. -1.
        2   -1    0    0  501    0  0.00000000000E+00  0.00000000000E+00 -0.20116957094E+04  0.20116957094E+04  0.25500000920E-02 0.  1.
    10030    2    1    2    0    0  0.00000000000E+00  0.00000000000E+00 -0.80350810039E+03  0.32198833183E+04  0.31180159262E+04 0.  0.
        5    1    3    3  502    0 -0.13083314021E+04  0.46326578098E+03  0.33146933126E+03  0.14269689027E+04  0.46999998093E+01 0. -1.
       -5    1    3    3    0  502  0.13083314021E+04 -0.46326578098E+03 -0.11349774317E+04  0.17929144157E+04  0.46999998093E+01 0.  1.
</event>
<event>
 5   0  0.7519202E-07  0.3088647E+04  0.7818609E-02  0.8218861E-01
       -1   -1    0    0    0  501  0.00000000000E+00  0.00000000000E+00  0.21682853832E+04  0.21682853832E+04  0.50400001928E-02 0. -1.
        1   -1    0    0  501    0  0.00000000000E+00  0.00000000000E+00 -0.10999173084E+04  0.10999173084E+04  0.50400001928E-02 0.  1.
    10030    2    1    2    0    0  0.00000000000E+00  0.00000000000E+00  0.10683680747E+04  0.32682026916E+04  0.30886467086E+04 0.  0.
        4    1    3    3  502    0 -0.24248192923E+03  0.66021266614E+03 -0.92060801085E+03  0.11585331126E+04  0.12699999809E+01 0.  1.
       -4    1    3    3    0  502  0.24248192923E+03 -0.66021266614E+03  0.19889760856E+04  0.21096695790E+04  0.12699999809E+01 0. -1.
</event>
<event>
 5   0  0.2226334E-06  0.3095742E+04  0.7818609E-02  0.8216907E-01
        2   -1    0    0  501    0  0.00000000000E+00  0.00000000000E+00  0.26693959489E+04  0.26693959489E+04  0.25500000920E-02 0.  1.
       -2   -1    0    0    0  501  0.00000000000E+00  0.00000000000E+00 -0.89754561312E+03  0.89754561312E+03  0.25500000920E-02 0. -1.
    10030    2    1    2    0    0  0.00000000000E+00  0.00000000000E+00  0.17718503358E+04  0.35669415620E+04  0.30957419942E+04 0.  0.
        5    1    3    3  502    0  0.21204822682E+02  0.13624578883E+04  0.17319489540E+04  0.22037264828E+04  0.46999998093E+01 0.  1.
       -5    1    3    3    0  502 -0.21204822682E+02 -0.13624578883E+04  0.39901381799E+02  0.13632150792E+04  0.46999998093E+01 0. -1.
</event>
<event>
 5   0  0.2078009E-06  0.3112746E+04  0.7818609E-02  0.8212249E-01
       -2   -1    0    0    0  501  0.00000000000E+00  0.00000000000E+00  0.21821779299E+04  0.21821779299E+04  0.25500000920E-02 0.  1.
        2   -1    0    0  501    0  0.00000000000E+00  0.00000000000E+00 -0.11100361888E+04  0.11100361888E+04  0.25500000920E-02 0. -1.
    10030    2    1    2    0    0  0.00000000000E+00  0.00000000000E+00  0.10721417411E+04  0.32922141186E+04  0.31127457156E+04 0.  0.
        3    1    3    3  502    0 -0.11077403055E+03 -0.88229689552E+03  0.18870489988E+04  0.20860663057E+04  0.10100000352E+00 0.  1.
       -3    1    3    3    0  502  0.11077403055E+03  0.88229689552E+03 -0.81490725774E+03  0.12061478129E+04  0.10100000352E+00 0. -1.
</event>
<event>
 5   0  0.2226334E-06  0.3088785E+04  0.7818609E-02  0.8218823E-01
       -2   -1    0    0    0  501  0.00000000000E+00  0.00000000000E+00  0.22590912339E+04  0.22590912339E+04  0.25500000920E-02 0. -1.
        2   -1    0    0  501    0  0.00000000000E+00  0.00000000000E+00 -0.10557998172E+04  0.10557998172E+04  0.25500000920E-02 0.  1.
    10030    2    1    2    0    0  0.00000000000E+00  0.00000000000E+00  0.12032914167E+04  0.33148910511E+04  0.30887849467E+04 0.  0.
        5    1    3    3  502    0  0.55795551939E+03 -0.11202047074E+04 -0.36955970791E+03  0.13049020714E+04  0.46999998093E+01 0.  1.
       -5    1    3    3    0  502 -0.55795551939E+03  0.11202047074E+04  0.15728511246E+04  0.20099889797E+04  0.46999998093E+01 0. -1.
</event>
<event>
 5   0  0.7726743E-07  0.3050995E+04  0.7818609E-02  0.8229317E-01
        1   -1    0    0  501    0  0.00000000000E+00  0.00000000000E+00  0.20495542706E+04  0.20495542706E+04  0.50400001928E-02 0. -1.
       -1   -1    0    0    0  501  0.00000000000E+00  0.00000000000E+00 -0.11354384367E+04  0.11354384367E+04  0.50400001928E-02 0.  1.
    10030    2    1    2    0    0  0.00000000000E+00  0.00000000000E+00  0.91411583389E+03  0.31849927073E+04  0.30509950488E+04 0.  0.
        1    1    3    3  502    0 -0.20692535926E+03  0.54544011561E+03  0.19285101392E+04  0.20148137336E+04  0.50400001928E-02 0. -1.
       -1    1    3    3    0  502  0.20692535926E+03 -0.54544011561E+03 -0.10143943053E+04  0.11701789738E+04  0.50400001928E-02 0.  1.
</event>
<event>
 5   0  0.7413481E-07  0.2888525E+04  0.7818609E-02  0.8276300E-01
       -1   -1    0    0    0  501  0.00000000000E+00  0.00000000000E+00  0.97170448351E+03  0.97170448352E+03  0.50400001928E-02 0. -1.
        1   -1    0    0  501    0  0.00000000000E+00  0.00000000000E+00 -0.21466343307E+04  0.21466343307E+04  0.50400001928E-02 0.  1.
    10030    2    1    2    0    0  0.00000000000E+00  0.00000000000E+00 -0.11749298472E+04  0.31183388143E+04  0.28885250241E+04 0.  0.
        5    1    3    3  502    0  0.92276539760E+03 -0.81567703934E+03 -0.14018340002E+04  0.18660079490E+04  0.46999998093E+01 0.  1.
       -5    1    3    3    0  502 -0.92276539760E+03  0.81567703934E+03  0.22690415298E+03  0.12523308653E+04  0.46999998093E+01 0. -1.
</event>
<event>
 5   0  0.7413481E-07  0.3096645E+04  0.7818609E-02  0.8216659E-01
       -1   -1    0    0    0  501  0.00000000000E+00  0.00000000000E+00  0.11348136636E+04  0.11348136636E+04  0.50400001928E-02 0. -1.
        1   -1    0    0  501    0  0.00000000000E+00  0.00000000000E+00 -0.21125070761E+04  0.21125070761E+04  0.50400001928E-02 0.  1.
    10030    2    1    2    0    0  0.00000000000E+00  0.00000000000E+00 -0.97769341257E+03  0.32473207397E+04  0.30966445675E+04 0.  0.
        5    1    3    3  502    0  0.51522284482E+03  0.92047956035E+03  0.69967764069E+03  0.12658230886E+04  0.46999998093E+01 0. -1.
       -5    1    3    3    0  502 -0.51522284482E+03 -0.92047956035E+03 -0.16773710533E+04  0.19814976511E+04  0.46999998093E+01 0.  1.
</event>
<event>
 5   0  0.2067926E-06  0.3101277E+04  0.7818609E-02  0.8215387E-01
       -2   -1    0    0    0  501  0.00000000000E+00  0.00000000000E+00  0.17997524437E+04  0.17997524437E+04  0.25500000920E-02 0.  1.
        2   -1    0    0  501    0  0.00000000000E+00  0.00000000000E+00 -0.13360061858E+04  0.13360061858E+04  0.25500000920E-02 0. -1.
    10030    2    1    2    0    0  0.00000000000E+00  0.00000000000E+00  0.46374625789E+03  0.31357586295E+04  0.31012774128E+04 0.  0.
        1    1    3    3  502    0  0.76501853402E+03 -0.86255999562E+03 -0.81658268082E+03  0.14128235481E+04  0.50400001928E-02 0. -1.
       -1    1    3    3    0  502 -0.76501853402E+03  0.86255999562E+03  0.12803289387E+04  0.17229350814E+04  0.50400001928E-02 0.  1.
</event>
<event>
 5   0  0.2067926E-06  0.3106041E+04  0.7818609E-02  0.8214082E-01
       -2   -1    0    0    0  501  0.00000000000E+00  0.00000000000E+00  0.21233647327E+04  0.21233647327E+04  0.25500000920E-02 0. -1.
        2   -1    0    0  501    0  0.00000000000E+00  0.00000000000E+00 -0.11358730862E+04  0.11358730862E+04  0.25500000920E-02 0.  1.
    10030    2    1    2    0    0  0.00000000000E+00  0.00000000000E+00  0.98749164643E+03  0.32592378189E+04  0.31060411150E+04 0.  0.
        1    1    3    3  502    0  0.86392440874E+03 -0.12155770696E+04  0.94857567406E+03  0.17674243423E+04  0.50400001928E-02 0. -1.
       -1    1    3    3    0  502 -0.86392440874E+03  0.12155770696E+04  0.38915972373E+02  0.14918134766E+04  0.50400001928E-02 0.  1.
</event>
<event>
 5   0  0.7519202E-07  0.3198748E+04  0.7818609E-02  0.8189148E-01
       -1   -1    0    0    0  501  0.00000000000E+00  0.00000000000E+00  0.11975919867E+04  0.11975919867E+04  0.50400001928E-02 0. -1.
        1   -1    0    0  501    0  0.00000000000E+00  0.00000000000E+00 -0.21359509449E+04  0.21359509449E+04  0.50400001928E-02 0.  1.
    10030    2    1    2    0    0  0.00000000000E+00  0.00000000000E+00 -0.93835895820E+03  0.33335429316E+04  0.31987483399E+04 0.  0.
        4    1    3    3  502    0 -0.94516993180E+03 -0.86811513615E+03 -0.14638777724E+04  0.19467690760E+04  0.12699999809E+01 0.  1.
       -4    1    3    3    0  502  0.94516993180E+03  0.86811513615E+03  0.52551881424E+03  0.13867738556E+04  0.12699999809E+01 0. -1.
</event>
<event>
 5   0  0.2133385E-06  0.3107472E+04  0.7818609E-02  0.8213690E-01
        2   -1    0    0  501    0  0.00000000000E+00  0.00000000000E+00  0.14703305440E+04  0.14703305440E+04  0.25500000920E-02 0.  1.
       -2   -1    0    0    0  501  0.00000000000E+00  0.00000000000E+00 -0.16418732032E+04  0.16418732032E+04  0.25500000920E-02 0. -1.
    10030    2    1    2    0    0  0.00000000000E+00  0.00000000000E+00 -0.17154265922E+03  0.31122037471E+04  0.31074724906E+04 0.  0.
        2    1    3    3  502    0  0.13713499626E+04 -0.12997491782E+03  0.63407338629E+03  0.15164244980E+04  0.25500000920E-02 0. -1.
       -2    1    3    3    0  502 -0.13713499626E+04  0.12997491782E+03 -0.80561604551E+03  0.15957792491E+04  0.25500000920E-02 0.  1.
</event>
<event>
 5   0  0.6979625E-07  0.2830854E+04  0.7818609E-02  0.8293753E-01
        3   -1    0    0  501    0  0.00000000000E+00  0.00000000000E+00  0.12499570499E+04  0.12499570540E+04  0.10100000352E+00 0. -1.
       -3   -1    0    0    0  501  0.00000000000E+00  0.00000000000E+00 -0.16028021962E+04  0.16028021993E+04  0.10100000352E+00 0.  1.
    10030    2    1    2    0    0  0.00000000000E+00  0.00000000000E+00 -0.35284514626E+03  0.28527592533E+04  0.28308542280E+04 0.  0.
        5    1    3    3  502    0  0.10956784224E+04 -0.79710314634E+03  0.23604543884E+03  0.13753632867E+04  0.46999998093E+01 0. -1.
       -5    1    3    3    0  502 -0.10956784224E+04  0.79710314634E+03 -0.58889058509E+03  0.14773959667E+04  0.46999998093E+01 0.  1.
</event>
<event>
 5   0  0.2226334E-06  0.3043965E+04  0.7818609E-02  0.8231287E-01
        2   -1    0    0  501    0  0.00000000000E+00  0.00000000000E+00  0.28618596807E+04  0.28618596807E+04  0.25500000920E-02 0.  1.
       -2   -1    0    0    0  501  0.00000000000E+00  0.00000000000E+00 -0.80941430253E+03  0.80941430254E+03  0.25500000920E-02 0. -1.
    10030    2    1    2    0    0  0.00000000000E+00  0.00000000000E+00  0.20524453782E+04  0.36712739833E+04  0.30439646236E+04 0.  0.
        5    1    3    3  502    0 -0.14104036112E+03  0.74631897114E+03  0.26169376586E+04  0.27249347128E+04  0.46999998093E+01 0.  1.
       -5    1    3    3    0  502  0.14104036112E+03 -0.74631897114E+03 -0.56449228040E+03  0.94633927045E+03  0.46999998093E+01 0. -1.
</event>
<event>
 5   0  0.2226334E-06  0.3102466E+04  0.7818609E-02  0.8215061E-01
        2   -1    0    0  501    0  0.00000000000E+00  0.00000000000E+00  0.21815597647E+04  0.21815597647E+04  0.25500000920E-02 0.  1.
       -2   -1    0    0    0  501  0.00000000000E+00  0.00000000000E+00 -0.11030291554E+04  0.11030291554E+04  0.25500000920E-02 0. -1.
    10030    2    1    2    0    0  0.00000000000E+00  0.00000000000E+00  0.10785306093E+04  0.32845889201E+04  0.31024661317E+04 0.  0.
        5    1    3    3  502    0  0.23600785984E+03 -0.39913667766E+02 -0.10833528328E+04  0.11094900906E+04  0.46999998093E+01 0. -1.
       -5    1    3    3    0  502 -0.23600785984E+03  0.39913667766E+02  0.21618834421E+04  0.21750988295E+04  0.46999998093E+01 0.  1.
</event>
<event>
 5   0  0.7726743E-07  0.3025110E+04  0.7818609E-02  0.8236597E-01
        1   -1    0    0  501    0  0.00000000000E+00  0.00000000000E+00  0.21475159809E+04  0.21475159809E+04  0.50400001928E-02 0. -1.
       -1   -1    0    0    0  501  0.00000000000E+00  0.00000000000E+00 -0.10653343709E+04  0.10653343709E+04  0.50400001928E-02 0.  1.
    10030    2    1    2    0    0  0.00000000000E+00  0.00000000000E+00  0.10821816099E+04  0.32128503518E+04  0.30251099726E+04 0.  0.
        1    1    3    3  502    0  0.36255541452E+03  0.51530450030E+03 -0.91932466773E+03  0.11145146932E+04  0.50400001928E-02 0.  1.
       -1    1    3    3    0  502 -0.36255541452E+03 -0.51530450030E+03  0.20015062777E+04  0.20983356586E+04  0.50400001928E-02 0. -1.
</event>
<event>
 5   0  0.7519202E-07  0.3087675E+04  0.7818609E-02  0.8219129E-01
       -1   -1    0    0    0  501  0.00000000000E+00  0.00000000000E+00  0.12230290529E+04  0.12230290530E+04  0.50400001928E-02 0.  1.
        1   -1    0    0  501    0  0.00000000000E+00  0.00000000000E+00 -0.19487958538E+04  0.19487958538E+04  0.50400001928E-02 0. -1.
    10030    2    1    2    0    0  0.00000000000E+00  0.00000000000E+00 -0.72576680084E+03  0.31718249067E+04  0.30876748193E+04 0.  0.
        4    1    3    3  502    0 -0.74464898815E+03 -0.11824156274E+04  0.31137651685E+03  0.14316304619E+04  0.12699999809E+01 0.  1.
       -4    1    3    3    0  502  0.74464898815E+03  0.11824156274E+04 -0.10371433177E+04  0.17401944448E+04  0.12699999809E+01 0. -1.
</event>
<event>
 5   0  0.2078009E-06  0.3115445E+04  0.7818609E-02  0.8211512E-01
       -2   -1    0    0    0  501  0.00000000000E+00  0.00000000000E+00  0.11604341916E+04  0.11604341916E+04  0.25500000920E-02 0.  1.
        2   -1    0    0  501    0  0.00000000000E+00  0.00000000000E+00 -0.20910266300E+04  0.20910266300E+04  0.25500000920E-02 0. -1.
    10030    2    1    2    0    0  0.00000000000E+00  0.00000000000E+00 -0.93059243834E+03  0.32514608216E+04  0.31154446212E+04 0.  0.
        3    1    3    3  502    0  0.11352775679E+04  0.91012977477E+03  0.11513887313E+03  0.14596055403E+04  0.10100000352E+00 0.  1.
       -3    1    3    3    0  502 -0.11352775679E+04 -0.91012977477E+03 -0.10457313115E+04  0.17918552813E+04  0.10100000352E+00 0. -1.
</event>
<event>
 5   0  0.2067926E-06  0.2963367E+04  0.7818609E-02  0.8254270E-01
        2   -1    0    0  501    0  0.00000000000E+00  0.00000000000E+00  0.14344864164E+04  0.14344864164E+04  0.25500000920E-02 0.  1.
       -2   -1    0    0    0  501  0.00000000000E+00  0.00000000000E+00 -0.15304337968E+04  0.15304337968E+04  0.25500000920E-02 0. -1.
    10030    2    1    2    0    0  0.00000000000E+00  0.00000000000E+00 -0.95947380433E+02  0.29649202132E+04  0.29633673365E+04 0.  0.
        1    1    3    3  502    0 -0.10663256530E+04  0.44119726049E+03  0.88185774011E+03  0.14523699580E+04  0.50400001928E-02 0.  1.
       -1    1    3    3    0  502  0.10663256530E+04 -0.44119726049E+03 -0.97780512055E+03  0.15125502553E+04  0.50400001928E-02 0. -1.
</event>
<event>
 5   0  0.2226334E-06  0.3079205E+04  0.7818609E-02  0.8221468E-01
       -2   -1    0    0    0  501  0.00000000000E+00  0.00000000000E+00  0.16998111266E+04  0.16998111266E+04  0.25500000920E-02 0. -1.
        2   -1    0    0  501    0  0.00000000000E+00  0.00000000000E+00 -0.13944935832E+04  0.13944935832E+04  0.25500000920E-02 0.  1.
    10030    2    1    2    0    0  0.00000000000E+00  0.00000000000E+00  0.30531754338E+03  0.30943047099E+04  0.30792049031E+04 0.  0.
        5    1    3    3  502    0  0.77343504671E+03 -0.56169711403E+03 -0.10601765231E+04  0.14274809174E+04  0.46999998093E+01 0.  1.
       -5    1    3    3    0  502 -0.77343504671E+03  0.56169711403E+03  0.13654940665E+04  0.16668237925E+04  0.46999998093E+01 0. -1.
</event>
<event>
 5   0  0.6979625E-07  0.2809790E+04  0.7818609E-02  0.8300235E-01
       -4   -1    0    0    0  501  0.00000000000E+00  0.00000000000E+00  0.15287214668E+04  0.15287219944E+04  0.12699999809E+01 0. -1.
        4   -1    0    0  501    0  0.00000000000E+00  0.00000000000E+00 -0.12910976299E+04  0.12910982545E+04  0.12699999809E+01 0.  1.
    10030    2    1    2    0    0  0.00000000000E+00  0.00000000000E+00  0.23762383696E+03  0.28198202488E+04  0.28097902320E+04 0.  0.
        2    1    3    3  502    0  0.54720661855E+03  0.37624719572E+03  0.13612673415E+04  0.15146107787E+04  0.25500000920E-02 0. -1.
       -2    1    3    3    0  502 -0.54720661855E+03 -0.37624719572E+03 -0.11236435046E+04  0.13052094702E+04  0.25500000920E-02 0.  1.
</event>
<event>
 5   0  0.2078009E-06  0.3181697E+04  0.7818609E-02  0.8193668E-01
        2   -1    0    0  501    0  0.00000000000E+00  0.00000000000E+00  0.12229453716E+04  0.12229453716E+04  0.25500000920E-02 0.  1.
       -2   -1    0    0    0  501  0.00000000000E+00  0.00000000000E+00 -0.20694287719E+04  0.20694287719E+04  0.25500000920E-02 0. -1.
    10030    2    1    2    0    0  0.00000000000E+00  0.00000000000E+00 -0.84648340033E+03  0.32923741435E+04  0.31816966156E+04 0.  0.
        3    1    3    3  502    0  0.72048172624E+03  0.33856718122E+03 -0.18484976360E+04  0.20126264369E+04  0.10100000352E+00 0. -1.
       -3    1    3    3    0  502 -0.72048172624E+03 -0.33856718122E+03  0.10020142356E+04  0.12797477066E+04  0.10100000352E+00 0.  1.
</event>
<event>
 5   0  0.2094135E-06  0.3099055E+04  0.7818609E-02  0.8215997E-01
       -2   -1    0    0    0  501  0.00000000000E+00  0.00000000000E+00  0.80985161491E+03  0.80985161492E+03  0.25500000920E-02 0.  1.
        2   -1    0    0  501    0  0.00000000000E+00  0.00000000000E+00 -0.29647850306E+04  0.29647850306E+04  0.25500000920E-02 0. -1.
    10030    2    1    2    0    0  0.00000000000E+00  0.00000000000E+00 -0.21549334157E+04  0.37746366456E+04  0.30990553044E+04 0.  0.
        4    1    3    3  502    0  0.13152015191E+04  0.31828690483E+03 -0.19970114572E+04  0.24122848013E+04  0.12699999809E+01 0. -1.
       -4    1    3    3    0  502 -0.13152015191E+04 -0.31828690483E+03 -0.15792195852E+03  0.13623518442E+04  0.12699999809E+01 0.  1.
</event>
<event>
 5   0  0.6979625E-07  0.2785517E+04  0.7818609E-02  0.8307779E-01
        3   -1    0    0  501    0  0.00000000000E+00  0.00000000000E+00  0.13721692461E+04  0.13721692498E+04  0.10100000352E+00 0. -1.
       -3   -1    0    0    0  501  0.00000000000E+00  0.00000000000E+00 -0.14136571519E+04  0.14136571555E+04  0.10100000352E+00 0.  1.
    10030    2    1    2    0    0  0.00000000000E+00  0.00000000000E+00 -0.41487905851E+02  0.27858264054E+04  0.27855174590E+04 0.  0.
        4    1    3    3  502    0  0.13277989031E+04 -0.37116509377E+03 -0.21815331199E+03  0.13958531206E+04  0.12699999809E+01 0.  1.
       -4    1    3    3    0  502 -0.13277989031E+04  0.37116509377E+03  0.17666540614E+03  0.13899732848E+04  0.12699999809E+01 0. -1.
</event>
<event>
 5   0  0.2078009E-06  0.3060558E+04  0.7818609E-02  0.8226646E-01
       -2   -1    0    0    0  501  0.00000000000E+00  0.00000000000E+00  0.18749590578E+04  0.18749590578E+04  0.25500000920E-02 0.  1.
        2   -1    0    0  501    0  0.00000000000E+00  0.00000000000E+00 -0.12489628106E+04  0.12489628106E+04  0.25500000920E-02 0. -1.
    10030    2    1    2    0    0  0.00000000000E+00  0.00000000000E+00  0.62599624719E+03  0.31239218685E+04  0.30605582071E+04 0.  0.
        3    1    3    3  502    0 -0.14470245657E+04 -0.30398692182E+03 -0.89456765038E+02  0.14813138308E+04  0.10100000352E+00 0. -1.
       -3    1    3    3    0  502  0.14470245657E+04  0.30398692182E+03  0.71545301223E+03  0.16426080376E+04  0.10100000352E+00 0.  1.
</event>
<event>
 5   0  0.2094135E-06  0.3097798E+04  0.7818609E-02  0.8216342E-01
       -2   -1    0    0    0  501  0.00000000000E+00  0.00000000000E+00  0.13253658117E+04  0.13253658117E+04  0.25500000920E-02 0. -1.
        2   -1    0    0  501    0  0.00000000000E+00  0.00000000000E+00 -0.18101329991E+04  0.18101329991E+04  0.25500000920E-02 0.  1.
    10030    2    1    2    0    0  0.00000000000E+00  0.00000000000E+00 -0.48476718737E+03  0.31354988108E+04  0.30977981804E+04 0.  0.
        4    1    3    3  502    0 -0.28012472696E+03  0.15136634896E+04 -0.41605192251E+03  0.15945995853E+04  0.12699999809E+01 0.  1.
       -4    1    3    3    0  502  0.28012472696E+03 -0.15136634896E+04 -0.68715264859E+02  0.15408992254E+04  0.12699999809E+01 0. -1.
</event>
<event>
 5   0  0.2067926E-06  0.3116893E+04  0.7818609E-02  0.8211117E-01
        2   -1    0    0  501    0  0.00000000000E+00  0.00000000000E+00  0.19301845486E+04  0.19301845486E+04  0.25500000920E-02 0. -1.
       -2   -1    0    0    0  501  0.00000000000E+00  0.00000000000E+00 -0.12583019401E+04  0.12583019401E+04  0.25500000920E-02 0.  1.
    10030    2    1    2    0    0  0.00000000000E+00  0.00000000000E+00  0.67188260849E+03  0.31884864887E+04  0.31168926593E+04 0.  0.
        1    1    3    3  502    0 -0.62240534843E+03  0.11074969144E+04 -0.58746494623E+03  0.13996617078E+04  0.50400001928E-02 0.  1.
       -1    1    3    3    0  502  0.62240534843E+03 -0.11074969144E+04  0.12593475547E+04  0.17888247809E+04  0.50400001928E-02 0. -1.
</event>
<event>
 5   0  0.7519202E-07  0.3079028E+04  0.7818609E-02  0.8221517E-01
        1   -1    0    0  501    0  0.00000000000E+00  0.00000000000E+00  0.17272473937E+04  0.17272473937E+04  0.50400001928E-02 0. -1.
       -1   -1    0    0    0  501  0.00000000000E+00  0.00000000000E+00 -0.13721849807E+04  0.13721849807E+04  0.50400001928E-02 0.  1.
    10030    2    1    2    0    0  0.00000000000E+00  0.00000000000E+00  0.35506241300E+03  0.30994323744E+04  0.30790277241E+04 0.  0.
        4    1    3    3  502    0  0.15108806466E+04 -0.28768800465E+03  0.10943229849E+03  0.15419149643E+04  0.12699999809E+01 0.  1.
       -4    1    3    3    0  502 -0.15108806466E+04  0.28768800465E+03  0.24563011451E+03  0.15575174100E+04  0.12699999809E+01 0. -1.
</event>
<event>
 5   0  0.2078009E-06  0.3099708E+04  0.7818609E-02  0.8215818E-01
       -2   -1    0    0    0  501  0.00000000000E+00  0.00000000000E+00  0.18958471026E+04  0.18958471027E+04  0.25500000920E-02 0.  1.
        2   -1    0    0  501    0  0.00000000000E+00  0.00000000000E+00 -0.12670045290E+04  0.12670045290E+04  0.25500000920E-02 0. -1.
    10030    2    1    2    0    0  0.00000000000E+00  0.00000000000E+00  0.62884257363E+03  0.31628516317E+04  0.30997076413E+04 0.  0.
        3    1    3    3  502    0 -0.50180799454E+03  0.12356396293E+04  0.11200817251E+04  0.17416083481E+04  0.10100000352E+00 0.  1.
       -3    1    3    3    0  502  0.50180799454E+03 -0.12356396293E+04 -0.49123915151E+03  0.14212432836E+04  0.10100000352E+00 0. -1.
</event>
<event>
 5   0  0.2226334E-06  0.3106796E+04  0.7818609E-02  0.8213875E-01
       -2   -1    0    0    0  501  0.00000000000E+00  0.00000000000E+00  0.25058330586E+04  0.25058330586E+04  0.25500000920E-02 0.  1.
        2   -1    0    0  501    0  0.00000000000E+00  0.00000000000E+00 -0.96297125633E+03  0.96297125633E+03  0.25500000920E-02 0. -1.
    10030    2    1    2    0    0  0.00000000000E+00  0.00000000000E+00  0.15428618022E+04  0.34688043149E+04  0.31067959113E+04 0.  0.
        5    1    3    3  502    0 -0.12015458028E+04 -0.58461144878E+03 -0.11304880191E+03  0.13410014854E+04  0.46999998093E+01 0. -1.
       -5    1    3    3    0  502  0.12015458028E+04  0.58461144878E+03  0.16559106042E+04  0.21278028295E+04  0.46999998093E+01 0.  1.
</event>
<event>
 5   0  0.7561815E-07  0.3089581E+04  0.7818609E-02  0.8218603E-01
       -1   -1    0    0    0  501  0.00000000000E+00  0.00000000000E+00  0.19989443250E+04  0.19989443250E+04  0.50400001928E-02 0. -1.
        1   -1    0    0  501    0  0.00000000000E+00  0.00000000000E+00 -0.11938192074E+04  0.11938192074E+04  0.50400001928E-02 0.  1.
    10030    2    1    2    0    0  0.00000000000E+00  0.00000000000E+00  0.80512511760E+03  0.31927635325E+04  0.30895812854E+04 0.  0.
        3    1    3    3  502    0 -0.53123237174E+02  0.16368474533E+03  0.19890079086E+04  0.19964386404E+04  0.10100000352E+00 0. -1.
       -3    1    3    3    0  502  0.53123237174E+02 -0.16368474533E+03 -0.11838827910E+04  0.11963248920E+04  0.10100000352E+00 0.  1.
</event>
<event>
 5   0  0.7519202E-07  0.3082057E+04  0.7818609E-02  0.8220679E-01
       -1   -1    0    0    0  501  0.00000000000E+00  0.00000000000E+00  0.10886222465E+04  0.10886222465E+04  0.50400001928E-02 0.  1.
        1   -1    0    0  501    0  0.00000000000E+00  0.00000000000E+00 -0.21814446402E+04  0.21814446402E+04  0.50400001928E-02 0. -1.
    10030    2    1    2    0    0  0.00000000000E+00  0.00000000000E+00 -0.10928223937E+04  0.32700668867E+04  0.30820572122E+04 0.  0.
        4    1    3    3  502    0 -0.98577929813E+03  0.11842622682E+04 -0.57082823374E+03  0.16431933635E+04  0.12699999809E+01 0. -1.
       -4    1    3    3    0  502  0.98577929813E+03 -0.11842622682E+04 -0.52199415998E+03  0.16268735232E+04  0.12699999809E+01 0.  1.
</event>
<event>
 5   0  0.2094135E-06  0.3073548E+04  0.7818609E-02  0.8223035E-01
       -2   -1    0    0    0  501  0.00000000000E+00  0.00000000000E+00  0.13968687596E+04  0.13968687596E+04  0.25500000920E-02 0. -1.
        2   -1    0    0  501    0  0.00000000000E+00  0.00000000000E+00 -0.16906921784E+04  0.16906921784E+04  0.25500000920E-02 0.  1.
    10030    2    1    2    0    0  0.00000000000E+00  0.00000000000E+00 -0.29382341883E+03  0.30875609380E+04  0.30735484939E+04 0.  0.
        4    1    3    3  502    0 -0.65963071438E+03  0.67654120154E+03  0.10705760551E+04  0.14279199485E+04  0.12699999809E+01 0. -1.
       -4    1    3    3    0  502  0.65963071438E+03 -0.67654120154E+03 -0.13643994739E+04  0.16596409895E+04  0.12699999809E+01 0.  1.
</event>
<event>
 5   0  0.7561815E-07  0.3125689E+04  0.7818609E-02  0.8208723E-01
        1   -1    0    0  501    0  0.00000000000E+00  0.00000000000E+00  0.18979602316E+04  0.18979602316E+04  0.50400001928E-02 0. -1.
       -1   -1    0    0    0  501  0.00000000000E+00  0.00000000000E+00 -0.12868992028E+04  0.12868992028E+04  0.50400001928E-02 0.  1.
    10030    2    1    2    0    0  0.00000000000E+00  0.00000000000E+00  0.61106102880E+03  0.31848594345E+04  0.31256893698E+04 0.  0.
        3    1    3    3  502    0 -0.82916119709E+03 -0.78702216978E+03  0.13913350708E+04  0.18007569175E+04  0.10100000352E+00 0. -1.
       -3    1    3    3    0  502  0.82916119709E+03  0.78702216978E+03 -0.78027404204E+03  0.13841025169E+04  0.10100000352E+00 0.  1.
</event>
<event>
 5   0  0.2226334E-06  0.3161517E+04  0.7818609E-02  0.8199055E-01
        2   -1    0    0  501    0  0.00000000000E+00  0.00000000000E+00  0.21855190340E+04  0.21855190340E+04  0.25500000920E-02 0.  1.
       -2   -1    0    0    0  501  0.00000000000E+00  0.00000000000E+00 -0.11433427259E+04  0.11433427259E+04  0.25500000920E-02 0. -1.
    10030    2    1    2    0    0  0.00000000000E+00  0.00000000000E+00  0.10421763081E+04  0.33288617600E+04  0.31615169080E+04 0.  0.
        5    1    3    3  502    0 -0.14878795312E+04 -0.28214225898E+03  0.99827128743E+03  0.18138239735E+04  0.46999998093E+01 0.  1.
       -5    1    3    3    0  502  0.14878795312E+04  0.28214225898E+03  0.43905020655E+02  0.15150377865E+04  0.46999998093E+01 0. -1.
</event>
<event>
 5   0  0.2133385E-06  0.3078924E+04  0.7818609E-02  0.8221546E-01
        2   -1    0    0  501    0  0.00000000000E+00  0.00000000000E+00  0.19238317940E+04  0.19238317940E+04  0.25500000920E-02 0.  1.
       -2   -1    0    0    0  501  0.00000000000E+00  0.00000000000E+00 -0.12318870483E+04  0.12318870483E+04  0.25500000920E-02 0. -1.
    10030    2    1    2    0    0  0.00000000000E+00  0.00000000000E+00  0.69194474571E+03  0.31557188424E+04  0.30789241434E+04 0.  0.
        2    1    3    3  502    0 -0.25398936225E+03  0.12601492689E+04 -0.52218240531E+03  0.13875017983E+04  0.25500000920E-02 0. -1.
       -2    1    3    3    0  502  0.25398936225E+03 -0.12601492689E+04  0.12141271510E+04  0.17682170440E+04  0.25500000920E-02 0.  1.
</event>
<event>
 5   0  0.2226334E-06  0.3100946E+04  0.7818609E-02  0.8215478E-01
        2   -1    0    0  501    0  0.00000000000E+00  0.00000000000E+00  0.19254790994E+04  0.19254790994E+04  0.25500000920E-02 0.  1.
       -2   -1    0    0    0  501  0.00000000000E+00  0.00000000000E+00 -0.12485030886E+04  0.12485030886E+04  0.25500000920E-02 0. -1.
    10030    2    1    2    0    0  0.00000000000E+00  0.00000000000E+00  0.67697601073E+03  0.31739821880E+04  0.31009460509E+04 0.  0.
        5    1    3    3  502    0 -0.77556053458E+03  0.12963858944E+04 -0.18780304482E+02  0.15107896345E+04  0.46999998093E+01 0. -1.
       -5    1    3    3    0  502  0.77556053458E+03 -0.12963858944E+04  0.69575631521E+03  0.16631925535E+04  0.46999998093E+01 0.  1.
</event>
<event>
 5   0  0.7413481E-07  0.3119114E+04  0.7818609E-02  0.8210512E-01
       -1   -1    0    0    0  501  0.00000000000E+00  0.00000000000E+00  0.13316655355E+04  0.13316655355E+04  0.50400001928E-02 0.  1.
        1   -1    0    0  501    0  0.00000000000E+00  0.00000000000E+00 -0.18264475654E+04  0.18264475654E+04  0.50400001928E-02 0. -1.
    10030    2    1    2    0    0  0.00000000000E+00  0.00000000000E+00 -0.49478202986E+03  0.31581131009E+04  0.31191135121E+04 0.  0.
        5    1    3    3  502    0  0.64871913385E+03 -0.10650292187E+04  0.70083962050E+03  0.14304971216E+04  0.46999998093E+01 0.  1.
       -5    1    3    3    0  502 -0.64871913385E+03  0.10650292187E+04 -0.11956216504E+04  0.17276159793E+04  0.46999998093E+01 0. -1.
</event>
<event>
 5   0  0.7519202E-07  0.3099122E+04  0.7818609E-02  0.8215979E-01
        1   -1    0    0  501    0  0.00000000000E+00  0.00000000000E+00  0.24234429281E+04  0.24234429281E+04  0.50400001928E-02 0.  1.
       -1   -1    0    0    0  501  0.00000000000E+00  0.00000000000E+00 -0.99079652874E+03  0.99079652875E+03  0.50400001928E-02 0. -1.
    10030    2    1    2    0    0  0.00000000000E+00  0.00000000000E+00  0.14326463994E+04  0.34142394569E+04  0.30991217084E+04 0.  0.
        4    1    3    3  502    0  0.10167674678E+04  0.10001050308E+04  0.48818871290E+02  0.14270287492E+04  0.12699999809E+01 0.  1.
       -4    1    3    3    0  502 -0.10167674678E+04 -0.10001050308E+04  0.13838275281E+04  0.19872107076E+04  0.12699999809E+01 0. -1.
</event>
<event>
 5   0  0.2078009E-06  0.3105549E+04  0.7818609E-02  0.8214217E-01
        2   -1    0    0  501    0  0.00000000000E+00  0.00000000000E+00  0.17637654573E+04  0.17637654573E+04  0.25500000920E-02 0. -1.
       -2   -1    0    0    0  501  0.00000000000E+00  0.00000000000E+00 -0.13670233579E+04  0.13670233579E+04  0.25500000920E-02 0.  1.
    10030    2    1    2    0    0  0.00000000000E+00  0.00000000000E+00  0.39674209940E+03  0.31307888153E+04  0.31055489551E+04 0.  0.
        3    1    3    3  502    0  0.67827245294E+03  0.13940006866E+04  0.28750417876E+03  0.15766896009E+04  0.10100000352E+00 0.  1.
       -3    1    3    3    0  502 -0.67827245294E+03 -0.13940006866E+04  0.10923792064E+03  0.15540992144E+04  0.10100000352E+00 0. -1.
</event>
<event>
 5   0  0.7656332E-07  0.3102679E+04  0.7818609E-02  0.8215003E-01
       -1   -1    0    0    0  501  0.00000000000E+00  0.00000000000E+00  0.16957315067E+04  0.16957315067E+04  0.50400001928E-02 0.  1.
        1   -1    0    0  501    0  0.00000000000E+00  0.00000000000E+00 -0.14192429585E+04  0.14192429585E+04  0.50400001928E-02 0. -1.
    10030    2    1    2    0    0  0.00000000000E+00  0.00000000000E+00  0.27648854819E+03  0.31149744652E+04  0.31026794874E+04 0.  0.
        2    1    3    3  502    0  0.10146808537E+04  0.11329209485E+04  0.44534510705E+03  0.15847458392E+04  0.25500000920E-02 0. -1.
       -2    1    3    3    0  502 -0.10146808537E+04 -0.11329209485E+04 -0.16885655887E+03  0.15302286260E+04  0.25500000920E-02 0.  1.
</event>
<event>
 5   0  0.2094135E-06  0.3083730E+04  0.7818609E-02  0.8220217E-01
        2   -1    0    0  501    0  0.00000000000E+00  0.00000000000E+00  0.18918260838E+04  0.18918260838E+04  0.25500000920E-02 0.  1.
       -2   -1    0    0    0  501  0.00000000000E+00  0.00000000000E+00 -0.12566418324E+04  0.12566418324E+04  0.25500000920E-02 0. -1.
    10030    2    1    2    0    0  0.00000000000E+00  0.00000000000E+00  0.63518425132E+03  0.31484679162E+04  0.30837300768E+04 0.  0.
        4    1    3    3  502    0 -0.11997759844E+04 -0.28969713690E+03 -0.62590702134E+03  0.13838887441E+04  0.12699999809E+01 0. -1.
       -4    1    3    3    0  502  0.11997759844E+04  0.28969713690E+03  0.12610912727E+04  0.17645791721E+04  0.12699999809E+01 0.  1.
</event>
<event>
 5   0  0.7519202E-07  0.3101918E+04  0.7818609E-02  0.8215212E-01
       -1   -1    0    0    0  501  0.00000000000E+00  0.00000000000E+00  0.19699258068E+04  0.19699258069E+04  0.50400001928E-02 0.  1.
        1   -1    0    0  501    0  0.00000000000E+00  0.00000000000E+00 -0.12210988186E+04  0.12210988186E+04  0.50400001928E-02 0. -1.
    10030    2    1    2    0    0  0.00000000000E+00  0.00000000000E+00  0.74882698824E+03  0.31910246255E+04  0.31019181649E+04 0.  0.
        4    1    3    3  502    0  0.23136992495E+03  0.14013988697E+04 -0.26639430172E+03  0.14451361082E+04  0.12699999809E+01 0.  1.
       -4    1    3    3    0  502 -0.23136992495E+03 -0.14013988697E+04  0.10152212900E+04  0.17458885173E+04  0.12699999809E+01 0. -1.
</event>
<event>
 5   0  0.7726743E-07  0.3108338E+04  0.7818609E-02  0.8213453E-01
       -1   -1    0    0    0  501  0.00000000000E+00  0.00000000000E+00  0.13594687445E+04  0.13594687445E+04  0.50400001928E-02 0.  1.
        1   -1    0    0  501    0  0.00000000000E+00  0.00000000000E+00 -0.17767536236E+04  0.17767536236E+04  0.50400001928E-02 0. -1.
    10030    2    1    2    0    0  0.00000000000E+00  0.00000000000E+00 -0.41728487915E+03  0.31362223681E+04  0.31083378311E+04 0.  0.
        1    1    3    3  502    0  0.13893470833E+03  0.15479354877E+04 -0.21451624873E+03  0.15688927140E+04  0.50400001928E-02 0.  1.
       -1    1    3    3    0  502 -0.13893470833E+03 -0.15479354877E+04 -0.20276863042E+03  0.15673296541E+04  0.50400001928E-02 0. -1.
</event>
<event>
 5   0  0.7413481E-07  0.3184380E+04  0.7818609E-02  0.8192955E-01
        1   -1    0    0  501    0  0.00000000000E+00  0.00000000000E+00  0.18652360134E+04  0.18652360134E+04  0.50400001928E-02 0. -1.
       -1   -1    0    0    0  501  0.00000000000E+00  0.00000000000E+00 -0.13591140750E+04  0.13591140750E+04  0.50400001928E-02 0.  1.
    10030    2    1    2    0    0  0.00000000000E+00  0.00000000000E+00  0.50612193837E+03  0.32243500884E+04  0.31843797004E+04 0.  0.
        5    1    3    3  502    0  0.50662267894E+03 -0.31726319563E+03  0.17472954616E+04  0.18467230421E+04  0.46999998093E+01 0. -1.
       -5    1    3    3    0  502 -0.50662267894E+03  0.31726319563E+03 -0.12411735232E+04  0.13776270464E+04  0.46999998093E+01 0.  1.
</event>
<event>
 5   0  0.7561815E-07  0.3143870E+04  0.7818609E-02  0.8203800E-01
        1   -1    0    0  501    0  0.00000000000E+00  0.00000000000E+00  0.11474691425E+04  0.11474691425E+04  0.50400001928E-02 0.  1.
       -1   -1    0    0    0  501  0.00000000000E+00  0.00000000000E+00 -0.21534175744E+04  0.21534175744E+04  0.50400001928E-02 0. -1.
    10030    2    1    2    0    0  0.00000000000E+00  0.00000000000E+00 -0.10059484319E+04  0.33008867168E+04  0.31438703647E+04 0.  0.
        3    1    3    3  502    0 -0.92339452565E+03 -0.11505533139E+04  0.66855872979E+02  0.14767870855E+04  0.10100000352E+00 0.  1.
       -3    1    3    3    0  502  0.92339452565E+03  0.11505533139E+04 -0.10728043049E+04  0.18240996313E+04  0.10100000352E+00 0. -1.
</event>
<event>
 5   0  0.2133385E-06  0.3071236E+04  0.7818609E-02  0.8223676E-01
       -2   -1    0    0    0  501  0.00000000000E+00  0.00000000000E+00  0.17260274583E+04  0.17260274583E+04  0.25500000920E-02 0. -1.
        2   -1    0    0  501    0  0.00000000000E+00  0.00000000000E+00 -0.13662141482E+04  0.13662141482E+04  0.25500000920E-02 0.  1.
    10030    2    1    2    0    0  0.00000000000E+00  0.00000000000E+00  0.35981331018E+03  0.30922416065E+04  0.30712363203E+04 0.  0.
        2    1    3    3  502    0 -0.82179012147E+03 -0.84868816909E+03  0.11676938191E+04  0.16610597422E+04  0.25500000920E-02 0. -1.
       -2    1    3    3    0  502  0.82179012147E+03  0.84868816909E+03 -0.80788050888E+03  0.14311818643E+04  0.25500000920E-02 0.  1.
</event>
<event>
 5   0  0.7519202E-07  0.3066880E+04  0.7818609E-02  0.8224887E-01
       -1   -1    0    0    0  501  0.00000000000E+00  0.00000000000E+00  0.18346853232E+04  0.18346853232E+04  0.50400001928E-02 0. -1.
        1   -1    0    0  501    0  0.00000000000E+00  0.00000000000E+00 -0.12816574424E+04  0.12816574424E+04  0.50400001928E-02 0.  1.
    10030    2    1    2    0    0  0.00000000000E+00  0.00000000000E+00  0.55302788076E+03  0.31163427657E+04  0.30668799123E+04 0.  0.
        4    1    3    3  502    0  0.72034738877E+03 -0.89704967019E+03 -0.75366053860E+03  0.13753560599E+04  0.12699999809E+01 0.  1.
       -4    1    3    3    0  502 -0.72034738877E+03  0.89704967019E+03  0.13066884194E+04  0.17409867057E+04  0.12699999809E+01 0. -1.
</event>
<event>
 5   0  0.2078009E-06  0.3103940E+04  0.7818609E-02  0.8214657E-01
        2   -1    0    0  501    0  0.00000000000E+00  0.00000000000E+00  0.22787698257E+04  0.22787698257E+04  0.25500000920E-02 0. -1.
       -2   -1    0    0    0  501  0.00000000000E+00  0.00000000000E+00 -0.10569785339E+04  0.10569785339E+04  0.25500000920E-02 0.  1.
    10030    2    1    2    0    0  0.00000000000E+00  0.00000000000E+00  0.12217912918E+04  0.33357483596E+04  0.31039399411E+04 0.  0.
        3    1    3    3  502    0 -0.22996770652E+03  0.10725450502E+04  0.17907832977E+04  0.21000340141E+04  0.10100000352E+00 0. -1.
       -3    1    3    3    0  502  0.22996770652E+03 -0.10725450502E+04 -0.56899200586E+03  0.12357143455E+04  0.10100000352E+00 0.  1.
</event>
<event>
 5   0  0.2094135E-06  0.3094427E+04  0.7818609E-02  0.8217269E-01
       -2   -1    0    0    0  501  0.00000000000E+00  0.00000000000E+00  0.22525831462E+04  0.22525831462E+04  0.25500000920E-02 0. -1.
        2   -1    0    0  501    0  0.00000000000E+00  0.00000000000E+00 -0.10627221932E+04  0.10627221932E+04  0.25500000920E-02 0.  1.
    10030    2    1    2    0    0  0.00000000000E+00  0.00000000000E+00  0.11898609530E+04  0.33153053394E+04  0.30944273147E+04 0.  0.
        4    1    3    3  502    0 -0.13187390987E+04  0.90047417776E+02  0.14565000625E+04  0.19668694397E+04  0.12699999809E+01 0. -1.
       -4    1    3    3    0  502  0.13187390987E+04 -0.90047417776E+02 -0.26663910951E+03  0.13484358997E+04  0.12699999809E+01 0.  1.
</event>
<event>
 5   0  0.7726743E-07  0.3051646E+04  0.7818609E-02  0.8229135E-01
       -1   -1    0    0    0  501  0.00000000000E+00  0.00000000000E+00  0.14661547238E+04  0.14661547238E+04  0.50400001928E-02 0.  1.
        1   -1    0    0  501    0  0.00000000000E+00  0.00000000000E+00 -0.15879198882E+04  0.15879198882E+04  0.50400001928E-02 0. -1.
    10030    2    1    2    0    0  0.00000000000E+00  0.00000000000E+00 -0.12176516447E+03  0.30540746120E+04  0.30516462738E+04 0.  0.
        1    1    3    3  502    0 -0.12855289799E+03 -0.46478802996E+03 -0.15096472002E+04  0.15847991764E+04  0.50400001928E-02 0. -1.
       -1    1    3    3    0  502  0.12855289799E+03  0.46478802996E+03  0.13878820358E+04  0.14692754356E+04  0.50400001928E-02 0.  1.
</event>
<event>
 5   0  0.2226334E-06  0.3110359E+04  0.7818609E-02  0.8212901E-01
       -2   -1    0    0    0  501  0.00000000000E+00  0.00000000000E+00  0.12746844181E+04  0.12746844181E+04  0.25500000920E-02 0.  1.
        2   -1    0    0  501    0  0.00000000000E+00  0.00000000000E+00 -0.18973977174E+04  0.18973977174E+04  0.25500000920E-02 0. -1.
    10030    2    1    2    0    0  0.00000000000E+00  0.00000000000E+00 -0.62271329929E+03  0.31720821356E+04  0.31103590181E+04 0.  0.
        5    1    3    3  502    0  0.10333792886E+04  0.92277588007E+03  0.40918569052E+03  0.14445909796E+04  0.46999998093E+01 0.  1.
       -5    1    3    3    0  502 -0.10333792886E+04 -0.92277588007E+03 -0.10318989898E+04  0.17274911560E+04  0.46999998093E+01 0. -1.
</event>
<event>
 5   0  0.2067926E-06  0.2709200E+04  0.7818609E-02  0.8332026E-01
        2   -1    0    0  501    0  0.00000000000E+00  0.00000000000E+00  0.14877578999E+04  0.14877578999E+04  0.25500000920E-02 0.  1.
       -2   -1    0    0    0  501  0.00000000000E+00  0.00000000000E+00 -0.12333597884E+04  0.12333597884E+04  0.25500000920E-02 0. -1.
    10030    2    1    2    0    0  0.00000000000E+00  0.00000000000E+00  0.25439811146E+03  0.27211176883E+04  0.27091997111E+04 0.  0.
        1    1    3    3  502    0 -0.32444407899E+03  0.25641808860E+03 -0.11684082356E+04  0.12394321287E+04  0.50400001928E-02 0. -1.
       -1    1    3    3    0  502  0.32444407899E+03 -0.25641808860E+03  0.14228063470E+04  0.14816855597E+04  0.50400001928E-02 0.  1.
</event>
<event>
 5   0  0.2078009E-06  0.3108500E+04  0.7818609E-02  0.8213409E-01
       -2   -1    0    0    0  501  0.00000000000E+00  0.00000000000E+00  0.14220574179E+04  0.14220574179E+04  0.25500000920E-02 0. -1.
        2   -1    0    0  501    0  0.00000000000E+00  0.00000000000E+00 -0.16987309116E+04  0.16987309116E+04  0.25500000920E-02 0.  1.
    10030    2    1    2    0    0  0.00000000000E+00  0.00000000000E+00 -0.27667349370E+03  0.31207883295E+04  0.31084998915E+04 0.  0.
        3    1    3    3  502    0 -0.91065568665E+02 -0.23767526076E+03 -0.16776659081E+04  0.16968633937E+04  0.10100000352E+00 0.  1.
       -3    1    3    3    0  502  0.91065568665E+02  0.23767526076E+03  0.14009924144E+04  0.14239249358E+04  0.10100000352E+00 0. -1.
</event>
<event>
 5   0  0.7726743E-07  0.3095467E+04  0.7818609E-02  0.8216983E-01
        1   -1    0    0  501    0  0.00000000000E+00  0.00000000000E+00  0.14026253323E+04  0.14026253323E+04  0.50400001928E-02 0. -1.
       -1   -1    0    0    0  501  0.00000000000E+00  0.00000000000E+00 -0.17078542822E+04  0.17078542822E+04  0.50400001928E-02 0.  1.
    10030    2    1    2    0    0  0.00000000000E+00  0.00000000000E+00 -0.30522894989E+03  0.31104796145E+04  0.30954674478E+04 0.  0.
        1    1    3    3  502    0  0.12322138277E+04 -0.59375501356E+03  0.57517962994E+03  0.14838219367E+04  0.50400001928E-02 0. -1.
       -1    1    3    3    0  502 -0.12322138277E+04  0.59375501356E+03 -0.88040857983E+03  0.16266576778E+04  0.50400001928E-02 0.  1.
</event>
<event>
 5   0  0.7656332E-07  0.3185867E+04  0.7818609E-02  0.8192560E-01
       -1   -1    0    0    0  501  0.00000000000E+00  0.00000000000E+00  0.15517904688E+04  0.15517904688E+04  0.50400001928E-02 0.  1.
        1   -1    0    0  501    0  0.00000000000E+00  0.00000000000E+00 -0.16351668619E+04  0.16351668619E+04  0.50400001928E-02 0. -1.
    10030    2    1    2    0    0  0.00000000000E+00  0.00000000000E+00 -0.83376393085E+02  0.31869573307E+04  0.31858665077E+04 0.  0.
        2    1    3    3  502    0  0.11201926605E+04 -0.39904247942E+03  0.10185661395E+04  0.15657405524E+04  0.25500000920E-02 0.  1.
       -2    1    3    3    0  502 -0.11201926605E+04  0.39904247942E+03 -0.11019425325E+04  0.16212167783E+04  0.25500000920E-02 0. -1.
</event>
<event>
 5   0  0.2067926E-06  0.3110776E+04  0.7818609E-02  0.8212787E-01
       -2   -1    0    0    0  501  0.00000000000E+00  0.00000000000E+00  0.95327189553E+03  0.95327189553E+03  0.25500000920E-02 0.  1.
        2   -1    0    0  501    0  0.00000000000E+00  0.00000000000E+00 -0.25378191592E+04  0.25378191592E+04  0.25500000920E-02 0. -1.
    10030    2    1    2    0    0  0.00000000000E+00  0.00000000000E+00 -0.15845472637E+04  0.34910910547E+04  0.31107759035E+04 0.  0.
        1    1    3    3  502    0  0.10684588667E+04  0.10286052711E+04 -0.13181784639E+04  0.19842448479E+04  0.50400001928E-02 0.  1.
       -1    1    3    3    0  502 -0.10684588667E+04 -0.10286052711E+04 -0.26636879981E+03  0.15068462069E+04  0.50400001928E-02 0. -1.
</event>
<event>
 5   0  0.2078009E-06  0.3106087E+04  0.7818609E-02  0.8214069E-01
        2   -1    0    0  501    0  0.00000000000E+00  0.00000000000E+00  0.25718433890E+04  0.25718433890E+04  0.25500000920E-02 0. -1.
       -2   -1    0    0    0  501  0.00000000000E+00  0.00000000000E+00 -0.93782689564E+03  0.93782689564E+03  0.25500000920E-02 0.  1.
    10030    2    1    2    0    0  0.00000000000E+00  0.00000000000E+00  0.16340164933E+04  0.35096702846E+04  0.31060868639E+04 0.  0.
        3    1    3    3  502    0  0.13219049240E+04  0.79158424304E+03  0.59701735856E+03  0.16524127748E+04  0.10100000352E+00 0.  1.
       -3    1    3    3    0  502 -0.13219049240E+04 -0.79158424304E+03  0.10369991348E+04  0.18572575098E+04  0.10100000352E+00 0. -1.
</event>
<event>
 5   0  0.7413481E-07  0.3092439E+04  0.7818609E-02  0.8217816E-01
        1   -1    0    0  501    0  0.00000000000E+00  0.00000000000E+00  0.14082864936E+04  0.14082864936E+04  0.50400001928E-02 0. -1.
       -1   -1    0    0    0  501  0.00000000000E+00  0.00000000000E+00 -0.16976627136E+04  0.16976627136E+04  0.50400001928E-02 0.  1.
    10030    2    1    2    0    0  0.00000000000E+00  0.00000000000E+00 -0.28937622002E+03  0.31059492073E+04  0.30924394709E+04 0.  0.
        5    1    3    3  502    0 -0.85547508566E+02 -0.11875368746E+04 -0.11355124921E+04  0.16452880947E+04  0.46999998093E+01 0. -1.
       -5    1    3    3    0  502  0.85547508566E+02  0.11875368746E+04  0.84613627208E+03  0.14606611126E+04  0.46999998093E+01 0.  1.
</event>
<event>
 5   0  0.2078009E-06  0.3078180E+04  0.7818609E-02  0.8221752E-01
       -2   -1    0    0    0  501  0.00000000000E+00  0.00000000000E+00  0.98175514601E+03  0.98175514602E+03  0.25500000920E-02 0.  1.
        2   -1    0    0  501    0  0.00000000000E+00  0.00000000000E+00 -0.24128201634E+04  0.24128201634E+04  0.25500000920E-02 0. -1.
    10030    2    1    2    0    0  0.00000000000E+00  0.00000000000E+00 -0.14310650173E+04  0.33945753094E+04  0.30781803792E+04 0.  0.
        3    1    3    3  502    0  0.12815076196E+04  0.71260384060E+03 -0.19977194841E+03  0.14798563627E+04  0.10100000352E+00 0.  1.
       -3    1    3    3    0  502 -0.12815076196E+04 -0.71260384060E+03 -0.12312930689E+04  0.19147189466E+04  0.10100000352E+00 0. -1.
</event>
<event>
 5   0  0.7519202E-07  0.3101996E+04  0.7818609E-02  0.8215190E-01
        1   -1    0    0  501    0  0.00000000000E+00  0.00000000000E+00  0.19367179649E+04  0.19367179649E+04  0.50400001928E-02 0. -1.
       -1   -1    0    0    0  501  0.00000000000E+00  0.00000000000E+00 -0.12420983913E+04  0.12420983913E+04  0.50400001928E-02 0.  1.
    10030    2    1    2    0    0  0.00000000000E+00  0.00000000000E+00  0.69461957357E+03  0.31788163562E+04  0.31019956599E+04 0.  0.
        4    1    3    3  502    0  0.97765559823E+03 -0.11685044753E+04  0.49634575610E+02  0.15243616308E+04  0.12699999809E+01 0.  1.
       -4    1    3    3    0  502 -0.97765559823E+03  0.11685044753E+04  0.64498499796E+03  0.16544547253E+04  0.12699999809E+01 0. -1.
</event>
<event>
 5   0  0.7519202E-07  0.3108915E+04  0.7818609E-02  0.8213296E-01
       -1   -1    0    0    0  501  0.00000000000E+00  0.00000000000E+00  0.10897690675E+04  0.10897690675E+04  0.50400001928E-02 0.  1.
        1   -1    0    0  501    0  0.00000000000E+00  0.00000000000E+00 -0.22172934171E+04  0.22172934171E+04  0.50400001928E-02 0. -1.
    10030    2    1    2    0    0  0.00000000000E+00  0.00000000000E+00 -0.11275243496E+04  0.33070624846E+04  0.31089147815E+04 0.  0.
        4    1    3    3  502    0 -0.15070371069E+04  0.23973813849E+03 -0.24874391239E+03  0.15461275380E+04  0.12699999809E+01 0. -1.
       -4    1    3    3    0  502  0.15070371069E+04 -0.23973813849E+03 -0.87878043722E+03  0.17609349467E+04  0.12699999809E+01 0.  1.
</event>
<event>
 5   0  0.2078009E-06  0.3092621E+04  0.7818609E-02  0.8217766E-01
       -2   -1    0    0    0  501  0.00000000000E+00  0.00000000000E+00  0.13637201447E+04  0.13637201447E+04  0.25500000920E-02 0.  1.
        2   -1    0    0  501    0  0.00000000000E+00  0.00000000000E+00 -0.17533481334E+04  0.17533481334E+04  0.25500000920E-02 0. -1.
    10030    2    1    2    0    0  0.00000000000E+00  0.00000000000E+00 -0.38962798877E+03  0.31170682781E+04  0.30926210050E+04 0.  0.
        3    1    3    3  502    0 -0.28271863634E+02  0.93807413506E+03  0.10438409223E+04  0.14037044783E+04  0.10100000352E+00 0.  1.
       -3    1    3    3    0  502  0.28271863634E+02 -0.93807413506E+03 -0.14334689111E+04  0.17133637998E+04  0.10100000352E+00 0. -1.
</event>
<event>
 5   0  0.7561815E-07  0.3084688E+04  0.7818609E-02  0.8219953E-01
        1   -1    0    0  501    0  0.00000000000E+00  0.00000000000E+00  0.11564813286E+04  0.11564813286E+04  0.50400001928E-02 0.  1.
       -1   -1    0    0    0  501  0.00000000000E+00  0.00000000000E+00 -0.20569507389E+04  0.20569507389E+04  0.50400001928E-02 0. -1.
    10030    2    1    2    0    0  0.00000000000E+00  0.00000000000E+00 -0.90046941022E+03  0.32134320675E+04  0.30846880707E+04 0.  0.
        3    1    3    3  502    0  0.60474004350E+03  0.66144471959E+03 -0.17578548726E+04  0.19731379578E+04  0.10100000352E+00 0. -1.
       -3    1    3    3    0  502 -0.60474004350E+03 -0.66144471959E+03  0.85738546236E+03  0.12402941097E+04  0.10100000352E+00 0.  1.
</event>
<event>
 5   0  0.7726743E-07  0.3102046E+04  0.7818609E-02  0.8215177E-01
       -1   -1    0    0    0  501  0.00000000000E+00  0.00000000000E+00  0.12632178188E+04  0.12632178188E+04  0.50400001928E-02 0.  1.
        1   -1    0    0  501    0  0.00000000000E+00  0.00000000000E+00 -0.19043999240E+04  0.19043999240E+04  0.50400001928E-02 0. -1.
    10030    2    1    2    0    0  0.00000000000E+00  0.00000000000E+00 -0.64118210525E+03  0.31676177428E+04  0.31020457238E+04 0.  0.
        1    1    3    3  502    0  0.66805704131E+03  0.31835036973E+03 -0.17124983742E+04  0.18655556411E+04  0.50400001928E-02 0. -1.
       -1    1    3    3    0  502 -0.66805704131E+03 -0.31835036973E+03  0.10713162690E+04  0.13020621017E+04  0.50400001928E-02 0.  1.
</event>
<event>
 5   0  0.7519202E-07  0.3098066E+04  0.7818609E-02  0.8216269E-01
       -1   -1    0    0    0  501  0.00000000000E+00  0.00000000000E+00  0.96892710198E+03  0.96892710199E+03  0.50400001928E-02 0. -1.
        1   -1    0    0  501    0  0.00000000000E+00  0.00000000000E+00 -0.24764539628E+04  0.24764539628E+04  0.50400001928E-02 0.  1.
    10030    2    1    2    0    0  0.00000000000E+00  0.00000000000E+00 -0.15075268608E+04  0.34453810648E+04  0.30980660815E+04 0.  0.
        4    1    3    3  502    0 -0.14018084205E+04 -0.65910903327E+03 -0.75021461637E+03  0.17211377484E+04  0.12699999809E+01 0.  1.
       -4    1    3    3    0  502  0.14018084205E+04  0.65910903327E+03 -0.75731224446E+03  0.17242433164E+04  0.12699999809E+01 0. -1.
</event>
<event>
 5   0  0.2133385E-06  0.3115810E+04  0.7818609E-02  0.8211412E-01
       -2   -1    0    0    0  501  0.00000000000E+00  0.00000000000E+00  0.83147152048E+03  0.83147152048E+03  0.25500000920E-02 0.  1.
        2   -1    0    0  501    0  0.00000000000E+00  0.00000000000E+00 -0.29190040316E+04  0.29190040316E+04  0.25500000920E-02 0. -1.
    10030    2    1    2    0    0  0.00000000000E+00  0.00000000000E+00 -0.20875325111E+04  0.37504755521E+04  0.31158104695E+04 0.  0.
        2    1    3    3  502    0 -0.12989823979E+04 -0.46200484315E+03 -0.17055858879E+03  0.13892062400E+04  0.25500000920E-02 0.  1.
       -2    1    3    3    0  502  0.12989823979E+04  0.46200484315E+03 -0.19169739223E+04  0.23612693120E+04  0.25500000920E-02 0. -1.
</event>
<event>
 5   0  0.2133385E-06  0.3117790E+04  0.7818609E-02  0.8210872E-01
        2   -1    0    0  501    0  0.00000000000E+00  0.00000000000E+00  0.29395171947E+04  0.29395171947E+04  0.25500000920E-02 0. -1.
       -2   -1    0    0    0  501  0.00000000000E+00  0.00000000000E+00 -0.82671864748E+03  0.82671864748E+03  0.25500000920E-02 0.  1.
    10030    2    1    2    0    0  0.00000000000E+00  0.00000000000E+00  0.21127985472E+04  0.37662358422E+04  0.31177900375E+04 0.  0.
        2    1    3    3  502    0  0.14101563625E+04 -0.12682362309E+03  0.18443969989E+04  0.23251721416E+04  0.25500000920E-02 0. -1.
       -2    1    3    3    0  502 -0.14101563625E+04  0.12682362309E+03  0.26840154829E+03  0.14410637006E+04  0.25500000920E-02 0.  1.
</event>
<event>
 5   0  0.2133385E-06  0.3105454E+04  0.7818609E-02  0.8214243E-01
        2   -1    0    0  501    0  0.00000000000E+00  0.00000000000E+00  0.26088504503E+04  0.26088504503E+04  0.25500000920E-02 0. -1.
       -2   -1    0    0    0  501  0.00000000000E+00  0.00000000000E+00 -0.92414687369E+03  0.92414687370E+03  0.25500000920E-02 0.  1.
    10030    2    1    2    0    0  0.00000000000E+00  0.00000000000E+00  0.16847035766E+04  0.35329973240E+04  0.31054539041E+04 0.  0.
        2    1    3    3  502    0 -0.80198458495E+02  0.11543923279E+03  0.26015972640E+04  0.26053917811E+04  0.25500000920E-02 0. -1.
       -2    1    3    3    0  502  0.80198458495E+02 -0.11543923279E+03 -0.91689368737E+03  0.92760554287E+03  0.25500000920E-02 0.  1.
</event>
<event>
 5   0  0.7656332E-07  0.3111254E+04  0.7818609E-02  0.8212656E-01
        1   -1    0    0  501    0  0.00000000000E+00  0.00000000000E+00  0.16896069702E+04  0.16896069702E+04  0.50400001928E-02 0. -1.
       -1   -1    0    0    0  501  0.00000000000E+00  0.00000000000E+00 -0.14322711492E+04  0.14322711492E+04  0.50400001928E-02 0.  1.
    10030    2    1    2    0    0  0.00000000000E+00  0.00000000000E+00  0.25733582103E+03  0.31218781194E+04  0.31112539702E+04 0.  0.
        2    1    3    3  502    0  0.99052470853E+02  0.90135905253E+03  0.13969920047E+04  0.16654867741E+04  0.25500000920E-02 0. -1.
       -2    1    3    3    0  502 -0.99052470853E+02 -0.90135905253E+03 -0.11396561837E+04  0.14563913453E+04  0.25500000920E-02 0.  1.
</event>
<event>
 5   0  0.7519202E-07  0.3103606E+04  0.7818609E-02  0.8214749E-01
       -1   -1    0    0    0  501  0.00000000000E+00  0.00000000000E+00  0.12471012115E+04  0.12471012115E+04  0.50400001928E-02 0. -1.
        1   -1    0    0  501    0  0.00000000000E+00  0.00000000000E+00 -0.19309525233E+04  0.19309525233E+04  0.50400001928E-02 0.  1.
    10030    2    1    2    0    0  0.00000000000E+00  0.00000000000E+00 -0.68385131181E+03  0.31780537347E+04  0.31036064384E+04 0.  0.
        4    1    3    3  502    0  0.23437084249E+03  0.14008012491E+03 -0.19061612672E+04  0.19256179587E+04  0.12699999809E+01 0.  1.
       -4    1    3    3    0  502 -0.23437084249E+03 -0.14008012491E+03  0.12223099554E+04  0.12524357761E+04  0.12699999809E+01 0. -1.
</event>
<event>
 5   0  0.7561815E-07  0.3087274E+04  0.7818609E-02  0.8219239E-01
       -1   -1    0    0    0  501  0.00000000000E+00  0.00000000000E+00  0.13046762898E+04  0.13046762898E+04  0.50400001928E-02 0. -1.
        1   -1    0    0  501    0  0.00000000000E+00  0.00000000000E+00 -0.18263654444E+04  0.18263654444E+04  0.50400001928E-02 0.  1.
    10030    2    1    2    0    0  0.00000000000E+00  0.00000000000E+00 -0.52168915456E+03  0.31310417342E+04  0.30872743265E+04 0.  0.
        3    1    3    3  502    0  0.14564599701E+04 -0.26245678640E+03 -0.70599361312E+03  0.16396908859E+04  0.10100000352E+00 0.  1.
       -3    1    3    3    0  502 -0.14564599701E+04  0.26245678640E+03  0.18430445855E+03  0.14913508483E+04  0.10100000352E+00 0. -1.
</event>
<event>
 5   0  0.2226334E-06  0.3107756E+04  0.7818609E-02  0.8213613E-01
        2   -1    0    0  501    0  0.00000000000E+00  0.00000000000E+00  0.12441006736E+04  0.12441006736E+04  0.25500000920E-02 0. -1.
       -2   -1    0    0    0  501  0.00000000000E+00  0.00000000000E+00 -0.19407891076E+04  0.19407891076E+04  0.25500000920E-02 0.  1.
    10030    2    1    2    0    0  0.00000000000E+00  0.00000000000E+00 -0.69668843399E+03  0.31848897812E+04  0.31077561269E+04 0.  0.
        5    1    3    3  502    0 -0.84642119534E+03  0.13029142701E+04 -0.32541684438E+03  0.15874295725E+04  0.46999998093E+01 0.  1.
       -5    1    3    3    0  502  0.84642119534E+03 -0.13029142701E+04 -0.37127158961E+03  0.15974602087E+04  0.46999998093E+01 0. -1.
</event>
<event>
 5   0  0.7519202E-07  0.3099737E+04  0.7818609E-02  0.8215810E-01
       -1   -1    0    0    0  501  0.00000000000E+00  0.00000000000E+00  0.11122406072E+04  0.11122406072E+04  0.50400001928E-02 0.  1.
        1   -1    0    0  501    0  0.00000000000E+00  0.00000000000E+00 -0.21596878158E+04  0.21596878159E+04  0.50400001928E-02 0. -1.
    10030    2    1    2    0    0  0.00000000000E+00  0.00000000000E+00 -0.10474472086E+04  0.32719284231E+04  0.30997370777E+04 0.  0.
        4    1    3    3  502    0 -0.10316217499E+04 -0.45453835204E+03  0.59895839510E+03  0.12765583889E+04  0.12699999809E+01 0.  1.
       -4    1    3    3    0  502  0.10316217499E+04  0.45453835204E+03 -0.16464056037E+04  0.19953700342E+04  0.12699999809E+01 0. -1.
</event>
<event>
 5   0  0.2078009E-06  0.3097053E+04  0.7818609E-02  0.8216547E-01
       -2   -1    0    0    0  501  0.00000000000E+00  0.00000000000E+00  0.71160373953E+03  0.71160373954E+03  0.25500000920E-02 0.  1.
        2   -1    0    0  501    0  0.00000000000E+00  0.00000000000E+00 -0.33697613902E+04  0.33697613902E+04  0.25500000920E-02 0. -1.
    10030    2    1    2    0    0  0.00000000000E+00  0.00000000000E+00 -0.26581576507E+04  0.40813651297E+04  0.30970533135E+04 0.  0.
        3    1    3    3  502    0 -0.45526390395E+03  0.14315425543E+04 -0.18245439693E+04  0.23633747086E+04  0.10100000352E+00 0. -1.
       -3    1    3    3    0  502  0.45526390395E+03 -0.14315425543E+04 -0.83361368137E+03  0.17179904211E+04  0.10100000352E+00 0.  1.
</event>
<event>
 5   0  0.7519202E-07  0.3099968E+04  0.7818609E-02  0.8215747E-01
        1   -1    0    0  501    0  0.00000000000E+00  0.00000000000E+00  0.13430339316E+04  0.13430339316E+04  0.50400001928E-02 0.  1.
       -1   -1    0    0    0  501  0.00000000000E+00  0.00000000000E+00 -0.17888236286E+04  0.17888236286E+04  0.50400001928E-02 0. -1.
    10030    2    1    2    0    0  0.00000000000E+00  0.00000000000E+00 -0.44578969692E+03  0.31318575602E+04  0.30999682778E+04 0.  0.
        4    1    3    3  502    0 -0.13470381995E+03 -0.59879227753E+03  0.12150356006E+04  0.13612532587E+04  0.12699999809E+01 0.  1.
       -4    1    3    3    0  502  0.13470381995E+03  0.59879227753E+03 -0.16608252975E+04  0.17706043015E+04  0.12699999809E+01 0. -1.
</event>
<event>
 5   0  0.7413481E-07  0.3045758E+04  0.7818609E-02  0.8230784E-01
        1   -1    0    0  501    0  0.00000000000E+00  0.00000000000E+00  0.11668965031E+04  0.11668965031E+04  0.50400001928E-02 0. -1.
       -1   -1    0    0    0  501  0.00000000000E+00  0.00000000000E+00 -0.19874607837E+04  0.19874607837E+04  0.50400001928E-02 0.  1.
    10030    2    1    2    0    0  0.00000000000E+00  0.00000000000E+00 -0.82056428063E+03  0.31543572869E+04  0.30457583874E+04 0.  0.
        5    1    3    3  502    0  0.10064466579E+04  0.90550226292E+03 -0.11324764303E+04  0.17650479252E+04  0.46999998093E+01 0.  1.
       -5    1    3    3    0  502 -0.10064466579E+04 -0.90550226292E+03  0.31191214963E+03  0.13893093616E+04  0.46999998093E+01 0. -1.
</event>
<event>
 5   0  0.7561815E-07  0.3117927E+04  0.7818609E-02  0.8210835E-01
        1   -1    0    0  501    0  0.00000000000E+00  0.00000000000E+00  0.92428941025E+03  0.92428941026E+03  0.50400001928E-02 0.  1.
       -1   -1    0    0    0  501  0.00000000000E+00  0.00000000000E+00 -0.26294446218E+04  0.26294446218E+04  0.50400001928E-02 0. -1.
    10030    2    1    2    0    0  0.00000000000E+00  0.00000000000E+00 -0.17051552116E+04  0.35537340321E+04  0.31179274006E+04 0.  0.
        3    1    3    3  502    0 -0.55623743459E+03  0.64262606803E+03 -0.23421540209E+04  0.24915966397E+04  0.10100000352E+00 0. -1.
       -3    1    3    3    0  502  0.55623743459E+03 -0.64262606803E+03  0.63699880937E+03  0.10621373924E+04  0.10100000352E+00 0.  1.
</event>
<event>
 5   0  0.7561815E-07  0.3081474E+04  0.7818609E-02  0.8220841E-01
        1   -1    0    0  501    0  0.00000000000E+00  0.00000000000E+00  0.15040275675E+04  0.15040275676E+04  0.50400001928E-02 0.  1.
       -1   -1    0    0    0  501  0.00000000000E+00  0.00000000000E+00 -0.15783423085E+04  0.15783423085E+04  0.50400001928E-02 0. -1.
    10030    2    1    2    0    0  0.00000000000E+00  0.00000000000E+00 -0.74314740980E+02  0.30823698761E+04  0.30814738961E+04 0.  0.
        3    1    3    3  502    0  0.37952538466E+03 -0.66691490708E+03 -0.13736054730E+04  0.15734061829E+04  0.10100000352E+00 0. -1.
       -3    1    3    3    0  502 -0.37952538466E+03  0.66691490708E+03  0.12992907320E+04  0.15089636932E+04  0.10100000352E+00 0.  1.
</event>
<event>
 5   0  0.2094135E-06  0.3097944E+04  0.7818609E-02  0.8216302E-01
       -2   -1    0    0    0  501  0.00000000000E+00  0.00000000000E+00  0.11740993675E+04  0.11740993675E+04  0.25500000920E-02 0.  1.
        2   -1    0    0  501    0  0.00000000000E+00  0.00000000000E+00 -0.20435356194E+04  0.20435356194E+04  0.25500000920E-02 0. -1.
    10030    2    1    2    0    0  0.00000000000E+00  0.00000000000E+00 -0.86943625185E+03  0.32176349869E+04  0.30979437556E+04 0.  0.
        4    1    3    3  502    0 -0.86030643464E+03 -0.14993915768E+03 -0.17634832873E+04  0.19678627569E+04  0.12699999809E+01 0. -1.
       -4    1    3    3    0  502  0.86030643464E+03  0.14993915768E+03  0.89404703543E+03  0.12497722300E+04  0.12699999809E+01 0.  1.
</event>
<event>
 5   0  0.2133385E-06  0.3094066E+04  0.7818609E-02  0.8217368E-01
       -2   -1    0    0    0  501  0.00000000000E+00  0.00000000000E+00  0.20743403163E+04  0.20743403163E+04  0.25500000920E-02 0.  1.
        2   -1    0    0  501    0  0.00000000000E+00  0.00000000000E+00 -0.11537695500E+04  0.11537695500E+04  0.25500000920E-02 0. -1.
    10030    2    1    2    0    0  0.00000000000E+00  0.00000000000E+00  0.92057076626E+03  0.32281098663E+04  0.30940657351E+04 0.  0.
        2    1    3    3  502    0  0.22038007426E+03 -0.26149973940E+03 -0.11138401318E+04  0.11651563543E+04  0.25500000920E-02 0. -1.
       -2    1    3    3    0  502 -0.22038007426E+03  0.26149973940E+03  0.20344108980E+04  0.20629535120E+04  0.25500000920E-02 0.  1.
</event>
<event>
 5   0  0.7561815E-07  0.2949714E+04  0.7818609E-02  0.8258238E-01
       -1   -1    0    0    0  501  0.00000000000E+00  0.00000000000E+00  0.94981057070E+03  0.94981057071E+03  0.50400001928E-02 0.  1.
        1   -1    0    0  501    0  0.00000000000E+00  0.00000000000E+00 -0.22901436417E+04  0.22901436417E+04  0.50400001928E-02 0. -1.
    10030    2    1    2    0    0  0.00000000000E+00  0.00000000000E+00 -0.13403330710E+04  0.32399542124E+04  0.29497136399E+04 0.  0.
        3    1    3    3  502    0 -0.86633613540E+03 -0.70300071771E+02 -0.19789286282E+04  0.21613974473E+04  0.10100000352E+00 0. -1.
       -3    1    3    3    0  502  0.86633613540E+03  0.70300071771E+02  0.63859555721E+03  0.10785567651E+04  0.10100000352E+00 0.  1.
</event>
<event>
 5   0  0.2078009E-06  0.3116481E+04  0.7818609E-02  0.8211229E-01
       -2   -1    0    0    0  501  0.00000000000E+00  0.00000000000E+00  0.13133521046E+04  0.13133521046E+04  0.25500000920E-02 0.  1.
        2   -1    0    0  501    0  0.00000000000E+00  0.00000000000E+00 -0.18487905702E+04  0.18487905702E+04  0.25500000920E-02 0. -1.
    10030    2    1    2    0    0  0.00000000000E+00  0.00000000000E+00 -0.53543846557E+03  0.31621426748E+04  0.31164806987E+04 0.  0.
        3    1    3    3  502    0  0.13447555290E+04 -0.67541011142E+03  0.14264027326E+03  0.15115860906E+04  0.10100000352E+00 0.  1.
       -3    1    3    3    0  502 -0.13447555290E+04  0.67541011142E+03 -0.67807873883E+03  0.16505565842E+04  0.10100000352E+00 0. -1.
</event>
<event>
 5   0  0.7726743E-07  0.3110969E+04  0.7818609E-02  0.8212734E-01
       -1   -1    0    0    0  501  0.00000000000E+00  0.00000000000E+00  0.10343467135E+04  0.10343467135E+04  0.50400001928E-02 0. -1.
        1   -1    0    0  501    0  0.00000000000E+00  0.00000000000E+00 -0.23391882418E+04  0.23391882418E+04  0.50400001928E-02 0.  1.
    10030    2    1    2    0    0  0.00000000000E+00  0.00000000000E+00 -0.13048415283E+04  0.33735349553E+04  0.31109687688E+04 0.  0.
        1    1    3    3  502    0  0.53412793044E+03 -0.64444174752E+03 -0.20741573727E+04  0.22366775849E+04  0.50400001928E-02 0.  1.
       -1    1    3    3    0  502 -0.53412793044E+03  0.64444174752E+03  0.76931584445E+03  0.11368573704E+04  0.50400001928E-02 0. -1.
</event>
<event>
 5   0  0.7519202E-07  0.3110345E+04  0.7818609E-02  0.8212905E-01
       -1   -1    0    0    0  501  0.00000000000E+00  0.00000000000E+00  0.20510187918E+04  0.20510187918E+04  0.50400001928E-02 0. -1.
        1   -1    0    0  501    0  0.00000000000E+00  0.00000000000E+00 -0.11792001913E+04  0.11792001913E+04  0.50400001928E-02 0.  1.
    10030    2    1    2    0    0  0.00000000000E+00  0.00000000000E+00  0.87181860052E+03  0.32302189831E+04  0.31103451587E+04 0.  0.
        4    1    3    3  502    0 -0.88284834426E+03  0.72674773528E+03  0.15305607296E+04  0.19105499809E+04  0.12699999809E+01 0. -1.
       -4    1    3    3    0  502  0.88284834426E+03 -0.72674773528E+03 -0.65874212910E+03  0.13196690022E+04  0.12699999809E+01 0.  1.
</event>
<event>
 5   0  0.7413481E-07  0.3139012E+04  0.7818609E-02  0.8205112E-01
        1   -1    0    0  501    0  0.00000000000E+00  0.00000000000E+00  0.17492541222E+04  0.17492541222E+04  0.50400001928E-02 0.  1.
       -1   -1    0    0    0  501  0.00000000000E+00  0.00000000000E+00 -0.14082280937E+04  0.14082280938E+04  0.50400001928E-02 0. -1.
    10030    2    1    2    0    0  0.00000000000E+00  0.00000000000E+00  0.34102602849E+03  0.31574822160E+04  0.31390118178E+04 0.  0.
        5    1    3    3  502    0 -0.95257997515E+03  0.95579322034E+03 -0.63568754568E+03  0.14916668646E+04  0.46999998093E+01 0. -1.
       -5    1    3    3    0  502  0.95257997515E+03 -0.95579322034E+03  0.97671357417E+03  0.16658153514E+04  0.46999998093E+01 0.  1.
</event>
<event>
 5   0  0.2078009E-06  0.3095439E+04  0.7818609E-02  0.8216991E-01
       -2   -1    0    0    0  501  0.00000000000E+00  0.00000000000E+00  0.98102304857E+03  0.98102304857E+03  0.25500000920E-02 0. -1.
        2   -1    0    0  501    0  0.00000000000E+00  0.00000000000E+00 -0.24417729229E+04  0.24417729229E+04  0.25500000920E-02 0.  1.
    10030    2    1    2    0    0  0.00000000000E+00  0.00000000000E+00 -0.14607498743E+04  0.34227959715E+04  0.30954389135E+04 0.  0.
        3    1    3    3  502    0 -0.46946375128E+03 -0.96576340807E+02  0.89689333238E+03  0.10169271671E+04  0.10100000352E+00 0. -1.
       -3    1    3    3    0  502  0.46946375128E+03  0.96576340807E+02 -0.23576432067E+04  0.24058688043E+04  0.10100000352E+00 0.  1.
</event>
<event>
 5   0  0.7726743E-07  0.2934335E+04  0.7818609E-02  0.8262735E-01
       -1   -1    0    0    0  501  0.00000000000E+00  0.00000000000E+00  0.15621317554E+04  0.15621317554E+04  0.50400001928E-02 0. -1.
        1   -1    0    0  501    0  0.00000000000E+00  0.00000000000E+00 -0.13779760157E+04  0.13779760157E+04  0.50400001928E-02 0.  1.
    10030    2    1    2    0    0  0.00000000000E+00  0.00000000000E+00  0.18415573970E+03  0.29401077711E+04  0.29343347405E+04 0.  0.
        1    1    3    3  502    0 -0.13201152996E+04  0.50776469922E+03  0.48278182185E+03  0.14945259053E+04  0.50400001928E-02 0.  1.
       -1    1    3    3    0  502  0.13201152996E+04 -0.50776469922E+03 -0.29862608216E+03  0.14455818659E+04  0.50400001928E-02 0. -1.
</event>
<event>
 5   0  0.2067926E-06  0.3086728E+04  0.7818609E-02  0.8219390E-01
        2   -1    0    0  501    0  0.00000000000E+00  0.00000000000E+00  0.12568665159E+04  0.12568665159E+04  0.25500000920E-02 0.  1.
       -2   -1    0    0    0  501  0.00000000000E+00  0.00000000000E+00 -0.18951672638E+04  0.18951672638E+04  0.25500000920E-02 0. -1.
    10030    2    1    2    0    0  0.00000000000E+00  0.00000000000E+00 -0.63830074787E+03  0.31520337797E+04  0.30867278959E+04 0.  0.
        1    1    3    3  502    0 -0.59030404560E+03 -0.61550223594E+03 -0.16327053869E+04  0.18420175757E+04  0.50400001928E-02 0. -1.
       -1    1    3    3    0  502  0.59030404560E+03  0.61550223594E+03  0.99440463900E+03  0.13100162040E+04  0.50400001928E-02 0.  1.
</event>
<event>
 5   0  0.7519202E-07  0.3116163E+04  0.7818609E-02  0.8211316E-01
        1   -1    0    0  501    0  0.00000000000E+00  0.00000000000E+00  0.16438955344E+04  0.16438955344E+04  0.50400001928E-02 0.  1.
       -1   -1    0    0    0  501  0.00000000000E+00  0.00000000000E+00 -0.14767473927E+04  0.14767473927E+04  0.50400001928E-02 0. -1.
    10030    2    1    2    0    0  0.00000000000E+00  0.00000000000E+00  0.16714814171E+03  0.31206429272E+04  0.31161633105E+04 0.  0.
        4    1    3    3  502    0  0.34369814180E+03  0.91691732271E+03 -0.11300885103E+04  0.14953151653E+04  0.12699999809E+01 0. -1.
       -4    1    3    3    0  502 -0.34369814180E+03 -0.91691732271E+03  0.12972366520E+04  0.16253277619E+04  0.12699999809E+01 0.  1.
</event>
<event>
 5   0  0.7413481E-07  0.3215855E+04  0.7818609E-02  0.8184643E-01
       -1   -1    0    0    0  501  0.00000000000E+00  0.00000000000E+00  0.14823569153E+04  0.14823569153E+04  0.50400001928E-02 0. -1.
        1   -1    0    0  501    0  0.00000000000E+00  0.00000000000E+00 -0.17441347185E+04  0.17441347185E+04  0.50400001928E-02 0.  1.
    10030    2    1    2    0    0  0.00000000000E+00  0.00000000000E+00 -0.26177780320E+03  0.32264916338E+04  0.32158545745E+04 0.  0.
        5    1    3    3  502    0 -0.12916895796E+04  0.74589523858E+03 -0.73336359590E+03  0.16621269298E+04  0.46999998093E+01 0. -1.
       -5    1    3    3    0  502  0.12916895796E+04 -0.74589523858E+03  0.47158579269E+03  0.15643647039E+04  0.46999998093E+01 0.  1.
</event>
<event>
 5   0  0.7656332E-07  0.3043516E+04  0.7818609E-02  0.8231413E-01
       -1   -1    0    0    0  501  0.00000000000E+00  0.00000000000E+00  0.15688652864E+04  0.15688652864E+04  0.50400001928E-02 0. -1.
        1   -1    0    0  501    0  0.00000000000E+00  0.00000000000E+00 -0.14760653505E+04  0.14760653505E+04  0.50400001928E-02 0.  1.
    10030    2    1    2    0    0  0.00000000000E+00  0.00000000000E+00  0.92799935946E+02  0.30449306369E+04  0.30435161829E+04 0.  0.
        2    1    3    3  502    0 -0.10295143353E+04 -0.11162457063E+04  0.14566021663E+03  0.15254904595E+04  0.25500000920E-02 0. -1.
       -2    1    3    3    0  502  0.10295143353E+04  0.11162457063E+04 -0.52860280682E+02  0.15194401774E+04  0.25500000920E-02 0.  1.
</event>
<event>
 5   0  0.7519202E-07  0.3098225E+04  0.7818609E-02  0.8216225E-01
       -1   -1    0    0    0  501  0.00000000000E+00  0.00000000000E+00  0.11787645383E+04  0.11787645383E+04  0.50400001928E-02 0. -1.
        1   -1    0    0  501    0  0.00000000000E+00  0.00000000000E+00 -0.20358173187E+04  0.20358173187E+04  0.50400001928E-02 0.  1.
    10030    2    1    2    0    0  0.00000000000E+00  0.00000000000E+00 -0.85705278040E+03  0.32145818570E+04  0.30982248219E+04 0.  0.
        4    1    3    3  502    0  0.10696978210E+03 -0.36625324384E+03  0.11292470101E+04  0.11919666084E+04  0.12699999809E+01 0. -1.
       -4    1    3    3    0  502 -0.10696978210E+03  0.36625324384E+03 -0.19862997905E+04  0.20226152485E+04  0.12699999809E+01 0.  1.
</event>
<event>
 5   0  0.7413481E-07  0.3090915E+04  0.7818609E-02  0.8218236E-01
       -1   -1    0    0    0  501  0.00000000000E+00  0.00000000000E+00  0.13901274830E+04  0.13901274830E+04  0.50400001928E-02 0. -1.
        1   -1    0    0  501    0  0.00000000000E+00  0.00000000000E+00 -0.17181438954E+04  0.17181438954E+04  0.50400001928E-02 0.  1.
    10030    2    1    2    0    0  0.00000000000E+00  0.00000000000E+00 -0.32801641239E+03  0.31082713784E+04  0.30909151065E+04 0.  0.
        5    1    3    3  502    0  0.12203570199E+04  0.18308153278E+01  0.78954752179E+03  0.14535067895E+04  0.46999998093E+01 0. -1.
       -5    1    3    3    0  502 -0.12203570199E+04 -0.18308153278E+01 -0.11175639342E+04  0.16547645890E+04  0.46999998093E+01 0.  1.
</event>
<event>
 5   0  0.2133385E-06  0.3093876E+04  0.7818609E-02  0.8217421E-01
        2   -1    0    0  501    0  0.00000000000E+00  0.00000000000E+00  0.22511372145E+04  0.22511372145E+04  0.25500000920E-02 0. -1.
       -2   -1    0    0    0  501  0.00000000000E+00  0.00000000000E+00 -0.10630259518E+04  0.10630259518E+04  0.25500000920E-02 0.  1.
    10030    2    1    2    0    0  0.00000000000E+00  0.00000000000E+00  0.11881112627E+04  0.33141631663E+04  0.30938760674E+04 0.  0.
        2    1    3    3  502    0  0.65992458395E+03 -0.30775849256E+03 -0.86796757678E+03  0.11329534238E+04  0.25500000920E-02 0.  1.
       -2    1    3    3    0  502 -0.65992458395E+03  0.30775849256E+03  0.20560788395E+04  0.21812097425E+04  0.25500000920E-02 0. -1.
</event>
<event>
 5   0  0.7726743E-07  0.3104248E+04  0.7818609E-02  0.8214573E-01
        1   -1    0    0  501    0  0.00000000000E+00  0.00000000000E+00  0.11372574397E+04  0.11372574397E+04  0.50400001928E-02 0.  1.
       -1   -1    0    0    0  501  0.00000000000E+00  0.00000000000E+00 -0.21183319235E+04  0.21183319235E+04  0.50400001928E-02 0. -1.
    10030    2    1    2    0    0  0.00000000000E+00  0.00000000000E+00 -0.98107448386E+03  0.32555893632E+04  0.31042478894E+04 0.  0.
        1    1    3    3  502    0  0.24443356547E+03  0.10266297672E+04  0.70309496381E+03  0.12680926524E+04  0.50400001928E-02 0.  1.
       -1    1    3    3    0  502 -0.24443356547E+03 -0.10266297672E+04 -0.16841694477E+04  0.19874967108E+04  0.50400001928E-02 0. -1.
</event>
<event>
 5   0  0.7726743E-07  0.3094582E+04  0.7818609E-02  0.8217226E-01
       -1   -1    0    0    0  501  0.00000000000E+00  0.00000000000E+00  0.12283044786E+04  0.12283044786E+04  0.50400001928E-02 0.  1.
        1   -1    0    0  501    0  0.00000000000E+00  0.00000000000E+00 -0.19491178659E+04  0.19491178659E+04  0.50400001928E-02 0. -1.
    10030    2    1    2    0    0  0.00000000000E+00  0.00000000000E+00 -0.72081338729E+03  0.31774223445E+04  0.30945824946E+04 0.  0.
        1    1    3    3  502    0 -0.11673631894E+04  0.77951812449E+03  0.30796009928E+03  0.14370889830E+04  0.50400001928E-02 0.  1.
       -1    1    3    3    0  502  0.11673631894E+04 -0.77951812449E+03 -0.10287734866E+04  0.17403333615E+04  0.50400001928E-02 0. -1.
</event>
<event>
 5   0  0.7726743E-07  0.3140578E+04  0.7818609E-02  0.8204689E-01
       -1   -1    0    0    0  501  0.00000000000E+00  0.00000000000E+00  0.15474504469E+04  0.15474504469E+04  0.50400001928E-02 0.  1.
        1   -1    0    0  501    0  0.00000000000E+00  0.00000000000E+00 -0.15934651071E+04  0.15934651071E+04  0.50400001928E-02 0. -1.
    10030    2    1    2    0    0  0.00000000000E+00  0.00000000000E+00 -0.46014660218E+02  0.31409155540E+04  0.31405784767E+04 0.  0.
        1    1    3    3  502    0  0.94132028817E+03  0.17669200265E+03 -0.12675300347E+04  0.15886901326E+04  0.50400001928E-02 0. -1.
       -1    1    3    3    0  502 -0.94132028817E+03 -0.17669200265E+03  0.12215153745E+04  0.15522254214E+04  0.50400001928E-02 0.  1.
</event>
<event>
 5   0  0.2094135E-06  0.3083974E+04  0.7818609E-02  0.8220150E-01
       -2   -1    0    0    0  501  0.00000000000E+00  0.00000000000E+00  0.13941025204E+04  0.13941025204E+04  0.25500000920E-02 0.  1.
        2   -1    0    0  501    0  0.00000000000E+00  0.00000000000E+00 -0.17055588487E+04  0.17055588487E+04  0.25500000920E-02 0. -1.
    10030    2    1    2    0    0  0.00000000000E+00  0.00000000000E+00 -0.31145632829E+03  0.30996613690E+04  0.30839739879E+04 0.  0.
        4    1    3    3  502    0  0.39153454736E+03 -0.19187010294E+03 -0.16423084841E+04  0.16992034040E+04  0.12699999809E+01 0. -1.
       -4    1    3    3    0  502 -0.39153454736E+03  0.19187010294E+03  0.13308521558E+04  0.14004579650E+04  0.12699999809E+01 0.  1.
</event>
<event>
 5   0  0.7561815E-07  0.3130523E+04  0.7818609E-02  0.8207411E-01
        1   -1    0    0  501    0  0.00000000000E+00  0.00000000000E+00  0.18790473466E+04  0.18790473466E+04  0.50400001928E-02 0. -1.
       -1   -1    0    0    0  501  0.00000000000E+00  0.00000000000E+00 -0.13038756705E+04  0.13038756705E+04  0.50400001928E-02 0.  1.
    10030    2    1    2    0    0  0.00000000000E+00  0.00000000000E+00  0.57517167607E+03  0.31829230171E+04  0.31305233550E+04 0.  0.
        3    1    3    3  502    0 -0.33686878387E+03  0.12012968016E+04 -0.67346021178E+03  0.14177952074E+04  0.10100000352E+00 0.  1.
       -3    1    3    3    0  502  0.33686878387E+03 -0.12012968016E+04  0.12486318879E+04  0.17651278097E+04  0.10100000352E+00 0. -1.
</event>
<event>
 5   0  0.2094135E-06  0.3123723E+04  0.7818609E-02  0.8209257E-01
        2   -1    0    0  501    0  0.00000000000E+00  0.00000000000E+00  0.15676444040E+04  0.15676444040E+04  0.25500000920E-02 0. -1.
       -2   -1    0    0    0  501  0.00000000000E+00  0.00000000000E+00 -0.15560998892E+04  0.15560998892E+04  0.25500000920E-02 0.  1.
    10030    2    1    2    0    0  0.00000000000E+00  0.00000000000E+00  0.11544514867E+02  0.31237442932E+04  0.31237229604E+04 0.  0.
        4    1    3    3  502    0 -0.44979585997E+03  0.13492917270E+04 -0.63960428322E+03  0.15594870093E+04  0.12699999809E+01 0.  1.
       -4    1    3    3    0  502  0.44979585997E+03 -0.13492917270E+04  0.65114879809E+03  0.15642572839E+04  0.12699999809E+01 0. -1.
</event>
<event>
 5   0  0.2078009E-06  0.3040655E+04  0.7818609E-02  0.8232216E-01
       -2   -1    0    0    0  501  0.00000000000E+00  0.00000000000E+00  0.10126733150E+04  0.10126733150E+04  0.25500000920E-02 0. -1.
        2   -1    0    0  501    0  0.00000000000E+00  0.00000000000E+00 -0.22824689476E+04  0.22824689476E+04  0.25500000920E-02 0.  1.
    10030    2    1    2    0    0  0.00000000000E+00  0.00000000000E+00 -0.12697956325E+04  0.32951422626E+04  0.30406547950E+04 0.  0.
        3    1    3    3  502    0  0.14604630763E+04 -0.41999423268E+02 -0.10904095441E+04  0.18231043121E+04  0.10100000352E+00 0.  1.
       -3    1    3    3    0  502 -0.14604630763E+04  0.41999423268E+02 -0.17938608844E+03  0.14720379505E+04  0.10100000352E+00 0. -1.
</event>
<event>
 5   0  0.2067926E-06  0.3099285E+04  0.7818609E-02  0.8215934E-01
        2   -1    0    0  501    0  0.00000000000E+00  0.00000000000E+00  0.25091747617E+04  0.25091747617E+04  0.25500000920E-02 0.  1.
       -2   -1    0    0    0  501  0.00000000000E+00  0.00000000000E+00 -0.95704462003E+03  0.95704462003E+03  0.25500000920E-02 0. -1.
    10030    2    1    2    0    0  0.00000000000E+00  0.00000000000E+00  0.15521301417E+04  0.34662193817E+04  0.30992852121E+04 0.  0.
        1    1    3    3  502    0  0.12091279749E+04 -0.86449335585E+03  0.12661880134E+04  0.19525806789E+04  0.50400001928E-02 0.  1.
       -1    1    3    3    0  502 -0.12091279749E+04  0.86449335585E+03  0.28594212822E+03  0.15136387029E+04  0.50400001928E-02 0. -1.
</event>
<event>
 5   0  0.2094135E-06  0.3103215E+04  0.7818609E-02  0.8214856E-01
        2   -1    0    0  501    0  0.00000000000E+00  0.00000000000E+00  0.15295598287E+04  0.15295598287E+04  0.25500000920E-02 0. -1.
       -2   -1    0    0    0  501  0.00000000000E+00  0.00000000000E+00 -0.15739727529E+04  0.15739727529E+04  0.25500000920E-02 0.  1.
    10030    2    1    2    0    0  0.00000000000E+00  0.00000000000E+00 -0.44412924232E+02  0.31035325816E+04  0.31032147810E+04 0.  0.
        4    1    3    3  502    0  0.10086329841E+04 -0.42528955434E+03 -0.11219882023E+04  0.15675046540E+04  0.12699999809E+01 0.  1.
       -4    1    3    3    0  502 -0.10086329841E+04  0.42528955434E+03  0.10775752780E+04  0.15360279276E+04  0.12699999809E+01 0. -1.
</event>
<event>
 5   0  0.7561815E-07  0.3126908E+04  0.7818609E-02  0.8208392E-01
        1   -1    0    0  501    0  0.00000000000E+00  0.00000000000E+00  0.22647906098E+04  0.22647906098E+04  0.50400001928E-02 0. -1.
       -1   -1    0    0    0  501  0.00000000000E+00  0.00000000000E+00 -0.10793002500E+04  0.10793002501E+04  0.50400001928E-02 0.  1.
    10030    2    1    2    0    0  0.00000000000E+00  0.00000000000E+00  0.11854903597E+04  0.33440908598E+04  0.31269084230E+04 0.  0.
        3    1    3    3  502    0 -0.75169405799E+03 -0.99695603199E+03 -0.41358036257E+03  0.13152999707E+04  0.10100000352E+00 0.  1.
       -3    1    3    3    0  502  0.75169405799E+03  0.99695603199E+03  0.15990707223E+04  0.20287908891E+04  0.10100000352E+00 0. -1.
</event>
<event>
 5   0  0.2078009E-06  0.3088828E+04  0.7818609E-02  0.8218811E-01
       -2   -1    0    0    0  501  0.00000000000E+00  0.00000000000E+00  0.17822638867E+04  0.17822638867E+04  0.25500000920E-02 0. -1.
        2   -1    0    0  501    0  0.00000000000E+00  0.00000000000E+00 -0.13383058838E+04  0.13383058838E+04  0.25500000920E-02 0.  1.
    10030    2    1    2    0    0  0.00000000000E+00  0.00000000000E+00  0.44395800289E+03  0.31205697705E+04  0.30888277687E+04 0.  0.
        3    1    3    3  502    0  0.13971646774E+04 -0.32194527181E+03 -0.35793754835E+03  0.14777811721E+04  0.10100000352E+00 0.  1.
       -3    1    3    3    0  502 -0.13971646774E+04  0.32194527181E+03  0.80189555123E+03  0.16427885984E+04  0.10100000352E+00 0. -1.
</event>
<event>
 5   0  0.7561815E-07  0.3101190E+04  0.7818609E-02  0.8215412E-01
        1   -1    0    0  501    0  0.00000000000E+00  0.00000000000E+00  0.20234662794E+04  0.20234662794E+04  0.50400001928E-02 0. -1.
       -1   -1    0    0    0  501  0.00000000000E+00  0.00000000000E+00 -0.11882304391E+04  0.11882304391E+04  0.50400001928E-02 0.  1.
    10030    2    1    2    0    0  0.00000000000E+00  0.00000000000E+00  0.83523584036E+03  0.32116967185E+04  0.31011895947E+04 0.  0.
        3    1    3    3  502    0 -0.82208384669E+03 -0.90449248957E+03 -0.57053937055E+03  0.13488675614E+04  0.10100000352E+00 0.  1.
       -3    1    3    3    0  502  0.82208384669E+03  0.90449248957E+03  0.14057752109E+04  0.18628291571E+04  0.10100000352E+00 0. -1.
</event>
<event>
 5   0  0.2094135E-06  0.3097156E+04  0.7818609E-02  0.8216519E-01
        2   -1    0    0  501    0  0.00000000000E+00  0.00000000000E+00  0.16353651076E+04  0.16353651076E+04  0.25500000920E-02 0. -1.
       -2   -1    0    0    0  501  0.00000000000E+00  0.00000000000E+00 -0.14663964270E+04  0.14663964270E+04  0.25500000920E-02 0.  1.
    10030    2    1    2    0    0  0.00000000000E+00  0.00000000000E+00  0.16896868062E+03  0.31017615346E+04  0.30971558247E+04 0.  0.
        4    1    3    3  502    0 -0.15335855743E+04  0.17029738719E+03  0.21585113690E+03  0.15580369829E+04  0.12699999809E+01 0.  1.
       -4    1    3    3    0  502  0.15335855743E+04 -0.17029738719E+03 -0.46882456278E+02  0.15437245517E+04  0.12699999809E+01 0. -1.
</event>
<event>
 5   0  0.2133385E-06  0.3081862E+04  0.7818609E-02  0.8220733E-01
        2   -1    0    0  501    0  0.00000000000E+00  0.00000000000E+00  0.21299104963E+04  0.21299104963E+04  0.25500000920E-02 0.  1.
       -2   -1    0    0    0  501  0.00000000000E+00  0.00000000000E+00 -0.11148206972E+04  0.11148206972E+04  0.25500000920E-02 0. -1.
    10030    2    1    2    0    0  0.00000000000E+00  0.00000000000E+00  0.10150897990E+04  0.32447311935E+04  0.30818619726E+04 0.  0.
        2    1    3    3  502    0 -0.14168813426E+04  0.23466675325E+03  0.10954894660E+04  0.18062996413E+04  0.25500000920E-02 0.  1.
       -2    1    3    3    0  502  0.14168813426E+04 -0.23466675325E+03 -0.80399666933E+02  0.14384315522E+04  0.25500000920E-02 0. -1.
</event>
<event>
 5   0  0.2067926E-06  0.3105311E+04  0.7818609E-02  0.8214282E-01
       -2   -1    0    0    0  501  0.00000000000E+00  0.00000000000E+00  0.14206022794E+04  0.14206022794E+04  0.25500000920E-02 0.  1.
        2   -1    0    0  501    0  0.00000000000E+00  0.00000000000E+00 -0.16969836011E+04  0.16969836011E+04  0.25500000920E-02 0. -1.
    10030    2    1    2    0    0  0.00000000000E+00  0.00000000000E+00 -0.27638132163E+03  0.31175858805E+04  0.31053107876E+04 0.  0.
        1    1    3    3  502    0  0.90958704603E+03 -0.57536304057E+02  0.11237904593E+04  0.14469153455E+04  0.50400001928E-02 0.  1.
       -1    1    3    3    0  502 -0.90958704603E+03  0.57536304057E+02 -0.14001717809E+04  0.16706705350E+04  0.50400001928E-02 0. -1.
</event>
<event>
 5   0  0.2067926E-06  0.3008291E+04  0.7818609E-02  0.8241367E-01
        2   -1    0    0  501    0  0.00000000000E+00  0.00000000000E+00  0.14209727905E+04  0.14209727905E+04  0.25500000920E-02 0.  1.
       -2   -1    0    0    0  501  0.00000000000E+00  0.00000000000E+00 -0.15921866215E+04  0.15921866215E+04  0.25500000920E-02 0. -1.
    10030    2    1    2    0    0  0.00000000000E+00  0.00000000000E+00 -0.17121383106E+03  0.30131594120E+04  0.30082911206E+04 0.  0.
        1    1    3    3  502    0 -0.37463639171E+03  0.14152953514E+04  0.25997390717E+03  0.14869431025E+04  0.50400001928E-02 0. -1.
       -1    1    3    3    0  502  0.37463639171E+03 -0.14152953514E+04 -0.43118773823E+03  0.15262163095E+04  0.50400001928E-02 0.  1.
</event>
<event>
 5   0  0.2133385E-06  0.3101108E+04  0.7818609E-02  0.8215434E-01
        2   -1    0    0  501    0  0.00000000000E+00  0.00000000000E+00  0.15823453685E+04  0.15823453685E+04  0.25500000920E-02 0. -1.
       -2   -1    0    0    0  501  0.00000000000E+00  0.00000000000E+00 -0.15194010313E+04  0.15194010313E+04  0.25500000920E-02 0.  1.
    10030    2    1    2    0    0  0.00000000000E+00  0.00000000000E+00  0.62944337194E+02  0.31017463998E+04  0.31011076633E+04 0.  0.
        2    1    3    3  502    0  0.12034307330E+04  0.78778977258E+03  0.61069327669E+03  0.15626274454E+04  0.25500000920E-02 0. -1.
       -2    1    3    3    0  502 -0.12034307330E+04 -0.78778977258E+03 -0.54774893950E+03  0.15391189544E+04  0.25500000920E-02 0.  1.
</event>
<event>
 5   0  0.7656332E-07  0.3103687E+04  0.7818609E-02  0.8214727E-01
       -1   -1    0    0    0  501  0.00000000000E+00  0.00000000000E+00  0.24000862283E+04  0.24000862283E+04  0.50400001928E-02 0. -1.
        1   -1    0    0  501    0  0.00000000000E+00  0.00000000000E+00 -0.10033880744E+04  0.10033880744E+04  0.50400001928E-02 0.  1.
    10030    2    1    2    0    0  0.00000000000E+00  0.00000000000E+00  0.13966981539E+04  0.34034743027E+04  0.31036867748E+04 0.  0.
        2    1    3    3  502    0 -0.64749044353E+03 -0.79788250991E+03  0.19735844510E+04  0.22250608889E+04  0.25500000920E-02 0. -1.
       -2    1    3    3    0  502  0.64749044353E+03  0.79788250991E+03 -0.57688629706E+03  0.11784134138E+04  0.25500000920E-02 0.  1.
</event>
<event>
 5   0  0.7656332E-07  0.3083508E+04  0.7818609E-02  0.8220279E-01
       -1   -1    0    0    0  501  0.00000000000E+00  0.00000000000E+00  0.21579106828E+04  0.21579106828E+04  0.50400001928E-02 0.  1.
        1   -1    0    0  501    0  0.00000000000E+00  0.00000000000E+00 -0.11015308224E+04  0.11015308224E+04  0.50400001928E-02 0. -1.
    10030    2    1    2    0    0  0.00000000000E+00  0.00000000000E+00  0.10563798604E+04  0.32594415052E+04  0.30835078265E+04 0.  0.
        2    1    3    3  502    0  0.29272710775E+03 -0.26753299525E+03  0.21030769101E+04  0.21401391434E+04  0.25500000920E-02 0.  1.
       -2    1    3    3    0  502 -0.29272710775E+03  0.26753299525E+03 -0.10466970497E+04  0.11193023618E+04  0.25500000920E-02 0. -1.
</event>
<event>
 5   0  0.7519202E-07  0.3058111E+04  0.7818609E-02  0.8227329E-01
        1   -1    0    0  501    0  0.00000000000E+00  0.00000000000E+00  0.15728967863E+04  0.15728967863E+04  0.50400001928E-02 0.  1.
       -1   -1    0    0    0  501  0.00000000000E+00  0.00000000000E+00 -0.14864357931E+04  0.14864357931E+04  0.50400001928E-02 0. -1.
    10030    2    1    2    0    0  0.00000000000E+00  0.00000000000E+00  0.86460993146E+02  0.30593325794E+04  0.30581105814E+04 0.  0.
        4    1    3    3  502    0  0.49947017266E+03  0.14433357584E+04  0.11619731629E+03  0.15317284335E+04  0.12699999809E+01 0. -1.
       -4    1    3    3    0  502 -0.49947017266E+03 -0.14433357584E+04 -0.29736323140E+02  0.15276041459E+04  0.12699999809E+01 0.  1.
</event>
<event>
 5   0  0.7413481E-07  0.3089093E+04  0.7818609E-02  0.8218738E-01
       -1   -1    0    0    0  501  0.00000000000E+00  0.00000000000E+00  0.12175271483E+04  0.12175271483E+04  0.50400001928E-02 0.  1.
        1   -1    0    0  501    0  0.00000000000E+00  0.00000000000E+00 -0.19594013462E+04  0.19594013462E+04  0.50400001928E-02 0. -1.
    10030    2    1    2    0    0  0.00000000000E+00  0.00000000000E+00 -0.74187419791E+03  0.31769284944E+04  0.30890932866E+04 0.  0.
        5    1    3    3  502    0 -0.11776883038E+04 -0.23800259582E+03 -0.13691048692E+04  0.18215557112E+04  0.46999998093E+01 0. -1.
       -5    1    3    3    0  502  0.11776883038E+04  0.23800259582E+03  0.62723067125E+03  0.13553727832E+04  0.46999998093E+01 0.  1.
</event>
<event>
 5   0  0.7413481E-07  0.3099061E+04  0.7818609E-02  0.8215996E-01
        1   -1    0    0  501    0  0.00000000000E+00  0.00000000000E+00  0.10757782784E+04  0.10757782785E+04  0.50400001928E-02 0.  1.
       -1   -1    0    0    0  501  0.00000000000E+00  0.00000000000E+00 -0.22319138916E+04  0.22319138916E+04  0.50400001928E-02 0. -1.
    10030    2    1    2    0    0  0.00000000000E+00  0.00000000000E+00 -0.11561356132E+04  0.33076921701E+04  0.30990608152E+04 0.  0.
        5    1    3    3  502    0 -0.44349104988E+02  0.70923151875E+03 -0.20477365050E+04  0.21675384828E+04  0.46999998093E+01 0. -1.
       -5    1    3    3    0  502  0.44349104988E+02 -0.70923151875E+03  0.89160089186E+03  0.11401536873E+04  0.46999998093E+01 0.  1.
</event>
<event>
 5   0  0.2078009E-06  0.3017211E+04  0.7818609E-02  0.8238833E-01
        2   -1    0    0  501    0  0.00000000000E+00  0.00000000000E+00  0.14311031169E+04  0.14311031169E+04  0.25500000920E-02 0.  1.
       -2   -1    0    0    0  501  0.00000000000E+00  0.00000000000E+00 -0.15903047640E+04  0.15903047640E+04  0.25500000920E-02 0. -1.
    10030    2    1    2    0    0  0.00000000000E+00  0.00000000000E+00 -0.15920164713E+03  0.30214078809E+04  0.30172107017E+04 0.  0.
        3    1    3    3  502    0 -0.22277262947E+03  0.67566013849E+02  0.14130085349E+04  0.14320565424E+04  0.10100000352E+00 0.  1.
       -3    1    3    3    0  502  0.22277262947E+03 -0.67566013849E+02 -0.15722101820E+04  0.15893513385E+04  0.10100000352E+00 0. -1.
</event>
<event>
 5   0  0.2078009E-06  0.3119128E+04  0.7818609E-02  0.8210508E-01
       -2   -1    0    0    0  501  0.00000000000E+00  0.00000000000E+00  0.11031969031E+04  0.11031969031E+04  0.25500000920E-02 0.  1.
        2   -1    0    0  501    0  0.00000000000E+00  0.00000000000E+00 -0.22047202172E+04  0.22047202172E+04  0.25500000920E-02 0. -1.
    10030    2    1    2    0    0  0.00000000000E+00  0.00000000000E+00 -0.11015233141E+04  0.33079171204E+04  0.31191284141E+04 0.  0.
        3    1    3    3  502    0  0.14258699672E+04  0.96481196457E+02  0.11138953818E+03  0.14334648318E+04  0.10100000352E+00 0. -1.
       -3    1    3    3    0  502 -0.14258699672E+04 -0.96481196457E+02 -0.12129128523E+04  0.18744522886E+04  0.10100000352E+00 0.  1.
</event>
<event>
 5   0  0.7413481E-07  0.3084654E+04  0.7818609E-02  0.8219962E-01
        1   -1    0    0  501    0  0.00000000000E+00  0.00000000000E+00  0.12042509004E+04  0.12042509005E+04  0.50400001928E-02 0.  1.
       -1   -1    0    0    0  501  0.00000000000E+00  0.00000000000E+00 -0.19753136726E+04  0.19753136726E+04  0.50400001928E-02 0. -1.
    10030    2    1    2    0    0  0.00000000000E+00  0.00000000000E+00 -0.77106277220E+03  0.31795645731E+04  0.30846544500E+04 0.  0.
        5    1    3    3  502    0  0.33284081631E+03  0.13559355383E+04  0.28992246437E+03  0.14259808268E+04  0.46999998093E+01 0.  1.
       -5    1    3    3    0  502 -0.33284081631E+03 -0.13559355383E+04 -0.10609852366E+04  0.17535837463E+04  0.46999998093E+01 0. -1.
</event>
<event>
 5   0  0.2067926E-06  0.3098507E+04  0.7818609E-02  0.8216148E-01
       -2   -1    0    0    0  501  0.00000000000E+00  0.00000000000E+00  0.23017111959E+04  0.23017111959E+04  0.25500000920E-02 0.  1.
        2   -1    0    0  501    0  0.00000000000E+00  0.00000000000E+00 -0.10427835626E+04  0.10427835626E+04  0.25500000920E-02 0. -1.
    10030    2    1    2    0    0  0.00000000000E+00  0.00000000000E+00  0.12589276333E+04  0.33444947584E+04  0.30985071249E+04 0.  0.
        1    1    3    3  502    0 -0.36332270883E+03  0.27598412445E+03  0.22275488264E+04  0.22737951538E+04  0.50400001928E-02 0.  1.
       -1    1    3    3    0  502  0.36332270883E+03 -0.27598412445E+03 -0.96862119303E+03  0.10706996046E+04  0.50400001928E-02 0. -1.
</event>
<event>
 5   0  0.7656332E-07  0.2889677E+04  0.7818609E-02  0.8275955E-01
       -1   -1    0    0    0  501  0.00000000000E+00  0.00000000000E+00  0.10829207701E+04  0.10829207701E+04  0.50400001928E-02 0.  1.
        1   -1    0    0  501    0  0.00000000000E+00  0.00000000000E+00 -0.19277111476E+04  0.19277111477E+04  0.50400001928E-02 0. -1.
    10030    2    1    2    0    0  0.00000000000E+00  0.00000000000E+00 -0.84479037755E+03  0.30106319178E+04  0.28896771035E+04 0.  0.
        2    1    3    3  502    0  0.20409567721E+03  0.13694470537E+04 -0.85261823050E+03  0.16260375535E+04  0.25500000920E-02 0. -1.
       -2    1    3    3    0  502 -0.20409567721E+03 -0.13694470537E+04  0.78278529521E+01  0.13845943643E+04  0.25500000920E-02 0.  1.
</event>
<event>
 5   0  0.2078009E-06  0.3203919E+04  0.7818609E-02  0.8187783E-01
        2   -1    0    0  501    0  0.00000000000E+00  0.00000000000E+00  0.19338785160E+04  0.19338785160E+04  0.25500000920E-02 0. -1.
       -2   -1    0    0    0  501  0.00000000000E+00  0.00000000000E+00 -0.13270094310E+04  0.13270094310E+04  0.25500000920E-02 0.  1.
    10030    2    1    2    0    0  0.00000000000E+00  0.00000000000E+00  0.60686908503E+03  0.32608879470E+04  0.32039194928E+04 0.  0.
        3    1    3    3  502    0  0.13629558272E+04 -0.66188519729E+03 -0.22594303600E+03  0.15319239103E+04  0.10100000352E+00 0.  1.
       -3    1    3    3    0  502 -0.13629558272E+04  0.66188519729E+03  0.83281212103E+03  0.17289640367E+04  0.10100000352E+00 0. -1.
</event>
<event>
 5   0  0.2094135E-06  0.3095467E+04  0.7818609E-02  0.8216983E-01
       -2   -1    0    0    0  501  0.00000000000E+00  0.00000000000E+00  0.10805978324E+04  0.10805978324E+04  0.25500000920E-02 0.  1.
        2   -1    0    0  501    0  0.00000000000E+00  0.00000000000E+00 -0.22168087519E+04  0.22168087519E+04  0.25500000920E-02 0. -1.
    10030    2    1    2    0    0  0.00000000000E+00  0.00000000000E+00 -0.11362109196E+04  0.32974065843E+04  0.30954668353E+04 0.  0.
        4    1    3    3  502    0  0.11855979266E+04  0.97969449019E+03 -0.38349833336E+03  0.15850918971E+04  0.12699999809E+01 0.  1.
       -4    1    3    3    0  502 -0.11855979266E+04 -0.97969449019E+03 -0.75271258620E+03  0.17123146872E+04  0.12699999809E+01 0. -1.
</event>
<event>
 5   0  0.2226334E-06  0.3001054E+04  0.7818609E-02  0.8243430E-01
        2   -1    0    0  501    0  0.00000000000E+00  0.00000000000E+00  0.23953717673E+04  0.23953717673E+04  0.25500000920E-02 0.  1.
       -2   -1    0    0    0  501  0.00000000000E+00  0.00000000000E+00 -0.93997137147E+03  0.93997137147E+03  0.25500000920E-02 0. -1.
    10030    2    1    2    0    0  0.00000000000E+00  0.00000000000E+00  0.14554003958E+04  0.33353431388E+04  0.30010537385E+04 0.  0.
        5    1    3    3  502    0 -0.35464580721E+03  0.83517558060E+03  0.20559245351E+04  0.22472515843E+04  0.46999998093E+01 0.  1.
       -5    1    3    3    0  502  0.35464580721E+03 -0.83517558060E+03 -0.60052413931E+03  0.10880915545E+04  0.46999998093E+01 0. -1.
</event>
<event>
 5   0  0.7726743E-07  0.3109105E+04  0.7818609E-02  0.8213244E-01
        1   -1    0    0  501    0  0.00000000000E+00  0.00000000000E+00  0.18321707422E+04  0.18321707422E+04  0.50400001928E-02 0. -1.
       -1   -1    0    0    0  501  0.00000000000E+00  0.00000000000E+00 -0.13190003284E+04  0.13190003284E+04  0.50400001928E-02 0.  1.
    10030    2    1    2    0    0  0.00000000000E+00  0.00000000000E+00  0.51317041377E+03  0.31511710706E+04  0.31091052157E+04 0.  0.
        1    1    3    3  502    0  0.53627125753E+03  0.11085028678E+04  0.12182474176E+04  0.17321928992E+04  0.50400001928E-02 0. -1.
       -1    1    3    3    0  502 -0.53627125753E+03 -0.11085028678E+04 -0.70507700379E+03  0.14189781714E+04  0.50400001928E-02 0.  1.
</event>
<event>
 5   0  0.7561815E-07  0.3081177E+04  0.7818609E-02  0.8220923E-01
       -1   -1    0    0    0  501  0.00000000000E+00  0.00000000000E+00  0.11729893664E+04  0.11729893664E+04  0.50400001928E-02 0.  1.
        1   -1    0    0  501    0  0.00000000000E+00  0.00000000000E+00 -0.20233887234E+04  0.20233887234E+04  0.50400001928E-02 0. -1.
    10030    2    1    2    0    0  0.00000000000E+00  0.00000000000E+00 -0.85039935702E+03  0.31963780898E+04  0.30811773442E+04 0.  0.
        3    1    3    3  502    0 -0.74880605250E+03 -0.39991520983E+03 -0.17588677698E+04  0.19530126782E+04  0.10100000352E+00 0. -1.
       -3    1    3    3    0  502  0.74880605250E+03  0.39991520983E+03  0.90846841282E+03  0.12433654115E+04  0.10100000352E+00 0.  1.
</event>
<event>
 5   0  0.7519202E-07  0.3118539E+04  0.7818609E-02  0.8210668E-01
       -1   -1    0    0    0  501  0.00000000000E+00  0.00000000000E+00  0.14256178143E+04  0.14256178144E+04  0.50400001928E-02 0.  1.
        1   -1    0    0  501    0  0.00000000000E+00  0.00000000000E+00 -0.17054507681E+04  0.17054507681E+04  0.50400001928E-02 0. -1.
    10030    2    1    2    0    0  0.00000000000E+00  0.00000000000E+00 -0.27983295375E+03  0.31310685825E+04  0.31185387581E+04 0.  0.
        4    1    3    3  502    0  0.45282193784E+03  0.12661306021E+03  0.13527446790E+04  0.14321307042E+04  0.12699999809E+01 0.  1.
       -4    1    3    3    0  502 -0.45282193784E+03 -0.12661306021E+03 -0.16325776327E+04  0.16989378783E+04  0.12699999809E+01 0. -1.
</event>
<event>
 5   0  0.7413481E-07  0.3105047E+04  0.7818609E-02  0.8214354E-01
        1   -1    0    0  501    0  0.00000000000E+00  0.00000000000E+00  0.12139522679E+04  0.12139522679E+04  0.50400001928E-02 0. -1.
       -1   -1    0    0    0  501  0.00000000000E+00  0.00000000000E+00 -0.19855227477E+04  0.19855227477E+04  0.50400001928E-02 0.  1.
    10030    2    1    2    0    0  0.00000000000E+00  0.00000000000E+00 -0.77157047980E+03  0.31994750157E+04  0.31050474023E+04 0.  0.
        5    1    3    3  502    0 -0.92408182543E+03  0.12465931626E+04 -0.43611762214E+03  0.16118754305E+04  0.46999998093E+01 0.  1.
       -5    1    3    3    0  502  0.92408182543E+03 -0.12465931626E+04 -0.33545285766E+03  0.15875995852E+04  0.46999998093E+01 0. -1.
</event>
<event>
 5   0  0.2078009E-06  0.3159684E+04  0.7818609E-02  0.8199546E-01
        2   -1    0    0  501    0  0.00000000000E+00  0.00000000000E+00  0.17757543870E+04  0.17757543870E+04  0.25500000920E-02 0. -1.
       -2   -1    0    0    0  501  0.00000000000E+00  0.00000000000E+00 -0.14055435870E+04  0.14055435870E+04  0.25500000920E-02 0.  1.
    10030    2    1    2    0    0  0.00000000000E+00  0.00000000000E+00  0.37021080005E+03  0.31812979740E+04  0.31596836492E+04 0.  0.
        3    1    3    3  502    0 -0.91831152989E+02  0.83094896863E+03 -0.11645835767E+04  0.14335843423E+04  0.10100000352E+00 0.  1.
       -3    1    3    3    0  502  0.91831152989E+02 -0.83094896863E+03  0.15347943768E+04  0.17477136317E+04  0.10100000352E+00 0. -1.
</event>
<event>
 5   0  0.7656332E-07  0.3095042E+04  0.7818609E-02  0.8217100E-01
       -1   -1    0    0    0  501  0.00000000000E+00  0.00000000000E+00  0.20974014222E+04  0.20974014222E+04  0.50400001928E-02 0. -1.
        1   -1    0    0  501    0  0.00000000000E+00  0.00000000000E+00 -0.11418039621E+04  0.11418039621E+04  0.50400001928E-02 0.  1.
    10030    2    1    2    0    0  0.00000000000E+00  0.00000000000E+00  0.95559746012E+03  0.32392053843E+04  0.30950420055E+04 0.  0.
        2    1    3    3  502    0 -0.22117653691E+03 -0.23805159097E+03  0.20612948263E+04  0.20867496212E+04  0.25500000920E-02 0. -1.
       -2    1    3    3    0  502  0.22117653691E+03  0.23805159097E+03 -0.11056973662E+04  0.11524557632E+04  0.25500000920E-02 0.  1.
</event>
<event>
 5   0  0.7519202E-07  0.3166519E+04  0.7818609E-02  0.8197716E-01
       -1   -1    0    0    0  501  0.00000000000E+00  0.00000000000E+00  0.11670385915E+04  0.11670385915E+04  0.50400001928E-02 0. -1.
        1   -1    0    0  501    0  0.00000000000E+00  0.00000000000E+00 -0.21479237605E+04  0.21479237605E+04  0.50400001928E-02 0.  1.
    10030    2    1    2    0    0  0.00000000000E+00  0.00000000000E+00 -0.98088516896E+03  0.33149623520E+04  0.31665185426E+04 0.  0.
        4    1    3    3  502    0 -0.40152807563E+02 -0.15407561076E+04 -0.11129497529E+03  0.15452927928E+04  0.12699999809E+01 0. -1.
       -4    1    3    3    0  502  0.40152807563E+02  0.15407561076E+04 -0.86959019366E+03  0.17696695592E+04  0.12699999809E+01 0.  1.
</event>
<event>
 5   0  0.7561815E-07  0.3049309E+04  0.7818609E-02  0.8229789E-01
       -1   -1    0    0    0  501  0.00000000000E+00  0.00000000000E+00  0.22254362916E+04  0.22254362916E+04  0.50400001928E-02 0.  1.
        1   -1    0    0  501    0  0.00000000000E+00  0.00000000000E+00 -0.10445460751E+04  0.10445460751E+04  0.50400001928E-02 0. -1.
    10030    2    1    2    0    0  0.00000000000E+00  0.00000000000E+00  0.11808902165E+04  0.32699823667E+04  0.30493086060E+04 0.  0.
        3    1    3    3  502    0  0.39875472476E+03  0.13512870741E+04  0.12153596231E+04  0.18606668458E+04  0.10100000352E+00 0.  1.
       -3    1    3    3    0  502 -0.39875472476E+03 -0.13512870741E+04 -0.34469406577E+02  0.14093155209E+04  0.10100000352E+00 0. -1.
</event>
<event>
 5   0  0.7519202E-07  0.3034272E+04  0.7818609E-02  0.8234011E-01
        1   -1    0    0  501    0  0.00000000000E+00  0.00000000000E+00  0.23129432046E+04  0.23129432046E+04  0.50400001928E-02 0.  1.
       -1   -1    0    0    0  501  0.00000000000E+00  0.00000000000E+00 -0.99513969357E+03  0.99513969359E+03  0.50400001928E-02 0. -1.
    10030    2    1    2    0    0  0.00000000000E+00  0.00000000000E+00  0.13178035111E+04  0.33080828982E+04  0.30342719667E+04 0.  0.
        4    1    3    3  502    0 -0.35375221375E+02  0.14730379489E+04  0.26489252781E+03  0.14970844563E+04  0.12699999809E+01 0.  1.
       -4    1    3    3    0  502  0.35375221375E+02 -0.14730379489E+04  0.10529109833E+04  0.18109984419E+04  0.12699999809E+01 0. -1.
</event>
<event>
 5   0  0.2133385E-06  0.3077003E+04  0.7818609E-02  0.8222078E-01
        2   -1    0    0  501    0  0.00000000000E+00  0.00000000000E+00  0.18327468410E+04  0.18327468410E+04  0.25500000920E-02 0. -1.
       -2   -1    0    0    0  501  0.00000000000E+00  0.00000000000E+00 -0.12914967400E+04  0.12914967400E+04  0.25500000920E-02 0.  1.
    10030    2    1    2    0    0  0.00000000000E+00  0.00000000000E+00  0.54125010105E+03  0.31242435810E+04  0.30770028082E+04 0.  0.
        2    1    3    3  502    0 -0.75875936232E+03 -0.19033378503E+03  0.16157448943E+04  0.17951529971E+04  0.25500000920E-02 0. -1.
       -2    1    3    3    0  502  0.75875936232E+03  0.19033378503E+03 -0.10744947932E+04  0.13290905839E+04  0.25500000920E-02 0.  1.
</event>
<event>
 5   0  0.2226334E-06  0.3096867E+04  0.7818609E-02  0.8216598E-01
       -2   -1    0    0    0  501  0.00000000000E+00  0.00000000000E+00  0.10725182171E+04  0.10725182171E+04  0.25500000920E-02 0.  1.
        2   -1    0    0  501    0  0.00000000000E+00  0.00000000000E+00 -0.22355294726E+04  0.22355294726E+04  0.25500000920E-02 0. -1.
    10030    2    1    2    0    0  0.00000000000E+00  0.00000000000E+00 -0.11630112555E+04  0.33080476898E+04  0.30968668582E+04 0.  0.
        5    1    3    3  502    0  0.13166340079E+04  0.77069914663E+03 -0.29864306377E+03  0.15545777738E+04  0.46999998093E+01 0. -1.
       -5    1    3    3    0  502 -0.13166340079E+04 -0.77069914663E+03 -0.86436819175E+03  0.17534699160E+04  0.46999998093E+01 0.  1.
</event>
<event>
 5   0  0.2078009E-06  0.3122736E+04  0.7818609E-02  0.8209526E-01
       -2   -1    0    0    0  501  0.00000000000E+00  0.00000000000E+00  0.15209866927E+04  0.15209866927E+04  0.25500000920E-02 0. -1.
        2   -1    0    0  501    0  0.00000000000E+00  0.00000000000E+00 -0.16028210133E+04  0.16028210133E+04  0.25500000920E-02 0.  1.
    10030    2    1    2    0    0  0.00000000000E+00  0.00000000000E+00 -0.81834320619E+02  0.31238077060E+04  0.31227356161E+04 0.  0.
        3    1    3    3  502    0 -0.13117858315E+03  0.84488563038E+03  0.12659883616E+04  0.15276668782E+04  0.10100000352E+00 0.  1.
       -3    1    3    3    0  502  0.13117858315E+03 -0.84488563038E+03 -0.13478226822E+04  0.15961408277E+04  0.10100000352E+00 0. -1.
</event>
<event>
 5   0  0.2226334E-06  0.3095677E+04  0.7818609E-02  0.8216925E-01
        2   -1    0    0  501    0  0.00000000000E+00  0.00000000000E+00  0.12617735520E+04  0.12617735520E+04  0.25500000920E-02 0. -1.
       -2   -1    0    0    0  501  0.00000000000E+00  0.00000000000E+00 -0.18987594401E+04  0.18987594401E+04  0.25500000920E-02 0.  1.
    10030    2    1    2    0    0  0.00000000000E+00  0.00000000000E+00 -0.63698588810E+03  0.31605329922E+04  0.30956772721E+04 0.  0.
        5    1    3    3  502    0  0.84845024103E+03 -0.83447249021E+03 -0.13289606377E+04  0.17839200136E+04  0.46999998093E+01 0.  1.
       -5    1    3    3    0  502 -0.84845024103E+03  0.83447249021E+03  0.69197474965E+03  0.13766129785E+04  0.46999998093E+01 0. -1.
</event>
<event>
 5   0  0.7519202E-07  0.3098965E+04  0.7818609E-02  0.8216022E-01
       -1   -1    0    0    0  501  0.00000000000E+00  0.00000000000E+00  0.12367602034E+04  0.12367602034E+04  0.50400001928E-02 0. -1.
        1   -1    0    0  501    0  0.00000000000E+00  0.00000000000E+00 -0.19412781132E+04  0.19412781132E+04  0.50400001928E-02 0.  1.
    10030    2    1    2    0    0  0.00000000000E+00  0.00000000000E+00 -0.70451790979E+03  0.31780383167E+04  0.30989646750E+04 0.  0.
        4    1    3    3  502    0  0.79062716106E+02 -0.48288774575E+03  0.11554459483E+04  0.12547862130E+04  0.12699999809E+01 0. -1.
       -4    1    3    3    0  502 -0.79062716106E+02  0.48288774575E+03 -0.18599638581E+04  0.19232521037E+04  0.12699999809E+01 0.  1.
</event>
<event>
 5   0  0.7413481E-07  0.3106029E+04  0.7818609E-02  0.8214085E-01
       -1   -1    0    0    0  501  0.00000000000E+00  0.00000000000E+00  0.95418463104E+03  0.95418463106E+03  0.50400001928E-02 0.  1.
        1   -1    0    0  501    0  0.00000000000E+00  0.00000000000E+00 -0.25276591407E+04  0.25276591407E+04  0.50400001928E-02 0. -1.
    10030    2    1    2    0    0  0.00000000000E+00  0.00000000000E+00 -0.15734745097E+04  0.34818437718E+04  0.31060286571E+04 0.  0.
        5    1    3    3  502    0 -0.78972072811E+03 -0.61234710694E+03  0.54588232807E+03  0.11386998787E+04  0.46999998093E+01 0.  1.
       -5    1    3    3    0  502  0.78972072811E+03  0.61234710694E+03 -0.21193568377E+04  0.23431438930E+04  0.46999998093E+01 0. -1.
</event>
<event>
 5   0  0.7561815E-07  0.3130492E+04  0.7818609E-02  0.8207419E-01
        1   -1    0    0  501    0  0.00000000000E+00  0.00000000000E+00  0.10240724832E+04  0.10240724832E+04  0.50400001928E-02 0.  1.
       -1   -1    0    0    0  501  0.00000000000E+00  0.00000000000E+00 -0.23924045057E+04  0.23924045057E+04  0.50400001928E-02 0. -1.
    10030    2    1    2    0    0  0.00000000000E+00  0.00000000000E+00 -0.13683320225E+04  0.34164769890E+04  0.31304923722E+04 0.  0.
        3    1    3    3  502    0 -0.11104645245E+04  0.51743317799E+03 -0.17473979831E+04  0.21340731655E+04  0.10100000352E+00 0. -1.
       -3    1    3    3    0  502  0.11104645245E+04 -0.51743317799E+03  0.37906596062E+03  0.12824038235E+04  0.10100000352E+00 0.  1.
</event>
<event>
 5   0  0.7413481E-07  0.3096515E+04  0.7818609E-02  0.8216695E-01
        1   -1    0    0  501    0  0.00000000000E+00  0.00000000000E+00  0.12237652735E+04  0.12237652735E+04  0.50400001928E-02 0.  1.
       -1   -1    0    0    0  501  0.00000000000E+00  0.00000000000E+00 -0.19587918920E+04  0.19587918921E+04  0.50400001928E-02 0. -1.
    10030    2    1    2    0    0  0.00000000000E+00  0.00000000000E+00 -0.73502661853E+03  0.31825571656E+04  0.30965151352E+04 0.  0.
        5    1    3    3  502    0 -0.95622868066E+03  0.33128746795E+03 -0.15718034056E+04  0.18694150722E+04  0.46999998093E+01 0. -1.
       -5    1    3    3    0  502  0.95622868066E+03 -0.33128746795E+03  0.83677678708E+03  0.13131420934E+04  0.46999998093E+01 0.  1.
</event>
<event>
 5   0  0.2133385E-06  0.3078178E+04  0.7818609E-02  0.8221753E-01
        2   -1    0    0  501    0  0.00000000000E+00  0.00000000000E+00  0.89191397012E+03  0.89191397013E+03  0.25500000920E-02 0.  1.
       -2   -1    0    0    0  501  0.00000000000E+00  0.00000000000E+00 -0.26558550924E+04  0.26558550924E+04  0.25500000920E-02 0. -1.
    10030    2    1    2    0    0  0.00000000000E+00  0.00000000000E+00 -0.17639411223E+04  0.35477690625E+04  0.30781775514E+04 0.  0.
        2    1    3    3  502    0  0.11198442353E+04  0.54367378550E+03 -0.19251200862E+04  0.22925356361E+04  0.25500000920E-02 0. -1.
       -2    1    3    3    0  502 -0.11198442353E+04 -0.54367378550E+03  0.16117896395E+03  0.12552334264E+04  0.25500000920E-02 0.  1.
</event>
<event>
 5   0  0.2078009E-06  0.3091369E+04  0.7818609E-02  0.8218111E-01
        2   -1    0    0  501    0  0.00000000000E+00  0.00000000000E+00  0.11091141010E+04  0.11091141010E+04  0.25500000920E-02 0. -1.
       -2   -1    0    0    0  501  0.00000000000E+00  0.00000000000E+00 -0.21540983138E+04  0.21540983138E+04  0.25500000920E-02 0.  1.
    10030    2    1    2    0    0  0.00000000000E+00  0.00000000000E+00 -0.10449842128E+04  0.32632124148E+04  0.30913691560E+04 0.  0.
        3    1    3    3  502    0 -0.13480403993E+04 -0.25934533691E+03 -0.12723816683E+04  0.18717446520E+04  0.10100000352E+00 0.  1.
       -3    1    3    3    0  502  0.13480403993E+04  0.25934533691E+03  0.22739745552E+03  0.13914677628E+04  0.10100000352E+00 0. -1.
</event>
<event>
 5   0  0.2078009E-06  0.3064940E+04  0.7818609E-02  0.8225426E-01
       -2   -1    0    0    0  501  0.00000000000E+00  0.00000000000E+00  0.10190549454E+04  0.10190549454E+04  0.25500000920E-02 0. -1.
        2   -1    0    0  501    0  0.00000000000E+00  0.00000000000E+00 -0.23045516950E+04  0.23045516950E+04  0.25500000920E-02 0.  1.
    10030    2    1    2    0    0  0.00000000000E+00  0.00000000000E+00 -0.12854967496E+04  0.33236066404E+04  0.30649403268E+04 0.  0.
        3    1    3    3  502    0 -0.99417055599E+02 -0.15253376052E+04 -0.76117222992E+03  0.17076070200E+04  0.10100000352E+00 0. -1.
       -3    1    3    3    0  502  0.99417055599E+02  0.15253376052E+04 -0.52432451965E+03  0.16159996204E+04  0.10100000352E+00 0.  1.
</event>
<event>
 5   0  0.7656332E-07  0.3110877E+04  0.7818609E-02  0.8212759E-01
       -1   -1    0    0    0  501  0.00000000000E+00  0.00000000000E+00  0.16175095023E+04  0.16175095023E+04  0.50400001928E-02 0.  1.
        1   -1    0    0  501    0  0.00000000000E+00  0.00000000000E+00 -0.14957498352E+04  0.14957498352E+04  0.50400001928E-02 0. -1.
    10030    2    1    2    0    0  0.00000000000E+00  0.00000000000E+00  0.12175966706E+03  0.31132593375E+04  0.31108774142E+04 0.  0.
        2    1    3    3  502    0  0.10161201633E+04  0.61392315171E+03 -0.94487112337E+03  0.15172947184E+04  0.25500000920E-02 0. -1.
       -2    1    3    3    0  502 -0.10161201633E+04 -0.61392315171E+03  0.10666307904E+04  0.15959646192E+04  0.25500000920E-02 0.  1.
</event>
<event>
 5   0  0.2094135E-06  0.3138712E+04  0.7818609E-02  0.8205193E-01
        2   -1    0    0  501    0  0.00000000000E+00  0.00000000000E+00  0.17569241928E+04  0.17569241928E+04  0.25500000920E-02 0. -1.
       -2   -1    0    0    0  501  0.00000000000E+00  0.00000000000E+00 -0.14018121390E+04  0.14018121390E+04  0.25500000920E-02 0.  1.
    10030    2    1    2    0    0  0.00000000000E+00  0.00000000000E+00  0.35511205381E+03  0.31587363318E+04  0.31387116215E+04 0.  0.
        4    1    3    3  502    0 -0.46836943715E+03  0.12955333106E+04  0.93408304814E+03  0.16644185899E+04  0.12699999809E+01 0. -1.
       -4    1    3    3    0  502  0.46836943715E+03 -0.12955333106E+04 -0.57897099433E+03  0.14943177419E+04  0.12699999809E+01 0.  1.
</event>
<event>
 5   0  0.2067926E-06  0.2894689E+04  0.7818609E-02  0.8274460E-01
       -2   -1    0    0    0  501  0.00000000000E+00  0.00000000000E+00  0.15267192854E+04  0.15267192854E+04  0.25500000920E-02 0. -1.
        2   -1    0    0  501    0  0.00000000000E+00  0.00000000000E+00 -0.13720959737E+04  0.13720959737E+04  0.25500000920E-02 0.  1.
    10030    2    1    2    0    0  0.00000000000E+00  0.00000000000E+00  0.15462331171E+03  0.28988152591E+04  0.28946885044E+04 0.  0.
        1    1    3    3  502    0  0.99844108362E+03 -0.95814644041E+03  0.50203441839E+03  0.14720624158E+04  0.50400001928E-02 0. -1.
       -1    1    3    3    0  502 -0.99844108362E+03  0.95814644041E+03 -0.34741110668E+03  0.14267528433E+04  0.50400001928E-02 0.  1.
</event>
<event>
 5   0  0.2078009E-06  0.3122196E+04  0.7818609E-02  0.8209673E-01
       -2   -1    0    0    0  501  0.00000000000E+00  0.00000000000E+00  0.13602991726E+04  0.13602991726E+04  0.25500000920E-02 0.  1.
        2   -1    0    0  501    0  0.00000000000E+00  0.00000000000E+00 -0.17915377853E+04  0.17915377853E+04  0.25500000920E-02 0. -1.
    10030    2    1    2    0    0  0.00000000000E+00  0.00000000000E+00 -0.43123861277E+03  0.31518369579E+04  0.31221962571E+04 0.  0.
        3    1    3    3  502    0  0.55349130438E+03  0.13145611516E+04 -0.85615366715E+03  0.16635572600E+04  0.10100000352E+00 0. -1.
       -3    1    3    3    0  502 -0.55349130438E+03 -0.13145611516E+04  0.42491505438E+03  0.14882796979E+04  0.10100000352E+00 0.  1.
</event>
<event>
 5   0  0.2078009E-06  0.3071416E+04  0.7818609E-02  0.8223627E-01
       -2   -1    0    0    0  501  0.00000000000E+00  0.00000000000E+00  0.19485884251E+04  0.19485884251E+04  0.25500000920E-02 0.  1.
        2   -1    0    0  501    0  0.00000000000E+00  0.00000000000E+00 -0.12103112005E+04  0.12103112005E+04  0.25500000920E-02 0. -1.
    10030    2    1    2    0    0  0.00000000000E+00  0.00000000000E+00  0.73827722457E+03  0.31588996256E+04  0.30714155669E+04 0.  0.
        3    1    3    3  502    0  0.13772861189E+04  0.11735118145E+03  0.10573084896E+04  0.17402843461E+04  0.10100000352E+00 0.  1.
       -3    1    3    3    0  502 -0.13772861189E+04 -0.11735118145E+03 -0.31903126500E+03  0.14186152795E+04  0.10100000352E+00 0. -1.
</event>
<event>
 5   0  0.2226334E-06  0.3099438E+04  0.7818609E-02  0.8215892E-01
       -2   -1    0    0    0  501  0.00000000000E+00  0.00000000000E+00  0.75274206987E+03  0.75274206988E+03  0.25500000920E-02 0.  1.
        2   -1    0    0  501    0  0.00000000000E+00  0.00000000000E+00 -0.31905063776E+04  0.31905063776E+04  0.25500000920E-02 0. -1.
    10030    2    1    2    0    0  0.00000000000E+00  0.00000000000E+00 -0.24377643077E+04  0.39432484474E+04  0.30994376100E+04 0.  0.
        5    1    3    3  502    0 -0.68303952445E+03  0.28668179363E+03 -0.29506693285E+04  0.30422361872E+04  0.46999998093E+01 0. -1.
       -5    1    3    3    0  502  0.68303952445E+03 -0.28668179363E+03  0.51290502078E+03  0.90101226024E+03  0.46999998093E+01 0.  1.
</event>
<event>
 5   0  0.7561815E-07  0.3135447E+04  0.7818609E-02  0.8206077E-01
        1   -1    0    0  501    0  0.00000000000E+00  0.00000000000E+00  0.13775338998E+04  0.13775338998E+04  0.50400001928E-02 0. -1.
       -1   -1    0    0    0  501  0.00000000000E+00  0.00000000000E+00 -0.17841717067E+04  0.17841717067E+04  0.50400001928E-02 0.  1.
    10030    2    1    2    0    0  0.00000000000E+00  0.00000000000E+00 -0.40663780697E+03  0.31617056065E+04  0.31354470233E+04 0.  0.
        3    1    3    3  502    0 -0.75275775527E+03 -0.13003718458E+04 -0.65444217169E+03  0.16388733147E+04  0.10100000352E+00 0.  1.
       -3    1    3    3    0  502  0.75275775527E+03  0.13003718458E+04  0.24780436472E+03  0.15228322918E+04  0.10100000352E+00 0. -1.
</event>
<event>
 5   0  0.7656332E-07  0.3125627E+04  0.7818609E-02  0.8208740E-01
        1   -1    0    0  501    0  0.00000000000E+00  0.00000000000E+00  0.15100151649E+04  0.15100151649E+04  0.50400001928E-02 0. -1.
       -1   -1    0    0    0  501  0.00000000000E+00  0.00000000000E+00 -0.16174575245E+04  0.16174575245E+04  0.50400001928E-02 0.  1.
    10030    2    1    2    0    0  0.00000000000E+00  0.00000000000E+00 -0.10744235953E+03  0.31274726894E+04  0.31256265871E+04 0.  0.
        2    1    3    3  502    0 -0.11852562531E+04 -0.20371826556E+03  0.94489227177E+03  0.15294296069E+04  0.25500000920E-02 0. -1.
       -2    1    3    3    0  502  0.11852562531E+04  0.20371826556E+03 -0.10523346313E+04  0.15980430825E+04  0.25500000920E-02 0.  1.
</event>
<event>
 5   0  0.7519202E-07  0.3095622E+04  0.7818609E-02  0.8216940E-01
        1   -1    0    0  501    0  0.00000000000E+00  0.00000000000E+00  0.12922326868E+04  0.12922326868E+04  0.50400001928E-02 0. -1.
       -1   -1    0    0    0  501  0.00000000000E+00  0.00000000000E+00 -0.18539378192E+04  0.18539378192E+04  0.50400001928E-02 0.  1.
    10030    2    1    2    0    0  0.00000000000E+00  0.00000000000E+00 -0.56170513236E+03  0.31461705060E+04  0.30956221018E+04 0.  0.
        4    1    3    3  502    0  0.69772312928E+03 -0.80555057350E+03 -0.14216736690E+04  0.17767630471E+04  0.12699999809E+01 0.  1.
       -4    1    3    3    0  502 -0.69772312928E+03  0.80555057350E+03  0.85996853663E+03  0.13694074589E+04  0.12699999809E+01 0. -1.
</event>
<event>
 5   0  0.2078009E-06  0.3086543E+04  0.7818609E-02  0.8219441E-01
        2   -1    0    0  501    0  0.00000000000E+00  0.00000000000E+00  0.15755426657E+04  0.15755426657E+04  0.25500000920E-02 0. -1.
       -2   -1    0    0    0  501  0.00000000000E+00  0.00000000000E+00 -0.15116610729E+04  0.15116610729E+04  0.25500000920E-02 0.  1.
    10030    2    1    2    0    0  0.00000000000E+00  0.00000000000E+00  0.63881592834E+02  0.30872037386E+04  0.30865427368E+04 0.  0.
        3    1    3    3  502    0  0.13484655381E+04  0.68363995334E+03  0.34178708063E+03  0.15500133264E+04  0.10100000352E+00 0. -1.
       -3    1    3    3    0  502 -0.13484655381E+04 -0.68363995334E+03 -0.27790548780E+03  0.15371904123E+04  0.10100000352E+00 0.  1.
</event>
<event>
 5   0  0.2078009E-06  0.3038558E+04  0.7818609E-02  0.8232805E-01
        2   -1    0    0  501    0  0.00000000000E+00  0.00000000000E+00  0.15924688870E+04  0.15924688870E+04  0.25500000920E-02 0.  1.
       -2   -1    0    0    0  501  0.00000000000E+00  0.00000000000E+00 -0.14494525319E+04  0.14494525319E+04  0.25500000920E-02 0. -1.
    10030    2    1    2    0    0  0.00000000000E+00  0.00000000000E+00  0.14301635512E+03  0.30419214189E+04  0.30385575921E+04 0.  0.
        3    1    3    3  502    0  0.37166346123E+03 -0.12258896776E+04  0.88927772573E+03  0.15594082575E+04  0.10100000352E+00 0.  1.
       -3    1    3    3    0  502 -0.37166346123E+03  0.12258896776E+04 -0.74626137062E+03  0.14825131613E+04  0.10100000352E+00 0. -1.
</event>
<event>
 5   0  0.2067926E-06  0.3139226E+04  0.7818609E-02  0.8205054E-01
        2   -1    0    0  501    0  0.00000000000E+00  0.00000000000E+00  0.25047560755E+04  0.25047560755E+04  0.25500000920E-02 0. -1.
       -2   -1    0    0    0  501  0.00000000000E+00  0.00000000000E+00 -0.98360291647E+03  0.98360291648E+03  0.25500000920E-02 0.  1.
    10030    2    1    2    0    0  0.00000000000E+00  0.00000000000E+00  0.15211531590E+04  0.34883589920E+04  0.31392262619E+04 0.  0.
        1    1    3    3  502    0 -0.54698934203E+03 -0.14218292761E+03  0.23877674407E+04  0.24537413629E+04  0.50400001928E-02 0. -1.
       -1    1    3    3    0  502  0.54698934203E+03  0.14218292761E+03 -0.86661428166E+03  0.10346176291E+04  0.50400001928E-02 0.  1.
</event>
<event>
 5   0  0.7726743E-07  0.3094421E+04  0.7818609E-02  0.8217271E-01
        1   -1    0    0  501    0  0.00000000000E+00  0.00000000000E+00  0.15966196120E+04  0.15966196121E+04  0.50400001928E-02 0. -1.
       -1   -1    0    0    0  501  0.00000000000E+00  0.00000000000E+00 -0.14993307284E+04  0.14993307285E+04  0.50400001928E-02 0.  1.
    10030    2    1    2    0    0  0.00000000000E+00  0.00000000000E+00  0.97288883600E+02  0.30959503405E+04  0.30944213327E+04 0.  0.
        1    1    3    3  502    0  0.13609055775E+04 -0.57061855149E+02 -0.68557155931E+03  0.15249027540E+04  0.50400001928E-02 0.  1.
       -1    1    3    3    0  502 -0.13609055775E+04  0.57061855149E+02  0.78286044291E+03  0.15710475865E+04  0.50400001928E-02 0. -1.
</event>
<event>
 5   0  0.2133385E-06  0.3094439E+04  0.7818609E-02  0.8217266E-01
       -2   -1    0    0    0  501  0.00000000000E+00  0.00000000000E+00  0.12821765782E+04  0.12821765783E+04  0.25500000920E-02 0.  1.
        2   -1    0    0  501    0  0.00000000000E+00  0.00000000000E+00 -0.18670498059E+04  0.18670498059E+04  0.25500000920E-02 0. -1.
    10030    2    1    2    0    0  0.00000000000E+00  0.00000000000E+00 -0.58487322768E+03  0.31492263842E+04  0.30944385802E+04 0.  0.
        2    1    3    3  502    0 -0.11857826310E+04  0.63699803986E+03  0.48398684195E+03  0.14304160982E+04  0.25500000920E-02 0.  1.
       -2    1    3    3    0  502  0.11857826310E+04 -0.63699803986E+03 -0.10688600696E+04  0.17188102860E+04  0.25500000920E-02 0. -1.
</event>
<event>
 5   0  0.2078009E-06  0.3118600E+04  0.7818609E-02  0.8210652E-01
       -2   -1    0    0    0  501  0.00000000000E+00  0.00000000000E+00  0.13750738596E+04  0.13750738596E+04  0.25500000920E-02 0.  1.
        2   -1    0    0  501    0  0.00000000000E+00  0.00000000000E+00 -0.17682083788E+04  0.17682083788E+04  0.25500000920E-02 0. -1.
    10030    2    1    2    0    0  0.00000000000E+00  0.00000000000E+00 -0.39313451929E+03  0.31432822384E+04  0.31186004040E+04 0.  0.
        3    1    3    3  502    0  0.12804268708E+04  0.14691214825E+03 -0.10812043470E+04  0.16822838645E+04  0.10100000352E+00 0. -1.
       -3    1    3    3    0  502 -0.12804268708E+04 -0.14691214825E+03  0.68806982766E+03  0.14609983739E+04  0.10100000352E+00 0.  1.
</event>
<event>
 5   0  0.7726743E-07  0.3098662E+04  0.7818609E-02  0.8216105E-01
        1   -1    0    0  501    0  0.00000000000E+00  0.00000000000E+00  0.22455989596E+04  0.22455989596E+04  0.50400001928E-02 0.  1.
       -1   -1    0    0    0  501  0.00000000000E+00  0.00000000000E+00 -0.10689469103E+04  0.10689469103E+04  0.50400001928E-02 0. -1.
    10030    2    1    2    0    0  0.00000000000E+00  0.00000000000E+00  0.11766520492E+04  0.33145458699E+04  0.30986616915E+04 0.  0.
        1    1    3    3  502    0  0.59927163975E+03 -0.10646963203E+04  0.16074479329E+04  0.20190576043E+04  0.50400001928E-02 0.  1.
       -1    1    3    3    0  502 -0.59927163975E+03  0.10646963203E+04 -0.43079588361E+03  0.12954882655E+04  0.50400001928E-02 0. -1.
</event>
<event>
 5   0  0.2094135E-06  0.2900221E+04  0.7818609E-02  0.8272812E-01
       -2   -1    0    0    0  501  0.00000000000E+00  0.00000000000E+00  0.12175059481E+04  0.12175059481E+04  0.25500000920E-02 0.  1.
        2   -1    0    0  501    0  0.00000000000E+00  0.00000000000E+00 -0.17271538444E+04  0.17271538444E+04  0.25500000920E-02 0. -1.
    10030    2    1    2    0    0  0.00000000000E+00  0.00000000000E+00 -0.50964789634E+03  0.29446597925E+04  0.29002207356E+04 0.  0.
        4    1    3    3  502    0  0.90875996423E+03  0.41670932353E+02 -0.14013913264E+04  0.16707723967E+04  0.12699999809E+01 0. -1.
       -4    1    3    3    0  502 -0.90875996423E+03 -0.41670932353E+02  0.89174343004E+03  0.12738873958E+04  0.12699999809E+01 0.  1.
</event>
<event>
 5   0  0.6979625E-07  0.3094608E+04  0.7818609E-02  0.8217219E-01
       -3   -1    0    0    0  501  0.00000000000E+00  0.00000000000E+00  0.11072827206E+04  0.11072827252E+04  0.10100000352E+00 0.  1.
        3   -1    0    0  501    0  0.00000000000E+00  0.00000000000E+00 -0.21621841171E+04  0.21621841195E+04  0.10100000352E+00 0. -1.
    10030    2    1    2    0    0  0.00000000000E+00  0.00000000000E+00 -0.10549013965E+04  0.32694668447E+04  0.30946076476E+04 0.  0.
        2    1    3    3  502    0 -0.87202950813E+03 -0.87472622149E+03  0.45717956499E+03  0.13170400830E+04  0.25500000920E-02 0. -1.
       -2    1    3    3    0  502  0.87202950813E+03  0.87472622149E+03 -0.15120809615E+04  0.19524267617E+04  0.25500000920E-02 0.  1.
</event>
<event>
 5   0  0.2226334E-06  0.3105244E+04  0.7818609E-02  0.8214300E-01
        2   -1    0    0  501    0  0.00000000000E+00  0.00000000000E+00  0.28523543193E+04  0.28523543194E+04  0.25500000920E-02 0.  1.
       -2   -1    0    0    0  501  0.00000000000E+00  0.00000000000E+00 -0.84513870915E+03  0.84513870915E+03  0.25500000920E-02 0. -1.
    10030    2    1    2    0    0  0.00000000000E+00  0.00000000000E+00  0.20072156102E+04  0.36974930285E+04  0.31052439824E+04 0.  0.
        5    1    3    3  502    0 -0.63109040966E+03  0.28231644962E+03  0.26589454284E+04  0.27473606542E+04  0.46999998093E+01 0.  1.
       -5    1    3    3    0  502  0.63109040966E+03 -0.28231644962E+03 -0.65172981818E+03  0.95013237435E+03  0.46999998093E+01 0. -1.
</event>
<event>
 5   0  0.2094135E-06  0.3094639E+04  0.7818609E-02  0.8217211E-01
        2   -1    0    0  501    0  0.00000000000E+00  0.00000000000E+00  0.92520862779E+03  0.92520862780E+03  0.25500000920E-02 0. -1.
       -2   -1    0    0    0  501  0.00000000000E+00  0.00000000000E+00 -0.25877382469E+04  0.25877382469E+04  0.25500000920E-02 0.  1.
    10030    2    1    2    0    0  0.00000000000E+00  0.00000000000E+00 -0.16625296191E+04  0.35129468747E+04  0.30946390759E+04 0.  0.
        4    1    3    3  502    0  0.92949161017E+03 -0.10636385672E+04 -0.15482356284E+04  0.20957854921E+04  0.12699999809E+01 0.  1.
       -4    1    3    3    0  502 -0.92949161017E+03  0.10636385672E+04 -0.11429399071E+03  0.14171613826E+04  0.12699999809E+01 0. -1.
</event>
<event>
 5   0  0.2078009E-06  0.3106410E+04  0.7818609E-02  0.8213981E-01
       -2   -1    0    0    0  501  0.00000000000E+00  0.00000000000E+00  0.16992423664E+04  0.16992423664E+04  0.25500000920E-02 0.  1.
        2   -1    0    0  501    0  0.00000000000E+00  0.00000000000E+00 -0.14197183048E+04  0.14197183048E+04  0.25500000920E-02 0. -1.
    10030    2    1    2    0    0  0.00000000000E+00  0.00000000000E+00  0.27952406165E+03  0.31189606712E+04  0.31064098196E+04 0.  0.
        3    1    3    3  502    0 -0.50546052277E+03 -0.16717696486E+03 -0.13252449470E+04  0.14281850921E+04  0.10100000352E+00 0. -1.
       -3    1    3    3    0  502  0.50546052277E+03  0.16717696486E+03  0.16047690086E+04  0.16907755791E+04  0.10100000352E+00 0.  1.
</event>
<event>
 5   0  0.2078009E-06  0.2820915E+04  0.7818609E-02  0.8296804E-01
        2   -1    0    0  501    0  0.00000000000E+00  0.00000000000E+00  0.11393348661E+04  0.11393348661E+04  0.25500000920E-02 0.  1.
       -2   -1    0    0    0  501  0.00000000000E+00  0.00000000000E+00 -0.17460983653E+04  0.17460983653E+04  0.25500000920E-02 0. -1.
    10030    2    1    2    0    0  0.00000000000E+00  0.00000000000E+00 -0.60676349919E+03  0.28854332315E+04  0.28209152751E+04 0.  0.
        3    1    3    3  502    0  0.27071009703E+03  0.63202251662E+03  0.95631001417E+03  0.11778222580E+04  0.10100000352E+00 0.  1.
       -3    1    3    3    0  502 -0.27071009703E+03 -0.63202251662E+03 -0.15630735134E+04  0.17076109734E+04  0.10100000352E+00 0. -1.
</event>
<event>
 5   0  0.2094135E-06  0.3049727E+04  0.7818609E-02  0.8229672E-01
        2   -1    0    0  501    0  0.00000000000E+00  0.00000000000E+00  0.14387334079E+04  0.14387334079E+04  0.25500000920E-02 0.  1.
       -2   -1    0    0    0  501  0.00000000000E+00  0.00000000000E+00 -0.16161501608E+04  0.16161501608E+04  0.25500000920E-02 0. -1.
    10030    2    1    2    0    0  0.00000000000E+00  0.00000000000E+00 -0.17741675291E+03  0.30548835687E+04  0.30497273507E+04 0.  0.
        4    1    3    3  502    0  0.32176122576E+03 -0.85459545286E+03 -0.13119790241E+04  0.15984849850E+04  0.12699999809E+01 0. -1.
       -4    1    3    3    0  502 -0.32176122576E+03  0.85459545286E+03  0.11345622712E+04  0.14563985837E+04  0.12699999809E+01 0.  1.
</event>
<event>
 5   0  0.2078009E-06  0.3084721E+04  0.7818609E-02  0.8219944E-01
        2   -1    0    0  501    0  0.00000000000E+00  0.00000000000E+00  0.18030640604E+04  0.18030640604E+04  0.25500000920E-02 0. -1.
       -2   -1    0    0    0  501  0.00000000000E+00  0.00000000000E+00 -0.13193521964E+04  0.13193521964E+04  0.25500000920E-02 0.  1.
    10030    2    1    2    0    0  0.00000000000E+00  0.00000000000E+00  0.48371186401E+03  0.31224162568E+04  0.30847213996E+04 0.  0.
        3    1    3    3  502    0 -0.10915366572E+04  0.90017471767E+03 -0.37974079267E+03  0.14649129244E+04  0.10100000352E+00 0.  1.
       -3    1    3    3    0  502  0.10915366572E+04 -0.90017471767E+03  0.86345265668E+03  0.16575033324E+04  0.10100000352E+00 0. -1.
</event>
<event>
 5   0  0.7413481E-07  0.3141528E+04  0.7818609E-02  0.8204433E-01
        1   -1    0    0  501    0  0.00000000000E+00  0.00000000000E+00  0.21208425717E+04  0.21208425717E+04  0.50400001928E-02 0.  1.
       -1   -1    0    0    0  501  0.00000000000E+00  0.00000000000E+00 -0.11633579727E+04  0.11633579727E+04  0.50400001928E-02 0. -1.
    10030    2    1    2    0    0  0.00000000000E+00  0.00000000000E+00  0.95748459899E+03  0.32842005444E+04  0.31415277268E+04 0.  0.
        5    1    3    3  502    0 -0.14753644489E+04 -0.78891451775E+02 -0.78722702739E+02  0.14795754364E+04  0.46999998093E+01 0.  1.
       -5    1    3    3    0  502  0.14753644489E+04  0.78891451775E+02  0.10362073017E+04  0.18046251080E+04  0.46999998093E+01 0. -1.
</event>
<event>
 5   0  0.2067926E-06  0.3109843E+04  0.7818609E-02  0.8213042E-01
       -2   -1    0    0    0  501  0.00000000000E+00  0.00000000000E+00  0.11681182945E+04  0.11681182945E+04  0.25500000920E-02 0.  1.
        2   -1    0    0  501    0  0.00000000000E+00  0.00000000000E+00 -0.20698085432E+04  0.20698085432E+04  0.25500000920E-02 0. -1.
    10030    2    1    2    0    0  0.00000000000E+00  0.00000000000E+00 -0.90169024870E+03  0.32379268377E+04  0.31098432279E+04 0.  0.
        1    1    3    3  502    0  0.72001310191E+03 -0.21517263296E+03 -0.18681838029E+04  0.20136605598E+04  0.50400001928E-02 0. -1.
       -1    1    3    3    0  502 -0.72001310191E+03  0.21517263296E+03  0.96649355418E+03  0.12242662779E+04  0.50400001928E-02 0.  1.
</event>
<event>
 5   0  0.7561815E-07  0.3081519E+04  0.7818609E-02  0.8220828E-01
       -1   -1    0    0    0  501  0.00000000000E+00  0.00000000000E+00  0.19097673802E+04  0.19097673802E+04  0.50400001928E-02 0. -1.
        1   -1    0    0  501    0  0.00000000000E+00  0.00000000000E+00 -0.12430520521E+04  0.12430520522E+04  0.50400001928E-02 0.  1.
    10030    2    1    2    0    0  0.00000000000E+00  0.00000000000E+00  0.66671532809E+03  0.31528194324E+04  0.30815192754E+04 0.  0.
        3    1    3    3  502    0  0.93499556052E+03  0.12244751370E+04  0.35341199565E+03  0.15806505332E+04  0.10100000352E+00 0.  1.
       -3    1    3    3    0  502 -0.93499556052E+03 -0.12244751370E+04  0.31330333244E+03  0.15721688992E+04  0.10100000352E+00 0. -1.
</event>
<event>
 5   0  0.2094135E-06  0.3043930E+04  0.7818609E-02  0.8231297E-01
       -2   -1    0    0    0  501  0.00000000000E+00  0.00000000000E+00  0.79455968079E+03  0.79455968080E+03  0.25500000920E-02 0.  1.
        2   -1    0    0  501    0  0.00000000000E+00  0.00000000000E+00 -0.29152961277E+04  0.29152961277E+04  0.25500000920E-02 0. -1.
    10030    2    1    2    0    0  0.00000000000E+00  0.00000000000E+00 -0.21207364469E+04  0.37098558085E+04  0.30439295397E+04 0.  0.
        4    1    3    3  502    0 -0.47263080396E+03  0.52558108744E+03  0.58238069396E+03  0.91585164843E+03  0.12699999809E+01 0.  1.
       -4    1    3    3    0  502  0.47263080396E+03 -0.52558108744E+03 -0.27031171409E+04  0.27940041601E+04  0.12699999809E+01 0. -1.
</event>
<event>
 5   0  0.2094135E-06  0.3161884E+04  0.7818609E-02  0.8198957E-01
        2   -1    0    0  501    0  0.00000000000E+00  0.00000000000E+00  0.21790568885E+04  0.21790568885E+04  0.25500000920E-02 0. -1.
       -2   -1    0    0    0  501  0.00000000000E+00  0.00000000000E+00 -0.11469997778E+04  0.11469997778E+04  0.25500000920E-02 0.  1.
    10030    2    1    2    0    0  0.00000000000E+00  0.00000000000E+00  0.10320571107E+04  0.33260566662E+04  0.31618841009E+04 0.  0.
        4    1    3    3  502    0  0.67666639606E+02 -0.13845406191E+03 -0.11390795951E+04  0.11494573669E+04  0.12699999809E+01 0.  1.
       -4    1    3    3    0  502 -0.67666639606E+02  0.13845406191E+03  0.21711367059E+04  0.21765992993E+04  0.12699999809E+01 0. -1.
</event>
<event>
 5   0  0.6979625E-07  0.3081229E+04  0.7818609E-02  0.8220908E-01
        3   -1    0    0  501    0  0.00000000000E+00  0.00000000000E+00  0.18234962042E+04  0.18234962070E+04  0.10100000352E+00 0.  1.
       -3   -1    0    0    0  501  0.00000000000E+00  0.00000000000E+00 -0.13016168224E+04  0.13016168263E+04  0.10100000352E+00 0. -1.
    10030    2    1    2    0    0  0.00000000000E+00  0.00000000000E+00  0.52187938182E+03  0.31251130333E+04  0.30812291998E+04 0.  0.
        5    1    3    3  502    0  0.53420744029E+03  0.25546261834E+03 -0.11815797948E+04  0.13216624531E+04  0.46999998093E+01 0. -1.
       -5    1    3    3    0  502 -0.53420744029E+03 -0.25546261834E+03  0.17034591766E+04  0.18034505801E+04  0.46999998093E+01 0.  1.
</event>
<event>
 5   0  0.2094135E-06  0.3104697E+04  0.7818609E-02  0.8214450E-01
        2   -1    0    0  501    0  0.00000000000E+00  0.00000000000E+00  0.12647580382E+04  0.12647580382E+04  0.25500000920E-02 0. -1.
       -2   -1    0    0    0  501  0.00000000000E+00  0.00000000000E+00 -0.19053334869E+04  0.19053334869E+04  0.25500000920E-02 0.  1.
    10030    2    1    2    0    0  0.00000000000E+00  0.00000000000E+00 -0.64057544868E+03  0.31700915251E+04  0.31046969855E+04 0.  0.
        4    1    3    3  502    0  0.17654198267E+03  0.91559914350E+03  0.94693976606E+03  0.13289790806E+04  0.12699999809E+01 0. -1.
       -4    1    3    3    0  502 -0.17654198267E+03 -0.91559914350E+03 -0.15875152147E+04  0.18411124445E+04  0.12699999809E+01 0.  1.
</event>
<event>
 5   0  0.2067926E-06  0.3101564E+04  0.7818609E-02  0.8215309E-01
        2   -1    0    0  501    0  0.00000000000E+00  0.00000000000E+00  0.22287451812E+04  0.22287451812E+04  0.25500000920E-02 0. -1.
       -2   -1    0    0    0  501  0.00000000000E+00  0.00000000000E+00 -0.10790488847E+04  0.10790488847E+04  0.25500000920E-02 0.  1.
    10030    2    1    2    0    0  0.00000000000E+00  0.00000000000E+00  0.11496962965E+04  0.33077940659E+04  0.31015641228E+04 0.  0.
        1    1    3    3  502    0  0.53495363477E+02 -0.15235729708E+04  0.27171538618E+03  0.15485366003E+04  0.50400001928E-02 0.  1.
       -1    1    3    3    0  502 -0.53495363477E+02  0.15235729708E+04  0.87798091035E+03  0.17592574656E+04  0.50400001928E-02 0. -1.
</event>
<event>
 5   0  0.7519202E-07  0.2893137E+04  0.7818609E-02  0.8274922E-01
       -1   -1    0    0    0  501  0.00000000000E+00  0.00000000000E+00  0.10713196288E+04  0.10713196288E+04  0.50400001928E-02 0. -1.
        1   -1    0    0  501    0  0.00000000000E+00  0.00000000000E+00 -0.19532549080E+04  0.19532549080E+04  0.50400001928E-02 0.  1.
    10030    2    1    2    0    0  0.00000000000E+00  0.00000000000E+00 -0.88193527924E+03  0.30245745368E+04  0.28931369293E+04 0.  0.
        4    1    3    3  502    0  0.96124123274E+03 -0.29097446473E+02 -0.15706751791E+04  0.18416985367E+04  0.12699999809E+01 0.  1.
       -4    1    3    3    0  502 -0.96124123274E+03  0.29097446473E+02  0.68873989990E+03  0.11828760001E+04  0.12699999809E+01 0. -1.
</event>
<event>
 5   0  0.7413481E-07  0.3071826E+04  0.7818609E-02  0.8223513E-01
        1   -1    0    0  501    0  0.00000000000E+00  0.00000000000E+00  0.19977962341E+04  0.19977962341E+04  0.50400001928E-02 0.  1.
       -1   -1    0    0    0  501  0.00000000000E+00  0.00000000000E+00 -0.11808153936E+04  0.11808153937E+04  0.50400001928E-02 0. -1.
    10030    2    1    2    0    0  0.00000000000E+00  0.00000000000E+00  0.81698084042E+03  0.31786116277E+04  0.30718258717E+04 0.  0.
        5    1    3    3  502    0  0.25168027318E+03 -0.10226050984E+04  0.15653638811E+04  0.18866505552E+04  0.46999998093E+01 0.  1.
       -5    1    3    3    0  502 -0.25168027318E+03  0.10226050984E+04 -0.74838304073E+03  0.12919610725E+04  0.46999998093E+01 0. -1.
</event>
<event>
 5   0  0.2094135E-06  0.3020807E+04  0.7818609E-02  0.8237814E-01
        2   -1    0    0  501    0  0.00000000000E+00  0.00000000000E+00  0.72598421369E+03  0.72598421369E+03  0.25500000920E-02 0. -1.
       -2   -1    0    0    0  501  0.00000000000E+00  0.00000000000E+00 -0.31423815944E+04  0.31423815944E+04  0.25500000920E-02 0.  1.
    10030    2    1    2    0    0  0.00000000000E+00  0.00000000000E+00 -0.24163973807E+04  0.38683658081E+04  0.30208074622E+04 0.  0.
        4    1    3    3  502    0 -0.11990533645E+04 -0.61788862083E+03 -0.20784258432E+04  0.24777753969E+04  0.12699999809E+01 0.  1.
       -4    1    3    3    0  502  0.11990533645E+04  0.61788862083E+03 -0.33797153754E+03  0.13905904112E+04  0.12699999809E+01 0. -1.
</event>
<event>
 5   0  0.2067926E-06  0.3113352E+04  0.7818609E-02  0.8212083E-01
        2   -1    0    0  501    0  0.00000000000E+00  0.00000000000E+00  0.24283546968E+04  0.24283546968E+04  0.25500000920E-02 0.  1.
       -2   -1    0    0    0  501  0.00000000000E+00  0.00000000000E+00 -0.99789352666E+03  0.99789352666E+03  0.25500000920E-02 0. -1.
    10030    2    1    2    0    0  0.00000000000E+00  0.00000000000E+00  0.14304611702E+04  0.34262482235E+04  0.31133515268E+04 0.  0.
        1    1    3    3  502    0  0.10777313352E+04 -0.31509504518E+03 -0.47129675968E+03  0.12177480668E+04  0.50400001928E-02 0. -1.
       -1    1    3    3    0  502 -0.10777313352E+04  0.31509504518E+03  0.19017579299E+04  0.22085001567E+04  0.50400001928E-02 0.  1.
</event>
<event>
 5   0  0.2133385E-06  0.3083973E+04  0.7818609E-02  0.8220150E-01
        2   -1    0    0  501    0  0.00000000000E+00  0.00000000000E+00  0.19273182659E+04  0.19273182659E+04  0.25500000920E-02 0. -1.
       -2   -1    0    0    0  501  0.00000000000E+00  0.00000000000E+00 -0.12336944580E+04  0.12336944580E+04  0.25500000920E-02 0.  1.
    10030    2    1    2    0    0  0.00000000000E+00  0.00000000000E+00  0.69362380790E+03  0.31610127239E+04  0.30839726740E+04 0.  0.
        2    1    3    3  502    0  0.10615699942E+04 -0.44864877643E+03 -0.70323340228E+03  0.13500939950E+04  0.25500000920E-02 0.  1.
       -2    1    3    3    0  502 -0.10615699942E+04  0.44864877643E+03  0.13968572102E+04  0.18109187289E+04  0.25500000920E-02 0. -1.
</event>
<event>
 5   0  0.2226334E-06  0.3125226E+04  0.7818609E-02  0.8208849E-01
        2   -1    0    0  501    0  0.00000000000E+00  0.00000000000E+00  0.12251427913E+04  0.12251427913E+04  0.25500000920E-02 0. -1.
       -2   -1    0    0    0  501  0.00000000000E+00  0.00000000000E+00 -0.19930404512E+04  0.19930404512E+04  0.25500000920E-02 0.  1.
    10030    2    1    2    0    0  0.00000000000E+00  0.00000000000E+00 -0.76789765997E+03  0.32181832425E+04  0.31252258424E+04 0.  0.
        5    1    3    3  502    0 -0.28121705465E+03  0.15369048318E+04 -0.40869608286E+03  0.16149966167E+04  0.46999998093E+01 0. -1.
       -5    1    3    3    0  502  0.28121705465E+03 -0.15369048318E+04 -0.35920157710E+03  0.16031866257E+04  0.46999998093E+01 0.  1.
</event>
<event>
 5   0  0.2133385E-06  0.3106937E+04  0.7818609E-02  0.8213837E-01
        2   -1    0    0  501    0  0.00000000000E+00  0.00000000000E+00  0.15701478889E+04  0.15701478889E+04  0.25500000920E-02 0.  1.
       -2   -1    0    0    0  501  0.00000000000E+00  0.00000000000E+00 -0.15369661261E+04  0.15369661261E+04  0.25500000920E-02 0. -1.
    10030    2    1    2    0    0  0.00000000000E+00  0.00000000000E+00  0.33181762867E+02  0.31071140150E+04  0.31069368312E+04 0.  0.
        2    1    3    3  502    0 -0.14180680809E+04 -0.52213747148E+03 -0.34359558806E+03  0.15497104728E+04  0.25500000920E-02 0. -1.
       -2    1    3    3    0  502  0.14180680809E+04  0.52213747148E+03  0.37677735093E+03  0.15574035422E+04  0.25500000920E-02 0.  1.
</event>
<event>
 5   0  0.7561815E-07  0.3104249E+04  0.7818609E-02  0.8214573E-01
       -1   -1    0    0    0  501  0.00000000000E+00  0.00000000000E+00  0.10910804680E+04  0.10910804680E+04  0.50400001928E-02 0.  1.
        1   -1    0    0  501    0  0.00000000000E+00  0.00000000000E+00 -0.22079866198E+04  0.22079866198E+04  0.50400001928E-02 0. -1.
    10030    2    1    2    0    0  0.00000000000E+00  0.00000000000E+00 -0.11169061518E+04  0.32990670878E+04  0.31042493937E+04 0.  0.
        3    1    3    3  502    0 -0.16494205148E+03 -0.10996099717E+04 -0.17093488206E+04  0.20391717365E+04  0.10100000352E+00 0.  1.
       -3    1    3    3    0  502  0.16494205148E+03  0.10996099717E+04  0.59244266887E+03  0.12598953513E+04  0.10100000352E+00 0. -1.
</event>
<event>
 5   0  0.2067926E-06  0.3117563E+04  0.7818609E-02  0.8210934E-01
       -2   -1    0    0    0  501  0.00000000000E+00  0.00000000000E+00  0.11097911282E+04  0.11097911282E+04  0.25500000920E-02 0.  1.
        2   -1    0    0  501    0  0.00000000000E+00  0.00000000000E+00 -0.21894211706E+04  0.21894211706E+04  0.25500000920E-02 0. -1.
    10030    2    1    2    0    0  0.00000000000E+00  0.00000000000E+00 -0.10796300425E+04  0.32992122988E+04  0.31175632734E+04 0.  0.
        1    1    3    3  502    0  0.14408986974E+04  0.41398595901E+03 -0.88062002399E+02  0.15017750653E+04  0.50400001928E-02 0.  1.
       -1    1    3    3    0  502 -0.14408986974E+04 -0.41398595901E+03 -0.99156804008E+03  0.17974372335E+04  0.50400001928E-02 0. -1.
</event>
<event>
 5   0  0.7656332E-07  0.3153323E+04  0.7818609E-02  0.8201254E-01
        1   -1    0    0  501    0  0.00000000000E+00  0.00000000000E+00  0.13242618352E+04  0.13242618352E+04  0.50400001928E-02 0. -1.
       -1   -1    0    0    0  501  0.00000000000E+00  0.00000000000E+00 -0.18771681303E+04  0.18771681303E+04  0.50400001928E-02 0.  1.
    10030    2    1    2    0    0  0.00000000000E+00  0.00000000000E+00 -0.55290629514E+03  0.32014299655E+04  0.31533233981E+04 0.  0.
        2    1    3    3  502    0  0.44223633486E+03  0.19142039063E+02  0.12598817844E+04  0.13353806589E+04  0.25500000920E-02 0. -1.
       -2    1    3    3    0  502 -0.44223633486E+03 -0.19142039063E+02 -0.18127880795E+04  0.18660493066E+04  0.25500000920E-02 0.  1.
</event>
<event>
 5   0  0.7519202E-07  0.3082621E+04  0.7818609E-02  0.8220524E-01
        1   -1    0    0  501    0  0.00000000000E+00  0.00000000000E+00  0.11817586911E+04  0.11817586911E+04  0.50400001928E-02 0. -1.
       -1   -1    0    0    0  501  0.00000000000E+00  0.00000000000E+00 -0.20102568528E+04  0.20102568528E+04  0.50400001928E-02 0.  1.
    10030    2    1    2    0    0  0.00000000000E+00  0.00000000000E+00 -0.82849816168E+03  0.31920155438E+04  0.30826212917E+04 0.  0.
        4    1    3    3  502    0  0.46459861438E+03  0.14257564729E+04 -0.78327143187E+03  0.16917887402E+04  0.12699999809E+01 0.  1.
       -4    1    3    3    0  502 -0.46459861438E+03 -0.14257564729E+04 -0.45226729810E+02  0.15002268037E+04  0.12699999809E+01 0. -1.
</event>
<event>
 5   0  0.2078009E-06  0.3124269E+04  0.7818609E-02  0.8209109E-01
       -2   -1    0    0    0  501  0.00000000000E+00  0.00000000000E+00  0.18084972052E+04  0.18084972052E+04  0.25500000920E-02 0. -1.
        2   -1    0    0  501    0  0.00000000000E+00  0.00000000000E+00 -0.13493322292E+04  0.13493322292E+04  0.25500000920E-02 0.  1.
    10030    2    1    2    0    0  0.00000000000E+00  0.00000000000E+00  0.45916497598E+03  0.31578294344E+04  0.31242685963E+04 0.  0.
        3    1    3    3  502    0 -0.86697625052E+03 -0.10529623888E+04 -0.54009998304E+03  0.14669988457E+04  0.10100000352E+00 0.  1.
       -3    1    3    3    0  502  0.86697625052E+03  0.10529623888E+04  0.99926495901E+03  0.16908305887E+04  0.10100000352E+00 0. -1.
</event>
<event>
 5   0  0.2226334E-06  0.3096563E+04  0.7818609E-02  0.8216682E-01
        2   -1    0    0  501    0  0.00000000000E+00  0.00000000000E+00  0.14392074093E+04  0.14392074093E+04  0.25500000920E-02 0. -1.
       -2   -1    0    0    0  501  0.00000000000E+00  0.00000000000E+00 -0.16656216421E+04  0.16656216421E+04  0.25500000920E-02 0.  1.
    10030    2    1    2    0    0  0.00000000000E+00  0.00000000000E+00 -0.22641423282E+03  0.31048290514E+04  0.30965626158E+04 0.  0.
        5    1    3    3  502    0 -0.99354521778E+03 -0.83713941238E+03  0.73119211875E+03  0.14908381871E+04  0.46999998093E+01 0. -1.
       -5    1    3    3    0  502  0.99354521778E+03  0.83713941238E+03 -0.95760635157E+03  0.16139908643E+04  0.46999998093E+01 0.  1.
</event>
<event>
 5   0  0.2226334E-06  0.2833158E+04  0.7818609E-02  0.8293048E-01
       -2   -1    0    0    0  501  0.00000000000E+00  0.00000000000E+00  0.10371044876E+04  0.10371044877E+04  0.25500000920E-02 0.  1.
        2   -1    0    0  501    0  0.00000000000E+00  0.00000000000E+00 -0.19349019963E+04  0.19349019963E+04  0.25500000920E-02 0. -1.
    10030    2    1    2    0    0  0.00000000000E+00  0.00000000000E+00 -0.89779750863E+03  0.29720064839E+04  0.28331576331E+04 0.  0.
        5    1    3    3  502    0  0.12794767402E+04  0.45926724169E+03 -0.86677604060E+03  0.16122375515E+04  0.46999998093E+01 0. -1.
       -5    1    3    3    0  502 -0.12794767402E+04 -0.45926724169E+03 -0.31021468032E+02  0.13597689324E+04  0.46999998093E+01 0.  1.
</event>
<event>
 5   0  0.2067926E-06  0.3123773E+04  0.7818609E-02  0.8209244E-01
        2   -1    0    0  501    0  0.00000000000E+00  0.00000000000E+00  0.11397357856E+04  0.11397357856E+04  0.25500000920E-02 0. -1.
       -2   -1    0    0    0  501  0.00000000000E+00  0.00000000000E+00 -0.21403988580E+04  0.21403988580E+04  0.25500000920E-02 0.  1.
    10030    2    1    2    0    0  0.00000000000E+00  0.00000000000E+00 -0.10006630724E+04  0.32801346436E+04  0.31237728303E+04 0.  0.
        1    1    3    3  502    0  0.72584995497E+03  0.41925199145E+03 -0.18841989486E+04  0.20622405455E+04  0.50400001928E-02 0.  1.
       -1    1    3    3    0  502 -0.72584995497E+03 -0.41925199145E+03  0.88353587625E+03  0.12178940981E+04  0.50400001928E-02 0. -1.
</event>
<event>
 5   0  0.7519202E-07  0.3109231E+04  0.7818609E-02  0.8213209E-01
       -1   -1    0    0    0  501  0.00000000000E+00  0.00000000000E+00  0.11416324868E+04  0.11416324868E+04  0.50400001928E-02 0.  1.
        1   -1    0    0  501    0  0.00000000000E+00  0.00000000000E+00 -0.21169944376E+04  0.21169944376E+04  0.50400001928E-02 0. -1.
    10030    2    1    2    0    0  0.00000000000E+00  0.00000000000E+00 -0.97536195075E+03  0.32586269244E+04  0.31092311747E+04 0.  0.
        4    1    3    3  502    0  0.27269059001E+03 -0.87349978766E+03 -0.18048356130E+04  0.20235600411E+04  0.12699999809E+01 0. -1.
       -4    1    3    3    0  502 -0.27269059001E+03  0.87349978766E+03  0.82947366229E+03  0.12350668833E+04  0.12699999809E+01 0.  1.
</event>
<event>
 5   0  0.6979625E-07  0.3061781E+04  0.7818609E-02  0.8226306E-01
       -3   -1    0    0    0  501  0.00000000000E+00  0.00000000000E+00  0.25947413156E+04  0.25947413175E+04  0.10100000352E+00 0.  1.
        3   -1    0    0  501    0  0.00000000000E+00  0.00000000000E+00 -0.90322156095E+03  0.90322156659E+03  0.10100000352E+00 0. -1.
    10030    2    1    2    0    0  0.00000000000E+00  0.00000000000E+00  0.16915197546E+04  0.34979628841E+04  0.30617813865E+04 0.  0.
        2    1    3    3  502    0  0.52066911091E+03 -0.97347126738E+03 -0.36593933926E+03  0.11630366424E+04  0.25500000920E-02 0. -1.
       -2    1    3    3    0  502 -0.52066911091E+03  0.97347126738E+03  0.20574590939E+04  0.23349262418E+04  0.25500000920E-02 0.  1.
</event>
<event>
 5   0  0.2226334E-06  0.2856273E+04  0.7818609E-02  0.8286008E-01
       -2   -1    0    0    0  501  0.00000000000E+00  0.00000000000E+00  0.13857327711E+04  0.13857327711E+04  0.25500000920E-02 0.  1.
        2   -1    0    0  501    0  0.00000000000E+00  0.00000000000E+00 -0.14718382065E+04  0.14718382065E+04  0.25500000920E-02 0. -1.
    10030    2    1    2    0    0  0.00000000000E+00  0.00000000000E+00 -0.86105435439E+02  0.28575709776E+04  0.28562734018E+04 0.  0.
        5    1    3    3  502    0  0.57928865497E+03 -0.12178561099E+04  0.42705807705E+03  0.14146199283E+04  0.46999998093E+01 0. -1.
       -5    1    3    3    0  502 -0.57928865497E+03  0.12178561099E+04 -0.51316351249E+03  0.14429510493E+04  0.46999998093E+01 0.  1.
</event>
<event>
 5   0  0.2133385E-06  0.3073010E+04  0.7818609E-02  0.8223184E-01
       -2   -1    0    0    0  501  0.00000000000E+00  0.00000000000E+00  0.19189417715E+04  0.19189417715E+04  0.25500000920E-02 0.  1.
        2   -1    0    0  501    0  0.00000000000E+00  0.00000000000E+00 -0.12302864257E+04  0.12302864257E+04  0.25500000920E-02 0. -1.
    10030    2    1    2    0    0  0.00000000000E+00  0.00000000000E+00  0.68865534585E+03  0.31492281972E+04  0.30730102591E+04 0.  0.
        2    1    3    3  502    0 -0.65926011982E+03  0.27267556850E+03  0.17389146985E+04  0.18795744731E+04  0.25500000920E-02 0.  1.
       -2    1    3    3    0  502  0.65926011982E+03 -0.27267556850E+03 -0.10502593527E+04  0.12696537241E+04  0.25500000920E-02 0. -1.
</event>
<event>
 5   0  0.2078009E-06  0.3101350E+04  0.7818609E-02  0.8215368E-01
       -2   -1    0    0    0  501  0.00000000000E+00  0.00000000000E+00  0.10846071338E+04  0.10846071338E+04  0.25500000920E-02 0.  1.
        2   -1    0    0  501    0  0.00000000000E+00  0.00000000000E+00 -0.22170174678E+04  0.22170174678E+04  0.25500000920E-02 0. -1.
    10030    2    1    2    0    0  0.00000000000E+00  0.00000000000E+00 -0.11324103340E+04  0.33016246016E+04  0.31013500037E+04 0.  0.
        3    1    3    3  502    0  0.88543647987E+03  0.11814033560E+04 -0.10710449643E+04  0.18239651793E+04  0.10100000352E+00 0.  1.
       -3    1    3    3    0  502 -0.88543647987E+03 -0.11814033560E+04 -0.61365369709E+02  0.14776594223E+04  0.10100000352E+00 0. -1.
</event>
<event>
 5   0  0.7726743E-07  0.3097294E+04  0.7818609E-02  0.8216481E-01
        1   -1    0    0  501    0  0.00000000000E+00  0.00000000000E+00  0.21402803836E+04  0.21402803836E+04  0.50400001928E-02 0.  1.
       -1   -1    0    0    0  501  0.00000000000E+00  0.00000000000E+00 -0.11205575497E+04  0.11205575497E+04  0.50400001928E-02 0. -1.
    10030    2    1    2    0    0  0.00000000000E+00  0.00000000000E+00  0.10197228339E+04  0.32608379333E+04  0.30972938784E+04 0.  0.
        1    1    3    3  502    0 -0.84987695595E+03  0.11662287563E+04 -0.81891170151E+02  0.14453672599E+04  0.50400001928E-02 0. -1.
       -1    1    3    3    0  502  0.84987695595E+03 -0.11662287563E+04  0.11016140040E+04  0.18154706734E+04  0.50400001928E-02 0.  1.
</event>
<event>
 5   0  0.2078009E-06  0.3087627E+04  0.7818609E-02  0.8219142E-01
        2   -1    0    0  501    0  0.00000000000E+00  0.00000000000E+00  0.16155222058E+04  0.16155222058E+04  0.25500000920E-02 0. -1.
       -2   -1    0    0    0  501  0.00000000000E+00  0.00000000000E+00 -0.14752881906E+04  0.14752881906E+04  0.25500000920E-02 0.  1.
    10030    2    1    2    0    0  0.00000000000E+00  0.00000000000E+00  0.14023401519E+03  0.30908103963E+04  0.30876274592E+04 0.  0.
        3    1    3    3  502    0  0.75872117412E+03 -0.30214097866E+03 -0.12413533304E+04  0.14859021139E+04  0.10100000352E+00 0.  1.
       -3    1    3    3    0  502 -0.75872117412E+03  0.30214097866E+03  0.13815873456E+04  0.16049082824E+04  0.10100000352E+00 0. -1.
</event>
<event>
 5   0  0.2226334E-06  0.3088918E+04  0.7818609E-02  0.8218786E-01
        2   -1    0    0  501    0  0.00000000000E+00  0.00000000000E+00  0.23298524721E+04  0.23298524721E+04  0.25500000920E-02 0.  1.
       -2   -1    0    0    0  501  0.00000000000E+00  0.00000000000E+00 -0.10238215810E+04  0.10238215810E+04  0.25500000920E-02 0. -1.
    10030    2    1    2    0    0  0.00000000000E+00  0.00000000000E+00  0.13060308911E+04  0.33536740532E+04  0.30889177662E+04 0.  0.
        5    1    3    3  502    0 -0.24095423416E+03  0.14885788343E+04  0.29063282805E+03  0.15357133260E+04  0.46999998093E+01 0. -1.
       -5    1    3    3    0  502  0.24095423416E+03 -0.14885788343E+04  0.10153980630E+04  0.18179607271E+04  0.46999998093E+01 0.  1.
</event>
<event>
 5   0  0.7726743E-07  0.3126821E+04  0.7818609E-02  0.8208415E-01
        1   -1    0    0  501    0  0.00000000000E+00  0.00000000000E+00  0.12408882871E+04  0.12408882871E+04  0.50400001928E-02 0. -1.
       -1   -1    0    0    0  501  0.00000000000E+00  0.00000000000E+00 -0.19697607668E+04  0.19697607668E+04  0.50400001928E-02 0.  1.
    10030    2    1    2    0    0  0.00000000000E+00  0.00000000000E+00 -0.72887247973E+03  0.32106490539E+04  0.31268214301E+04 0.  0.
        1    1    3    3  502    0 -0.15406681292E+04 -0.44615629194E+02 -0.63338230131E+03  0.16663799022E+04  0.50400001928E-02 0.  1.
       -1    1    3    3    0  502  0.15406681292E+04  0.44615629194E+02 -0.95490178420E+02  0.15442691517E+04  0.50400001928E-02 0. -1.
</event>
<event>
 5   0  0.7656332E-07  0.3034912E+04  0.7818609E-02  0.8233831E-01
       -1   -1    0    0    0  501  0.00000000000E+00  0.00000000000E+00  0.10210787745E+04  0.10210787745E+04  0.50400001928E-02 0. -1.
        1   -1    0    0  501    0  0.00000000000E+00  0.00000000000E+00 -0.22551379218E+04  0.22551379218E+04  0.50400001928E-02 0.  1.
    10030    2    1    2    0    0  0.00000000000E+00  0.00000000000E+00 -0.12340591473E+04  0.32762166963E+04  0.30349124966E+04 0.  0.
        2    1    3    3  502    0 -0.13494123501E+04 -0.37237975056E+03 -0.12493430456E+04  0.18762831383E+04  0.25500000920E-02 0.  1.
       -2    1    3    3    0  502  0.13494123501E+04  0.37237975056E+03  0.15283898265E+02  0.13999335580E+04  0.25500000920E-02 0. -1.
</event>
<event>
 5   0  0.2094135E-06  0.3102072E+04  0.7818609E-02  0.8215169E-01
        2   -1    0    0  501    0  0.00000000000E+00  0.00000000000E+00  0.19272709256E+04  0.19272709256E+04  0.25500000920E-02 0.  1.
       -2   -1    0    0    0  501  0.00000000000E+00  0.00000000000E+00 -0.12482484301E+04  0.12482484301E+04  0.25500000920E-02 0. -1.
    10030    2    1    2    0    0  0.00000000000E+00  0.00000000000E+00  0.67902249553E+03  0.31755193558E+04  0.31020721509E+04 0.  0.
        4    1    3    3  502    0  0.11604238298E+04  0.53013760248E+02  0.13916186600E+04  0.18127322007E+04  0.12699999809E+01 0.  1.
       -4    1    3    3    0  502 -0.11604238298E+04 -0.53013760248E+02 -0.71259616447E+03  0.13627871551E+04  0.12699999809E+01 0. -1.
</event>
<event>
 5   0  0.2094135E-06  0.3109282E+04  0.7818609E-02  0.8213195E-01
       -2   -1    0    0    0  501  0.00000000000E+00  0.00000000000E+00  0.12221948442E+04  0.12221948442E+04  0.25500000920E-02 0.  1.
        2   -1    0    0  501    0  0.00000000000E+00  0.00000000000E+00 -0.19775145176E+04  0.19775145176E+04  0.25500000920E-02 0. -1.
    10030    2    1    2    0    0  0.00000000000E+00  0.00000000000E+00 -0.75531967335E+03  0.31997093618E+04  0.31092816197E+04 0.  0.
        4    1    3    3  502    0 -0.23326612144E+03  0.51877913177E+03 -0.18665840593E+04  0.19513284025E+04  0.12699999809E+01 0. -1.
       -4    1    3    3    0  502  0.23326612144E+03 -0.51877913177E+03  0.11112643860E+04  0.12483809593E+04  0.12699999809E+01 0.  1.
</event>
<event>
 5   0  0.2133385E-06  0.3168271E+04  0.7818609E-02  0.8197247E-01
       -2   -1    0    0    0  501  0.00000000000E+00  0.00000000000E+00  0.14755461581E+04  0.14755461581E+04  0.25500000920E-02 0.  1.
        2   -1    0    0  501    0  0.00000000000E+00  0.00000000000E+00 -0.17007159942E+04  0.17007159942E+04  0.25500000920E-02 0. -1.
    10030    2    1    2    0    0  0.00000000000E+00  0.00000000000E+00 -0.22516983605E+03  0.31762621523E+04  0.31682707910E+04 0.  0.
        2    1    3    3  502    0 -0.11490079115E+03  0.31297814710E+03  0.14399746937E+04  0.14780678709E+04  0.25500000920E-02 0.  1.
       -2    1    3    3    0  502  0.11490079115E+03 -0.31297814710E+03 -0.16651445298E+04  0.16981942814E+04  0.25500000920E-02 0. -1.
</event>
<event>
 5   0  0.2067926E-06  0.3093083E+04  0.7818609E-02  0.8217639E-01
       -2   -1    0    0    0  501  0.00000000000E+00  0.00000000000E+00  0.11560980126E+04  0.11560980126E+04  0.25500000920E-02 0. -1.
        2   -1    0    0  501    0  0.00000000000E+00  0.00000000000E+00 -0.20688477386E+04  0.20688477386E+04  0.25500000920E-02 0.  1.
    10030    2    1    2    0    0  0.00000000000E+00  0.00000000000E+00 -0.91274972607E+03  0.32249457512E+04  0.30930830955E+04 0.  0.
        1    1    3    3  502    0  0.15449303699E+04 -0.90445879145E+01 -0.38339731524E+03  0.15918181912E+04  0.50400001928E-02 0.  1.
       -1    1    3    3    0  502 -0.15449303699E+04  0.90445879145E+01 -0.52935241083E+03  0.16331275600E+04  0.50400001928E-02 0. -1.
</event>
<event>
 5   0  0.2094135E-06  0.3092868E+04  0.7818609E-02  0.8217698E-01
        2   -1    0    0  501    0  0.00000000000E+00  0.00000000000E+00  0.23690443660E+04  0.23690443660E+04  0.25500000920E-02 0.  1.
       -2   -1    0    0    0  501  0.00000000000E+00  0.00000000000E+00 -0.10094611497E+04  0.10094611497E+04  0.25500000920E-02 0. -1.
    10030    2    1    2    0    0  0.00000000000E+00  0.00000000000E+00  0.13595832163E+04  0.33785055157E+04  0.30928680860E+04 0.  0.
        4    1    3    3  502    0  0.43267381209E+03 -0.16942371705E+03 -0.93140052085E+03  0.10408744241E+04  0.12699999809E+01 0. -1.
       -4    1    3    3    0  502 -0.43267381209E+03  0.16942371705E+03  0.22909837372E+04  0.23376310916E+04  0.12699999809E+01 0.  1.
</event>
<event>
 5   0  0.2078009E-06  0.3068516E+04  0.7818609E-02  0.8224432E-01
        2   -1    0    0  501    0  0.00000000000E+00  0.00000000000E+00  0.18354690397E+04  0.18354690397E+04  0.25500000920E-02 0. -1.
       -2   -1    0    0    0  501  0.00000000000E+00  0.00000000000E+00 -0.12824772200E+04  0.12824772200E+04  0.25500000920E-02 0.  1.
    10030    2    1    2    0    0  0.00000000000E+00  0.00000000000E+00  0.55299181968E+03  0.31179462597E+04  0.30685157528E+04 0.  0.
        3    1    3    3  502    0  0.37648774147E+02  0.97543736699E+03  0.14792237234E+04  0.17722861849E+04  0.10100000352E+00 0. -1.
       -3    1    3    3    0  502 -0.37648774147E+02 -0.97543736699E+03 -0.92623190372E+03  0.13456600748E+04  0.10100000352E+00 0.  1.
</event>
<event>
 5   0  0.7561815E-07  0.3095619E+04  0.7818609E-02  0.8216941E-01
       -1   -1    0    0    0  501  0.00000000000E+00  0.00000000000E+00  0.23017265367E+04  0.23017265367E+04  0.50400001928E-02 0.  1.
        1   -1    0    0  501    0  0.00000000000E+00  0.00000000000E+00 -0.10408332516E+04  0.10408332516E+04  0.50400001928E-02 0. -1.
    10030    2    1    2    0    0  0.00000000000E+00  0.00000000000E+00  0.12608932851E+04  0.33425597883E+04  0.30956185266E+04 0.  0.
        3    1    3    3  502    0 -0.12701866118E+04 -0.27125253114E+03 -0.27859089852E+03  0.13283692496E+04  0.10100000352E+00 0. -1.
       -3    1    3    3    0  502  0.12701866118E+04  0.27125253114E+03  0.15394841836E+04  0.20141905387E+04  0.10100000352E+00 0.  1.
</event>
<event>
 5   0  0.7561815E-07  0.3101722E+04  0.7818609E-02  0.8215266E-01
       -1   -1    0    0    0  501  0.00000000000E+00  0.00000000000E+00  0.13124176207E+04  0.13124176207E+04  0.50400001928E-02 0.  1.
        1   -1    0    0  501    0  0.00000000000E+00  0.00000000000E+00 -0.18326248630E+04  0.18326248630E+04  0.50400001928E-02 0. -1.
    10030    2    1    2    0    0  0.00000000000E+00  0.00000000000E+00 -0.52020724230E+03  0.31450424838E+04  0.31017215622E+04 0.  0.
        3    1    3    3  502    0 -0.50770689171E+03  0.27534763664E+02  0.12255028811E+04  0.13267937944E+04  0.10100000352E+00 0.  1.
       -3    1    3    3    0  502  0.50770689171E+03 -0.27534763664E+02 -0.17457101234E+04  0.18182486893E+04  0.10100000352E+00 0. -1.
</event>
<event>
 5   0  0.7519202E-07  0.3116832E+04  0.7818609E-02  0.8211134E-01
        1   -1    0    0  501    0  0.00000000000E+00  0.00000000000E+00  0.21241193529E+04  0.21241193529E+04  0.50400001928E-02 0. -1.
       -1   -1    0    0    0  501  0.00000000000E+00  0.00000000000E+00 -0.11433728474E+04  0.11433728474E+04  0.50400001928E-02 0.  1.
    10030    2    1    2    0    0  0.00000000000E+00  0.00000000000E+00  0.98074650552E+03  0.32674922002E+04  0.31168319766E+04 0.  0.
        4    1    3    3  502    0  0.86075804185E+03  0.12958037480E+03  0.18455146874E+04  0.20404954189E+04  0.12699999809E+01 0. -1.
       -4    1    3    3    0  502 -0.86075804185E+03 -0.12958037480E+03 -0.86476818189E+03  0.12269967814E+04  0.12699999809E+01 0.  1.
</event>
<event>
 5   0  0.7726743E-07  0.3085054E+04  0.7818609E-02  0.8219852E-01
       -1   -1    0    0    0  501  0.00000000000E+00  0.00000000000E+00  0.78267599907E+03  0.78267599909E+03  0.50400001928E-02 0.  1.
        1   -1    0    0  501    0  0.00000000000E+00  0.00000000000E+00 -0.30400703581E+04  0.30400703581E+04  0.50400001928E-02 0. -1.
    10030    2    1    2    0    0  0.00000000000E+00  0.00000000000E+00 -0.22573943591E+04  0.38227463572E+04  0.30850543625E+04 0.  0.
        1    1    3    3  502    0 -0.69027485439E+03  0.62216025373E+03 -0.26542861179E+04  0.28122584433E+04  0.50400001928E-02 0. -1.
       -1    1    3    3    0  502  0.69027485439E+03 -0.62216025373E+03  0.39689175888E+03  0.10104879139E+04  0.50400001928E-02 0.  1.
</event>
<event>
 5   0  0.2067926E-06  0.3100837E+04  0.7818609E-02  0.8215508E-01
       -2   -1    0    0    0  501  0.00000000000E+00  0.00000000000E+00  0.26356312560E+04  0.26356312560E+04  0.25500000920E-02 0.  1.
        2   -1    0    0  501    0  0.00000000000E+00  0.00000000000E+00 -0.91203857519E+03  0.91203857519E+03  0.25500000920E-02 0. -1.
    10030    2    1    2    0    0  0.00000000000E+00  0.00000000000E+00  0.17235926808E+04  0.35476698312E+04  0.31008369035E+04 0.  0.
        1    1    3    3  502    0 -0.18491029262E+03 -0.11107379231E+04 -0.35755252518E+03  0.11814289477E+04  0.50400001928E-02 0. -1.
       -1    1    3    3    0  502  0.18491029262E+03  0.11107379231E+04  0.20811452060E+04  0.23662408835E+04  0.50400001928E-02 0.  1.
</event>
<event>
 5   0  0.2094135E-06  0.3148808E+04  0.7818609E-02  0.8202469E-01
        2   -1    0    0  501    0  0.00000000000E+00  0.00000000000E+00  0.16226164308E+04  0.16226164308E+04  0.25500000920E-02 0.  1.
       -2   -1    0    0    0  501  0.00000000000E+00  0.00000000000E+00 -0.15276242473E+04  0.15276242473E+04  0.25500000920E-02 0. -1.
    10030    2    1    2    0    0  0.00000000000E+00  0.00000000000E+00  0.94992183541E+02  0.31502406781E+04  0.31488081578E+04 0.  0.
        4    1    3    3  502    0 -0.10561892971E+04 -0.11351738021E+04  0.32073423525E+03  0.15833595469E+04  0.12699999809E+01 0.  1.
       -4    1    3    3    0  502  0.10561892971E+04  0.11351738021E+04 -0.22574205170E+03  0.15668811311E+04  0.12699999809E+01 0. -1.
</event>
<event>
 5   0  0.2133385E-06  0.3171062E+04  0.7818609E-02  0.8196502E-01
       -2   -1    0    0    0  501  0.00000000000E+00  0.00000000000E+00  0.18146319761E+04  0.18146319761E+04  0.25500000920E-02 0. -1.
        2   -1    0    0  501    0  0.00000000000E+00  0.00000000000E+00 -0.13853544850E+04  0.13853544850E+04  0.25500000920E-02 0.  1.
    10030    2    1    2    0    0  0.00000000000E+00  0.00000000000E+00  0.42927749113E+03  0.31999864611E+04  0.31710619967E+04 0.  0.
        2    1    3    3  502    0 -0.14537259973E+04 -0.14920047346E+02  0.85315559561E+03  0.16856501278E+04  0.25500000920E-02 0. -1.
       -2    1    3    3    0  502  0.14537259973E+04  0.14920047346E+02 -0.42387810448E+03  0.15143363333E+04  0.25500000920E-02 0.  1.
</event>
<event>
 5   0  0.7413481E-07  0.3102871E+04  0.7818609E-02  0.8214950E-01
       -1   -1    0    0    0  501  0.00000000000E+00  0.00000000000E+00  0.18989494404E+04  0.18989494404E+04  0.50400001928E-02 0. -1.
        1   -1    0    0  501    0  0.00000000000E+00  0.00000000000E+00 -0.12675176462E+04  0.12675176462E+04  0.50400001928E-02 0.  1.
    10030    2    1    2    0    0  0.00000000000E+00  0.00000000000E+00  0.63143179425E+03  0.31664670866E+04  0.31028708803E+04 0.  0.
        5    1    3    3  502    0 -0.12652302432E+04 -0.77867713564E+03 -0.14041745422E+03  0.14922750421E+04  0.46999998093E+01 0. -1.
       -5    1    3    3    0  502  0.12652302432E+04  0.77867713564E+03  0.77184924846E+03  0.16741920446E+04  0.46999998093E+01 0.  1.
</event>
<event>
 5   0  0.7561815E-07  0.2969298E+04  0.7818609E-02  0.8252553E-01
        1   -1    0    0  501    0  0.00000000000E+00  0.00000000000E+00  0.19280575850E+04  0.19280575850E+04  0.50400001928E-02 0. -1.
       -1   -1    0    0    0  501  0.00000000000E+00  0.00000000000E+00 -0.11432139677E+04  0.11432139677E+04  0.50400001928E-02 0.  1.
    10030    2    1    2    0    0  0.00000000000E+00  0.00000000000E+00  0.78484361736E+03  0.30712715527E+04  0.29692978037E+04 0.  0.
        3    1    3    3  502    0 -0.76456308187E+03  0.53385521957E+03  0.15873559393E+04  0.18409934790E+04  0.10100000352E+00 0. -1.
       -3    1    3    3    0  502  0.76456308187E+03 -0.53385521957E+03 -0.80251232192E+03  0.12302780737E+04  0.10100000352E+00 0.  1.
</event>
<event>
 5   0  0.2067926E-06  0.3089888E+04  0.7818609E-02  0.8218518E-01
       -2   -1    0    0    0  501  0.00000000000E+00  0.00000000000E+00  0.11943597658E+04  0.11943597658E+04  0.25500000920E-02 0.  1.
        2   -1    0    0  501    0  0.00000000000E+00  0.00000000000E+00 -0.19984366501E+04  0.19984366501E+04  0.25500000920E-02 0. -1.
    10030    2    1    2    0    0  0.00000000000E+00  0.00000000000E+00 -0.80407688429E+03  0.31927964159E+04  0.30898882371E+04 0.  0.
        1    1    3    3  502    0 -0.12123155697E+04  0.57039961314E+03 -0.11969363900E+04  0.17965860627E+04  0.50400001928E-02 0. -1.
       -1    1    3    3    0  502  0.12123155697E+04 -0.57039961314E+03  0.39285950567E+03  0.13962103532E+04  0.50400001928E-02 0.  1.
</event>
<event>
 5   0  0.7519202E-07  0.3015523E+04  0.7818609E-02  0.8239312E-01
       -1   -1    0    0    0  501  0.00000000000E+00  0.00000000000E+00  0.11741203210E+04  0.11741203210E+04  0.50400001928E-02 0.  1.
        1   -1    0    0  501    0  0.00000000000E+00  0.00000000000E+00 -0.19362116415E+04  0.19362116415E+04  0.50400001928E-02 0. -1.
    10030    2    1    2    0    0  0.00000000000E+00  0.00000000000E+00 -0.76209132055E+03  0.31103319625E+04  0.30155234597E+04 0.  0.
        4    1    3    3  502    0  0.69937291760E+03  0.11340436516E+04 -0.11090453958E+04  0.17335399576E+04  0.12699999809E+01 0. -1.
       -4    1    3    3    0  502 -0.69937291760E+03 -0.11340436516E+04  0.34695407530E+03  0.13767920049E+04  0.12699999809E+01 0.  1.
</event>
<event>
 5   0  0.7561815E-07  0.3084795E+04  0.7818609E-02  0.8219923E-01
       -1   -1    0    0    0  501  0.00000000000E+00  0.00000000000E+00  0.16934014053E+04  0.16934014053E+04  0.50400001928E-02 0.  1.
        1   -1    0    0  501    0  0.00000000000E+00  0.00000000000E+00 -0.14048589084E+04  0.14048589084E+04  0.50400001928E-02 0. -1.
    10030    2    1    2    0    0  0.00000000000E+00  0.00000000000E+00  0.28854249688E+03  0.30982603137E+04  0.30847950011E+04 0.  0.
        3    1    3    3  502    0 -0.98825490617E+03  0.25908512401E+03 -0.10162886264E+04  0.14410466486E+04  0.10100000352E+00 0. -1.
       -3    1    3    3    0  502  0.98825490617E+03 -0.25908512401E+03  0.13048311233E+04  0.16572136651E+04  0.10100000352E+00 0.  1.
</event>
<event>
 5   0  0.7726743E-07  0.3004268E+04  0.7818609E-02  0.8242513E-01
       -1   -1    0    0    0  501  0.00000000000E+00  0.00000000000E+00  0.10256470143E+04  0.10256470143E+04  0.50400001928E-02 0. -1.
        1   -1    0    0  501    0  0.00000000000E+00  0.00000000000E+00 -0.21999834672E+04  0.21999834672E+04  0.50400001928E-02 0.  1.
    10030    2    1    2    0    0  0.00000000000E+00  0.00000000000E+00 -0.11743364529E+04  0.32256304815E+04  0.30042679472E+04 0.  0.
        1    1    3    3  502    0  0.73952839661E+03 -0.75695728643E+03 -0.17317965041E+04  0.20295333736E+04  0.50400001928E-02 0.  1.
       -1    1    3    3    0  502 -0.73952839661E+03  0.75695728643E+03  0.55746005122E+03  0.11960971079E+04  0.50400001928E-02 0. -1.
</event>
<event>
 5   0  0.7413481E-07  0.3066176E+04  0.7818609E-02  0.8225082E-01
       -1   -1    0    0    0  501  0.00000000000E+00  0.00000000000E+00  0.24249126878E+04  0.24249126878E+04  0.50400001928E-02 0.  1.
        1   -1    0    0  501    0  0.00000000000E+00  0.00000000000E+00 -0.96925475204E+03  0.96925475205E+03  0.50400001928E-02 0. -1.
    10030    2    1    2    0    0  0.00000000000E+00  0.00000000000E+00  0.14556579357E+04  0.33941674398E+04  0.30661755631E+04 0.  0.
        5    1    3    3  502    0 -0.40787670649E+03  0.58230335783E+03  0.22313936800E+04  0.23419181142E+04  0.46999998093E+01 0.  1.
       -5    1    3    3    0  502  0.40787670649E+03 -0.58230335783E+03 -0.77573574433E+03  0.10522493256E+04  0.46999998093E+01 0. -1.
</event>
<event>
 5   0  0.7561815E-07  0.3095242E+04  0.7818609E-02  0.8217045E-01
       -1   -1    0    0    0  501  0.00000000000E+00  0.00000000000E+00  0.85637050922E+03  0.85637050924E+03  0.50400001928E-02 0. -1.
        1   -1    0    0  501    0  0.00000000000E+00  0.00000000000E+00 -0.27968384842E+04  0.27968384842E+04  0.50400001928E-02 0.  1.
    10030    2    1    2    0    0  0.00000000000E+00  0.00000000000E+00 -0.19404679750E+04  0.36532089935E+04  0.30952415072E+04 0.  0.
        3    1    3    3  502    0 -0.13577209083E+04 -0.12265591134E+03 -0.10558973256E+03  0.13673330755E+04  0.10100000352E+00 0. -1.
       -3    1    3    3    0  502  0.13577209083E+04  0.12265591134E+03 -0.18348782425E+04  0.22858759180E+04  0.10100000352E+00 0.  1.
</event>
<event>
 5   0  0.2094135E-06  0.3103388E+04  0.7818609E-02  0.8214809E-01
       -2   -1    0    0    0  501  0.00000000000E+00  0.00000000000E+00  0.16787622240E+04  0.16787622240E+04  0.25500000920E-02 0.  1.
        2   -1    0    0  501    0  0.00000000000E+00  0.00000000000E+00 -0.14342437669E+04  0.14342437669E+04  0.25500000920E-02 0. -1.
    10030    2    1    2    0    0  0.00000000000E+00  0.00000000000E+00  0.24451845705E+03  0.31130059909E+04  0.31033879912E+04 0.  0.
        4    1    3    3  502    0  0.52655447641E+03 -0.26147003919E+03 -0.13182018467E+04  0.14433585555E+04  0.12699999809E+01 0. -1.
       -4    1    3    3    0  502 -0.52655447641E+03  0.26147003919E+03  0.15627203038E+04  0.16696474355E+04  0.12699999809E+01 0.  1.
</event>
<event>
 5   0  0.2067926E-06  0.3094534E+04  0.7818609E-02  0.8217240E-01
        2   -1    0    0  501    0  0.00000000000E+00  0.00000000000E+00  0.15448766931E+04  0.15448766931E+04  0.25500000920E-02 0. -1.
       -2   -1    0    0    0  501  0.00000000000E+00  0.00000000000E+00 -0.15496611779E+04  0.15496611779E+04  0.25500000920E-02 0.  1.
    10030    2    1    2    0    0  0.00000000000E+00  0.00000000000E+00 -0.47844847317E+01  0.30945378710E+04  0.30945341724E+04 0.  0.
        1    1    3    3  502    0 -0.52517726084E+03 -0.14345835764E+04 -0.24773768647E+03  0.15476482657E+04  0.50400001928E-02 0.  1.
       -1    1    3    3    0  502  0.52517726084E+03  0.14345835764E+04  0.24295320174E+03  0.15468896054E+04  0.50400001928E-02 0. -1.
</event>
<event>
 5   0  0.7519202E-07  0.3094640E+04  0.7818609E-02  0.8217210E-01
        1   -1    0    0  501    0  0.00000000000E+00  0.00000000000E+00  0.15908449174E+04  0.15908449174E+04  0.50400001928E-02 0.  1.
       -1   -1    0    0    0  501  0.00000000000E+00  0.00000000000E+00 -0.15049860554E+04  0.15049860554E+04  0.50400001928E-02 0. -1.
    10030    2    1    2    0    0  0.00000000000E+00  0.00000000000E+00  0.85858861981E+02  0.30958309728E+04  0.30946401516E+04 0.  0.
        4    1    3    3  502    0  0.53981548953E+03 -0.97189551124E+03  0.11195480700E+04  0.15777741098E+04  0.12699999809E+01 0.  1.
       -4    1    3    3    0  502 -0.53981548953E+03  0.97189551124E+03 -0.10336892080E+04  0.15180568630E+04  0.12699999809E+01 0. -1.
</event>
<event>
 5   0  0.2226334E-06  0.3107796E+04  0.7818609E-02  0.8213602E-01
       -2   -1    0    0    0  501  0.00000000000E+00  0.00000000000E+00  0.14143915340E+04  0.14143915340E+04  0.25500000920E-02 0. -1.
        2   -1    0    0  501    0  0.00000000000E+00  0.00000000000E+00 -0.17071645851E+04  0.17071645851E+04  0.25500000920E-02 0.  1.
    10030    2    1    2    0    0  0.00000000000E+00  0.00000000000E+00 -0.29277305111E+03  0.31215561191E+04  0.31077960913E+04 0.  0.
        5    1    3    3  502    0  0.82841659307E+03  0.10755081377E+04 -0.90576648882E+03  0.16320008665E+04  0.46999998093E+01 0.  1.
       -5    1    3    3    0  502 -0.82841659307E+03 -0.10755081377E+04  0.61299343771E+03  0.14895552526E+04  0.46999998093E+01 0. -1.
</event>
<event>
 5   0  0.7519202E-07  0.2883300E+04  0.7818609E-02  0.8277864E-01
        1   -1    0    0  501    0  0.00000000000E+00  0.00000000000E+00  0.15597193669E+04  0.15597193669E+04  0.50400001928E-02 0.  1.
       -1   -1    0    0    0  501  0.00000000000E+00  0.00000000000E+00 -0.13325179995E+04  0.13325179995E+04  0.50400001928E-02 0. -1.
    10030    2    1    2    0    0  0.00000000000E+00  0.00000000000E+00  0.22720136739E+03  0.28922373663E+04  0.28832995893E+04 0.  0.
        4    1    3    3  502    0 -0.17850774967E+03 -0.78850289567E+03  0.13109299545E+04  0.15401755717E+04  0.12699999809E+01 0.  1.
       -4    1    3    3    0  502  0.17850774967E+03  0.78850289567E+03 -0.10837285871E+04  0.13520617946E+04  0.12699999809E+01 0. -1.
</event>
<event>
 5   0  0.7726743E-07  0.3106564E+04  0.7818609E-02  0.8213939E-01
       -1   -1    0    0    0  501  0.00000000000E+00  0.00000000000E+00  0.15139075799E+04  0.15139075800E+04  0.50400001928E-02 0. -1.
        1   -1    0    0  501    0  0.00000000000E+00  0.00000000000E+00 -0.15936802706E+04  0.15936802706E+04  0.50400001928E-02 0.  1.
    10030    2    1    2    0    0  0.00000000000E+00  0.00000000000E+00 -0.79772690632E+02  0.31075878505E+04  0.31065637876E+04 0.  0.
        1    1    3    3  502    0  0.84159291603E+03  0.12998576520E+04 -0.16148335665E+03  0.15569153562E+04  0.50400001928E-02 0.  1.
       -1    1    3    3    0  502 -0.84159291603E+03 -0.12998576520E+04  0.81710666016E+02  0.15506724944E+04  0.50400001928E-02 0. -1.
</event>
<event>
 5   0  0.7726743E-07  0.3133810E+04  0.7818609E-02  0.8206520E-01
       -1   -1    0    0    0  501  0.00000000000E+00  0.00000000000E+00  0.11497181043E+04  0.11497181043E+04  0.50400001928E-02 0. -1.
        1   -1    0    0  501    0  0.00000000000E+00  0.00000000000E+00 -0.21354720743E+04  0.21354720743E+04  0.50400001928E-02 0.  1.
    10030    2    1    2    0    0  0.00000000000E+00  0.00000000000E+00 -0.98575397003E+03  0.32851901787E+04  0.31338097614E+04 0.  0.
        1    1    3    3  502    0 -0.71585099650E+03  0.66030199058E+03 -0.17796691864E+04  0.20287098809E+04  0.50400001928E-02 0.  1.
       -1    1    3    3    0  502  0.71585099650E+03 -0.66030199058E+03  0.79391521632E+03  0.12564802978E+04  0.50400001928E-02 0. -1.
</event>
<event>
 5   0  0.7561815E-07  0.3077933E+04  0.7818609E-02  0.8221820E-01
        1   -1    0    0  501    0  0.00000000000E+00  0.00000000000E+00  0.17148457406E+04  0.17148457406E+04  0.50400001928E-02 0.  1.
       -1   -1    0    0    0  501  0.00000000000E+00  0.00000000000E+00 -0.13811256882E+04  0.13811256883E+04  0.50400001928E-02 0. -1.
    10030    2    1    2    0    0  0.00000000000E+00  0.00000000000E+00  0.33372005240E+03  0.30959714289E+04  0.30779327503E+04 0.  0.
        3    1    3    3  502    0  0.12385995832E+04 -0.41283323053E+03  0.98640951127E+03  0.16363263543E+04  0.10100000352E+00 0.  1.
       -3    1    3    3    0  502 -0.12385995832E+04  0.41283323053E+03 -0.65268945887E+03  0.14596450746E+04  0.10100000352E+00 0. -1.
</event>
<event>
 5   0  0.2226334E-06  0.3107968E+04  0.7818609E-02  0.8213555E-01
        2   -1    0    0  501    0  0.00000000000E+00  0.00000000000E+00  0.15114062945E+04  0.15114062945E+04  0.25500000920E-02 0.  1.
       -2   -1    0    0    0  501  0.00000000000E+00  0.00000000000E+00 -0.15977612854E+04  0.15977612854E+04  0.25500000920E-02 0. -1.
    10030    2    1    2    0    0  0.00000000000E+00  0.00000000000E+00 -0.86354990943E+02  0.31091675799E+04  0.31079681233E+04 0.  0.
        5    1    3    3  502    0  0.12482835336E+04 -0.76043109053E+03  0.48464071153E+03  0.15399240023E+04  0.46999998093E+01 0.  1.
       -5    1    3    3    0  502 -0.12482835336E+04  0.76043109053E+03 -0.57099570247E+03  0.15692435776E+04  0.46999998093E+01 0. -1.
</event>
<event>
 5   0  0.2067926E-06  0.3036512E+04  0.7818609E-02  0.8233381E-01
        2   -1    0    0  501    0  0.00000000000E+00  0.00000000000E+00  0.15495439408E+04  0.15495439408E+04  0.25500000920E-02 0. -1.
       -2   -1    0    0    0  501  0.00000000000E+00  0.00000000000E+00 -0.14876002289E+04  0.14876002289E+04  0.25500000920E-02 0.  1.
    10030    2    1    2    0    0  0.00000000000E+00  0.00000000000E+00  0.61943711914E+02  0.30371441696E+04  0.30365124211E+04 0.  0.
        1    1    3    3  502    0 -0.95915326841E+03 -0.10468506726E+04  0.56888538031E+03  0.15295430360E+04  0.50400001928E-02 0.  1.
       -1    1    3    3    0  502  0.95915326841E+03  0.10468506726E+04 -0.50694166840E+03  0.15076011336E+04  0.50400001928E-02 0. -1.
</event>
<event>
 5   0  0.7519202E-07  0.3108338E+04  0.7818609E-02  0.8213453E-01
       -1   -1    0    0    0  501  0.00000000000E+00  0.00000000000E+00  0.10983252543E+04  0.10983252544E+04  0.50400001928E-02 0.  1.
        1   -1    0    0  501    0  0.00000000000E+00  0.00000000000E+00 -0.21992045250E+04  0.21992045250E+04  0.50400001928E-02 0. -1.
    10030    2    1    2    0    0  0.00000000000E+00  0.00000000000E+00 -0.11008792707E+04  0.32975297794E+04  0.31083383789E+04 0.  0.
        4    1    3    3  502    0  0.36583647909E+02  0.31851372192E+03  0.10628616348E+04  0.11101647725E+04  0.12699999809E+01 0.  1.
       -4    1    3    3    0  502 -0.36583647909E+02 -0.31851372192E+03 -0.21637409055E+04  0.21873650069E+04  0.12699999809E+01 0. -1.
</event>
<event>
 5   0  0.7561815E-07  0.3098036E+04  0.7818609E-02  0.8216277E-01
       -1   -1    0    0    0  501  0.00000000000E+00  0.00000000000E+00  0.18827548461E+04  0.18827548461E+04  0.50400001928E-02 0.  1.
        1   -1    0    0  501    0  0.00000000000E+00  0.00000000000E+00 -0.12744389206E+04  0.12744389206E+04  0.50400001928E-02 0. -1.
    10030    2    1    2    0    0  0.00000000000E+00  0.00000000000E+00  0.60831592551E+03  0.31571937667E+04  0.30980355413E+04 0.  0.
        3    1    3    3  502    0  0.33636611922E+03  0.90961280635E+02 -0.12339807624E+04  0.12822342426E+04  0.10100000352E+00 0. -1.
       -3    1    3    3    0  502 -0.33636611922E+03 -0.90961280635E+02  0.18422966879E+04  0.18749595241E+04  0.10100000352E+00 0.  1.
</event>
<event>
 5   0  0.2226334E-06  0.3065163E+04  0.7818609E-02  0.8225364E-01
       -2   -1    0    0    0  501  0.00000000000E+00  0.00000000000E+00  0.73894056881E+03  0.73894056882E+03  0.25500000920E-02 0. -1.
        2   -1    0    0  501    0  0.00000000000E+00  0.00000000000E+00 -0.31786136364E+04  0.31786136364E+04  0.25500000920E-02 0.  1.
    10030    2    1    2    0    0  0.00000000000E+00  0.00000000000E+00 -0.24396730676E+04  0.39175542052E+04  0.30651633356E+04 0.  0.
        5    1    3    3  502    0  0.15628486090E+03  0.21525804310E+03 -0.31488732409E+04  0.31600926822E+04  0.46999998093E+01 0.  1.
       -5    1    3    3    0  502 -0.15628486090E+03 -0.21525804310E+03  0.70920017336E+03  0.75746152296E+03  0.46999998093E+01 0. -1.
</event>
<event>
 5   0  0.7561815E-07  0.3082250E+04  0.7818609E-02  0.8220626E-01
        1   -1    0    0  501    0  0.00000000000E+00  0.00000000000E+00  0.14196528744E+04  0.14196528744E+04  0.50400001928E-02 0. -1.
       -1   -1    0    0    0  501  0.00000000000E+00  0.00000000000E+00 -0.16729903067E+04  0.16729903067E+04  0.50400001928E-02 0.  1.
    10030    2    1    2    0    0  0.00000000000E+00  0.00000000000E+00 -0.25333743229E+03  0.30926431811E+04  0.30822495018E+04 0.  0.
        3    1    3    3  502    0 -0.14468654746E+04 -0.44811763509E+03  0.15860741038E+03  0.15229528677E+04  0.10100000352E+00 0.  1.
       -3    1    3    3    0  502  0.14468654746E+04  0.44811763509E+03 -0.41194484266E+03  0.15696903134E+04  0.10100000352E+00 0. -1.
</event>
<event>
 5   0  0.7561815E-07  0.3100226E+04  0.7818609E-02  0.8215676E-01
       -1   -1    0    0    0  501  0.00000000000E+00  0.00000000000E+00  0.12820143275E+04  0.12820143275E+04  0.50400001928E-02 0.  1.
        1   -1    0    0  501    0  0.00000000000E+00  0.00000000000E+00 -0.18742776143E+04  0.18742776143E+04  0.50400001928E-02 0. -1.
    10030    2    1    2    0    0  0.00000000000E+00  0.00000000000E+00 -0.59226328681E+03  0.31562919417E+04  0.31002262854E+04 0.  0.
        3    1    3    3  502    0  0.59739776017E+03  0.10125265092E+04 -0.13247278024E+04  0.17711571857E+04  0.10100000352E+00 0. -1.
       -3    1    3    3    0  502 -0.59739776017E+03 -0.10125265092E+04  0.73246451562E+03  0.13851347561E+04  0.10100000352E+00 0.  1.
</event>
<event>
 5   0  0.2094135E-06  0.3094687E+04  0.7818609E-02  0.8217198E-01
       -2   -1    0    0    0  501  0.00000000000E+00  0.00000000000E+00  0.15740186984E+04  0.15740186984E+04  0.25500000920E-02 0. -1.
        2   -1    0    0  501    0  0.00000000000E+00  0.00000000000E+00 -0.15211203138E+04  0.15211203138E+04  0.25500000920E-02 0.  1.
    10030    2    1    2    0    0  0.00000000000E+00  0.00000000000E+00  0.52898384627E+02  0.30951390122E+04  0.30946869415E+04 0.  0.
        4    1    3    3  502    0 -0.96480927590E+03  0.42659595779E+03 -0.11057184464E+04  0.15282198617E+04  0.12699999809E+01 0.  1.
       -4    1    3    3    0  502  0.96480927590E+03 -0.42659595779E+03  0.11586168310E+04  0.15669191505E+04  0.12699999809E+01 0. -1.
</event>
<event>
 5   0  0.2133385E-06  0.3095919E+04  0.7818609E-02  0.8216859E-01
       -2   -1    0    0    0  501  0.00000000000E+00  0.00000000000E+00  0.13972878753E+04  0.13972878753E+04  0.25500000920E-02 0. -1.
        2   -1    0    0  501    0  0.00000000000E+00  0.00000000000E+00 -0.17148777685E+04  0.17148777685E+04  0.25500000920E-02 0.  1.
    10030    2    1    2    0    0  0.00000000000E+00  0.00000000000E+00 -0.31758989322E+03  0.31121656438E+04  0.30959185477E+04 0.  0.
        2    1    3    3  502    0 -0.25385880233E+02 -0.13851699605E+04 -0.85295313020E+03  0.16269201900E+04  0.25500000920E-02 0.  1.
       -2    1    3    3    0  502  0.25385880233E+02  0.13851699605E+04  0.53536323698E+03  0.14852454538E+04  0.25500000920E-02 0. -1.
</event>
<event>
 5   0  0.7656332E-07  0.3100623E+04  0.7818609E-02  0.8215567E-01
        1   -1    0    0  501    0  0.00000000000E+00  0.00000000000E+00  0.12854213125E+04  0.12854213125E+04  0.50400001928E-02 0. -1.
       -1   -1    0    0    0  501  0.00000000000E+00  0.00000000000E+00 -0.18697883546E+04  0.18697883546E+04  0.50400001928E-02 0.  1.
    10030    2    1    2    0    0  0.00000000000E+00  0.00000000000E+00 -0.58436704214E+03  0.31552096671E+04  0.31006230347E+04 0.  0.
        2    1    3    3  502    0  0.45841375921E+03 -0.68269626102E+03  0.10452021306E+04  0.13299115960E+04  0.25500000920E-02 0. -1.
       -2    1    3    3    0  502 -0.45841375921E+03  0.68269626102E+03 -0.16295691727E+04  0.18252980711E+04  0.25500000920E-02 0.  1.
</event>
<event>
 5   0  0.2133385E-06  0.3124223E+04  0.7818609E-02  0.8209121E-01
       -2   -1    0    0    0  501  0.00000000000E+00  0.00000000000E+00  0.19558904269E+04  0.19558904269E+04  0.25500000920E-02 0. -1.
        2   -1    0    0  501    0  0.00000000000E+00  0.00000000000E+00 -0.12476122973E+04  0.12476122973E+04  0.25500000920E-02 0.  1.
    10030    2    1    2    0    0  0.00000000000E+00  0.00000000000E+00  0.70827812955E+03  0.32035027242E+04  0.31242233907E+04 0.  0.
        2    1    3    3  502    0 -0.19461271571E+03  0.89326217335E+03  0.16529309057E+04  0.18889076204E+04  0.25500000920E-02 0. -1.
       -2    1    3    3    0  502  0.19461271571E+03 -0.89326217335E+03 -0.94465277612E+03  0.13145951038E+04  0.25500000920E-02 0.  1.
</event>
<event>
 5   0  0.7656332E-07  0.3160101E+04  0.7818609E-02  0.8199435E-01
        1   -1    0    0  501    0  0.00000000000E+00  0.00000000000E+00  0.10324626812E+04  0.10324626812E+04  0.50400001928E-02 0.  1.
       -1   -1    0    0    0  501  0.00000000000E+00  0.00000000000E+00 -0.24180621245E+04  0.24180621245E+04  0.50400001928E-02 0. -1.
    10030    2    1    2    0    0  0.00000000000E+00  0.00000000000E+00 -0.13855994434E+04  0.34505248057E+04  0.31601005708E+04 0.  0.
        2    1    3    3  502    0 -0.17108504761E+03 -0.95568327387E+03 -0.20539432685E+04  0.22718458494E+04  0.25500000920E-02 0. -1.
       -2    1    3    3    0  502  0.17108504761E+03  0.95568327387E+03  0.66834382509E+03  0.11786789563E+04  0.25500000920E-02 0.  1.
</event>
<event>
 5   0  0.6979625E-07  0.3014698E+04  0.7818609E-02  0.8239546E-01
       -3   -1    0    0    0  501  0.00000000000E+00  0.00000000000E+00  0.16458142132E+04  0.16458142163E+04  0.10100000352E+00 0.  1.
        3   -1    0    0  501    0  0.00000000000E+00  0.00000000000E+00 -0.13805326874E+04  0.13805326911E+04  0.10100000352E+00 0. -1.
    10030    2    1    2    0    0  0.00000000000E+00  0.00000000000E+00  0.26528152572E+03  0.30263469074E+04  0.30146975497E+04 0.  0.
        5    1    3    3  502    0  0.68707226031E+03  0.73592037050E+03  0.12587737817E+04  0.16118872808E+04  0.46999998093E+01 0.  1.
       -5    1    3    3    0  502 -0.68707226031E+03 -0.73592037050E+03 -0.99349225595E+03  0.14144596266E+04  0.46999998093E+01 0. -1.
</event>
<event>
 5   0  0.7726743E-07  0.3098208E+04  0.7818609E-02  0.8216230E-01
       -1   -1    0    0    0  501  0.00000000000E+00  0.00000000000E+00  0.17755469184E+04  0.17755469184E+04  0.50400001928E-02 0. -1.
        1   -1    0    0  501    0  0.00000000000E+00  0.00000000000E+00 -0.13515402104E+04  0.13515402104E+04  0.50400001928E-02 0.  1.
    10030    2    1    2    0    0  0.00000000000E+00  0.00000000000E+00  0.42400670800E+03  0.31270871288E+04  0.30982079050E+04 0.  0.
        1    1    3    3  502    0 -0.40517660374E+03 -0.14764814640E+03 -0.12897347551E+04  0.13599205102E+04  0.50400001928E-02 0.  1.
       -1    1    3    3    0  502  0.40517660374E+03  0.14764814640E+03  0.17137414631E+04  0.17671666186E+04  0.50400001928E-02 0. -1.
</event>
<event>
 5   0  0.2133385E-06  0.3099870E+04  0.7818609E-02  0.8215774E-01
       -2   -1    0    0    0  501  0.00000000000E+00  0.00000000000E+00  0.11470792034E+04  0.11470792034E+04  0.25500000920E-02 0. -1.
        2   -1    0    0  501    0  0.00000000000E+00  0.00000000000E+00 -0.20942736347E+04  0.20942736347E+04  0.25500000920E-02 0.  1.
    10030    2    1    2    0    0  0.00000000000E+00  0.00000000000E+00 -0.94719443135E+03  0.32413528381E+04  0.30998695021E+04 0.  0.
        2    1    3    3  502    0  0.36212204659E+03 -0.75340575925E+02  0.11002547873E+04  0.11607623253E+04  0.25500000920E-02 0. -1.
       -2    1    3    3    0  502 -0.36212204659E+03  0.75340575925E+02 -0.20474492186E+04  0.20805905128E+04  0.25500000920E-02 0.  1.
</event>
<event>
 5   0  0.2094135E-06  0.3097104E+04  0.7818609E-02  0.8216533E-01
        2   -1    0    0  501    0  0.00000000000E+00  0.00000000000E+00  0.16713061706E+04  0.16713061706E+04  0.25500000920E-02 0.  1.
       -2   -1    0    0    0  501  0.00000000000E+00  0.00000000000E+00 -0.14348140046E+04  0.14348140046E+04  0.25500000920E-02 0. -1.
    10030    2    1    2    0    0  0.00000000000E+00  0.00000000000E+00  0.23649216603E+03  0.31061201752E+04  0.30971041310E+04 0.  0.
        4    1    3    3  502    0 -0.30262689031E+01 -0.44650528309E+03  0.16053423750E+04  0.16662838534E+04  0.12699999809E+01 0.  1.
       -4    1    3    3    0  502  0.30262689031E+01  0.44650528309E+03 -0.13688502090E+04  0.14398363218E+04  0.12699999809E+01 0. -1.
</event>
<event>
 5   0  0.2067926E-06  0.3116172E+04  0.7818609E-02  0.8211314E-01
       -2   -1    0    0    0  501  0.00000000000E+00  0.00000000000E+00  0.11092994071E+04  0.11092994071E+04  0.25500000920E-02 0. -1.
        2   -1    0    0  501    0  0.00000000000E+00  0.00000000000E+00 -0.21884365693E+04  0.21884365693E+04  0.25500000920E-02 0.  1.
    10030    2    1    2    0    0  0.00000000000E+00  0.00000000000E+00 -0.10791371621E+04  0.32977359764E+04  0.31161716184E+04 0.  0.
        1    1    3    3  502    0  0.12334584916E+04 -0.54051088117E+01  0.46783225620E+03  0.13192104024E+04  0.50400001928E-02 0. -1.
       -1    1    3    3    0  502 -0.12334584916E+04  0.54051088117E+01 -0.15469694183E+04  0.19785255740E+04  0.50400001928E-02 0.  1.
</event>
<event>
 5   0  0.2067926E-06  0.3074478E+04  0.7818609E-02  0.8222777E-01
       -2   -1    0    0    0  501  0.00000000000E+00  0.00000000000E+00  0.19049783968E+04  0.19049783968E+04  0.25500000920E-02 0.  1.
        2   -1    0    0  501    0  0.00000000000E+00  0.00000000000E+00 -0.12404885748E+04  0.12404885748E+04  0.25500000920E-02 0. -1.
    10030    2    1    2    0    0  0.00000000000E+00  0.00000000000E+00  0.66448982194E+03  0.31454669716E+04  0.30744781258E+04 0.  0.
        1    1    3    3  502    0 -0.68742422892E+03 -0.95862752104E+03  0.13406944091E+04  0.17857716240E+04  0.50400001928E-02 0.  1.
       -1    1    3    3    0  502  0.68742422892E+03  0.95862752104E+03 -0.67620458711E+03  0.13596953476E+04  0.50400001928E-02 0. -1.
</event>
<event>
 5   0  0.7656332E-07  0.3091505E+04  0.7818609E-02  0.8218073E-01
       -1   -1    0    0    0  501  0.00000000000E+00  0.00000000000E+00  0.28239989827E+04  0.28239989827E+04  0.50400001928E-02 0.  1.
        1   -1    0    0  501    0  0.00000000000E+00  0.00000000000E+00 -0.84608764473E+03  0.84608764474E+03  0.50400001928E-02 0. -1.
    10030    2    1    2    0    0  0.00000000000E+00  0.00000000000E+00  0.19779113379E+04  0.36700866274E+04  0.30915049073E+04 0.  0.
        2    1    3    3  502    0  0.13329506139E+04 -0.21139729405E+03  0.18835868430E+04  0.23171848330E+04  0.25500000920E-02 0.  1.
       -2    1    3    3    0  502 -0.13329506139E+04  0.21139729405E+03  0.94324494896E+02  0.13529017944E+04  0.25500000920E-02 0. -1.
</event>
<event>
 5   0  0.6979625E-07  0.3052646E+04  0.7818609E-02  0.8228855E-01
        4   -1    0    0  501    0  0.00000000000E+00  0.00000000000E+00  0.14110916901E+04  0.14110922616E+04  0.12699999809E+01 0.  1.
       -4   -1    0    0    0  501  0.00000000000E+00  0.00000000000E+00 -0.16509627007E+04  0.16509631891E+04  0.12699999809E+01 0. -1.
    10030    2    1    2    0    0  0.00000000000E+00  0.00000000000E+00 -0.23987101059E+03  0.30620554507E+04  0.30526456528E+04 0.  0.
        2    1    3    3  502    0 -0.18273195402E+03 -0.35203894345E+03  0.13584934318E+04  0.14152126303E+04  0.25500000920E-02 0.  1.
       -2    1    3    3    0  502  0.18273195402E+03  0.35203894345E+03 -0.15983644424E+04  0.16468428205E+04  0.25500000920E-02 0. -1.
</event>
<event>
 5   0  0.2067926E-06  0.3094744E+04  0.7818609E-02  0.8217182E-01
        2   -1    0    0  501    0  0.00000000000E+00  0.00000000000E+00  0.19414427425E+04  0.19414427425E+04  0.25500000920E-02 0.  1.
       -2   -1    0    0    0  501  0.00000000000E+00  0.00000000000E+00 -0.12332887022E+04  0.12332887022E+04  0.25500000920E-02 0. -1.
    10030    2    1    2    0    0  0.00000000000E+00  0.00000000000E+00  0.70815404026E+03  0.31747314447E+04  0.30947435437E+04 0.  0.
        1    1    3    3  502    0 -0.99596790603E+03  0.71748192867E+03  0.13205675059E+04  0.18029506165E+04  0.50400001928E-02 0.  1.
       -1    1    3    3    0  502  0.99596790603E+03 -0.71748192867E+03 -0.61241346564E+03  0.13717808282E+04  0.50400001928E-02 0. -1.
</event>
<event>
 5   0  0.2226334E-06  0.3094473E+04  0.7818609E-02  0.8217256E-01
       -2   -1    0    0    0  501  0.00000000000E+00  0.00000000000E+00  0.19730211164E+04  0.19730211164E+04  0.25500000920E-02 0.  1.
        2   -1    0    0  501    0  0.00000000000E+00  0.00000000000E+00 -0.12133374071E+04  0.12133374071E+04  0.25500000920E-02 0. -1.
    10030    2    1    2    0    0  0.00000000000E+00  0.00000000000E+00  0.75968370931E+03  0.31863585234E+04  0.30944727017E+04 0.  0.
        5    1    3    3  502    0  0.10725608033E+04 -0.81812273381E+03  0.11601068639E+04  0.17792081132E+04  0.46999998093E+01 0.  1.
       -5    1    3    3    0  502 -0.10725608033E+04  0.81812273381E+03 -0.40042315460E+03  0.14071504102E+04  0.46999998093E+01 0. -1.
</event>
<event>
 5   0  0.2094135E-06  0.3122558E+04  0.7818609E-02  0.8209574E-01
        2   -1    0    0  501    0  0.00000000000E+00  0.00000000000E+00  0.12603114443E+04  0.12603114443E+04  0.25500000920E-02 0. -1.
       -2   -1    0    0    0  501  0.00000000000E+00  0.00000000000E+00 -0.19341186161E+04  0.19341186161E+04  0.25500000920E-02 0.  1.
    10030    2    1    2    0    0  0.00000000000E+00  0.00000000000E+00 -0.67380717178E+03  0.31944300604E+04  0.31225578147E+04 0.  0.
        4    1    3    3  502    0 -0.13586381780E+02  0.14737843975E+04  0.19008942871E+03  0.14860553973E+04  0.12699999809E+01 0.  1.
       -4    1    3    3    0  502  0.13586381780E+02 -0.14737843975E+04 -0.86389660049E+03  0.17083746630E+04  0.12699999809E+01 0. -1.
</event>
<event>
 5   0  0.7726743E-07  0.3084651E+04  0.7818609E-02  0.8219963E-01
        1   -1    0    0  501    0  0.00000000000E+00  0.00000000000E+00  0.21190240204E+04  0.21190240204E+04  0.50400001928E-02 0.  1.
       -1   -1    0    0    0  501  0.00000000000E+00  0.00000000000E+00 -0.11225773483E+04  0.11225773484E+04  0.50400001928E-02 0. -1.
    10030    2    1    2    0    0  0.00000000000E+00  0.00000000000E+00  0.99644667203E+03  0.32416013687E+04  0.30846512710E+04 0.  0.
        1    1    3    3  502    0  0.13906031972E+04 -0.63273169146E+03  0.27618702900E+03  0.15525482023E+04  0.50400001928E-02 0. -1.
       -1    1    3    3    0  502 -0.13906031972E+04  0.63273169146E+03  0.72025964303E+03  0.16890531664E+04  0.50400001928E-02 0.  1.
</event>
<event>
 5   0  0.2078009E-06  0.3098268E+04  0.7818609E-02  0.8216213E-01
        2   -1    0    0  501    0  0.00000000000E+00  0.00000000000E+00  0.17410116134E+04  0.17410116134E+04  0.25500000920E-02 0. -1.
       -2   -1    0    0    0  501  0.00000000000E+00  0.00000000000E+00 -0.13784036939E+04  0.13784036939E+04  0.25500000920E-02 0.  1.
    10030    2    1    2    0    0  0.00000000000E+00  0.00000000000E+00  0.36260791943E+03  0.31194153073E+04  0.30982684448E+04 0.  0.
        3    1    3    3  502    0 -0.10165042974E+04  0.11688321516E+04  0.20059835659E+03  0.15619504781E+04  0.10100000352E+00 0. -1.
       -3    1    3    3    0  502  0.10165042974E+04 -0.11688321516E+04  0.16200956285E+03  0.15574648291E+04  0.10100000352E+00 0.  1.
</event>
<event>
 5   0  0.2067926E-06  0.3129348E+04  0.7818609E-02  0.8207729E-01
        2   -1    0    0  501    0  0.00000000000E+00  0.00000000000E+00  0.20616599581E+04  0.20616599581E+04  0.25500000920E-02 0. -1.
       -2   -1    0    0    0  501  0.00000000000E+00  0.00000000000E+00 -0.11874919431E+04  0.11874919431E+04  0.25500000920E-02 0.  1.
    10030    2    1    2    0    0  0.00000000000E+00  0.00000000000E+00  0.87416801508E+03  0.32491519012E+04  0.31293479127E+04 0.  0.
        1    1    3    3  502    0  0.77760871424E+03  0.15510345880E+03  0.18376025962E+04  0.20013784492E+04  0.50400001928E-02 0. -1.
       -1    1    3    3    0  502 -0.77760871424E+03 -0.15510345880E+03 -0.96343458112E+03  0.12477734520E+04  0.50400001928E-02 0.  1.
</event>
<event>
 5   0  0.7519202E-07  0.2997095E+04  0.7818609E-02  0.8244561E-01
        1   -1    0    0  501    0  0.00000000000E+00  0.00000000000E+00  0.88272674231E+03  0.88272674233E+03  0.50400001928E-02 0.  1.
       -1   -1    0    0    0  501  0.00000000000E+00  0.00000000000E+00 -0.25439867655E+04  0.25439867655E+04  0.50400001928E-02 0. -1.
    10030    2    1    2    0    0  0.00000000000E+00  0.00000000000E+00 -0.16612600232E+04  0.34267135078E+04  0.29970953605E+04 0.  0.
        4    1    3    3  502    0  0.98802344938E+03  0.10882708838E+04 -0.49705597800E+03  0.15516411026E+04  0.12699999809E+01 0.  1.
       -4    1    3    3    0  502 -0.98802344938E+03 -0.10882708838E+04 -0.11642040452E+04  0.18750724052E+04  0.12699999809E+01 0. -1.
</event>
<event>
 5   0  0.2078009E-06  0.3102584E+04  0.7818609E-02  0.8215029E-01
        2   -1    0    0  501    0  0.00000000000E+00  0.00000000000E+00  0.19391928222E+04  0.19391928223E+04  0.25500000920E-02 0. -1.
       -2   -1    0    0    0  501  0.00000000000E+00  0.00000000000E+00 -0.12409840496E+04  0.12409840496E+04  0.25500000920E-02 0.  1.
    10030    2    1    2    0    0  0.00000000000E+00  0.00000000000E+00  0.69820877270E+03  0.31801768718E+04  0.31025843173E+04 0.  0.
        3    1    3    3  502    0  0.67089086828E+03 -0.28993564344E+03  0.17516636241E+04  0.18980207313E+04  0.10100000352E+00 0. -1.
       -3    1    3    3    0  502 -0.67089086828E+03  0.28993564344E+03 -0.10534548514E+04  0.12821561405E+04  0.10100000352E+00 0.  1.
</event>
<event>
 5   0  0.2067926E-06  0.3109760E+04  0.7818609E-02  0.8213065E-01
       -2   -1    0    0    0  501  0.00000000000E+00  0.00000000000E+00  0.13471555027E+04  0.13471555027E+04  0.25500000920E-02 0.  1.
        2   -1    0    0  501    0  0.00000000000E+00  0.00000000000E+00 -0.17946342618E+04  0.17946342618E+04  0.25500000920E-02 0. -1.
    10030    2    1    2    0    0  0.00000000000E+00  0.00000000000E+00 -0.44747875918E+03  0.31417897645E+04  0.31097597471E+04 0.  0.
        1    1    3    3  502    0 -0.15299572196E+04  0.27630062646E+03 -0.24722295483E+03  0.15742396004E+04  0.50400001928E-02 0. -1.
       -1    1    3    3    0  502  0.15299572196E+04 -0.27630062646E+03 -0.20025580435E+03  0.15675501642E+04  0.50400001928E-02 0.  1.
</event>
<event>
 5   0  0.7656332E-07  0.3138456E+04  0.7818609E-02  0.8205263E-01
       -1   -1    0    0    0  501  0.00000000000E+00  0.00000000000E+00  0.11680343062E+04  0.11680343062E+04  0.50400001928E-02 0.  1.
        1   -1    0    0  501    0  0.00000000000E+00  0.00000000000E+00 -0.21082222009E+04  0.21082222009E+04  0.50400001928E-02 0. -1.
    10030    2    1    2    0    0  0.00000000000E+00  0.00000000000E+00 -0.94018789470E+03  0.32762565071E+04  0.31384555793E+04 0.  0.
        2    1    3    3  502    0  0.11268429814E+04 -0.28234387435E+03 -0.15713951535E+04  0.19541688506E+04  0.25500000920E-02 0. -1.
       -2    1    3    3    0  502 -0.11268429814E+04  0.28234387435E+03  0.63120725880E+03  0.13220876566E+04  0.25500000920E-02 0.  1.
</event>
<event>
 5   0  0.2226334E-06  0.3105553E+04  0.7818609E-02  0.8214215E-01
       -2   -1    0    0    0  501  0.00000000000E+00  0.00000000000E+00  0.18924202406E+04  0.18924202406E+04  0.25500000920E-02 0. -1.
        2   -1    0    0  501    0  0.00000000000E+00  0.00000000000E+00 -0.12740909783E+04  0.12740909784E+04  0.25500000920E-02 0.  1.
    10030    2    1    2    0    0  0.00000000000E+00  0.00000000000E+00  0.61832926222E+03  0.31665112189E+04  0.31055534488E+04 0.  0.
        5    1    3    3  502    0  0.41409869077E+03 -0.60164762353E+03 -0.10880004098E+04  0.13104291550E+04  0.46999998093E+01 0.  1.
       -5    1    3    3    0  502 -0.41409869077E+03  0.60164762353E+03  0.17063296720E+04  0.18560820639E+04  0.46999998093E+01 0. -1.
</event>
<event>
 5   0  0.7726743E-07  0.3134583E+04  0.7818609E-02  0.8206311E-01
       -1   -1    0    0    0  501  0.00000000000E+00  0.00000000000E+00  0.10919126522E+04  0.10919126522E+04  0.50400001928E-02 0. -1.
        1   -1    0    0  501    0  0.00000000000E+00  0.00000000000E+00 -0.22496325241E+04  0.22496325241E+04  0.50400001928E-02 0.  1.
    10030    2    1    2    0    0  0.00000000000E+00  0.00000000000E+00 -0.11577198719E+04  0.33415451763E+04  0.31345827256E+04 0.  0.
        1    1    3    3  502    0 -0.53007285897E+03 -0.14711134690E+04 -0.69192972759E+03  0.17099470233E+04  0.50400001928E-02 0.  1.
       -1    1    3    3    0  502  0.53007285897E+03  0.14711134690E+04 -0.46579014431E+03  0.16315981530E+04  0.50400001928E-02 0. -1.
</event>
<event>
 5   0  0.2067926E-06  0.3096398E+04  0.7818609E-02  0.8216727E-01
       -2   -1    0    0    0  501  0.00000000000E+00  0.00000000000E+00  0.15689697332E+04  0.15689697332E+04  0.25500000920E-02 0. -1.
        2   -1    0    0  501    0  0.00000000000E+00  0.00000000000E+00 -0.15277033141E+04  0.15277033141E+04  0.25500000920E-02 0.  1.
    10030    2    1    2    0    0  0.00000000000E+00  0.00000000000E+00  0.41266419108E+02  0.30966730473E+04  0.30963980759E+04 0.  0.
        1    1    3    3  502    0  0.25135850877E+03  0.44956848561E+02 -0.15064988055E+04  0.15279858864E+04  0.50400001928E-02 0.  1.
       -1    1    3    3    0  502 -0.25135850877E+03 -0.44956848561E+02  0.15477652246E+04  0.15686871609E+04  0.50400001928E-02 0. -1.
</event>
<event>
 5   0  0.2133385E-06  0.2936242E+04  0.7818609E-02  0.8262175E-01
       -2   -1    0    0    0  501  0.00000000000E+00  0.00000000000E+00  0.94422383432E+03  0.94422383432E+03  0.25500000920E-02 0. -1.
        2   -1    0    0  501    0  0.00000000000E+00  0.00000000000E+00 -0.22826989564E+04  0.22826989564E+04  0.25500000920E-02 0.  1.
    10030    2    1    2    0    0  0.00000000000E+00  0.00000000000E+00 -0.13384751221E+04  0.32269227907E+04  0.29362416530E+04 0.  0.
        2    1    3    3  502    0 -0.27758698866E+03  0.13868525659E+04 -0.23661172878E+03  0.14340152322E+04  0.25500000920E-02 0.  1.
       -2    1    3    3    0  502  0.27758698866E+03 -0.13868525659E+04 -0.11018633933E+04  0.17929075585E+04  0.25500000920E-02 0. -1.
</event>
<event>
 5   0  0.7413481E-07  0.3120201E+04  0.7818609E-02  0.8210216E-01
       -1   -1    0    0    0  501  0.00000000000E+00  0.00000000000E+00  0.12775941431E+04  0.12775941431E+04  0.50400001928E-02 0. -1.
        1   -1    0    0  501    0  0.00000000000E+00  0.00000000000E+00 -0.19050754297E+04  0.19050754297E+04  0.50400001928E-02 0.  1.
    10030    2    1    2    0    0  0.00000000000E+00  0.00000000000E+00 -0.62748128655E+03  0.31826695728E+04  0.31202007699E+04 0.  0.
        5    1    3    3  502    0  0.17715034479E+03  0.74590533951E+03  0.10721872476E+04  0.13180912730E+04  0.46999998093E+01 0. -1.
       -5    1    3    3    0  502 -0.17715034479E+03 -0.74590533951E+03 -0.16996685341E+04  0.18645782998E+04  0.46999998093E+01 0.  1.
</event>
<event>
 5   0  0.7561815E-07  0.3090072E+04  0.7818609E-02  0.8218468E-01
       -1   -1    0    0    0  501  0.00000000000E+00  0.00000000000E+00  0.11301757043E+04  0.11301757043E+04  0.50400001928E-02 0.  1.
        1   -1    0    0  501    0  0.00000000000E+00  0.00000000000E+00 -0.21121813184E+04  0.21121813184E+04  0.50400001928E-02 0. -1.
    10030    2    1    2    0    0  0.00000000000E+00  0.00000000000E+00 -0.98200561406E+03  0.32423570227E+04  0.30900718498E+04 0.  0.
        3    1    3    3  502    0 -0.10061665256E+04 -0.96105252974E+03 -0.11957759524E+04  0.18346316199E+04  0.10100000352E+00 0. -1.
       -3    1    3    3    0  502  0.10061665256E+04  0.96105252974E+03  0.21377033834E+03  0.14077254029E+04  0.10100000352E+00 0.  1.
</event>
<event>
 5   0  0.2067926E-06  0.3081739E+04  0.7818609E-02  0.8220768E-01
        2   -1    0    0  501    0  0.00000000000E+00  0.00000000000E+00  0.30432818093E+04  0.30432818093E+04  0.25500000920E-02 0.  1.
       -2   -1    0    0    0  501  0.00000000000E+00  0.00000000000E+00 -0.78017033806E+03  0.78017033806E+03  0.25500000920E-02 0. -1.
    10030    2    1    2    0    0  0.00000000000E+00  0.00000000000E+00  0.22631114713E+04  0.38234521474E+04  0.30817385989E+04 0.  0.
        1    1    3    3  502    0  0.55069769952E+03  0.11829612168E+04  0.21483179741E+04  0.25135503405E+04  0.50400001928E-02 0.  1.
       -1    1    3    3    0  502 -0.55069769952E+03 -0.11829612168E+04  0.11479349719E+03  0.13099018069E+04  0.50400001928E-02 0. -1.
</event>
<event>
 5   0  0.2226334E-06  0.3078376E+04  0.7818609E-02  0.8221697E-01
        2   -1    0    0  501    0  0.00000000000E+00  0.00000000000E+00  0.28356866413E+04  0.28356866413E+04  0.25500000920E-02 0.  1.
       -2   -1    0    0    0  501  0.00000000000E+00  0.00000000000E+00 -0.83545918942E+03  0.83545918942E+03  0.25500000920E-02 0. -1.
    10030    2    1    2    0    0  0.00000000000E+00  0.00000000000E+00  0.20002274519E+04  0.36711458307E+04  0.30783764960E+04 0.  0.
        5    1    3    3  502    0  0.53249546142E+03 -0.96997353020E+03  0.22760283887E+04  0.25307562865E+04  0.46999998093E+01 0.  1.
       -5    1    3    3    0  502 -0.53249546142E+03  0.96997353020E+03 -0.27580093682E+03  0.11403895442E+04  0.46999998093E+01 0. -1.
</event>
<event>
 5   0  0.7413481E-07  0.3093117E+04  0.7818609E-02  0.8217629E-01
       -1   -1    0    0    0  501  0.00000000000E+00  0.00000000000E+00  0.16565366229E+04  0.16565366229E+04  0.50400001928E-02 0.  1.
        1   -1    0    0  501    0  0.00000000000E+00  0.00000000000E+00 -0.14438818581E+04  0.14438818582E+04  0.50400001928E-02 0. -1.
    10030    2    1    2    0    0  0.00000000000E+00  0.00000000000E+00  0.21265476474E+03  0.31004184810E+04  0.30931169892E+04 0.  0.
        5    1    3    3  502    0  0.41145255920E+02 -0.15050283369E+04  0.46074067405E+03  0.15745181123E+04  0.46999998093E+01 0.  1.
       -5    1    3    3    0  502 -0.41145255920E+02  0.15050283369E+04 -0.24808590932E+03  0.15259003688E+04  0.46999998093E+01 0. -1.
</event>
<event>
 5   0  0.2067926E-06  0.3085021E+04  0.7818609E-02  0.8219861E-01
        2   -1    0    0  501    0  0.00000000000E+00  0.00000000000E+00  0.17500631663E+04  0.17500631663E+04  0.25500000920E-02 0. -1.
       -2   -1    0    0    0  501  0.00000000000E+00  0.00000000000E+00 -0.13595733535E+04  0.13595733535E+04  0.25500000920E-02 0.  1.
    10030    2    1    2    0    0  0.00000000000E+00  0.00000000000E+00  0.39048981282E+03  0.31096365198E+04  0.30850213923E+04 0.  0.
        1    1    3    3  502    0 -0.10052744646E+04 -0.14407781120E+03  0.13655444939E+04  0.17017775794E+04  0.50400001928E-02 0. -1.
       -1    1    3    3    0  502  0.10052744646E+04  0.14407781120E+03 -0.97505468109E+03  0.14078589404E+04  0.50400001928E-02 0.  1.
</event>
<event>
 5   0  0.7726743E-07  0.3108660E+04  0.7818609E-02  0.8213365E-01
       -1   -1    0    0    0  501  0.00000000000E+00  0.00000000000E+00  0.10350339577E+04  0.10350339577E+04  0.50400001928E-02 0.  1.
        1   -1    0    0  501    0  0.00000000000E+00  0.00000000000E+00 -0.23341667100E+04  0.23341667100E+04  0.50400001928E-02 0. -1.
    10030    2    1    2    0    0  0.00000000000E+00  0.00000000000E+00 -0.12991327523E+04  0.33692006678E+04  0.31086600380E+04 0.  0.
        1    1    3    3  502    0 -0.59801402513E+03 -0.11067642913E+04  0.33984930693E+03  0.13030907575E+04  0.50400001928E-02 0.  1.
       -1    1    3    3    0  502  0.59801402513E+03  0.11067642913E+04 -0.16389820592E+04  0.20661099103E+04  0.50400001928E-02 0. -1.
</event>
<event>
 5   0  0.2078009E-06  0.3108111E+04  0.7818609E-02  0.8213516E-01
        2   -1    0    0  501    0  0.00000000000E+00  0.00000000000E+00  0.15260352636E+04  0.15260352636E+04  0.25500000920E-02 0. -1.
       -2   -1    0    0    0  501  0.00000000000E+00  0.00000000000E+00 -0.15825899500E+04  0.15825899500E+04  0.25500000920E-02 0.  1.
    10030    2    1    2    0    0  0.00000000000E+00  0.00000000000E+00 -0.56554686424E+02  0.31086252136E+04  0.31081107262E+04 0.  0.
        3    1    3    3  502    0 -0.16532699541E+02 -0.80082053987E+03 -0.13602264339E+04  0.15785445286E+04  0.10100000352E+00 0.  1.
       -3    1    3    3    0  502  0.16532699541E+02  0.80082053987E+03  0.13036717475E+04  0.15300806850E+04  0.10100000352E+00 0. -1.
</event>
<event>
 5   0  0.2094135E-06  0.3101158E+04  0.7818609E-02  0.8215420E-01
        2   -1    0    0  501    0  0.00000000000E+00  0.00000000000E+00  0.15781501680E+04  0.15781501680E+04  0.25500000920E-02 0.  1.
       -2   -1    0    0    0  501  0.00000000000E+00  0.00000000000E+00 -0.15234896775E+04  0.15234896775E+04  0.25500000920E-02 0. -1.
    10030    2    1    2    0    0  0.00000000000E+00  0.00000000000E+00  0.54660490471E+02  0.31016398455E+04  0.31011581646E+04 0.  0.
        4    1    3    3  502    0 -0.25446825348E+02  0.24079017262E+03  0.15591249957E+04  0.15778148856E+04  0.12699999809E+01 0.  1.
       -4    1    3    3    0  502  0.25446825348E+02 -0.24079017262E+03 -0.15044645052E+04  0.15238249599E+04  0.12699999809E+01 0. -1.
</event>
<event>
 5   0  0.2133385E-06  0.3126862E+04  0.7818609E-02  0.8208404E-01
        2   -1    0    0  501    0  0.00000000000E+00  0.00000000000E+00  0.26896394495E+04  0.26896394495E+04  0.25500000920E-02 0. -1.
       -2   -1    0    0    0  501  0.00000000000E+00  0.00000000000E+00 -0.90878983019E+03  0.90878983020E+03  0.25500000920E-02 0.  1.
    10030    2    1    2    0    0  0.00000000000E+00  0.00000000000E+00  0.17808496193E+04  0.35984292797E+04  0.31268623114E+04 0.  0.
        2    1    3    3  502    0 -0.72068177986E+03  0.51822114318E+03 -0.59067529422E+03  0.10662235620E+04  0.25500000920E-02 0.  1.
       -2    1    3    3    0  502  0.72068177986E+03 -0.51822114318E+03  0.23715249136E+04  0.25322057177E+04  0.25500000920E-02 0. -1.
</event>
<event>
 5   0  0.2133385E-06  0.3129831E+04  0.7818609E-02  0.8207598E-01
        2   -1    0    0  501    0  0.00000000000E+00  0.00000000000E+00  0.20990449176E+04  0.20990449176E+04  0.25500000920E-02 0.  1.
       -2   -1    0    0    0  501  0.00000000000E+00  0.00000000000E+00 -0.11667022526E+04  0.11667022526E+04  0.25500000920E-02 0. -1.
    10030    2    1    2    0    0  0.00000000000E+00  0.00000000000E+00  0.93234266494E+03  0.32657471702E+04  0.31298309435E+04 0.  0.
        2    1    3    3  502    0  0.14273265346E+04  0.57947818164E+03  0.75364313564E+03  0.17149443068E+04  0.25500000920E-02 0. -1.
       -2    1    3    3    0  502 -0.14273265346E+04 -0.57947818164E+03  0.17869952930E+03  0.15508028634E+04  0.25500000920E-02 0.  1.
</event>
<event>
 5   0  0.2067926E-06  0.3061594E+04  0.7818609E-02  0.8226358E-01
        2   -1    0    0  501    0  0.00000000000E+00  0.00000000000E+00  0.10479113588E+04  0.10479113588E+04  0.25500000920E-02 0. -1.
       -2   -1    0    0    0  501  0.00000000000E+00  0.00000000000E+00 -0.22362006601E+04  0.22362006601E+04  0.25500000920E-02 0.  1.
    10030    2    1    2    0    0  0.00000000000E+00  0.00000000000E+00 -0.11882893013E+04  0.32841120189E+04  0.30615944031E+04 0.  0.
        1    1    3    3  502    0  0.80157736808E+03 -0.13141373310E+03 -0.19859630446E+04  0.21456572561E+04  0.50400001928E-02 0.  1.
       -1    1    3    3    0  502 -0.80157736808E+03  0.13141373310E+03  0.79767374325E+03  0.11384547628E+04  0.50400001928E-02 0. -1.
</event>
<event>
 5   0  0.7413481E-07  0.3084639E+04  0.7818609E-02  0.8219966E-01
       -1   -1    0    0    0  501  0.00000000000E+00  0.00000000000E+00  0.15712583637E+04  0.15712583637E+04  0.50400001928E-02 0.  1.
        1   -1    0    0  501    0  0.00000000000E+00  0.00000000000E+00 -0.15139137674E+04  0.15139137674E+04  0.50400001928E-02 0. -1.
    10030    2    1    2    0    0  0.00000000000E+00  0.00000000000E+00  0.57344596264E+02  0.30851721311E+04  0.30846391484E+04 0.  0.
        5    1    3    3  502    0 -0.16660890355E+03 -0.97187268890E+03 -0.11574636952E+04  0.15205391629E+04  0.46999998093E+01 0. -1.
       -5    1    3    3    0  502  0.16660890355E+03  0.97187268890E+03  0.12148082915E+04  0.15646329682E+04  0.46999998093E+01 0.  1.
</event>
<event>
 5   0  0.7726743E-07  0.3080454E+04  0.7818609E-02  0.8221123E-01
        1   -1    0    0  501    0  0.00000000000E+00  0.00000000000E+00  0.16766062345E+04  0.16766062345E+04  0.50400001928E-02 0. -1.
       -1   -1    0    0    0  501  0.00000000000E+00  0.00000000000E+00 -0.14149410960E+04  0.14149410960E+04  0.50400001928E-02 0.  1.
    10030    2    1    2    0    0  0.00000000000E+00  0.00000000000E+00  0.26166513847E+03  0.30915473305E+04  0.30804539036E+04 0.  0.
        1    1    3    3  502    0  0.13037088872E+04 -0.12884571013E+03  0.94371300451E+03  0.16145749641E+04  0.50400001928E-02 0. -1.
       -1    1    3    3    0  502 -0.13037088872E+04  0.12884571013E+03 -0.68204786603E+03  0.14769723664E+04  0.50400001928E-02 0.  1.
</event>
<event>
 5   0  0.2067926E-06  0.3098835E+04  0.7818609E-02  0.8216058E-01
        2   -1    0    0  501    0  0.00000000000E+00  0.00000000000E+00  0.20989763398E+04  0.20989763398E+04  0.25500000920E-02 0.  1.
       -2   -1    0    0    0  501  0.00000000000E+00  0.00000000000E+00 -0.11437452120E+04  0.11437452120E+04  0.25500000920E-02 0. -1.
    10030    2    1    2    0    0  0.00000000000E+00  0.00000000000E+00  0.95523112781E+03  0.32427215518E+04  0.30988347092E+04 0.  0.
        1    1    3    3  502    0 -0.24641571565E+03  0.12768656306E+04  0.13590991982E+04  0.18810255645E+04  0.50400001928E-02 0.  1.
       -1    1    3    3    0  502  0.24641571565E+03 -0.12768656306E+04 -0.40386807043E+03  0.13616959873E+04  0.50400001928E-02 0. -1.
</event>
<event>
 5   0  0.7656332E-07  0.3049687E+04  0.7818609E-02  0.8229683E-01
        1   -1    0    0  501    0  0.00000000000E+00  0.00000000000E+00  0.18073743586E+04  0.18073743586E+04  0.50400001928E-02 0. -1.
       -1   -1    0    0    0  501  0.00000000000E+00  0.00000000000E+00 -0.12864782853E+04  0.12864782853E+04  0.50400001928E-02 0.  1.
    10030    2    1    2    0    0  0.00000000000E+00  0.00000000000E+00  0.52089607329E+03  0.30938526439E+04  0.30496871090E+04 0.  0.
        2    1    3    3  502    0  0.19516314172E+03 -0.97840776768E+03 -0.90941177986E+03  0.13499630355E+04  0.25500000920E-02 0.  1.
       -2    1    3    3    0  502 -0.19516314172E+03  0.97840776768E+03  0.14303078531E+04  0.17438896085E+04  0.25500000920E-02 0. -1.
</event>
<event>
 5   0  0.7561815E-07  0.3078386E+04  0.7818609E-02  0.8221695E-01
       -1   -1    0    0    0  501  0.00000000000E+00  0.00000000000E+00  0.77028319515E+03  0.77028319517E+03  0.50400001928E-02 0. -1.
        1   -1    0    0  501    0  0.00000000000E+00  0.00000000000E+00 -0.30756426129E+04  0.30756426129E+04  0.50400001928E-02 0.  1.
    10030    2    1    2    0    0  0.00000000000E+00  0.00000000000E+00 -0.23053594178E+04  0.38459258081E+04  0.30783864729E+04 0.  0.
        3    1    3    3  502    0 -0.14016250775E+03 -0.30544094387E+03  0.72388808323E+03  0.79809377019E+03  0.10100000352E+00 0. -1.
       -3    1    3    3    0  502  0.14016250775E+03  0.30544094387E+03 -0.30292475010E+04  0.30478320379E+04  0.10100000352E+00 0.  1.
</event>
<event>
 5   0  0.7519202E-07  0.3100030E+04  0.7818609E-02  0.8215730E-01
        1   -1    0    0  501    0  0.00000000000E+00  0.00000000000E+00  0.19609646072E+04  0.19609646072E+04  0.50400001928E-02 0. -1.
       -1   -1    0    0    0  501  0.00000000000E+00  0.00000000000E+00 -0.12251856850E+04  0.12251856850E+04  0.50400001928E-02 0.  1.
    10030    2    1    2    0    0  0.00000000000E+00  0.00000000000E+00  0.73577892215E+03  0.31861502922E+04  0.31000295260E+04 0.  0.
        4    1    3    3  502    0  0.73794472635E+03  0.39558287891E+02  0.17682445739E+04  0.19164596952E+04  0.12699999809E+01 0. -1.
       -4    1    3    3    0  502 -0.73794472635E+03 -0.39558287891E+02 -0.10324656517E+04  0.12696905970E+04  0.12699999809E+01 0.  1.
</event>
<event>
 5   0  0.2067926E-06  0.3061450E+04  0.7818609E-02  0.8226398E-01
        2   -1    0    0  501    0  0.00000000000E+00  0.00000000000E+00  0.17229886566E+04  0.17229886566E+04  0.25500000920E-02 0. -1.
       -2   -1    0    0    0  501  0.00000000000E+00  0.00000000000E+00 -0.13599151308E+04  0.13599151308E+04  0.25500000920E-02 0.  1.
    10030    2    1    2    0    0  0.00000000000E+00  0.00000000000E+00  0.36307352576E+03  0.30829037874E+04  0.30614495549E+04 0.  0.
        1    1    3    3  502    0  0.19187369894E+03  0.13301370423E+04 -0.55642775983E+03  0.14545418246E+04  0.50400001928E-02 0.  1.
       -1    1    3    3    0  502 -0.19187369894E+03 -0.13301370423E+04  0.91950128558E+03  0.16283619628E+04  0.50400001928E-02 0. -1.
</event>
<event>
 5   0  0.7656332E-07  0.3102955E+04  0.7818609E-02  0.8214927E-01
        1   -1    0    0  501    0  0.00000000000E+00  0.00000000000E+00  0.14776689612E+04  0.14776689612E+04  0.50400001928E-02 0.  1.
       -1   -1    0    0    0  501  0.00000000000E+00  0.00000000000E+00 -0.16289725225E+04  0.16289725225E+04  0.50400001928E-02 0. -1.
    10030    2    1    2    0    0  0.00000000000E+00  0.00000000000E+00 -0.15130356128E+03  0.31066414838E+04  0.31029548081E+04 0.  0.
        2    1    3    3  502    0  0.79610309509E+03  0.98756183495E+03 -0.97003482943E+03  0.15968801101E+04  0.25500000920E-02 0. -1.
       -2    1    3    3    0  502 -0.79610309509E+03 -0.98756183495E+03  0.81873126815E+03  0.15097613736E+04  0.25500000920E-02 0.  1.
</event>
<event>
 5   0  0.7413481E-07  0.3094091E+04  0.7818609E-02  0.8217361E-01
        1   -1    0    0  501    0  0.00000000000E+00  0.00000000000E+00  0.15844543451E+04  0.15844543451E+04  0.50400001928E-02 0.  1.
       -1   -1    0    0    0  501  0.00000000000E+00  0.00000000000E+00 -0.15105200734E+04  0.15105200734E+04  0.50400001928E-02 0. -1.
    10030    2    1    2    0    0  0.00000000000E+00  0.00000000000E+00  0.73934271701E+02  0.30949744185E+04  0.30940912034E+04 0.  0.
        5    1    3    3  502    0 -0.24418096644E+03 -0.78821944122E+03 -0.12719986910E+04  0.15162179895E+04  0.46999998093E+01 0. -1.
       -5    1    3    3    0  502  0.24418096644E+03  0.78821944122E+03  0.13459329627E+04  0.15787564290E+04  0.46999998093E+01 0.  1.
</event>
<event>
 5   0  0.7413481E-07  0.3071517E+04  0.7818609E-02  0.8223599E-01
       -1   -1    0    0    0  501  0.00000000000E+00  0.00000000000E+00  0.11340168734E+04  0.11340168734E+04  0.50400001928E-02 0. -1.
        1   -1    0    0  501    0  0.00000000000E+00  0.00000000000E+00 -0.20798223760E+04  0.20798223760E+04  0.50400001928E-02 0.  1.
    10030    2    1    2    0    0  0.00000000000E+00  0.00000000000E+00 -0.94580550255E+03  0.32138392494E+04  0.30715166729E+04 0.  0.
        5    1    3    3  502    0 -0.92290117488E+03  0.23222721773E+03 -0.17340984674E+04  0.19780787760E+04  0.46999998093E+01 0.  1.
       -5    1    3    3    0  502  0.92290117488E+03 -0.23222721773E+03  0.78829296485E+03  0.12357604734E+04  0.46999998093E+01 0. -1.
</event>
<event>
 5   0  0.2067926E-06  0.3083045E+04  0.7818609E-02  0.8220406E-01
       -2   -1    0    0    0  501  0.00000000000E+00  0.00000000000E+00  0.15216668289E+04  0.15216668289E+04  0.25500000920E-02 0.  1.
        2   -1    0    0  501    0  0.00000000000E+00  0.00000000000E+00 -0.15616375988E+04  0.15616375988E+04  0.25500000920E-02 0. -1.
    10030    2    1    2    0    0  0.00000000000E+00  0.00000000000E+00 -0.39970769898E+02  0.30833044278E+04  0.30830453341E+04 0.  0.
        1    1    3    3  502    0 -0.10732387864E+04  0.36030324626E+03  0.10263492655E+04  0.15280879349E+04  0.50400001928E-02 0.  1.
       -1    1    3    3    0  502  0.10732387864E+04 -0.36030324626E+03 -0.10663200354E+04  0.15552164929E+04  0.50400001928E-02 0. -1.
</event>
<event>
 5   0  0.7413481E-07  0.3101639E+04  0.7818609E-02  0.8215288E-01
        1   -1    0    0  501    0  0.00000000000E+00  0.00000000000E+00  0.20661097675E+04  0.20661097675E+04  0.50400001928E-02 0.  1.
       -1   -1    0    0    0  501  0.00000000000E+00  0.00000000000E+00 -0.11640434419E+04  0.11640434419E+04  0.50400001928E-02 0. -1.
    10030    2    1    2    0    0  0.00000000000E+00  0.00000000000E+00  0.90206632561E+03  0.32301532095E+04  0.31016392603E+04 0.  0.
        5    1    3    3  502    0  0.41790231627E+03  0.50845744838E+03 -0.10113748773E+04  0.12066783147E+04  0.46999998093E+01 0. -1.
       -5    1    3    3    0  502 -0.41790231627E+03 -0.50845744838E+03  0.19134412029E+04  0.20234748948E+04  0.46999998093E+01 0.  1.
</event>
<event>
 5   0  0.2133385E-06  0.3070991E+04  0.7818609E-02  0.8223745E-01
        2   -1    0    0  501    0  0.00000000000E+00  0.00000000000E+00  0.16815762353E+04  0.16815762353E+04  0.25500000920E-02 0.  1.
       -2   -1    0    0    0  501  0.00000000000E+00  0.00000000000E+00 -0.14021046976E+04  0.14021046976E+04  0.25500000920E-02 0. -1.
    10030    2    1    2    0    0  0.00000000000E+00  0.00000000000E+00  0.27947153773E+03  0.30836809329E+04  0.30709906798E+04 0.  0.
        2    1    3    3  502    0 -0.13640906096E+04  0.84338841538E+02 -0.56307773051E+03  0.14781450409E+04  0.25500000920E-02 0. -1.
       -2    1    3    3    0  502  0.13640906096E+04 -0.84338841538E+02  0.84254926824E+03  0.16055358921E+04  0.25500000920E-02 0.  1.
</event>
<event>
 5   0  0.7656332E-07  0.3091472E+04  0.7818609E-02  0.8218082E-01
        1   -1    0    0  501    0  0.00000000000E+00  0.00000000000E+00  0.21091507234E+04  0.21091507234E+04  0.50400001928E-02 0. -1.
       -1   -1    0    0    0  501  0.00000000000E+00  0.00000000000E+00 -0.11328254257E+04  0.11328254257E+04  0.50400001928E-02 0.  1.
    10030    2    1    2    0    0  0.00000000000E+00  0.00000000000E+00  0.97632529771E+03  0.32419761491E+04  0.30914718605E+04 0.  0.
        2    1    3    3  502    0  0.66172641932E+03  0.13955316902E+04  0.42259673518E+03  0.16012428151E+04  0.25500000920E-02 0. -1.
       -2    1    3    3    0  502 -0.66172641932E+03 -0.13955316902E+04  0.55372856254E+03  0.16407333340E+04  0.25500000920E-02 0.  1.
</event>
<event>
 5   0  0.2226334E-06  0.3097872E+04  0.7818609E-02  0.8216322E-01
       -2   -1    0    0    0  501  0.00000000000E+00  0.00000000000E+00  0.13575007478E+04  0.13575007478E+04  0.25500000920E-02 0. -1.
        2   -1    0    0  501    0  0.00000000000E+00  0.00000000000E+00 -0.17673669894E+04  0.17673669894E+04  0.25500000920E-02 0.  1.
    10030    2    1    2    0    0  0.00000000000E+00  0.00000000000E+00 -0.40986624160E+03  0.31248677371E+04  0.30978715336E+04 0.  0.
        5    1    3    3  502    0  0.26790723231E+03 -0.82753886047E+03  0.10878693446E+04  0.13928663437E+04  0.46999998093E+01 0. -1.
       -5    1    3    3    0  502 -0.26790723231E+03  0.82753886047E+03 -0.14977355862E+04  0.17320013934E+04  0.46999998093E+01 0.  1.
</event>
<event>
 5   0  0.2094135E-06  0.3101306E+04  0.7818609E-02  0.8215380E-01
       -2   -1    0    0    0  501  0.00000000000E+00  0.00000000000E+00  0.20326018175E+04  0.20326018175E+04  0.25500000920E-02 0. -1.
        2   -1    0    0  501    0  0.00000000000E+00  0.00000000000E+00 -0.11829788582E+04  0.11829788582E+04  0.25500000920E-02 0.  1.
    10030    2    1    2    0    0  0.00000000000E+00  0.00000000000E+00  0.84962295925E+03  0.32155806757E+04  0.31013061618E+04 0.  0.
        4    1    3    3  502    0 -0.91794065123E+03 -0.12493005394E+04  0.38955124054E+03  0.15984738530E+04  0.12699999809E+01 0.  1.
       -4    1    3    3    0  502  0.91794065123E+03  0.12493005394E+04  0.46007171872E+03  0.16171068227E+04  0.12699999809E+01 0. -1.
</event>
<event>
 5   0  0.2094135E-06  0.3151567E+04  0.7818609E-02  0.8201727E-01
        2   -1    0    0  501    0  0.00000000000E+00  0.00000000000E+00  0.26126594561E+04  0.26126594561E+04  0.25500000920E-02 0.  1.
       -2   -1    0    0    0  501  0.00000000000E+00  0.00000000000E+00 -0.95040831327E+03  0.95040831328E+03  0.25500000920E-02 0. -1.
    10030    2    1    2    0    0  0.00000000000E+00  0.00000000000E+00  0.16622511428E+04  0.35630677694E+04  0.31515667639E+04 0.  0.
        4    1    3    3  502    0  0.12069198537E+04  0.15643567327E+03  0.19628055435E+04  0.23094880098E+04  0.12699999809E+01 0.  1.
       -4    1    3    3    0  502 -0.12069198537E+04 -0.15643567327E+03 -0.30055440062E+03  0.12535797596E+04  0.12699999809E+01 0. -1.
</event>
<event>
 5   0  0.7413481E-07  0.3115801E+04  0.7818609E-02  0.8211415E-01
       -1   -1    0    0    0  501  0.00000000000E+00  0.00000000000E+00  0.15836660810E+04  0.15836660811E+04  0.50400001928E-02 0.  1.
        1   -1    0    0  501    0  0.00000000000E+00  0.00000000000E+00 -0.15325536776E+04  0.15325536777E+04  0.50400001928E-02 0. -1.
    10030    2    1    2    0    0  0.00000000000E+00  0.00000000000E+00  0.51112403401E+02  0.31162197587E+04  0.31158005563E+04 0.  0.
        5    1    3    3  502    0 -0.63629694167E+03  0.10778717851E+04  0.95323142697E+03  0.15733256581E+04  0.46999998093E+01 0.  1.
       -5    1    3    3    0  502  0.63629694167E+03 -0.10778717851E+04 -0.90211902357E+03  0.15428941006E+04  0.46999998093E+01 0. -1.
</event>
<event>
 5   0  0.6979625E-07  0.3130996E+04  0.7818609E-02  0.8207282E-01
        3   -1    0    0  501    0  0.00000000000E+00  0.00000000000E+00  0.13171578896E+04  0.13171578935E+04  0.10100000352E+00 0.  1.
       -3   -1    0    0    0  501  0.00000000000E+00  0.00000000000E+00 -0.18606606012E+04  0.18606606040E+04  0.10100000352E+00 0. -1.
    10030    2    1    2    0    0  0.00000000000E+00  0.00000000000E+00 -0.54350271163E+03  0.31778184974E+04  0.31309958807E+04 0.  0.
        4    1    3    3  502    0  0.20550597536E+02 -0.30440268357E+03  0.12866910602E+04  0.13223686393E+04  0.12699999809E+01 0.  1.
       -4    1    3    3    0  502 -0.20550597536E+02  0.30440268357E+03 -0.18301937718E+04  0.18554498582E+04  0.12699999809E+01 0. -1.
</event>
<event>
 5   0  0.7413481E-07  0.3113875E+04  0.7818609E-02  0.8211940E-01
       -1   -1    0    0    0  501  0.00000000000E+00  0.00000000000E+00  0.97870955861E+03  0.97870955862E+03  0.50400001928E-02 0. -1.
        1   -1    0    0  501    0  0.00000000000E+00  0.00000000000E+00 -0.24767860687E+04  0.24767860687E+04  0.50400001928E-02 0.  1.
    10030    2    1    2    0    0  0.00000000000E+00  0.00000000000E+00 -0.14980765101E+04  0.34554956273E+04  0.31138748852E+04 0.  0.
        5    1    3    3  502    0  0.19366614365E+03 -0.58602982338E+03  0.83714523428E+03  0.10400825748E+04  0.46999998093E+01 0. -1.
       -5    1    3    3    0  502 -0.19366614365E+03  0.58602982338E+03 -0.23352217444E+04  0.24154130526E+04  0.46999998093E+01 0.  1.
</event>
<event>
 5   0  0.2094135E-06  0.3075055E+04  0.7818609E-02  0.8222617E-01
        2   -1    0    0  501    0  0.00000000000E+00  0.00000000000E+00  0.15216037127E+04  0.15216037127E+04  0.25500000920E-02 0.  1.
       -2   -1    0    0    0  501  0.00000000000E+00  0.00000000000E+00 -0.15536181102E+04  0.15536181102E+04  0.25500000920E-02 0. -1.
    10030    2    1    2    0    0  0.00000000000E+00  0.00000000000E+00 -0.32014397557E+02  0.30752218229E+04  0.30750551765E+04 0.  0.
        4    1    3    3  502    0  0.14267172812E+03  0.68512682769E+03  0.13530941948E+04  0.15233579701E+04  0.12699999809E+01 0.  1.
       -4    1    3    3    0  502 -0.14267172812E+03 -0.68512682769E+03 -0.13851085924E+04  0.15518638528E+04  0.12699999809E+01 0. -1.
</event>
<event>
 5   0  0.2226334E-06  0.3092088E+04  0.7818609E-02  0.8217913E-01
       -2   -1    0    0    0  501  0.00000000000E+00  0.00000000000E+00  0.73362152687E+03  0.73362152688E+03  0.25500000920E-02 0.  1.
        2   -1    0    0  501    0  0.00000000000E+00  0.00000000000E+00 -0.32581549346E+04  0.32581549346E+04  0.25500000920E-02 0. -1.
    10030    2    1    2    0    0  0.00000000000E+00  0.00000000000E+00 -0.25245334077E+04  0.39917764615E+04  0.30920883545E+04 0.  0.
        5    1    3    3  502    0  0.14277394420E+04  0.29782680727E+03 -0.60010156584E+03  0.15771127736E+04  0.46999998093E+01 0.  1.
       -5    1    3    3    0  502 -0.14277394420E+04 -0.29782680727E+03 -0.19244318419E+04  0.24146636879E+04  0.46999998093E+01 0. -1.
</event>
<event>
 5   0  0.7561815E-07  0.3109171E+04  0.7818609E-02  0.8213225E-01
        1   -1    0    0  501    0  0.00000000000E+00  0.00000000000E+00  0.16963266097E+04  0.16963266097E+04  0.50400001928E-02 0.  1.
       -1   -1    0    0    0  501  0.00000000000E+00  0.00000000000E+00 -0.14246881196E+04  0.14246881196E+04  0.50400001928E-02 0. -1.
    10030    2    1    2    0    0  0.00000000000E+00  0.00000000000E+00  0.27163849012E+03  0.31210147292E+04  0.31091711871E+04 0.  0.
        3    1    3    3  502    0  0.13272122903E+03  0.55377530401E+03  0.15878612483E+04  0.16868862931E+04  0.10100000352E+00 0.  1.
       -3    1    3    3    0  502 -0.13272122903E+03 -0.55377530401E+03 -0.13162227582E+04  0.14341284361E+04  0.10100000352E+00 0. -1.
</event>
<event>
 5   0  0.2094135E-06  0.3111192E+04  0.7818609E-02  0.8212673E-01
        2   -1    0    0  501    0  0.00000000000E+00  0.00000000000E+00  0.24015351895E+04  0.24015351895E+04  0.25500000920E-02 0. -1.
       -2   -1    0    0    0  501  0.00000000000E+00  0.00000000000E+00 -0.10076382922E+04  0.10076382922E+04  0.25500000920E-02 0.  1.
    10030    2    1    2    0    0  0.00000000000E+00  0.00000000000E+00  0.13938968973E+04  0.34091734817E+04  0.31111919369E+04 0.  0.
        4    1    3    3  502    0  0.70847269392E+03 -0.80203538795E+03  0.19341013384E+04  0.22104171375E+04  0.12699999809E+01 0. -1.
       -4    1    3    3    0  502 -0.70847269392E+03  0.80203538795E+03 -0.54020444114E+03  0.11987563442E+04  0.12699999809E+01 0.  1.
</event>
<event>
 5   0  0.2067926E-06  0.3106556E+04  0.7818609E-02  0.8213941E-01
       -2   -1    0    0    0  501  0.00000000000E+00  0.00000000000E+00  0.12641906997E+04  0.12641906997E+04  0.25500000920E-02 0.  1.
        2   -1    0    0  501    0  0.00000000000E+00  0.00000000000E+00 -0.19084717146E+04  0.19084717146E+04  0.25500000920E-02 0. -1.
    10030    2    1    2    0    0  0.00000000000E+00  0.00000000000E+00 -0.64428101497E+03  0.31726624143E+04  0.31065557727E+04 0.  0.
        1    1    3    3  502    0  0.39167406648E+03 -0.14797273146E+04 -0.52571616780E+02  0.15315891338E+04  0.50400001928E-02 0. -1.
       -1    1    3    3    0  502 -0.39167406648E+03  0.14797273146E+04 -0.59170939819E+03  0.16410732805E+04  0.50400001928E-02 0.  1.
</event>
<event>
 5   0  0.7561815E-07  0.3105027E+04  0.7818609E-02  0.8214360E-01
       -1   -1    0    0    0  501  0.00000000000E+00  0.00000000000E+00  0.14501121096E+04  0.14501121096E+04  0.50400001928E-02 0.  1.
        1   -1    0    0  501    0  0.00000000000E+00  0.00000000000E+00 -0.16621456678E+04  0.16621456678E+04  0.50400001928E-02 0. -1.
    10030    2    1    2    0    0  0.00000000000E+00  0.00000000000E+00 -0.21203355826E+03  0.31122577774E+04  0.31050266091E+04 0.  0.
        3    1    3    3  502    0  0.10577823857E+04  0.71608828829E+03 -0.99046141493E+03  0.16163848047E+04  0.10100000352E+00 0. -1.
       -3    1    3    3    0  502 -0.10577823857E+04 -0.71608828829E+03  0.77842785666E+03  0.14958729727E+04  0.10100000352E+00 0.  1.
</event>
<event>
 5   0  0.2078009E-06  0.3095559E+04  0.7818609E-02  0.8216958E-01
       -2   -1    0    0    0  501  0.00000000000E+00  0.00000000000E+00  0.19572611940E+04  0.19572611940E+04  0.25500000920E-02 0. -1.
        2   -1    0    0  501    0  0.00000000000E+00  0.00000000000E+00 -0.12239662993E+04  0.12239662993E+04  0.25500000920E-02 0.  1.
    10030    2    1    2    0    0  0.00000000000E+00  0.00000000000E+00  0.73329489464E+03  0.31812274933E+04  0.30955592324E+04 0.  0.
        3    1    3    3  502    0 -0.11022283939E+03 -0.47954511667E+02 -0.12191623083E+04  0.12250736524E+04  0.10100000352E+00 0.  1.
       -3    1    3    3    0  502  0.11022283939E+03  0.47954511667E+02  0.19524572030E+04  0.19561538409E+04  0.10100000352E+00 0. -1.
</event>
<event>
 5   0  0.7561815E-07  0.3102953E+04  0.7818609E-02  0.8214928E-01
       -1   -1    0    0    0  501  0.00000000000E+00  0.00000000000E+00  0.15383246420E+04  0.15383246420E+04  0.50400001928E-02 0. -1.
        1   -1    0    0  501    0  0.00000000000E+00  0.00000000000E+00 -0.15647405079E+04  0.15647405079E+04  0.50400001928E-02 0.  1.
    10030    2    1    2    0    0  0.00000000000E+00  0.00000000000E+00 -0.26415865848E+02  0.31030651499E+04  0.31029527110E+04 0.  0.
        3    1    3    3  502    0 -0.13866314385E+04 -0.65765771418E+03 -0.24085285729E+03  0.15534704775E+04  0.10100000352E+00 0. -1.
       -3    1    3    3    0  502  0.13866314385E+04  0.65765771418E+03  0.21443699144E+03  0.15495946724E+04  0.10100000352E+00 0.  1.
</event>
<event>
 5   0  0.7413481E-07  0.3089107E+04  0.7818609E-02  0.8218734E-01
       -1   -1    0    0    0  501  0.00000000000E+00  0.00000000000E+00  0.82581507187E+03  0.82581507188E+03  0.50400001928E-02 0.  1.
        1   -1    0    0  501    0  0.00000000000E+00  0.00000000000E+00 -0.28888382616E+04  0.28888382616E+04  0.50400001928E-02 0. -1.
    10030    2    1    2    0    0  0.00000000000E+00  0.00000000000E+00 -0.20630231898E+04  0.37146533335E+04  0.30891074288E+04 0.  0.
        5    1    3    3  502    0  0.17345980055E+03  0.13155464474E+04 -0.80947792737E+02  0.13294079107E+04  0.46999998093E+01 0.  1.
       -5    1    3    3    0  502 -0.17345980055E+03 -0.13155464474E+04 -0.19820753970E+04  0.23852454229E+04  0.46999998093E+01 0. -1.
</event>
<event>
 5   0  0.7726743E-07  0.3146467E+04  0.7818609E-02  0.8203100E-01
        1   -1    0    0  501    0  0.00000000000E+00  0.00000000000E+00  0.22700490506E+04  0.22700490506E+04  0.50400001928E-02 0. -1.
       -1   -1    0    0    0  501  0.00000000000E+00  0.00000000000E+00 -0.10903130301E+04  0.10903130301E+04  0.50400001928E-02 0.  1.
    10030    2    1    2    0    0  0.00000000000E+00  0.00000000000E+00  0.11797360205E+04  0.33603620807E+04  0.31464672627E+04 0.  0.
        1    1    3    3  502    0  0.13348288162E+04  0.71194972864E+03  0.12874861529E+03  0.15182939737E+04  0.50400001928E-02 0.  1.
       -1    1    3    3    0  502 -0.13348288162E+04 -0.71194972864E+03  0.10509874052E+04  0.18420681070E+04  0.50400001928E-02 0. -1.
</event>
<event>
 5   0  0.7726743E-07  0.3120262E+04  0.7818609E-02  0.8210199E-01
        1   -1    0    0  501    0  0.00000000000E+00  0.00000000000E+00  0.19884622080E+04  0.19884622081E+04  0.50400001928E-02 0. -1.
       -1   -1    0    0    0  501  0.00000000000E+00  0.00000000000E+00 -0.12240659695E+04  0.12240659696E+04  0.50400001928E-02 0.  1.
    10030    2    1    2    0    0  0.00000000000E+00  0.00000000000E+00  0.76439623850E+03  0.32125281776E+04  0.31202621176E+04 0.  0.
        1    1    3    3  502    0 -0.54944747274E+03  0.50191612466E+03 -0.10295509126E+04  0.12703493232E+04  0.50400001928E-02 0.  1.
       -1    1    3    3    0  502  0.54944747274E+03 -0.50191612466E+03  0.17939471511E+04  0.19421788544E+04  0.50400001928E-02 0. -1.
</event>
<event>
 5   0  0.2078009E-06  0.3095922E+04  0.7818609E-02  0.8216858E-01
       -2   -1    0    0    0  501  0.00000000000E+00  0.00000000000E+00  0.95933079068E+03  0.95933079068E+03  0.25500000920E-02 0.  1.
        2   -1    0    0  501    0  0.00000000000E+00  0.00000000000E+00 -0.24977659448E+04  0.24977659448E+04  0.25500000920E-02 0. -1.
    10030    2    1    2    0    0  0.00000000000E+00  0.00000000000E+00 -0.15384351541E+04  0.34570967355E+04  0.30959223367E+04 0.  0.
        3    1    3    3  502    0  0.11664241288E+04  0.88251395216E+03 -0.13350990148E+04  0.19803700446E+04  0.10100000352E+00 0. -1.
       -3    1    3    3    0  502 -0.11664241288E+04 -0.88251395216E+03 -0.20333613937E+03  0.14767266909E+04  0.10100000352E+00 0.  1.
</event>
<event>
 5   0  0.7726743E-07  0.3104497E+04  0.7818609E-02  0.8214505E-01
        1   -1    0    0  501    0  0.00000000000E+00  0.00000000000E+00  0.20606486601E+04  0.20606486601E+04  0.50400001928E-02 0. -1.
       -1   -1    0    0    0  501  0.00000000000E+00  0.00000000000E+00 -0.11692801193E+04  0.11692801193E+04  0.50400001928E-02 0.  1.
    10030    2    1    2    0    0  0.00000000000E+00  0.00000000000E+00  0.89136854084E+03  0.32299287794E+04  0.31044970679E+04 0.  0.
        1    1    3    3  502    0  0.11477224974E+04  0.61470539937E+03 -0.43365396140E+03  0.13722920306E+04  0.50400001928E-02 0.  1.
       -1    1    3    3    0  502 -0.11477224974E+04 -0.61470539937E+03  0.13250225022E+04  0.18576367488E+04  0.50400001928E-02 0. -1.
</event>
<event>
 5   0  0.7656332E-07  0.2866278E+04  0.7818609E-02  0.8282982E-01
       -1   -1    0    0    0  501  0.00000000000E+00  0.00000000000E+00  0.19591650607E+04  0.19591650607E+04  0.50400001928E-02 0. -1.
        1   -1    0    0  501    0  0.00000000000E+00  0.00000000000E+00 -0.10483479817E+04  0.10483479817E+04  0.50400001928E-02 0.  1.
    10030    2    1    2    0    0  0.00000000000E+00  0.00000000000E+00  0.91081707894E+03  0.30075130424E+04  0.28662775422E+04 0.  0.
        2    1    3    3  502    0  0.87036402965E+03 -0.37045603317E+03 -0.67426417461E+03  0.11616382371E+04  0.25500000920E-02 0.  1.
       -2    1    3    3    0  502 -0.87036402965E+03  0.37045603317E+03  0.15850812535E+04  0.18458748053E+04  0.25500000920E-02 0. -1.
</event>
<event>
 5   0  0.7413481E-07  0.3116543E+04  0.7818609E-02  0.8211213E-01
        1   -1    0    0  501    0  0.00000000000E+00  0.00000000000E+00  0.18061660948E+04  0.18061660948E+04  0.50400001928E-02 0.  1.
       -1   -1    0    0    0  501  0.00000000000E+00  0.00000000000E+00 -0.13444000416E+04  0.13444000417E+04  0.50400001928E-02 0. -1.
    10030    2    1    2    0    0  0.00000000000E+00  0.00000000000E+00  0.46176605318E+03  0.31505661365E+04  0.31165428110E+04 0.  0.
        5    1    3    3  502    0 -0.16048305448E+03  0.41130853326E+03 -0.12798404171E+04  0.13538622912E+04  0.46999998093E+01 0. -1.
       -5    1    3    3    0  502  0.16048305448E+03 -0.41130853326E+03  0.17416064703E+04  0.17967038453E+04  0.46999998093E+01 0.  1.
</event>
<event>
 5   0  0.2094135E-06  0.3108472E+04  0.7818609E-02  0.8213417E-01
        2   -1    0    0  501    0  0.00000000000E+00  0.00000000000E+00  0.11624489331E+04  0.11624489331E+04  0.25500000920E-02 0.  1.
       -2   -1    0    0    0  501  0.00000000000E+00  0.00000000000E+00 -0.20780698350E+04  0.20780698350E+04  0.25500000920E-02 0. -1.
    10030    2    1    2    0    0  0.00000000000E+00  0.00000000000E+00 -0.91562090188E+03  0.32405187681E+04  0.31084723339E+04 0.  0.
        4    1    3    3  502    0  0.14936831296E+04  0.40300073622E+03 -0.61295986279E+03  0.16640974404E+04  0.12699999809E+01 0. -1.
       -4    1    3    3    0  502 -0.14936831296E+04 -0.40300073622E+03 -0.30266103909E+03  0.15764213277E+04  0.12699999809E+01 0.  1.
</event>
<event>
 5   0  0.2078009E-06  0.3095574E+04  0.7818609E-02  0.8216954E-01
       -2   -1    0    0    0  501  0.00000000000E+00  0.00000000000E+00  0.30355919158E+04  0.30355919158E+04  0.25500000920E-02 0.  1.
        2   -1    0    0  501    0  0.00000000000E+00  0.00000000000E+00 -0.78918533351E+03  0.78918533352E+03  0.25500000920E-02 0. -1.
    10030    2    1    2    0    0  0.00000000000E+00  0.00000000000E+00  0.22464065823E+04  0.38247772493E+04  0.30955740136E+04 0.  0.
        3    1    3    3  502    0 -0.84313257269E+03 -0.94415001025E+03  0.22237238072E+04  0.25587573855E+04  0.10100000352E+00 0.  1.
       -3    1    3    3    0  502  0.84313257269E+03  0.94415001025E+03  0.22682775035E+02  0.12660198638E+04  0.10100000352E+00 0. -1.
</event>
<event>
 5   0  0.7519202E-07  0.3101016E+04  0.7818609E-02  0.8215459E-01
       -1   -1    0    0    0  501  0.00000000000E+00  0.00000000000E+00  0.27169591657E+04  0.27169591657E+04  0.50400001928E-02 0. -1.
        1   -1    0    0  501    0  0.00000000000E+00  0.00000000000E+00 -0.88484005666E+03  0.88484005667E+03  0.50400001928E-02 0.  1.
    10030    2    1    2    0    0  0.00000000000E+00  0.00000000000E+00  0.18321191091E+04  0.36017992224E+04  0.31010155125E+04 0.  0.
        4    1    3    3  502    0 -0.10015153619E+04  0.40274266286E+03  0.22088341924E+04  0.24584923784E+04  0.12699999809E+01 0. -1.
       -4    1    3    3    0  502  0.10015153619E+04 -0.40274266286E+03 -0.37671508329E+03  0.11433068440E+04  0.12699999809E+01 0.  1.
</event>
<event>
 5   0  0.7656332E-07  0.3122675E+04  0.7818609E-02  0.8209543E-01
       -1   -1    0    0    0  501  0.00000000000E+00  0.00000000000E+00  0.13488199805E+04  0.13488199805E+04  0.50400001928E-02 0. -1.
        1   -1    0    0  501    0  0.00000000000E+00  0.00000000000E+00 -0.18073383031E+04  0.18073383031E+04  0.50400001928E-02 0.  1.
    10030    2    1    2    0    0  0.00000000000E+00  0.00000000000E+00 -0.45851832257E+03  0.31561582836E+04  0.31226745041E+04 0.  0.
        2    1    3    3  502    0  0.12142891649E+04  0.20722271804E+03 -0.11988866717E+04  0.17189440603E+04  0.25500000920E-02 0.  1.
       -2    1    3    3    0  502 -0.12142891649E+04 -0.20722271804E+03  0.74036834917E+03  0.14372142232E+04  0.25500000920E-02 0. -1.
</event>
<event>
 5   0  0.7519202E-07  0.3096845E+04  0.7818609E-02  0.8216604E-01
       -1   -1    0    0    0  501  0.00000000000E+00  0.00000000000E+00  0.11410671935E+04  0.11410671935E+04  0.50400001928E-02 0.  1.
        1   -1    0    0  501    0  0.00000000000E+00  0.00000000000E+00 -0.21012012044E+04  0.21012012044E+04  0.50400001928E-02 0. -1.
    10030    2    1    2    0    0  0.00000000000E+00  0.00000000000E+00 -0.96013401083E+03  0.32422683979E+04  0.30968446918E+04 0.  0.
        4    1    3    3  502    0 -0.30329734038E+03  0.13711134317E+04 -0.11631373987E+04  0.18234120600E+04  0.12699999809E+01 0. -1.
       -4    1    3    3    0  502  0.30329734038E+03 -0.13711134317E+04  0.20300338789E+03  0.14188563379E+04  0.12699999809E+01 0.  1.
</event>
<event>
 5   0  0.7726743E-07  0.3133407E+04  0.7818609E-02  0.8206629E-01
       -1   -1    0    0    0  501  0.00000000000E+00  0.00000000000E+00  0.28511043842E+04  0.28511043842E+04  0.50400001928E-02 0.  1.
        1   -1    0    0  501    0  0.00000000000E+00  0.00000000000E+00 -0.86091530272E+03  0.86091530274E+03  0.50400001928E-02 0. -1.
    10030    2    1    2    0    0  0.00000000000E+00  0.00000000000E+00  0.19901890815E+04  0.37120196870E+04  0.31334067046E+04 0.  0.
        1    1    3    3  502    0  0.12832710365E+04 -0.66620360148E+03  0.17097766883E+04  0.22391846989E+04  0.50400001928E-02 0.  1.
       -1    1    3    3    0  502 -0.12832710365E+04  0.66620360148E+03  0.28041239319E+03  0.14728349881E+04  0.50400001928E-02 0. -1.
</event>
<event>
 5   0  0.7726743E-07  0.3102984E+04  0.7818609E-02  0.8214919E-01
        1   -1    0    0  501    0  0.00000000000E+00  0.00000000000E+00  0.18247397171E+04  0.18247397171E+04  0.50400001928E-02 0. -1.
       -1   -1    0    0    0  501  0.00000000000E+00  0.00000000000E+00 -0.13191623915E+04  0.13191623915E+04  0.50400001928E-02 0.  1.
    10030    2    1    2    0    0  0.00000000000E+00  0.00000000000E+00  0.50557732564E+03  0.31439021086E+04  0.31029843757E+04 0.  0.
        1    1    3    3  502    0  0.13586573761E+04  0.28605576481E+02  0.10112316445E+04  0.16939178208E+04  0.50400001928E-02 0. -1.
       -1    1    3    3    0  502 -0.13586573761E+04 -0.28605576481E+02 -0.50565431883E+03  0.14499842878E+04  0.50400001928E-02 0.  1.
</event>
<event>
 5   0  0.2094135E-06  0.3113361E+04  0.7818609E-02  0.8212081E-01
       -2   -1    0    0    0  501  0.00000000000E+00  0.00000000000E+00  0.92653782229E+03  0.92653782229E+03  0.25500000920E-02 0.  1.
        2   -1    0    0  501    0  0.00000000000E+00  0.00000000000E+00 -0.26153855758E+04  0.26153855758E+04  0.25500000920E-02 0. -1.
    10030    2    1    2    0    0  0.00000000000E+00  0.00000000000E+00 -0.16888477535E+04  0.35419233981E+04  0.31133606639E+04 0.  0.
        4    1    3    3  502    0  0.51623506899E+02  0.14573222574E+04 -0.22463914983E+03  0.14754380736E+04  0.12699999809E+01 0. -1.
       -4    1    3    3    0  502 -0.51623506899E+02 -0.14573222574E+04 -0.14642086037E+04  0.20664853245E+04  0.12699999809E+01 0.  1.
</event>
<event>
 5   0  0.2094135E-06  0.3023833E+04  0.7818609E-02  0.8236958E-01
        2   -1    0    0  501    0  0.00000000000E+00  0.00000000000E+00  0.24427729463E+04  0.24427729463E+04  0.25500000920E-02 0.  1.
       -2   -1    0    0    0  501  0.00000000000E+00  0.00000000000E+00 -0.93577711738E+03  0.93577711739E+03  0.25500000920E-02 0. -1.
    10030    2    1    2    0    0  0.00000000000E+00  0.00000000000E+00  0.15069958289E+04  0.33785500637E+04  0.30238326846E+04 0.  0.
        4    1    3    3  502    0 -0.47234298611E+03  0.10884089741E+04 -0.29352531475E+03  0.12222523122E+04  0.12699999809E+01 0. -1.
       -4    1    3    3    0  502  0.47234298611E+03 -0.10884089741E+04  0.18005211436E+04  0.21562977515E+04  0.12699999809E+01 0.  1.
</event>
<event>
 5   0  0.7726743E-07  0.3089056E+04  0.7818609E-02  0.8218748E-01
        1   -1    0    0  501    0  0.00000000000E+00  0.00000000000E+00  0.17362138185E+04  0.17362138185E+04  0.50400001928E-02 0. -1.
       -1   -1    0    0    0  501  0.00000000000E+00  0.00000000000E+00 -0.13740050405E+04  0.13740050405E+04  0.50400001928E-02 0.  1.
    10030    2    1    2    0    0  0.00000000000E+00  0.00000000000E+00  0.36220877805E+03  0.31102188590E+04  0.30890558674E+04 0.  0.
        1    1    3    3  502    0 -0.69842525428E+03  0.17575414435E+03 -0.11945942071E+04  0.13948988044E+04  0.50400001928E-02 0.  1.
       -1    1    3    3    0  502  0.69842525428E+03 -0.17575414435E+03  0.15568029851E+04  0.17153200545E+04  0.50400001928E-02 0. -1.
</event>
<event>
 5   0  0.7519202E-07  0.3132285E+04  0.7818609E-02  0.8206933E-01
       -1   -1    0    0    0  501  0.00000000000E+00  0.00000000000E+00  0.11814008526E+04  0.11814008526E+04  0.50400001928E-02 0.  1.
        1   -1    0    0  501    0  0.00000000000E+00  0.00000000000E+00 -0.20761816476E+04  0.20761816476E+04  0.50400001928E-02 0. -1.
    10030    2    1    2    0    0  0.00000000000E+00  0.00000000000E+00 -0.89478079497E+03  0.32575825002E+04  0.31322852799E+04 0.  0.
        4    1    3    3  502    0 -0.61886457206E+03 -0.14323783032E+04 -0.30747170888E+03  0.15903588987E+04  0.12699999809E+01 0. -1.
       -4    1    3    3    0  502  0.61886457206E+03  0.14323783032E+04 -0.58730908609E+03  0.16672236015E+04  0.12699999809E+01 0.  1.
</event>
<event>
 5   0  0.2094135E-06  0.3107516E+04  0.7818609E-02  0.8213678E-01
        2   -1    0    0  501    0  0.00000000000E+00  0.00000000000E+00  0.26908619887E+04  0.26908619887E+04  0.25500000920E-02 0. -1.
       -2   -1    0    0    0  501  0.00000000000E+00  0.00000000000E+00 -0.89717143099E+03  0.89717143099E+03  0.25500000920E-02 0.  1.
    10030    2    1    2    0    0  0.00000000000E+00  0.00000000000E+00  0.17936905577E+04  0.35880334197E+04  0.31075163723E+04 0.  0.
        4    1    3    3  502    0  0.10767659096E+04  0.10528077095E+04  0.45515721540E+03  0.15732128275E+04  0.12699999809E+01 0.  1.
       -4    1    3    3    0  502 -0.10767659096E+04 -0.10528077095E+04  0.13385333423E+04  0.20148205921E+04  0.12699999809E+01 0. -1.
</event>
<event>
 5   0  0.2094135E-06  0.3096244E+04  0.7818609E-02  0.8216770E-01
       -2   -1    0    0    0  501  0.00000000000E+00  0.00000000000E+00  0.99122238980E+03  0.99122238981E+03  0.25500000920E-02 0. -1.
        2   -1    0    0  501    0  0.00000000000E+00  0.00000000000E+00 -0.24179049407E+04  0.24179049407E+04  0.25500000920E-02 0.  1.
    10030    2    1    2    0    0  0.00000000000E+00  0.00000000000E+00 -0.14266825509E+04  0.34091273305E+04  0.30962438623E+04 0.  0.
        4    1    3    3  502    0 -0.14625459016E+04  0.48810792322E+03 -0.86666079059E+03  0.17687262077E+04  0.12699999809E+01 0. -1.
       -4    1    3    3    0  502  0.14625459016E+04 -0.48810792322E+03 -0.56002176035E+03  0.16404011229E+04  0.12699999809E+01 0.  1.
</event>
<event>
 5   0  0.2226334E-06  0.3099661E+04  0.7818609E-02  0.8215831E-01
        2   -1    0    0  501    0  0.00000000000E+00  0.00000000000E+00  0.15964703394E+04  0.15964703394E+04  0.25500000920E-02 0. -1.
       -2   -1    0    0    0  501  0.00000000000E+00  0.00000000000E+00 -0.15045535676E+04  0.15045535676E+04  0.25500000920E-02 0.  1.
    10030    2    1    2    0    0  0.00000000000E+00  0.00000000000E+00  0.91916771874E+02  0.31010239070E+04  0.30996613652E+04 0.  0.
        5    1    3    3  502    0  0.13955433123E+04  0.12043869211E+03 -0.61758759643E+03  0.15308439321E+04  0.46999998093E+01 0.  1.
       -5    1    3    3    0  502 -0.13955433123E+04 -0.12043869211E+03  0.70950436831E+03  0.15701799750E+04  0.46999998093E+01 0. -1.
</event>
<event>
 5   0  0.2067926E-06  0.3100868E+04  0.7818609E-02  0.8215500E-01
       -2   -1    0    0    0  501  0.00000000000E+00  0.00000000000E+00  0.12653634455E+04  0.12653634455E+04  0.25500000920E-02 0.  1.
        2   -1    0    0  501    0  0.00000000000E+00  0.00000000000E+00 -0.18997269878E+04  0.18997269878E+04  0.25500000920E-02 0. -1.
    10030    2    1    2    0    0  0.00000000000E+00  0.00000000000E+00 -0.63436354227E+03  0.31650904332E+04  0.31008676764E+04 0.  0.
        1    1    3    3  502    0  0.12401723600E+03  0.14645967711E+04 -0.82077746567E+03  0.16834784302E+04  0.50400001928E-02 0. -1.
       -1    1    3    3    0  502 -0.12401723600E+03 -0.14645967711E+04  0.18641392340E+03  0.14816120031E+04  0.50400001928E-02 0.  1.
</event>
<event>
 5   0  0.7413481E-07  0.2938135E+04  0.7818609E-02  0.8261621E-01
        1   -1    0    0  501    0  0.00000000000E+00  0.00000000000E+00  0.28596520239E+04  0.28596520239E+04  0.50400001928E-02 0.  1.
       -1   -1    0    0    0  501  0.00000000000E+00  0.00000000000E+00 -0.75469303224E+03  0.75469303226E+03  0.50400001928E-02 0. -1.
    10030    2    1    2    0    0  0.00000000000E+00  0.00000000000E+00  0.21049589916E+04  0.36143450562E+04  0.29381350936E+04 0.  0.
        5    1    3    3  502    0 -0.53045341519E+02  0.62918717446E+03  0.26842006837E+04  0.27574708900E+04  0.46999998093E+01 0.  1.
       -5    1    3    3    0  502  0.53045341519E+02 -0.62918717446E+03 -0.57924169208E+03  0.85687416614E+03  0.46999998093E+01 0. -1.
</event>
<event>
 5   0  0.2226334E-06  0.3050506E+04  0.7818609E-02  0.8229454E-01
       -2   -1    0    0    0  501  0.00000000000E+00  0.00000000000E+00  0.13218539024E+04  0.13218539024E+04  0.25500000920E-02 0. -1.
        2   -1    0    0  501    0  0.00000000000E+00  0.00000000000E+00 -0.17599497917E+04  0.17599497917E+04  0.25500000920E-02 0.  1.
    10030    2    1    2    0    0  0.00000000000E+00  0.00000000000E+00 -0.43809588927E+03  0.30818036941E+04  0.30505058598E+04 0.  0.
        5    1    3    3  502    0 -0.50185581106E+03 -0.11642089071E+04 -0.10757654665E+04  0.16626891060E+04  0.46999998093E+01 0.  1.
       -5    1    3    3    0  502  0.50185581106E+03  0.11642089071E+04  0.63766957722E+03  0.14191145881E+04  0.46999998093E+01 0. -1.
</event>
<event>
 5   0  0.7656332E-07  0.3084780E+04  0.7818609E-02  0.8219927E-01
        1   -1    0    0  501    0  0.00000000000E+00  0.00000000000E+00  0.26686352830E+04  0.26686352831E+04  0.50400001928E-02 0.  1.
       -1   -1    0    0    0  501  0.00000000000E+00  0.00000000000E+00 -0.89145448827E+03  0.89145448828E+03  0.50400001928E-02 0. -1.
    10030    2    1    2    0    0  0.00000000000E+00  0.00000000000E+00  0.17771807948E+04  0.35600897713E+04  0.30847799926E+04 0.  0.
        2    1    3    3  502    0 -0.31775380700E+03  0.13922100549E+04  0.15612833199E+04  0.21158501657E+04  0.25500000920E-02 0.  1.
       -2    1    3    3    0  502  0.31775380700E+03 -0.13922100549E+04  0.21589747485E+03  0.14442396056E+04  0.25500000920E-02 0. -1.
</event>
<event>
 5   0  0.2226334E-06  0.3096447E+04  0.7818609E-02  0.8216714E-01
       -2   -1    0    0    0  501  0.00000000000E+00  0.00000000000E+00  0.16567487028E+04  0.16567487028E+04  0.25500000920E-02 0. -1.
        2   -1    0    0  501    0  0.00000000000E+00  0.00000000000E+00 -0.14468076555E+04  0.14468076555E+04  0.25500000920E-02 0.  1.
    10030    2    1    2    0    0  0.00000000000E+00  0.00000000000E+00  0.20994104729E+03  0.31035563582E+04  0.30964474524E+04 0.  0.
        5    1    3    3  502    0  0.93399087970E+03 -0.18308044911E+03 -0.11189460397E+04  0.14689859577E+04  0.46999998093E+01 0.  1.
       -5    1    3    3    0  502 -0.93399087970E+03  0.18308044911E+03  0.13288870870E+04  0.16345704005E+04  0.46999998093E+01 0. -1.
</event>
<event>
 5   0  0.7561815E-07  0.3109962E+04  0.7818609E-02  0.8213009E-01
       -1   -1    0    0    0  501  0.00000000000E+00  0.00000000000E+00  0.17993984165E+04  0.17993984165E+04  0.50400001928E-02 0. -1.
        1   -1    0    0  501    0  0.00000000000E+00  0.00000000000E+00 -0.13437633811E+04  0.13437633811E+04  0.50400001928E-02 0.  1.
    10030    2    1    2    0    0  0.00000000000E+00  0.00000000000E+00  0.45563503538E+03  0.31431617976E+04  0.31099618648E+04 0.  0.
        3    1    3    3  502    0  0.51816996437E+03  0.49451040222E+03  0.16227417507E+04  0.17737901369E+04  0.10100000352E+00 0. -1.
       -3    1    3    3    0  502 -0.51816996437E+03 -0.49451040222E+03 -0.11671067154E+04  0.13693716607E+04  0.10100000352E+00 0.  1.
</event>
<event>
 5   0  0.7519202E-07  0.3099551E+04  0.7818609E-02  0.8215861E-01
       -1   -1    0    0    0  501  0.00000000000E+00  0.00000000000E+00  0.15928019594E+04  0.15928019594E+04  0.50400001928E-02 0.  1.
        1   -1    0    0  501    0  0.00000000000E+00  0.00000000000E+00 -0.15079111095E+04  0.15079111095E+04  0.50400001928E-02 0. -1.
    10030    2    1    2    0    0  0.00000000000E+00  0.00000000000E+00  0.84890849840E+02  0.31007130689E+04  0.30995507867E+04 0.  0.
        4    1    3    3  502    0 -0.64042455123E+03  0.87440858142E+03 -0.10657010539E+04  0.15200178690E+04  0.12699999809E+01 0. -1.
       -4    1    3    3    0  502  0.64042455123E+03 -0.87440858142E+03  0.11505919037E+04  0.15806951999E+04  0.12699999809E+01 0.  1.
</event>
<event>
 5   0  0.7561815E-07  0.2802159E+04  0.7818609E-02  0.8302598E-01
        1   -1    0    0  501    0  0.00000000000E+00  0.00000000000E+00  0.13837787601E+04  0.13837787601E+04  0.50400001928E-02 0.  1.
       -1   -1    0    0    0  501  0.00000000000E+00  0.00000000000E+00 -0.14185966449E+04  0.14185966449E+04  0.50400001928E-02 0. -1.
    10030    2    1    2    0    0  0.00000000000E+00  0.00000000000E+00 -0.34817884871E+02  0.28023754050E+04  0.28021591007E+04 0.  0.
        3    1    3    3  502    0  0.28607264047E+03  0.70414130679E+03 -0.11945177939E+04  0.14158125955E+04  0.10100000352E+00 0. -1.
       -3    1    3    3    0  502 -0.28607264047E+03 -0.70414130679E+03  0.11596999090E+04  0.13865628095E+04  0.10100000352E+00 0.  1.
</event>
<event>
 5   0  0.7561815E-07  0.3153029E+04  0.7818609E-02  0.8201333E-01
       -1   -1    0    0    0  501  0.00000000000E+00  0.00000000000E+00  0.14112156751E+04  0.14112156751E+04  0.50400001928E-02 0.  1.
        1   -1    0    0  501    0  0.00000000000E+00  0.00000000000E+00 -0.17611749964E+04  0.17611749964E+04  0.50400001928E-02 0. -1.
    10030    2    1    2    0    0  0.00000000000E+00  0.00000000000E+00 -0.34995932138E+03  0.31723906715E+04  0.31530288686E+04 0.  0.
        3    1    3    3  502    0  0.78363711992E+03 -0.83805552911E+03  0.91285040704E+03  0.14661923753E+04  0.10100000352E+00 0.  1.
       -3    1    3    3    0  502 -0.78363711992E+03  0.83805552911E+03 -0.12628097284E+04  0.17061982962E+04  0.10100000352E+00 0. -1.
</event>
<event>
 5   0  0.2133385E-06  0.3084707E+04  0.7818609E-02  0.8219947E-01
        2   -1    0    0  501    0  0.00000000000E+00  0.00000000000E+00  0.26432091164E+04  0.26432091164E+04  0.25500000920E-02 0. -1.
       -2   -1    0    0    0  501  0.00000000000E+00  0.00000000000E+00 -0.89998735335E+03  0.89998735335E+03  0.25500000920E-02 0.  1.
    10030    2    1    2    0    0  0.00000000000E+00  0.00000000000E+00  0.17432217630E+04  0.35431964697E+04  0.30847072970E+04 0.  0.
        2    1    3    3  502    0  0.52669573422E+03  0.58742360999E+02  0.25353436568E+04  0.25901402510E+04  0.25500000920E-02 0. -1.
       -2    1    3    3    0  502 -0.52669573422E+03 -0.58742360999E+02 -0.79212189382E+03  0.95305621875E+03  0.25500000920E-02 0.  1.
</event>
<event>
 5   0  0.7413481E-07  0.3171461E+04  0.7818609E-02  0.8196395E-01
       -1   -1    0    0    0  501  0.00000000000E+00  0.00000000000E+00  0.14387592064E+04  0.14387592064E+04  0.50400001928E-02 0.  1.
        1   -1    0    0  501    0  0.00000000000E+00  0.00000000000E+00 -0.17477151492E+04  0.17477151492E+04  0.50400001928E-02 0. -1.
    10030    2    1    2    0    0  0.00000000000E+00  0.00000000000E+00 -0.30895594279E+03  0.31864743556E+04  0.31714610267E+04 0.  0.
        5    1    3    3  502    0  0.47767673376E+03 -0.15120146673E+04 -0.14193871002E+03  0.15920213891E+04  0.46999998093E+01 0.  1.
       -5    1    3    3    0  502 -0.47767673376E+03  0.15120146673E+04 -0.16701723277E+03  0.15944529664E+04  0.46999998093E+01 0. -1.
</event>
<event>
 5   0  0.7656332E-07  0.3100644E+04  0.7818609E-02  0.8215561E-01
        1   -1    0    0  501    0  0.00000000000E+00  0.00000000000E+00  0.10483990088E+04  0.10483990088E+04  0.50400001928E-02 0. -1.
       -1   -1    0    0    0  501  0.00000000000E+00  0.00000000000E+00 -0.22925414436E+04  0.22925414436E+04  0.50400001928E-02 0.  1.
    10030    2    1    2    0    0  0.00000000000E+00  0.00000000000E+00 -0.12441424347E+04  0.33409404524E+04  0.31006439184E+04 0.  0.
        2    1    3    3  502    0  0.71140326461E+03 -0.73371576555E+03 -0.18782079469E+04  0.21382465998E+04  0.25500000920E-02 0.  1.
       -2    1    3    3    0  502 -0.71140326461E+03  0.73371576555E+03  0.63406551217E+03  0.12026938527E+04  0.25500000920E-02 0. -1.
</event>
<event>
 5   0  0.7561815E-07  0.3060884E+04  0.7818609E-02  0.8226556E-01
        1   -1    0    0  501    0  0.00000000000E+00  0.00000000000E+00  0.10214834401E+04  0.10214834401E+04  0.50400001928E-02 0.  1.
       -1   -1    0    0    0  501  0.00000000000E+00  0.00000000000E+00 -0.22929919378E+04  0.22929919378E+04  0.50400001928E-02 0. -1.
    10030    2    1    2    0    0  0.00000000000E+00  0.00000000000E+00 -0.12715084977E+04  0.33144753780E+04  0.30608843773E+04 0.  0.
        3    1    3    3  502    0  0.43986463101E+03 -0.12221728077E+04  0.24066197304E+03  0.13210243983E+04  0.10100000352E+00 0.  1.
       -3    1    3    3    0  502 -0.43986463101E+03  0.12221728077E+04 -0.15121704708E+04  0.19934509797E+04  0.10100000352E+00 0. -1.
</event>
<event>
 5   0  0.2067926E-06  0.3070062E+04  0.7818609E-02  0.8224002E-01
        2   -1    0    0  501    0  0.00000000000E+00  0.00000000000E+00  0.15454351325E+04  0.15454351325E+04  0.25500000920E-02 0.  1.
       -2   -1    0    0    0  501  0.00000000000E+00  0.00000000000E+00 -0.15246968911E+04  0.15246968911E+04  0.25500000920E-02 0. -1.
    10030    2    1    2    0    0  0.00000000000E+00  0.00000000000E+00  0.20738241404E+02  0.30701320236E+04  0.30700619811E+04 0.  0.
        1    1    3    3  502    0  0.53641514986E+03 -0.14369149518E+04  0.72453950750E+02  0.15354853847E+04  0.50400001928E-02 0.  1.
       -1    1    3    3    0  502 -0.53641514986E+03  0.14369149518E+04 -0.51715709346E+02  0.15346466389E+04  0.50400001928E-02 0. -1.
</event>
<event>
 5   0  0.2133385E-06  0.3114912E+04  0.7818609E-02  0.8211657E-01
       -2   -1    0    0    0  501  0.00000000000E+00  0.00000000000E+00  0.12283350964E+04  0.12283350964E+04  0.25500000920E-02 0.  1.
        2   -1    0    0  501    0  0.00000000000E+00  0.00000000000E+00 -0.19747611451E+04  0.19747611451E+04  0.25500000920E-02 0. -1.
    10030    2    1    2    0    0  0.00000000000E+00  0.00000000000E+00 -0.74642604868E+03  0.32030962415E+04  0.31149115054E+04 0.  0.
        2    1    3    3  502    0 -0.10671390613E+04 -0.24617599808E+03  0.76551262146E+03  0.13361878505E+04  0.25500000920E-02 0.  1.
       -2    1    3    3    0  502  0.10671390613E+04  0.24617599808E+03 -0.15119386701E+04  0.18669083910E+04  0.25500000920E-02 0. -1.
</event>
<event>
 5   0  0.7561815E-07  0.3096616E+04  0.7818609E-02  0.8216667E-01
        1   -1    0    0  501    0  0.00000000000E+00  0.00000000000E+00  0.23077716509E+04  0.23077716509E+04  0.50400001928E-02 0.  1.
       -1   -1    0    0    0  501  0.00000000000E+00  0.00000000000E+00 -0.10387760595E+04  0.10387760595E+04  0.50400001928E-02 0. -1.
    10030    2    1    2    0    0  0.00000000000E+00  0.00000000000E+00  0.12689955914E+04  0.33465477104E+04  0.30966161801E+04 0.  0.
        3    1    3    3  502    0 -0.10214038885E+04  0.22334453234E+03 -0.59964845904E+03  0.12052912379E+04  0.10100000352E+00 0. -1.
       -3    1    3    3    0  502  0.10214038885E+04 -0.22334453234E+03  0.18686440505E+04  0.21412564725E+04  0.10100000352E+00 0.  1.
</event>
<event>
 5   0  0.2067926E-06  0.3014751E+04  0.7818609E-02  0.8239531E-01
        2   -1    0    0  501    0  0.00000000000E+00  0.00000000000E+00  0.21252775891E+04  0.21252775891E+04  0.25500000920E-02 0.  1.
       -2   -1    0    0    0  501  0.00000000000E+00  0.00000000000E+00 -0.10691216258E+04  0.10691216258E+04  0.25500000920E-02 0. -1.
    10030    2    1    2    0    0  0.00000000000E+00  0.00000000000E+00  0.10561559634E+04  0.31943992149E+04  0.30147505577E+04 0.  0.
        1    1    3    3  502    0  0.10086552406E+04  0.59077266682E+03 -0.48036133033E+03  0.12637819219E+04  0.50400001928E-02 0. -1.
       -1    1    3    3    0  502 -0.10086552406E+04 -0.59077266682E+03  0.15365172937E+04  0.19306172930E+04  0.50400001928E-02 0.  1.
</event>
<event>
 5   0  0.7726743E-07  0.3103167E+04  0.7818609E-02  0.8214869E-01
       -1   -1    0    0    0  501  0.00000000000E+00  0.00000000000E+00  0.12829344544E+04  0.12829344544E+04  0.50400001928E-02 0.  1.
        1   -1    0    0  501    0  0.00000000000E+00  0.00000000000E+00 -0.18764887322E+04  0.18764887322E+04  0.50400001928E-02 0. -1.
    10030    2    1    2    0    0  0.00000000000E+00  0.00000000000E+00 -0.59355427781E+03  0.31594231867E+04  0.31031674450E+04 0.  0.
        1    1    3    3  502    0  0.83389250786E+03 -0.58809080206E+03 -0.14868053969E+04  0.18032797327E+04  0.50400001928E-02 0. -1.
       -1    1    3    3    0  502 -0.83389250786E+03  0.58809080206E+03  0.89325111905E+03  0.13561434540E+04  0.50400001928E-02 0.  1.
</event>
<event>
 5   0  0.7561815E-07  0.3103069E+04  0.7818609E-02  0.8214896E-01
       -1   -1    0    0    0  501  0.00000000000E+00  0.00000000000E+00  0.14534172136E+04  0.14534172136E+04  0.50400001928E-02 0.  1.
        1   -1    0    0  501    0  0.00000000000E+00  0.00000000000E+00 -0.16562749629E+04  0.16562749629E+04  0.50400001928E-02 0. -1.
    10030    2    1    2    0    0  0.00000000000E+00  0.00000000000E+00 -0.20285774932E+03  0.31096921765E+04  0.31030685081E+04 0.  0.
        3    1    3    3  502    0 -0.12411531156E+04 -0.59322535206E+03 -0.82051272663E+03  0.16017548250E+04  0.10100000352E+00 0.  1.
       -3    1    3    3    0  502  0.12411531156E+04  0.59322535206E+03  0.61765497731E+03  0.15079373515E+04  0.10100000352E+00 0. -1.
</event>
<event>
 5   0  0.2094135E-06  0.3101715E+04  0.7818609E-02  0.8215267E-01
        2   -1    0    0  501    0  0.00000000000E+00  0.00000000000E+00  0.27043069464E+04  0.27043069464E+04  0.25500000920E-02 0.  1.
       -2   -1    0    0    0  501  0.00000000000E+00  0.00000000000E+00 -0.88938088812E+03  0.88938088812E+03  0.25500000920E-02 0. -1.
    10030    2    1    2    0    0  0.00000000000E+00  0.00000000000E+00  0.18149260582E+04  0.35936878345E+04  0.31017149538E+04 0.  0.
        4    1    3    3  502    0 -0.18131849757E+03  0.87943292369E+03 -0.55756595002E+03  0.10569579303E+04  0.12699999809E+01 0. -1.
       -4    1    3    3    0  502  0.18131849757E+03 -0.87943292369E+03  0.23724920083E+04  0.25367299042E+04  0.12699999809E+01 0.  1.
</event>
<event>
 5   0  0.2226334E-06  0.3108089E+04  0.7818609E-02  0.8213521E-01
        2   -1    0    0  501    0  0.00000000000E+00  0.00000000000E+00  0.14243519811E+04  0.14243519811E+04  0.25500000920E-02 0. -1.
       -2   -1    0    0    0  501  0.00000000000E+00  0.00000000000E+00 -0.16955462532E+04  0.16955462532E+04  0.25500000920E-02 0.  1.
    10030    2    1    2    0    0  0.00000000000E+00  0.00000000000E+00 -0.27119427206E+03  0.31198982343E+04  0.31080892296E+04 0.  0.
        5    1    3    3  502    0 -0.49789846971E+03  0.91858779405E+03  0.10191327278E+04  0.14595752904E+04  0.46999998093E+01 0. -1.
       -5    1    3    3    0  502  0.49789846971E+03 -0.91858779405E+03 -0.12903269999E+04  0.16603229439E+04  0.46999998093E+01 0.  1.
</event>
<event>
 5   0  0.2067926E-06  0.3091053E+04  0.7818609E-02  0.8218198E-01
        2   -1    0    0  501    0  0.00000000000E+00  0.00000000000E+00  0.23963063406E+04  0.23963063406E+04  0.25500000920E-02 0. -1.
       -2   -1    0    0    0  501  0.00000000000E+00  0.00000000000E+00 -0.99680559211E+03  0.99680559212E+03  0.25500000920E-02 0.  1.
    10030    2    1    2    0    0  0.00000000000E+00  0.00000000000E+00  0.13995007485E+04  0.33931119327E+04  0.30910526108E+04 0.  0.
        1    1    3    3  502    0 -0.14476699003E+04  0.52840807855E+03  0.82818050171E+03  0.17495274165E+04  0.50400001928E-02 0.  1.
       -1    1    3    3    0  502  0.14476699003E+04 -0.52840807855E+03  0.57132024678E+03  0.16435845162E+04  0.50400001928E-02 0. -1.
</event>
<event>
 5   0  0.2226334E-06  0.3108475E+04  0.7818609E-02  0.8213416E-01
       -2   -1    0    0    0  501  0.00000000000E+00  0.00000000000E+00  0.93659789570E+03  0.93659789570E+03  0.25500000920E-02 0. -1.
        2   -1    0    0  501    0  0.00000000000E+00  0.00000000000E+00 -0.25791798785E+04  0.25791798785E+04  0.25500000920E-02 0.  1.
    10030    2    1    2    0    0  0.00000000000E+00  0.00000000000E+00 -0.16425819828E+04  0.35157777742E+04  0.31084751547E+04 0.  0.
        5    1    3    3  502    0 -0.10066743822E+04  0.11418789949E+04 -0.11759935345E+04  0.19236069853E+04  0.46999998093E+01 0.  1.
       -5    1    3    3    0  502  0.10066743822E+04 -0.11418789949E+04 -0.46658844825E+03  0.15921707888E+04  0.46999998093E+01 0. -1.
</event>
<event>
 5   0  0.2094135E-06  0.3100777E+04  0.7818609E-02  0.8215525E-01
       -2   -1    0    0    0  501  0.00000000000E+00  0.00000000000E+00  0.11048007064E+04  0.11048007064E+04  0.25500000920E-02 0.  1.
        2   -1    0    0  501    0  0.00000000000E+00  0.00000000000E+00 -0.21756906192E+04  0.21756906192E+04  0.25500000920E-02 0. -1.
    10030    2    1    2    0    0  0.00000000000E+00  0.00000000000E+00 -0.10708899129E+04  0.32804913256E+04  0.31007770207E+04 0.  0.
        4    1    3    3  502    0 -0.57385140897E+03 -0.67423569546E+03  0.81103394032E+03  0.12006984958E+04  0.12699999809E+01 0.  1.
       -4    1    3    3    0  502  0.57385140897E+03  0.67423569546E+03 -0.18819238532E+04  0.20797928298E+04  0.12699999809E+01 0. -1.
</event>
<event>
 5   0  0.7561815E-07  0.3140873E+04  0.7818609E-02  0.8204609E-01
       -1   -1    0    0    0  501  0.00000000000E+00  0.00000000000E+00  0.15933603356E+04  0.15933603356E+04  0.50400001928E-02 0. -1.
        1   -1    0    0  501    0  0.00000000000E+00  0.00000000000E+00 -0.15478422059E+04  0.15478422059E+04  0.50400001928E-02 0.  1.
    10030    2    1    2    0    0  0.00000000000E+00  0.00000000000E+00  0.45518129717E+02  0.31412025415E+04  0.31408727301E+04 0.  0.
        3    1    3    3  502    0 -0.78912501459E+03  0.77770565001E+02  0.13784469848E+04  0.15902460972E+04  0.10100000352E+00 0. -1.
       -3    1    3    3    0  502  0.78912501459E+03 -0.77770565001E+02 -0.13329288551E+04  0.15509564444E+04  0.10100000352E+00 0.  1.
</event>
<event>
 5   0  0.7561815E-07  0.3074312E+04  0.7818609E-02  0.8222823E-01
        1   -1    0    0  501    0  0.00000000000E+00  0.00000000000E+00  0.19490244732E+04  0.19490244732E+04  0.50400001928E-02 0.  1.
       -1   -1    0    0    0  501  0.00000000000E+00  0.00000000000E+00 -0.12123238711E+04  0.12123238711E+04  0.50400001928E-02 0. -1.
    10030    2    1    2    0    0  0.00000000000E+00  0.00000000000E+00  0.73670060214E+03  0.31613483443E+04  0.30743122120E+04 0.  0.
        3    1    3    3  502    0  0.19290125863E+03 -0.14898909471E+04  0.33773066517E+02  0.15027064118E+04  0.10100000352E+00 0.  1.
       -3    1    3    3    0  502 -0.19290125863E+03  0.14898909471E+04  0.70292753563E+03  0.16586419325E+04  0.10100000352E+00 0. -1.
</event>
<event>
 5   0  0.2078009E-06  0.3074099E+04  0.7818609E-02  0.8222882E-01
       -2   -1    0    0    0  501  0.00000000000E+00  0.00000000000E+00  0.17097993252E+04  0.17097993252E+04  0.25500000920E-02 0.  1.
        2   -1    0    0  501    0  0.00000000000E+00  0.00000000000E+00 -0.13817534050E+04  0.13817534050E+04  0.25500000920E-02 0. -1.
    10030    2    1    2    0    0  0.00000000000E+00  0.00000000000E+00  0.32804592018E+03  0.30915527302E+04  0.30740989181E+04 0.  0.
        3    1    3    3  502    0 -0.76447799606E+03  0.11591649717E+04  0.82687900290E+03  0.16161122900E+04  0.10100000352E+00 0.  1.
       -3    1    3    3    0  502  0.76447799606E+03 -0.11591649717E+04 -0.49883308272E+03  0.14754404403E+04  0.10100000352E+00 0. -1.
</event>
<event>
 5   0  0.2094135E-06  0.3094156E+04  0.7818609E-02  0.8217344E-01
       -2   -1    0    0    0  501  0.00000000000E+00  0.00000000000E+00  0.97888235514E+03  0.97888235514E+03  0.25500000920E-02 0.  1.
        2   -1    0    0  501    0  0.00000000000E+00  0.00000000000E+00 -0.24450839861E+04  0.24450839861E+04  0.25500000920E-02 0. -1.
    10030    2    1    2    0    0  0.00000000000E+00  0.00000000000E+00 -0.14662016310E+04  0.34239663413E+04  0.30941555041E+04 0.  0.
        4    1    3    3  502    0 -0.52719266838E+03  0.14289197237E+04 -0.10335241619E+04  0.18406296457E+04  0.12699999809E+01 0. -1.
       -4    1    3    3    0  502  0.52719266838E+03 -0.14289197237E+04 -0.43267746905E+03  0.15833366956E+04  0.12699999809E+01 0.  1.
</event>
<event>
 5   0  0.7656332E-07  0.3108402E+04  0.7818609E-02  0.8213436E-01
        1   -1    0    0  501    0  0.00000000000E+00  0.00000000000E+00  0.21361316473E+04  0.21361316473E+04  0.50400001928E-02 0. -1.
       -1   -1    0    0    0  501  0.00000000000E+00  0.00000000000E+00 -0.11308011067E+04  0.11308011067E+04  0.50400001928E-02 0.  1.
    10030    2    1    2    0    0  0.00000000000E+00  0.00000000000E+00  0.10053305406E+04  0.32669327539E+04  0.31084015382E+04 0.  0.
        2    1    3    3  502    0  0.40127595704E+03 -0.18175280670E+03  0.20691444650E+04  0.21155177365E+04  0.25500000920E-02 0. -1.
       -2    1    3    3    0  502 -0.40127595704E+03  0.18175280670E+03 -0.10638139244E+04  0.11514150174E+04  0.25500000920E-02 0.  1.
</event>
<event>
 5   0  0.7726743E-07  0.3006113E+04  0.7818609E-02  0.8241988E-01
        1   -1    0    0  501    0  0.00000000000E+00  0.00000000000E+00  0.13416018199E+04  0.13416018199E+04  0.50400001928E-02 0.  1.
       -1   -1    0    0    0  501  0.00000000000E+00  0.00000000000E+00 -0.16839409226E+04  0.16839409226E+04  0.50400001928E-02 0. -1.
    10030    2    1    2    0    0  0.00000000000E+00  0.00000000000E+00 -0.34233910263E+03  0.30255427425E+04  0.30061125770E+04 0.  0.
        1    1    3    3  502    0  0.22919008912E+03 -0.87736243396E+03  0.10352798112E+04  0.13762620480E+04  0.50400001928E-02 0.  1.
       -1    1    3    3    0  502 -0.22919008912E+03  0.87736243396E+03 -0.13776189138E+04  0.16492806945E+04  0.50400001928E-02 0. -1.
</event>
<event>
 5   0  0.7656332E-07  0.3070774E+04  0.7818609E-02  0.8223805E-01
       -1   -1    0    0    0  501  0.00000000000E+00  0.00000000000E+00  0.18209983492E+04  0.18209983492E+04  0.50400001928E-02 0.  1.
        1   -1    0    0  501    0  0.00000000000E+00  0.00000000000E+00 -0.12945714829E+04  0.12945714829E+04  0.50400001928E-02 0. -1.
    10030    2    1    2    0    0  0.00000000000E+00  0.00000000000E+00  0.52642686625E+03  0.31155698321E+04  0.30707735399E+04 0.  0.
        2    1    3    3  502    0 -0.24325866706E+03  0.65942651730E+03  0.16481889489E+04  0.17917993532E+04  0.25500000920E-02 0.  1.
       -2    1    3    3    0  502  0.24325866706E+03 -0.65942651730E+03 -0.11217620826E+04  0.13237704789E+04  0.25500000920E-02 0. -1.
</event>
<event>
 5   0  0.2094135E-06  0.3099478E+04  0.7818609E-02  0.8215881E-01
        2   -1    0    0  501    0  0.00000000000E+00  0.00000000000E+00  0.17673585950E+04  0.17673585950E+04  0.25500000920E-02 0. -1.
       -2   -1    0    0    0  501  0.00000000000E+00  0.00000000000E+00 -0.13589156739E+04  0.13589156739E+04  0.25500000920E-02 0.  1.
    10030    2    1    2    0    0  0.00000000000E+00  0.00000000000E+00  0.40844292102E+03  0.31262742689E+04  0.30994782117E+04 0.  0.
        4    1    3    3  502    0 -0.22837696764E+03  0.70799105396E+02 -0.13401990622E+04  0.13613609705E+04  0.12699999809E+01 0.  1.
       -4    1    3    3    0  502  0.22837696764E+03 -0.70799105396E+02  0.17486419832E+04  0.17649132984E+04  0.12699999809E+01 0. -1.
</event>
<event>
 5   0  0.2094135E-06  0.3113289E+04  0.7818609E-02  0.8212100E-01
       -2   -1    0    0    0  501  0.00000000000E+00  0.00000000000E+00  0.85224791231E+03  0.85224791231E+03  0.25500000920E-02 0. -1.
        2   -1    0    0  501    0  0.00000000000E+00  0.00000000000E+00 -0.28432353604E+04  0.28432353604E+04  0.25500000920E-02 0.  1.
    10030    2    1    2    0    0  0.00000000000E+00  0.00000000000E+00 -0.19909874481E+04  0.36954832728E+04  0.31132885508E+04 0.  0.
        4    1    3    3  502    0  0.97667838577E+03  0.85878753345E+03 -0.20108658718E+04  0.23947859746E+04  0.12699999809E+01 0.  1.
       -4    1    3    3    0  502 -0.97667838577E+03 -0.85878753345E+03  0.19878423658E+02  0.13006972982E+04  0.12699999809E+01 0. -1.
</event>
<event>
 5   0  0.2226334E-06  0.3101251E+04  0.7818609E-02  0.8215395E-01
        2   -1    0    0  501    0  0.00000000000E+00  0.00000000000E+00  0.19285631853E+04  0.19285631853E+04  0.25500000920E-02 0. -1.
       -2   -1    0    0    0  501  0.00000000000E+00  0.00000000000E+00 -0.12467520595E+04  0.12467520595E+04  0.25500000920E-02 0.  1.
    10030    2    1    2    0    0  0.00000000000E+00  0.00000000000E+00  0.68181112583E+03  0.31753152448E+04  0.31012514398E+04 0.  0.
        5    1    3    3  502    0  0.27298667200E+03 -0.13923522649E+04  0.98134470425E+03  0.17251742147E+04  0.46999998093E+01 0. -1.
       -5    1    3    3    0  502 -0.27298667200E+03  0.13923522649E+04 -0.29953357842E+03  0.14501410301E+04  0.46999998093E+01 0.  1.
</event>
<event>
 5   0  0.7561815E-07  0.3118239E+04  0.7818609E-02  0.8210750E-01
       -1   -1    0    0    0  501  0.00000000000E+00  0.00000000000E+00  0.15374883301E+04  0.15374883301E+04  0.50400001928E-02 0. -1.
        1   -1    0    0  501    0  0.00000000000E+00  0.00000000000E+00 -0.15810549616E+04  0.15810549616E+04  0.50400001928E-02 0.  1.
    10030    2    1    2    0    0  0.00000000000E+00  0.00000000000E+00 -0.43566631492E+02  0.31185432917E+04  0.31182389598E+04 0.  0.
        3    1    3    3  502    0 -0.10148415173E+03  0.12798849759E+04  0.86286446460E+03  0.15469129513E+04  0.10100000352E+00 0. -1.
       -3    1    3    3    0  502  0.10148415173E+03 -0.12798849759E+04 -0.90643109609E+03  0.15716303403E+04  0.10100000352E+00 0.  1.
</event>
<event>
 5   0  0.7656332E-07  0.3098974E+04  0.7818609E-02  0.8216020E-01
        1   -1    0    0  501    0  0.00000000000E+00  0.00000000000E+00  0.17387222114E+04  0.17387222114E+04  0.50400001928E-02 0. -1.
       -1   -1    0    0    0  501  0.00000000000E+00  0.00000000000E+00 -0.13808473466E+04  0.13808473466E+04  0.50400001928E-02 0.  1.
    10030    2    1    2    0    0  0.00000000000E+00  0.00000000000E+00  0.35787486478E+03  0.31195695580E+04  0.30989739928E+04 0.  0.
        2    1    3    3  502    0  0.74824415112E+03  0.11715828677E+04 -0.51003374186E+03  0.14807464818E+04  0.25500000920E-02 0. -1.
       -2    1    3    3    0  502 -0.74824415112E+03 -0.11715828677E+04  0.86790860664E+03  0.16388230762E+04  0.25500000920E-02 0.  1.
</event>
<event>
 5   0  0.2067926E-06  0.3091582E+04  0.7818609E-02  0.8218052E-01
        2   -1    0    0  501    0  0.00000000000E+00  0.00000000000E+00  0.27353994994E+04  0.27353994994E+04  0.25500000920E-02 0.  1.
       -2   -1    0    0    0  501  0.00000000000E+00  0.00000000000E+00 -0.87353583283E+03  0.87353583283E+03  0.25500000920E-02 0. -1.
    10030    2    1    2    0    0  0.00000000000E+00  0.00000000000E+00  0.18618636666E+04  0.36089353322E+04  0.30915817827E+04 0.  0.
        1    1    3    3  502    0  0.86010914233E+03 -0.63570596265E+03  0.22337404725E+04  0.24765916713E+04  0.50400001928E-02 0.  1.
       -1    1    3    3    0  502 -0.86010914233E+03  0.63570596265E+03 -0.37187680594E+03  0.11323436609E+04  0.50400001928E-02 0. -1.
</event>
<event>
 5   0  0.7519202E-07  0.3047880E+04  0.7818609E-02  0.8230189E-01
        1   -1    0    0  501    0  0.00000000000E+00  0.00000000000E+00  0.22538049328E+04  0.22538049329E+04  0.50400001928E-02 0.  1.
       -1   -1    0    0    0  501  0.00000000000E+00  0.00000000000E+00 -0.10304322835E+04  0.10304322835E+04  0.50400001928E-02 0. -1.
    10030    2    1    2    0    0  0.00000000000E+00  0.00000000000E+00  0.12233726494E+04  0.32842372163E+04  0.30478801574E+04 0.  0.
        4    1    3    3  502    0  0.11316008859E+04 -0.10196558210E+04  0.56145371745E+03  0.16234070494E+04  0.12699999809E+01 0. -1.
       -4    1    3    3    0  502 -0.11316008859E+04  0.10196558210E+04  0.66191893193E+03  0.16608301670E+04  0.12699999809E+01 0.  1.
</event>
<event>
 5   0  0.2094135E-06  0.3144900E+04  0.7818609E-02  0.8203522E-01
        2   -1    0    0  501    0  0.00000000000E+00  0.00000000000E+00  0.22946801418E+04  0.22946801418E+04  0.25500000920E-02 0.  1.
       -2   -1    0    0    0  501  0.00000000000E+00  0.00000000000E+00 -0.10775351723E+04  0.10775351723E+04  0.25500000920E-02 0. -1.
    10030    2    1    2    0    0  0.00000000000E+00  0.00000000000E+00  0.12171449695E+04  0.33722153141E+04  0.31448997199E+04 0.  0.
        4    1    3    3  502    0 -0.69226383713E+03 -0.10188503382E+04  0.16566201787E+04  0.20643830220E+04  0.12699999809E+01 0.  1.
       -4    1    3    3    0  502  0.69226383713E+03  0.10188503382E+04 -0.43947520925E+03  0.13078322921E+04  0.12699999809E+01 0. -1.
</event>
<event>
 5   0  0.2133385E-06  0.3097442E+04  0.7818609E-02  0.8216440E-01
        2   -1    0    0  501    0  0.00000000000E+00  0.00000000000E+00  0.18952800950E+04  0.18952800950E+04  0.25500000920E-02 0. -1.
       -2   -1    0    0    0  501  0.00000000000E+00  0.00000000000E+00 -0.12655311786E+04  0.12655311786E+04  0.25500000920E-02 0.  1.
    10030    2    1    2    0    0  0.00000000000E+00  0.00000000000E+00  0.62974891643E+03  0.31608112736E+04  0.30974415587E+04 0.  0.
        2    1    3    3  502    0 -0.69735200176E+03  0.48508412760E+03  0.16363309338E+04  0.18436879753E+04  0.25500000920E-02 0. -1.
       -2    1    3    3    0  502  0.69735200176E+03 -0.48508412760E+03 -0.10065820174E+04  0.13171232983E+04  0.25500000920E-02 0.  1.
</event>
<event>
 5   0  0.7519202E-07  0.3095537E+04  0.7818609E-02  0.8216964E-01
        1   -1    0    0  501    0  0.00000000000E+00  0.00000000000E+00  0.17177224679E+04  0.17177224679E+04  0.50400001928E-02 0.  1.
       -1   -1    0    0    0  501  0.00000000000E+00  0.00000000000E+00 -0.13946300690E+04  0.13946300690E+04  0.50400001928E-02 0. -1.
    10030    2    1    2    0    0  0.00000000000E+00  0.00000000000E+00  0.32309239889E+03  0.31123525368E+04  0.30955370480E+04 0.  0.
        4    1    3    3  502    0  0.68198707402E+03 -0.13764894981E+04  0.35166617462E+03  0.15759125670E+04  0.12699999809E+01 0.  1.
       -4    1    3    3    0  502 -0.68198707402E+03  0.13764894981E+04 -0.28573775728E+02  0.15364399699E+04  0.12699999809E+01 0. -1.
</event>
<event>
 5   0  0.2094135E-06  0.3031980E+04  0.7818609E-02  0.8234657E-01
        2   -1    0    0  501    0  0.00000000000E+00  0.00000000000E+00  0.17789277075E+04  0.17789277075E+04  0.25500000920E-02 0.  1.
       -2   -1    0    0    0  501  0.00000000000E+00  0.00000000000E+00 -0.12919165813E+04  0.12919165813E+04  0.25500000920E-02 0. -1.
    10030    2    1    2    0    0  0.00000000000E+00  0.00000000000E+00  0.48701112617E+03  0.30708442888E+04  0.30319803444E+04 0.  0.
        4    1    3    3  502    0  0.12396977097E+03  0.13958578389E+04  0.82922354824E+03  0.16283122908E+04  0.12699999809E+01 0.  1.
       -4    1    3    3    0  502 -0.12396977097E+03 -0.13958578389E+04 -0.34221242207E+03  0.14425319980E+04  0.12699999809E+01 0. -1.
</event>
<event>
 5   0  0.7561815E-07  0.3088088E+04  0.7818609E-02  0.8219015E-01
       -1   -1    0    0    0  501  0.00000000000E+00  0.00000000000E+00  0.15832244518E+04  0.15832244518E+04  0.50400001928E-02 0.  1.
        1   -1    0    0  501    0  0.00000000000E+00  0.00000000000E+00 -0.15058330044E+04  0.15058330044E+04  0.50400001928E-02 0. -1.
    10030    2    1    2    0    0  0.00000000000E+00  0.00000000000E+00  0.77391447358E+02  0.30890574563E+04  0.30880878439E+04 0.  0.
        3    1    3    3  502    0  0.90984476083E+03 -0.83432298933E+03  0.96643465352E+03  0.15677717592E+04  0.10100000352E+00 0.  1.
       -3    1    3    3    0  502 -0.90984476083E+03  0.83432298933E+03 -0.88904320617E+03  0.15212856970E+04  0.10100000352E+00 0. -1.
</event>
<event>
 5   0  0.2226334E-06  0.3042116E+04  0.7818609E-02  0.8231806E-01
       -2   -1    0    0    0  501  0.00000000000E+00  0.00000000000E+00  0.11415487030E+04  0.11415487030E+04  0.25500000920E-02 0. -1.
        2   -1    0    0  501    0  0.00000000000E+00  0.00000000000E+00 -0.20267352614E+04  0.20267352614E+04  0.25500000920E-02 0.  1.
    10030    2    1    2    0    0  0.00000000000E+00  0.00000000000E+00 -0.88518655844E+03  0.31682839644E+04  0.30421157170E+04 0.  0.
        5    1    3    3  502    0  0.59950845456E+03 -0.10116974856E+03 -0.18946742253E+04  0.19898387410E+04  0.46999998093E+01 0.  1.
       -5    1    3    3    0  502 -0.59950845456E+03  0.10116974856E+03  0.10094876668E+04  0.11784452234E+04  0.46999998093E+01 0. -1.
</event>
<event>
 5   0  0.2226334E-06  0.3099073E+04  0.7818609E-02  0.8215992E-01
       -2   -1    0    0    0  501  0.00000000000E+00  0.00000000000E+00  0.11304495266E+04  0.11304495266E+04  0.25500000920E-02 0. -1.
        2   -1    0    0  501    0  0.00000000000E+00  0.00000000000E+00 -0.21239899917E+04  0.21239899917E+04  0.25500000920E-02 0.  1.
    10030    2    1    2    0    0  0.00000000000E+00  0.00000000000E+00 -0.99354046511E+03  0.32544395184E+04  0.30990730748E+04 0.  0.
        5    1    3    3  502    0 -0.19172291197E+03  0.96136281257E+03  0.76341815868E+03  0.12424997012E+04  0.46999998093E+01 0. -1.
       -5    1    3    3    0  502  0.19172291197E+03 -0.96136281257E+03 -0.17569586238E+04  0.20119398172E+04  0.46999998093E+01 0.  1.
</event>
<event>
 5   0  0.2067926E-06  0.3099706E+04  0.7818609E-02  0.8215819E-01
        2   -1    0    0  501    0  0.00000000000E+00  0.00000000000E+00  0.22403261723E+04  0.22403261723E+04  0.25500000920E-02 0.  1.
       -2   -1    0    0    0  501  0.00000000000E+00  0.00000000000E+00 -0.10721851348E+04  0.10721851348E+04  0.25500000920E-02 0. -1.
    10030    2    1    2    0    0  0.00000000000E+00  0.00000000000E+00  0.11681410376E+04  0.33125113071E+04  0.30997060629E+04 0.  0.
        1    1    3    3  502    0  0.15435266818E+03  0.12515778427E+04  0.15469103422E+04  0.19957964448E+04  0.50400001928E-02 0.  1.
       -1    1    3    3    0  502 -0.15435266818E+03 -0.12515778427E+04 -0.37876930461E+03  0.13167148623E+04  0.50400001928E-02 0. -1.
</event>
<event>
 5   0  0.7519202E-07  0.3112601E+04  0.7818609E-02  0.8212288E-01
        1   -1    0    0  501    0  0.00000000000E+00  0.00000000000E+00  0.14734598684E+04  0.14734598684E+04  0.50400001928E-02 0. -1.
       -1   -1    0    0    0  501  0.00000000000E+00  0.00000000000E+00 -0.16437982494E+04  0.16437982495E+04  0.50400001928E-02 0.  1.
    10030    2    1    2    0    0  0.00000000000E+00  0.00000000000E+00 -0.17033838104E+03  0.31172581179E+04  0.31126006826E+04 0.  0.
        4    1    3    3  502    0  0.54095445921E+03 -0.13140531640E+04 -0.72070654942E+03  0.15933571439E+04  0.12699999809E+01 0.  1.
       -4    1    3    3    0  502 -0.54095445921E+03  0.13140531640E+04  0.55036816838E+03  0.15239009740E+04  0.12699999809E+01 0. -1.
</event>
<event>
 5   0  0.7561815E-07  0.3042208E+04  0.7818609E-02  0.8231780E-01
       -1   -1    0    0    0  501  0.00000000000E+00  0.00000000000E+00  0.15250314840E+04  0.15250314840E+04  0.50400001928E-02 0. -1.
        1   -1    0    0  501    0  0.00000000000E+00  0.00000000000E+00 -0.15171867466E+04  0.15171867466E+04  0.50400001928E-02 0.  1.
    10030    2    1    2    0    0  0.00000000000E+00  0.00000000000E+00  0.78447374107E+01  0.30422182306E+04  0.30422081163E+04 0.  0.
        3    1    3    3  502    0  0.58225910818E+03  0.99564666965E+03  0.99560080689E+03  0.15236662813E+04  0.10100000352E+00 0. -1.
       -3    1    3    3    0  502 -0.58225910818E+03 -0.99564666965E+03 -0.98775606947E+03  0.15185519493E+04  0.10100000352E+00 0.  1.
</event>
<event>
 5   0  0.7561815E-07  0.3108666E+04  0.7818609E-02  0.8213364E-01
        1   -1    0    0  501    0  0.00000000000E+00  0.00000000000E+00  0.17180709622E+04  0.17180709622E+04  0.50400001928E-02 0.  1.
       -1   -1    0    0    0  501  0.00000000000E+00  0.00000000000E+00 -0.14062002402E+04  0.14062002402E+04  0.50400001928E-02 0. -1.
    10030    2    1    2    0    0  0.00000000000E+00  0.00000000000E+00  0.31187072202E+03  0.31242712025E+04  0.31086664664E+04 0.  0.
        3    1    3    3  502    0  0.86243574097E+01 -0.64119085666E+03 -0.12670646128E+04  0.14200890244E+04  0.10100000352E+00 0. -1.
       -3    1    3    3    0  502 -0.86243574097E+01  0.64119085666E+03  0.15789353348E+04  0.17041821780E+04  0.10100000352E+00 0.  1.
</event>
<event>
 5   0  0.2094135E-06  0.3064472E+04  0.7818609E-02  0.8225556E-01
       -2   -1    0    0    0  501  0.00000000000E+00  0.00000000000E+00  0.13376392028E+04  0.13376392028E+04  0.25500000920E-02 0.  1.
        2   -1    0    0  501    0  0.00000000000E+00  0.00000000000E+00 -0.17551424680E+04  0.17551424680E+04  0.25500000920E-02 0. -1.
    10030    2    1    2    0    0  0.00000000000E+00  0.00000000000E+00 -0.41750326521E+03  0.30927816708E+04  0.30644721384E+04 0.  0.
        4    1    3    3  502    0 -0.91259083374E+03 -0.11249109627E+04 -0.71286479632E+03  0.16144424841E+04  0.12699999809E+01 0. -1.
       -4    1    3    3    0  502  0.91259083374E+03  0.11249109627E+04  0.29536153112E+03  0.14783391867E+04  0.12699999809E+01 0.  1.
</event>
<event>
 5   0  0.7413481E-07  0.3080120E+04  0.7818609E-02  0.8221215E-01
       -1   -1    0    0    0  501  0.00000000000E+00  0.00000000000E+00  0.26010790275E+04  0.26010790275E+04  0.50400001928E-02 0.  1.
        1   -1    0    0  501    0  0.00000000000E+00  0.00000000000E+00 -0.91184655198E+03  0.91184655200E+03  0.50400001928E-02 0. -1.
    10030    2    1    2    0    0  0.00000000000E+00  0.00000000000E+00  0.16892324755E+04  0.35129255795E+04  0.30801200903E+04 0.  0.
        5    1    3    3  502    0  0.12713874624E+04  0.78343332019E+03  0.12737427941E+04  0.19628134507E+04  0.46999998093E+01 0.  1.
       -5    1    3    3    0  502 -0.12713874624E+04 -0.78343332019E+03  0.41548968141E+03  0.15501121288E+04  0.46999998093E+01 0. -1.
</event>
<event>
 5   0  0.7519202E-07  0.3084005E+04  0.7818609E-02  0.8220141E-01
        1   -1    0    0  501    0  0.00000000000E+00  0.00000000000E+00  0.10702223363E+04  0.10702223363E+04  0.50400001928E-02 0. -1.
       -1   -1    0    0    0  501  0.00000000000E+00  0.00000000000E+00 -0.22217552827E+04  0.22217552827E+04  0.50400001928E-02 0.  1.
    10030    2    1    2    0    0  0.00000000000E+00  0.00000000000E+00 -0.11515329464E+04  0.32919776190E+04  0.30840052720E+04 0.  0.
        4    1    3    3  502    0 -0.72060145424E+02  0.86635362440E+03 -0.19352327078E+04  0.21215297578E+04  0.12699999809E+01 0.  1.
       -4    1    3    3    0  502  0.72060145424E+02 -0.86635362440E+03  0.78369976136E+03  0.11704478613E+04  0.12699999809E+01 0. -1.
</event>
<event>
 5   0  0.7656332E-07  0.3105389E+04  0.7818609E-02  0.8214260E-01
       -1   -1    0    0    0  501  0.00000000000E+00  0.00000000000E+00  0.91767516018E+03  0.91767516020E+03  0.50400001928E-02 0.  1.
        1   -1    0    0  501    0  0.00000000000E+00  0.00000000000E+00 -0.26271391513E+04  0.26271391513E+04  0.50400001928E-02 0. -1.
    10030    2    1    2    0    0  0.00000000000E+00  0.00000000000E+00 -0.17094639911E+04  0.35448143115E+04  0.31053890845E+04 0.  0.
        2    1    3    3  502    0  0.58285595879E+02  0.15146413010E+04 -0.12390051665E+04  0.19577204305E+04  0.25500000920E-02 0. -1.
       -2    1    3    3    0  502 -0.58285595879E+02 -0.15146413010E+04 -0.47045882460E+03  0.15870938810E+04  0.25500000920E-02 0.  1.
</event>
<event>
 5   0  0.2078009E-06  0.3022341E+04  0.7818609E-02  0.8237380E-01
       -2   -1    0    0    0  501  0.00000000000E+00  0.00000000000E+00  0.15540505340E+04  0.15540505340E+04  0.25500000920E-02 0. -1.
        2   -1    0    0  501    0  0.00000000000E+00  0.00000000000E+00 -0.14694732394E+04  0.14694732394E+04  0.25500000920E-02 0.  1.
    10030    2    1    2    0    0  0.00000000000E+00  0.00000000000E+00  0.84577294596E+02  0.30235237735E+04  0.30223405979E+04 0.  0.
        3    1    3    3  502    0 -0.98223794038E+02  0.14763333994E+04  0.34969942964E+03  0.15203611154E+04  0.10100000352E+00 0.  1.
       -3    1    3    3    0  502  0.98223794038E+02 -0.14763333994E+04 -0.26512213505E+03  0.15031626581E+04  0.10100000352E+00 0. -1.
</event>
<event>
 5   0  0.2094135E-06  0.3104600E+04  0.7818609E-02  0.8214477E-01
        2   -1    0    0  501    0  0.00000000000E+00  0.00000000000E+00  0.15482564615E+04  0.15482564615E+04  0.25500000920E-02 0.  1.
       -2   -1    0    0    0  501  0.00000000000E+00  0.00000000000E+00 -0.15563540813E+04  0.15563540813E+04  0.25500000920E-02 0. -1.
    10030    2    1    2    0    0  0.00000000000E+00  0.00000000000E+00 -0.80976198564E+01  0.31046105428E+04  0.31045999824E+04 0.  0.
        4    1    3    3  502    0  0.31345545854E+03  0.15140428614E+03 -0.15168183350E+04  0.15562509620E+04  0.12699999809E+01 0. -1.
       -4    1    3    3    0  502 -0.31345545854E+03 -0.15140428614E+03  0.15087207151E+04  0.15483595808E+04  0.12699999809E+01 0.  1.
</event>
<event>
 5   0  0.2067926E-06  0.3100295E+04  0.7818609E-02  0.8215657E-01
       -2   -1    0    0    0  501  0.00000000000E+00  0.00000000000E+00  0.12266024464E+04  0.12266024464E+04  0.25500000920E-02 0.  1.
        2   -1    0    0  501    0  0.00000000000E+00  0.00000000000E+00 -0.19590349118E+04  0.19590349118E+04  0.25500000920E-02 0. -1.
    10030    2    1    2    0    0  0.00000000000E+00  0.00000000000E+00 -0.73243246534E+03  0.31856373582E+04  0.31002948347E+04 0.  0.
        1    1    3    3  502    0 -0.10832867098E+04  0.40735807398E+03  0.69343604604E+03  0.13491865127E+04  0.50400001928E-02 0.  1.
       -1    1    3    3    0  502  0.10832867098E+04 -0.40735807398E+03 -0.14258685114E+04  0.18364508455E+04  0.50400001928E-02 0. -1.
</event>
<event>
 5   0  0.2078009E-06  0.3135076E+04  0.7818609E-02  0.8206177E-01
       -2   -1    0    0    0  501  0.00000000000E+00  0.00000000000E+00  0.10384745647E+04  0.10384745647E+04  0.25500000920E-02 0. -1.
        2   -1    0    0  501    0  0.00000000000E+00  0.00000000000E+00 -0.23661389745E+04  0.23661389745E+04  0.25500000920E-02 0.  1.
    10030    2    1    2    0    0  0.00000000000E+00  0.00000000000E+00 -0.13276644098E+04  0.34046135392E+04  0.31350758470E+04 0.  0.
        3    1    3    3  502    0  0.34021657654E+03 -0.95927742391E+03  0.63080953687E+03  0.11974477763E+04  0.10100000352E+00 0. -1.
       -3    1    3    3    0  502 -0.34021657654E+03  0.95927742391E+03 -0.19584739467E+04  0.22071657629E+04  0.10100000352E+00 0.  1.
</event>
<event>
 5   0  0.7413481E-07  0.3108615E+04  0.7818609E-02  0.8213378E-01
       -1   -1    0    0    0  501  0.00000000000E+00  0.00000000000E+00  0.12425065398E+04  0.12425065398E+04  0.50400001928E-02 0. -1.
        1   -1    0    0  501    0  0.00000000000E+00  0.00000000000E+00 -0.19443530070E+04  0.19443530070E+04  0.50400001928E-02 0.  1.
    10030    2    1    2    0    0  0.00000000000E+00  0.00000000000E+00 -0.70184646721E+03  0.31868595467E+04  0.31086146926E+04 0.  0.
        5    1    3    3  502    0  0.51945086906E+03  0.71723031103E+03 -0.16604156004E+04  0.18818210808E+04  0.46999998093E+01 0.  1.
       -5    1    3    3    0  502 -0.51945086906E+03 -0.71723031103E+03  0.95856913314E+03  0.13050384659E+04  0.46999998093E+01 0. -1.
</event>
<event>
 5   0  0.7519202E-07  0.3110066E+04  0.7818609E-02  0.8212981E-01
        1   -1    0    0  501    0  0.00000000000E+00  0.00000000000E+00  0.18383678952E+04  0.18383678952E+04  0.50400001928E-02 0. -1.
       -1   -1    0    0    0  501  0.00000000000E+00  0.00000000000E+00 -0.13153664607E+04  0.13153664607E+04  0.50400001928E-02 0.  1.
    10030    2    1    2    0    0  0.00000000000E+00  0.00000000000E+00  0.52300143456E+03  0.31537343559E+04  0.31100658976E+04 0.  0.
        4    1    3    3  502    0 -0.38802412466E+03 -0.86081965965E+03  0.15143863007E+04  0.17846402126E+04  0.12699999809E+01 0. -1.
       -4    1    3    3    0  502  0.38802412466E+03  0.86081965965E+03 -0.99138486612E+03  0.13690941434E+04  0.12699999809E+01 0.  1.
</event>
<event>
 5   0  0.7413481E-07  0.3097951E+04  0.7818609E-02  0.8216300E-01
       -1   -1    0    0    0  501  0.00000000000E+00  0.00000000000E+00  0.16918995637E+04  0.16918995637E+04  0.50400001928E-02 0. -1.
        1   -1    0    0  501    0  0.00000000000E+00  0.00000000000E+00 -0.14181249832E+04  0.14181249832E+04  0.50400001928E-02 0.  1.
    10030    2    1    2    0    0  0.00000000000E+00  0.00000000000E+00  0.27377458057E+03  0.31100245469E+04  0.30979509617E+04 0.  0.
        5    1    3    3  502    0 -0.74027062096E+03  0.34297349419E+03  0.14587084139E+04  0.16713718128E+04  0.46999998093E+01 0. -1.
       -5    1    3    3    0  502  0.74027062096E+03 -0.34297349419E+03 -0.11849338333E+04  0.14386527341E+04  0.46999998093E+01 0.  1.
</event>
<event>
 5   0  0.7726743E-07  0.3107329E+04  0.7818609E-02  0.8213729E-01
        1   -1    0    0  501    0  0.00000000000E+00  0.00000000000E+00  0.18953413212E+04  0.18953413212E+04  0.50400001928E-02 0. -1.
       -1   -1    0    0    0  501  0.00000000000E+00  0.00000000000E+00 -0.12735821671E+04  0.12735821672E+04  0.50400001928E-02 0.  1.
    10030    2    1    2    0    0  0.00000000000E+00  0.00000000000E+00  0.62175915401E+03  0.31689234883E+04  0.31073286967E+04 0.  0.
        1    1    3    3  502    0 -0.11618325040E+03  0.12300812458E+04 -0.64974469327E+03  0.13959823013E+04  0.50400001928E-02 0.  1.
       -1    1    3    3    0  502  0.11618325040E+03 -0.12300812458E+04  0.12715038473E+04  0.17729411870E+04  0.50400001928E-02 0. -1.
</event>
<event>
 5   0  0.2094135E-06  0.3091046E+04  0.7818609E-02  0.8218199E-01
       -2   -1    0    0    0  501  0.00000000000E+00  0.00000000000E+00  0.12621564673E+04  0.12621564673E+04  0.25500000920E-02 0.  1.
        2   -1    0    0  501    0  0.00000000000E+00  0.00000000000E+00 -0.18925086732E+04  0.18925086732E+04  0.25500000920E-02 0. -1.
    10030    2    1    2    0    0  0.00000000000E+00  0.00000000000E+00 -0.63035220588E+03  0.31546651406E+04  0.30910464645E+04 0.  0.
        4    1    3    3  502    0 -0.77983188406E+03 -0.11582422296E+04  0.36101417527E+03  0.14422190116E+04  0.12699999809E+01 0.  1.
       -4    1    3    3    0  502  0.77983188406E+03  0.11582422296E+04 -0.99136638115E+03  0.17124461289E+04  0.12699999809E+01 0. -1.
</event>
<event>
 5   0  0.2067926E-06  0.3109865E+04  0.7818609E-02  0.8213036E-01
        2   -1    0    0  501    0  0.00000000000E+00  0.00000000000E+00  0.26455922188E+04  0.26455922188E+04  0.25500000920E-02 0. -1.
       -2   -1    0    0    0  501  0.00000000000E+00  0.00000000000E+00 -0.91390326624E+03  0.91390326624E+03  0.25500000920E-02 0.  1.
    10030    2    1    2    0    0  0.00000000000E+00  0.00000000000E+00  0.17316889526E+04  0.35594954851E+04  0.31098651868E+04 0.  0.
        1    1    3    3  502    0  0.11258604862E+03  0.79421880214E+03 -0.65879546725E+03  0.10380128090E+04  0.50400001928E-02 0.  1.
       -1    1    3    3    0  502 -0.11258604862E+03 -0.79421880214E+03  0.23904844199E+04  0.25214826761E+04  0.50400001928E-02 0. -1.
</event>
<event>
 5   0  0.2133385E-06  0.3117815E+04  0.7818609E-02  0.8210866E-01
        2   -1    0    0  501    0  0.00000000000E+00  0.00000000000E+00  0.10805397106E+04  0.10805397106E+04  0.25500000920E-02 0.  1.
       -2   -1    0    0    0  501  0.00000000000E+00  0.00000000000E+00 -0.22490544304E+04  0.22490544304E+04  0.25500000920E-02 0. -1.
    10030    2    1    2    0    0  0.00000000000E+00  0.00000000000E+00 -0.11685147199E+04  0.33295941410E+04  0.31178150191E+04 0.  0.
        2    1    3    3  502    0  0.56785344212E+03 -0.13961457770E+04 -0.10094366574E+04  0.18140129348E+04  0.25500000920E-02 0. -1.
       -2    1    3    3    0  502 -0.56785344212E+03  0.13961457770E+04 -0.15907806247E+03  0.15155812062E+04  0.25500000920E-02 0.  1.
</event>
<event>
 5   0  0.7561815E-07  0.3087812E+04  0.7818609E-02  0.8219091E-01
        1   -1    0    0  501    0  0.00000000000E+00  0.00000000000E+00  0.29829307557E+04  0.29829307557E+04  0.50400001928E-02 0. -1.
       -1   -1    0    0    0  501  0.00000000000E+00  0.00000000000E+00 -0.79909540483E+03  0.79909540484E+03  0.50400001928E-02 0.  1.
    10030    2    1    2    0    0  0.00000000000E+00  0.00000000000E+00  0.21838353509E+04  0.37820261606E+04  0.30878123388E+04 0.  0.
        3    1    3    3  502    0  0.12913058289E+03 -0.39502322731E+03  0.29131315450E+04  0.29426269668E+04  0.10100000352E+00 0. -1.
       -3    1    3    3    0  502 -0.12913058289E+03  0.39502322731E+03 -0.72929619407E+03  0.83939919373E+03  0.10100000352E+00 0.  1.
</event>
<event>
 5   0  0.2078009E-06  0.3022233E+04  0.7818609E-02  0.8237410E-01
       -2   -1    0    0    0  501  0.00000000000E+00  0.00000000000E+00  0.12690201167E+04  0.12690201167E+04  0.25500000920E-02 0.  1.
        2   -1    0    0  501    0  0.00000000000E+00  0.00000000000E+00 -0.17993989811E+04  0.17993989811E+04  0.25500000920E-02 0. -1.
    10030    2    1    2    0    0  0.00000000000E+00  0.00000000000E+00 -0.53037886434E+03  0.30684190978E+04  0.30222332835E+04 0.  0.
        3    1    3    3  502    0  0.85481719751E+03 -0.10853564171E+04 -0.88672324118E+03  0.16416421991E+04  0.10100000352E+00 0.  1.
       -3    1    3    3    0  502 -0.85481719751E+03  0.10853564171E+04  0.35634437684E+03  0.14267768986E+04  0.10100000352E+00 0. -1.
</event>
<event>
 5   0  0.2226334E-06  0.3145553E+04  0.7818609E-02  0.8203346E-01
       -2   -1    0    0    0  501  0.00000000000E+00  0.00000000000E+00  0.94617769027E+03  0.94617769027E+03  0.25500000920E-02 0.  1.
        2   -1    0    0  501    0  0.00000000000E+00  0.00000000000E+00 -0.26143354305E+04  0.26143354306E+04  0.25500000920E-02 0. -1.
    10030    2    1    2    0    0  0.00000000000E+00  0.00000000000E+00 -0.16681577403E+04  0.35605131208E+04  0.31455529621E+04 0.  0.
        5    1    3    3  502    0 -0.81324708830E+03  0.81637567663E+03  0.37753187881E+03  0.12125974112E+04  0.46999998093E+01 0.  1.
       -5    1    3    3    0  502  0.81324708830E+03 -0.81637567663E+03 -0.20456896191E+04  0.23479157097E+04  0.46999998093E+01 0. -1.
</event>
<event>
 5   0  0.2067926E-06  0.3028108E+04  0.7818609E-02  0.8235750E-01
        2   -1    0    0  501    0  0.00000000000E+00  0.00000000000E+00  0.11226917572E+04  0.11226917573E+04  0.25500000920E-02 0.  1.
       -2   -1    0    0    0  501  0.00000000000E+00  0.00000000000E+00 -0.20418418738E+04  0.20418418738E+04  0.25500000920E-02 0. -1.
    10030    2    1    2    0    0  0.00000000000E+00  0.00000000000E+00 -0.91915011655E+03  0.31645336311E+04  0.30281076872E+04 0.  0.
        1    1    3    3  502    0 -0.47125647349E+03 -0.56002578536E+03 -0.18446737224E+04  0.19845736787E+04  0.50400001928E-02 0. -1.
       -1    1    3    3    0  502  0.47125647349E+03  0.56002578536E+03  0.92552360586E+03  0.11799599523E+04  0.50400001928E-02 0.  1.
</event>
<event>
 5   0  0.7561815E-07  0.3095828E+04  0.7818609E-02  0.8216884E-01
       -1   -1    0    0    0  501  0.00000000000E+00  0.00000000000E+00  0.11543955065E+04  0.11543955065E+04  0.50400001928E-02 0. -1.
        1   -1    0    0  501    0  0.00000000000E+00  0.00000000000E+00 -0.20755772920E+04  0.20755772920E+04  0.50400001928E-02 0.  1.
    10030    2    1    2    0    0  0.00000000000E+00  0.00000000000E+00 -0.92118178551E+03  0.32299727985E+04  0.30958275788E+04 0.  0.
        3    1    3    3  502    0 -0.29058000084E+03  0.80554097684E+03  0.88474144750E+03  0.12313003051E+04  0.10100000352E+00 0. -1.
       -3    1    3    3    0  502  0.29058000084E+03 -0.80554097684E+03 -0.18059232330E+04  0.19986724934E+04  0.10100000352E+00 0.  1.
</event>
<event>
 5   0  0.7519202E-07  0.3174903E+04  0.7818609E-02  0.8195477E-01
        1   -1    0    0  501    0  0.00000000000E+00  0.00000000000E+00  0.21224549656E+04  0.21224549656E+04  0.50400001928E-02 0. -1.
       -1   -1    0    0    0  501  0.00000000000E+00  0.00000000000E+00 -0.11873052937E+04  0.11873052937E+04  0.50400001928E-02 0.  1.
    10030    2    1    2    0    0  0.00000000000E+00  0.00000000000E+00  0.93514967195E+03  0.33097602593E+04  0.31749028434E+04 0.  0.
        4    1    3    3  502    0  0.14120650398E+04  0.29050224202E+03 -0.22524536406E+03  0.14591286153E+04  0.12699999809E+01 0. -1.
       -4    1    3    3    0  502 -0.14120650398E+04 -0.29050224202E+03  0.11603950360E+04  0.18506316440E+04  0.12699999809E+01 0.  1.
</event>
<event>
 5   0  0.7561815E-07  0.2958307E+04  0.7818609E-02  0.8255738E-01
        1   -1    0    0  501    0  0.00000000000E+00  0.00000000000E+00  0.22554150016E+04  0.22554150016E+04  0.50400001928E-02 0.  1.
       -1   -1    0    0    0  501  0.00000000000E+00  0.00000000000E+00 -0.97006313235E+03  0.97006313237E+03  0.50400001928E-02 0. -1.
    10030    2    1    2    0    0  0.00000000000E+00  0.00000000000E+00  0.12853518693E+04  0.32254781340E+04  0.29583069085E+04 0.  0.
        3    1    3    3  502    0 -0.23863329526E+03 -0.13968039289E+04  0.18023975039E+03  0.14284584149E+04  0.10100000352E+00 0. -1.
       -3    1    3    3    0  502  0.23863329526E+03  0.13968039289E+04  0.11051121189E+04  0.17970197191E+04  0.10100000352E+00 0.  1.
</event>
<event>
 5   0  0.2094135E-06  0.3046676E+04  0.7818609E-02  0.8230526E-01
       -2   -1    0    0    0  501  0.00000000000E+00  0.00000000000E+00  0.14448307914E+04  0.14448307914E+04  0.25500000920E-02 0. -1.
        2   -1    0    0  501    0  0.00000000000E+00  0.00000000000E+00 -0.16061115171E+04  0.16061115171E+04  0.25500000920E-02 0.  1.
    10030    2    1    2    0    0  0.00000000000E+00  0.00000000000E+00 -0.16128072571E+03  0.30509423085E+04  0.30466764675E+04 0.  0.
        4    1    3    3  502    0  0.11387478867E+04 -0.10108869490E+03  0.92754238916E+03  0.14721759984E+04  0.12699999809E+01 0. -1.
       -4    1    3    3    0  502 -0.11387478867E+04  0.10108869490E+03 -0.10888231149E+04  0.15787663101E+04  0.12699999809E+01 0.  1.
</event>
<event>
 5   0  0.2226334E-06  0.3092231E+04  0.7818609E-02  0.8217873E-01
        2   -1    0    0  501    0  0.00000000000E+00  0.00000000000E+00  0.12063110858E+04  0.12063110858E+04  0.25500000920E-02 0.  1.
       -2   -1    0    0    0  501  0.00000000000E+00  0.00000000000E+00 -0.19816389385E+04  0.19816389385E+04  0.25500000920E-02 0. -1.
    10030    2    1    2    0    0  0.00000000000E+00  0.00000000000E+00 -0.77532785273E+03  0.31879500243E+04  0.30922309225E+04 0.  0.
        5    1    3    3  502    0  0.49890693700E+02 -0.44124725583E+03 -0.19144736351E+04  0.19653039489E+04  0.46999998093E+01 0. -1.
       -5    1    3    3    0  502 -0.49890693700E+02  0.44124725583E+03  0.11391457824E+04  0.12226460754E+04  0.46999998093E+01 0.  1.
</event>
<event>
 5   0  0.2133385E-06  0.3095791E+04  0.7818609E-02  0.8216894E-01
        2   -1    0    0  501    0  0.00000000000E+00  0.00000000000E+00  0.16151114255E+04  0.16151114255E+04  0.25500000920E-02 0. -1.
       -2   -1    0    0    0  501  0.00000000000E+00  0.00000000000E+00 -0.14834769891E+04  0.14834769891E+04  0.25500000920E-02 0.  1.
    10030    2    1    2    0    0  0.00000000000E+00  0.00000000000E+00  0.13163443637E+03  0.30985884146E+04  0.30957911005E+04 0.  0.
        2    1    3    3  502    0 -0.81118928566E+03 -0.92883174544E+03  0.10021967147E+04  0.15890735425E+04  0.25500000920E-02 0. -1.
       -2    1    3    3    0  502  0.81118928566E+03  0.92883174544E+03 -0.87056227836E+03  0.15095148721E+04  0.25500000920E-02 0.  1.
</event>
<event>
 5   0  0.2078009E-06  0.3081786E+04  0.7818609E-02  0.8220754E-01
        2   -1    0    0  501    0  0.00000000000E+00  0.00000000000E+00  0.26697142073E+04  0.26697142073E+04  0.25500000920E-02 0. -1.
       -2   -1    0    0    0  501  0.00000000000E+00  0.00000000000E+00 -0.88936533658E+03  0.88936533658E+03  0.25500000920E-02 0.  1.
    10030    2    1    2    0    0  0.00000000000E+00  0.00000000000E+00  0.17803488707E+04  0.35590795439E+04  0.30817860241E+04 0.  0.
        3    1    3    3  502    0  0.12027007321E+04  0.70534974162E+03  0.16477798444E+04  0.21585147057E+04  0.10100000352E+00 0. -1.
       -3    1    3    3    0  502 -0.12027007321E+04 -0.70534974162E+03  0.13256902628E+03  0.14005648381E+04  0.10100000352E+00 0.  1.
</event>
<event>
 5   0  0.2133385E-06  0.3101845E+04  0.7818609E-02  0.8215232E-01
       -2   -1    0    0    0  501  0.00000000000E+00  0.00000000000E+00  0.10929972814E+04  0.10929972814E+04  0.25500000920E-02 0.  1.
        2   -1    0    0  501    0  0.00000000000E+00  0.00000000000E+00 -0.22007015155E+04  0.22007015155E+04  0.25500000920E-02 0. -1.
    10030    2    1    2    0    0  0.00000000000E+00  0.00000000000E+00 -0.11077042341E+04  0.32936987969E+04  0.31018451113E+04 0.  0.
        2    1    3    3  502    0  0.37606890314E+03 -0.95487100182E+03 -0.17885960588E+04  0.20621062804E+04  0.25500000920E-02 0. -1.
       -2    1    3    3    0  502 -0.37606890314E+03  0.95487100182E+03  0.68089182465E+03  0.12315925166E+04  0.25500000920E-02 0.  1.
</event>
<event>
 5   0  0.2078009E-06  0.3083953E+04  0.7818609E-02  0.8220156E-01
       -2   -1    0    0    0  501  0.00000000000E+00  0.00000000000E+00  0.11268791943E+04  0.11268791943E+04  0.25500000920E-02 0.  1.
        2   -1    0    0  501    0  0.00000000000E+00  0.00000000000E+00 -0.21099786628E+04  0.21099786628E+04  0.25500000920E-02 0. -1.
    10030    2    1    2    0    0  0.00000000000E+00  0.00000000000E+00 -0.98309946849E+03  0.32368578572E+04  0.30839526946E+04 0.  0.
        3    1    3    3  502    0  0.14575716227E+04 -0.40587545758E+02  0.34842726220E+02  0.14585528479E+04  0.10100000352E+00 0. -1.
       -3    1    3    3    0  502 -0.14575716227E+04  0.40587545758E+02 -0.10179421947E+04  0.17783050093E+04  0.10100000352E+00 0.  1.
</event>
<event>
 5   0  0.2078009E-06  0.3100508E+04  0.7818609E-02  0.8215598E-01
       -2   -1    0    0    0  501  0.00000000000E+00  0.00000000000E+00  0.11361266070E+04  0.11361266070E+04  0.25500000920E-02 0. -1.
        2   -1    0    0  501    0  0.00000000000E+00  0.00000000000E+00 -0.21153342504E+04  0.21153342504E+04  0.25500000920E-02 0.  1.
    10030    2    1    2    0    0  0.00000000000E+00  0.00000000000E+00 -0.97920764342E+03  0.32514608574E+04  0.31005080387E+04 0.  0.
        3    1    3    3  502    0  0.90765125106E+03 -0.49614949642E+03 -0.17005040746E+04  0.19904042892E+04  0.10100000352E+00 0.  1.
       -3    1    3    3    0  502 -0.90765125106E+03  0.49614949642E+03  0.72129643121E+03  0.12610565682E+04  0.10100000352E+00 0. -1.
</event>
<event>
 5   0  0.2094135E-06  0.3049834E+04  0.7818609E-02  0.8229642E-01
       -2   -1    0    0    0  501  0.00000000000E+00  0.00000000000E+00  0.14711450037E+04  0.14711450037E+04  0.25500000920E-02 0.  1.
        2   -1    0    0  501    0  0.00000000000E+00  0.00000000000E+00 -0.15806542325E+04  0.15806542325E+04  0.25500000920E-02 0. -1.
    10030    2    1    2    0    0  0.00000000000E+00  0.00000000000E+00 -0.10950922880E+03  0.30517992363E+04  0.30498338164E+04 0.  0.
        4    1    3    3  502    0  0.33256352002E+03 -0.58746411146E+03  0.13134807122E+04  0.14768025499E+04  0.12699999809E+01 0.  1.
       -4    1    3    3    0  502 -0.33256352002E+03  0.58746411146E+03 -0.14229899410E+04  0.15749966864E+04  0.12699999809E+01 0. -1.
</event>
<event>
 5   0  0.7413481E-07  0.3097738E+04  0.7818609E-02  0.8216359E-01
       -1   -1    0    0    0  501  0.00000000000E+00  0.00000000000E+00  0.14580866836E+04  0.14580866836E+04  0.50400001928E-02 0.  1.
        1   -1    0    0  501    0  0.00000000000E+00  0.00000000000E+00 -0.16453030965E+04  0.16453030965E+04  0.50400001928E-02 0. -1.
    10030    2    1    2    0    0  0.00000000000E+00  0.00000000000E+00 -0.18721641292E+03  0.31033897801E+04  0.30977375844E+04 0.  0.
        5    1    3    3  502    0  0.57407384023E+03  0.19611328146E+03 -0.15213229695E+04  0.16378238186E+04  0.46999998093E+01 0. -1.
       -5    1    3    3    0  502 -0.57407384023E+03 -0.19611328146E+03  0.13341065566E+04  0.14655659615E+04  0.46999998093E+01 0.  1.
</event>
<event>
 5   0  0.7656332E-07  0.3087853E+04  0.7818609E-02  0.8219080E-01
       -1   -1    0    0    0  501  0.00000000000E+00  0.00000000000E+00  0.14308495403E+04  0.14308495403E+04  0.50400001928E-02 0. -1.
        1   -1    0    0  501    0  0.00000000000E+00  0.00000000000E+00 -0.16659392604E+04  0.16659392604E+04  0.50400001928E-02 0.  1.
    10030    2    1    2    0    0  0.00000000000E+00  0.00000000000E+00 -0.23508972013E+03  0.30967888007E+04  0.30878526033E+04 0.  0.
        2    1    3    3  502    0 -0.30091789519E+03  0.19143398800E+02  0.14010334808E+04  0.14331129976E+04  0.25500000920E-02 0. -1.
       -2    1    3    3    0  502  0.30091789519E+03 -0.19143398800E+02 -0.16361232010E+04  0.16636758032E+04  0.25500000920E-02 0.  1.
</event>
<event>
 5   0  0.7656332E-07  0.3065353E+04  0.7818609E-02  0.8225311E-01
       -1   -1    0    0    0  501  0.00000000000E+00  0.00000000000E+00  0.13695568092E+04  0.13695568093E+04  0.50400001928E-02 0.  1.
        1   -1    0    0  501    0  0.00000000000E+00  0.00000000000E+00 -0.17152247698E+04  0.17152247698E+04  0.50400001928E-02 0. -1.
    10030    2    1    2    0    0  0.00000000000E+00  0.00000000000E+00 -0.34566796058E+03  0.30847815791E+04  0.30653533323E+04 0.  0.
        2    1    3    3  502    0  0.68098579891E+03 -0.70872542263E+03 -0.13563252967E+04  0.16750079682E+04  0.25500000920E-02 0. -1.
       -2    1    3    3    0  502 -0.68098579891E+03  0.70872542263E+03  0.10106573361E+04  0.14097736109E+04  0.25500000920E-02 0.  1.
</event>
<event>
 5   0  0.7561815E-07  0.3105311E+04  0.7818609E-02  0.8214282E-01
       -1   -1    0    0    0  501  0.00000000000E+00  0.00000000000E+00  0.21182067787E+04  0.21182067787E+04  0.50400001928E-02 0.  1.
        1   -1    0    0  501    0  0.00000000000E+00  0.00000000000E+00 -0.11381040278E+04  0.11381040278E+04  0.50400001928E-02 0. -1.
    10030    2    1    2    0    0  0.00000000000E+00  0.00000000000E+00  0.98010275089E+03  0.32563108066E+04  0.31053113639E+04 0.  0.
        3    1    3    3  502    0 -0.73538678415E+03 -0.90723837451E+03  0.15629678829E+04  0.19510878514E+04  0.10100000352E+00 0.  1.
       -3    1    3    3    0  502  0.73538678415E+03  0.90723837451E+03 -0.58286513203E+03  0.13052229552E+04  0.10100000352E+00 0. -1.
</event>
<event>
 5   0  0.2067926E-06  0.3134812E+04  0.7818609E-02  0.8206249E-01
       -2   -1    0    0    0  501  0.00000000000E+00  0.00000000000E+00  0.10004418182E+04  0.10004418182E+04  0.25500000920E-02 0.  1.
        2   -1    0    0  501    0  0.00000000000E+00  0.00000000000E+00 -0.24556760132E+04  0.24556760132E+04  0.25500000920E-02 0. -1.
    10030    2    1    2    0    0  0.00000000000E+00  0.00000000000E+00 -0.14552341949E+04  0.34561178314E+04  0.31348116215E+04 0.  0.
        1    1    3    3  502    0 -0.12665294167E+04 -0.81775548217E+03 -0.12004583950E+04  0.19271536395E+04  0.50400001928E-02 0. -1.
       -1    1    3    3    0  502  0.12665294167E+04  0.81775548217E+03 -0.25477579989E+03  0.15289641919E+04  0.50400001928E-02 0.  1.
</event>
<event>
 5   0  0.7561815E-07  0.3111609E+04  0.7818609E-02  0.8212559E-01
        1   -1    0    0  501    0  0.00000000000E+00  0.00000000000E+00  0.18626131447E+04  0.18626131447E+04  0.50400001928E-02 0.  1.
       -1   -1    0    0    0  501  0.00000000000E+00  0.00000000000E+00 -0.12995331146E+04  0.12995331146E+04  0.50400001928E-02 0. -1.
    10030    2    1    2    0    0  0.00000000000E+00  0.00000000000E+00  0.56308003004E+03  0.31621462593E+04  0.31116088837E+04 0.  0.
        3    1    3    3  502    0  0.11732434195E+04  0.87171353173E+03 -0.26016806755E+03  0.14846117460E+04  0.10100000352E+00 0. -1.
       -3    1    3    3    0  502 -0.11732434195E+04 -0.87171353173E+03  0.82324809759E+03  0.16775345133E+04  0.10100000352E+00 0.  1.
</event>
<event>
 5   0  0.2078009E-06  0.3103984E+04  0.7818609E-02  0.8214645E-01
        2   -1    0    0  501    0  0.00000000000E+00  0.00000000000E+00  0.12673095647E+04  0.12673095647E+04  0.25500000920E-02 0.  1.
       -2   -1    0    0    0  501  0.00000000000E+00  0.00000000000E+00 -0.19006239320E+04  0.19006239320E+04  0.25500000920E-02 0. -1.
    10030    2    1    2    0    0  0.00000000000E+00  0.00000000000E+00 -0.63331436734E+03  0.31679334967E+04  0.31039838195E+04 0.  0.
        3    1    3    3  502    0  0.59045952271E+03 -0.10777430710E+04 -0.12840818832E+04  0.17773685234E+04  0.10100000352E+00 0. -1.
       -3    1    3    3    0  502 -0.59045952271E+03  0.10777430710E+04  0.65076751585E+03  0.13905649733E+04  0.10100000352E+00 0.  1.
</event>
<event>
 5   0  0.7726743E-07  0.3120220E+04  0.7818609E-02  0.8210210E-01
        1   -1    0    0  501    0  0.00000000000E+00  0.00000000000E+00  0.15210384180E+04  0.15210384181E+04  0.50400001928E-02 0. -1.
       -1   -1    0    0    0  501  0.00000000000E+00  0.00000000000E+00 -0.16001855241E+04  0.16001855241E+04  0.50400001928E-02 0.  1.
    10030    2    1    2    0    0  0.00000000000E+00  0.00000000000E+00 -0.79147106022E+02  0.31212239421E+04  0.31202202859E+04 0.  0.
        1    1    3    3  502    0  0.13221237832E+04  0.16205279725E+03  0.77288918559E+03  0.15400097728E+04  0.50400001928E-02 0. -1.
       -1    1    3    3    0  502 -0.13221237832E+04 -0.16205279725E+03 -0.85203629161E+03  0.15812141693E+04  0.50400001928E-02 0.  1.
</event>
<event>
 5   0  0.2094135E-06  0.3060825E+04  0.7818609E-02  0.8226572E-01
       -2   -1    0    0    0  501  0.00000000000E+00  0.00000000000E+00  0.15634970811E+04  0.15634970811E+04  0.25500000920E-02 0. -1.
        2   -1    0    0  501    0  0.00000000000E+00  0.00000000000E+00 -0.14980277281E+04  0.14980277281E+04  0.25500000920E-02 0.  1.
    10030    2    1    2    0    0  0.00000000000E+00  0.00000000000E+00  0.65469352951E+02  0.30615248092E+04  0.30608247126E+04 0.  0.
        4    1    3    3  502    0 -0.16325087658E+03  0.68197632871E+03  0.13933464461E+04  0.15598584851E+04  0.12699999809E+01 0. -1.
       -4    1    3    3    0  502  0.16325087658E+03 -0.68197632871E+03 -0.13278770932E+04  0.15016663241E+04  0.12699999809E+01 0.  1.
</event>
<event>
 5   0  0.2094135E-06  0.3100886E+04  0.7818609E-02  0.8215495E-01
        2   -1    0    0  501    0  0.00000000000E+00  0.00000000000E+00  0.25502449521E+04  0.25502449521E+04  0.25500000920E-02 0. -1.
       -2   -1    0    0    0  501  0.00000000000E+00  0.00000000000E+00 -0.94260521145E+03  0.94260521146E+03  0.25500000920E-02 0.  1.
    10030    2    1    2    0    0  0.00000000000E+00  0.00000000000E+00  0.16076397406E+04  0.34928501635E+04  0.31008864425E+04 0.  0.
        4    1    3    3  502    0  0.12484259012E+04  0.81194175528E+03  0.31795461266E+03  0.15227978833E+04  0.12699999809E+01 0.  1.
       -4    1    3    3    0  502 -0.12484259012E+04 -0.81194175528E+03  0.12896851280E+04  0.19700522803E+04  0.12699999809E+01 0. -1.
</event>
<event>
 5   0  0.7413481E-07  0.3156066E+04  0.7818609E-02  0.8200517E-01
       -1   -1    0    0    0  501  0.00000000000E+00  0.00000000000E+00  0.14293545391E+04  0.14293545392E+04  0.50400001928E-02 0.  1.
        1   -1    0    0  501    0  0.00000000000E+00  0.00000000000E+00 -0.17421768517E+04  0.17421768517E+04  0.50400001928E-02 0. -1.
    10030    2    1    2    0    0  0.00000000000E+00  0.00000000000E+00 -0.31282231251E+03  0.31715313908E+04  0.31560661533E+04 0.  0.
        5    1    3    3  502    0 -0.28553278383E+03 -0.11750985944E+04 -0.11751740762E+04  0.16862508344E+04  0.46999998093E+01 0. -1.
       -5    1    3    3    0  502  0.28553278383E+03  0.11750985944E+04  0.86235176366E+03  0.14852805565E+04  0.46999998093E+01 0.  1.
</event>
<event>
 5   0  0.7561815E-07  0.3143507E+04  0.7818609E-02  0.8203898E-01
       -1   -1    0    0    0  501  0.00000000000E+00  0.00000000000E+00  0.13008006187E+04  0.13008006187E+04  0.50400001928E-02 0.  1.
        1   -1    0    0  501    0  0.00000000000E+00  0.00000000000E+00 -0.18991455929E+04  0.18991455929E+04  0.50400001928E-02 0. -1.
    10030    2    1    2    0    0  0.00000000000E+00  0.00000000000E+00 -0.59834497428E+03  0.31999462116E+04  0.31435074437E+04 0.  0.
        3    1    3    3  502    0  0.99426760117E+03 -0.16263749949E+03 -0.15272279683E+04  0.18296022235E+04  0.10100000352E+00 0. -1.
       -3    1    3    3    0  502 -0.99426760117E+03  0.16263749949E+03  0.92888299400E+03  0.13703439881E+04  0.10100000352E+00 0.  1.
</event>
<event>
 5   0  0.7656332E-07  0.3095456E+04  0.7818609E-02  0.8216986E-01
        1   -1    0    0  501    0  0.00000000000E+00  0.00000000000E+00  0.19376366674E+04  0.19376366674E+04  0.50400001928E-02 0.  1.
       -1   -1    0    0    0  501  0.00000000000E+00  0.00000000000E+00 -0.12362804344E+04  0.12362804344E+04  0.50400001928E-02 0. -1.
    10030    2    1    2    0    0  0.00000000000E+00  0.00000000000E+00  0.70135623296E+03  0.31739171018E+04  0.30954562190E+04 0.  0.
        2    1    3    3  502    0  0.55558274188E+03 -0.25634458059E+03  0.18083588212E+04  0.19090694994E+04  0.25500000920E-02 0.  1.
       -2    1    3    3    0  502 -0.55558274188E+03  0.25634458059E+03 -0.11070025883E+04  0.12648476025E+04  0.25500000920E-02 0. -1.
</event>
<event>
 5   0  0.2094135E-06  0.3066499E+04  0.7818609E-02  0.8224992E-01
        2   -1    0    0  501    0  0.00000000000E+00  0.00000000000E+00  0.21754732728E+04  0.21754732728E+04  0.25500000920E-02 0. -1.
       -2   -1    0    0    0  501  0.00000000000E+00  0.00000000000E+00 -0.10806174973E+04  0.10806174973E+04  0.25500000920E-02 0.  1.
    10030    2    1    2    0    0  0.00000000000E+00  0.00000000000E+00  0.10948557756E+04  0.32560907701E+04  0.30664992962E+04 0.  0.
        4    1    3    3  502    0  0.98725001061E+03 -0.10283555276E+04 -0.51987330218E+02  0.14264928917E+04  0.12699999809E+01 0.  1.
       -4    1    3    3    0  502 -0.98725001061E+03  0.10283555276E+04  0.11468431058E+04  0.18295978784E+04  0.12699999809E+01 0. -1.
</event>
<event>
 5   0  0.7561815E-07  0.3097868E+04  0.7818609E-02  0.8216323E-01
        1   -1    0    0  501    0  0.00000000000E+00  0.00000000000E+00  0.22165328199E+04  0.22165328199E+04  0.50400001928E-02 0. -1.
       -1   -1    0    0    0  501  0.00000000000E+00  0.00000000000E+00 -0.10824099203E+04  0.10824099203E+04  0.50400001928E-02 0.  1.
    10030    2    1    2    0    0  0.00000000000E+00  0.00000000000E+00  0.11341228996E+04  0.32989427401E+04  0.30978683722E+04 0.  0.
        3    1    3    3  502    0 -0.43365460787E+03  0.11514901442E+04  0.15689865914E+04  0.19939169505E+04  0.10100000352E+00 0. -1.
       -3    1    3    3    0  502  0.43365460787E+03 -0.11514901442E+04 -0.43486369183E+03  0.13050257897E+04  0.10100000352E+00 0.  1.
</event>
<event>
 5   0  0.2133385E-06  0.2799616E+04  0.7818609E-02  0.8303388E-01
        2   -1    0    0  501    0  0.00000000000E+00  0.00000000000E+00  0.19923210816E+04  0.19923210816E+04  0.25500000920E-02 0.  1.
       -2   -1    0    0    0  501  0.00000000000E+00  0.00000000000E+00 -0.98350753740E+03  0.98350753740E+03  0.25500000920E-02 0. -1.
    10030    2    1    2    0    0  0.00000000000E+00  0.00000000000E+00  0.10088135442E+04  0.29758286190E+04  0.27996162599E+04 0.  0.
        2    1    3    3  502    0 -0.11639570000E+04  0.18870223468E+03 -0.29743341101E+03  0.12160884282E+04  0.25500000920E-02 0. -1.
       -2    1    3    3    0  502  0.11639570000E+04 -0.18870223468E+03  0.13062469552E+04  0.17597401908E+04  0.25500000920E-02 0.  1.
</event>
<event>
 5   0  0.2094135E-06  0.3083583E+04  0.7818609E-02  0.8220258E-01
        2   -1    0    0  501    0  0.00000000000E+00  0.00000000000E+00  0.16683691719E+04  0.16683691719E+04  0.25500000920E-02 0. -1.
       -2   -1    0    0    0  501  0.00000000000E+00  0.00000000000E+00 -0.14248171691E+04  0.14248171691E+04  0.25500000920E-02 0.  1.
    10030    2    1    2    0    0  0.00000000000E+00  0.00000000000E+00  0.24355200283E+03  0.30931863410E+04  0.30835830072E+04 0.  0.
        4    1    3    3  502    0  0.97086680487E+02 -0.11758339362E+04  0.11173932180E+04  0.16249863032E+04  0.12699999809E+01 0. -1.
       -4    1    3    3    0  502 -0.97086680487E+02  0.11758339362E+04 -0.87384121516E+03  0.14682000379E+04  0.12699999809E+01 0.  1.
</event>
<event>
 5   0  0.7413481E-07  0.2985318E+04  0.7818609E-02  0.8247936E-01
        1   -1    0    0  501    0  0.00000000000E+00  0.00000000000E+00  0.89455925157E+03  0.89455925159E+03  0.50400001928E-02 0. -1.
       -1   -1    0    0    0  501  0.00000000000E+00  0.00000000000E+00 -0.24906465800E+04  0.24906465800E+04  0.50400001928E-02 0.  1.
    10030    2    1    2    0    0  0.00000000000E+00  0.00000000000E+00 -0.15960873284E+04  0.33852058316E+04  0.29853180337E+04 0.  0.
        5    1    3    3  502    0  0.79143072441E+03 -0.11535137921E+04 -0.13884091187E+04  0.19709537363E+04  0.46999998093E+01 0.  1.
       -5    1    3    3    0  502 -0.79143072441E+03  0.11535137921E+04 -0.20767820973E+03  0.14142520952E+04  0.46999998093E+01 0. -1.
</event>
<event>
 5   0  0.7656332E-07  0.3086760E+04  0.7818609E-02  0.8219381E-01
        1   -1    0    0  501    0  0.00000000000E+00  0.00000000000E+00  0.27064164352E+04  0.27064164352E+04  0.50400001928E-02 0.  1.
       -1   -1    0    0    0  501  0.00000000000E+00  0.00000000000E+00 -0.88013868509E+03  0.88013868511E+03  0.50400001928E-02 0. -1.
    10030    2    1    2    0    0  0.00000000000E+00  0.00000000000E+00  0.18262777501E+04  0.35865551203E+04  0.30867599859E+04 0.  0.
        2    1    3    3  502    0 -0.12976243487E+04  0.44933362514E+03  0.94592388037E+02  0.13764728028E+04  0.25500000920E-02 0. -1.
       -2    1    3    3    0  502  0.12976243487E+04 -0.44933362514E+03  0.17316853621E+04  0.22100823175E+04  0.25500000920E-02 0.  1.
</event>
<event>
 5   0  0.2133385E-06  0.3104294E+04  0.7818609E-02  0.8214560E-01
       -2   -1    0    0    0  501  0.00000000000E+00  0.00000000000E+00  0.12380654489E+04  0.12380654489E+04  0.25500000920E-02 0. -1.
        2   -1    0    0  501    0  0.00000000000E+00  0.00000000000E+00 -0.19459075129E+04  0.19459075129E+04  0.25500000920E-02 0.  1.
    10030    2    1    2    0    0  0.00000000000E+00  0.00000000000E+00 -0.70784206400E+03  0.31839729619E+04  0.31042943537E+04 0.  0.
        2    1    3    3  502    0  0.14313221815E+04 -0.30075581830E+03  0.17905458982E+03  0.14734984885E+04  0.25500000920E-02 0. -1.
       -2    1    3    3    0  502 -0.14313221815E+04  0.30075581830E+03 -0.88689665382E+03  0.17104744734E+04  0.25500000920E-02 0.  1.
</event>
<event>
 5   0  0.2078009E-06  0.3126031E+04  0.7818609E-02  0.8208630E-01
        2   -1    0    0  501    0  0.00000000000E+00  0.00000000000E+00  0.24359560866E+04  0.24359560866E+04  0.25500000920E-02 0.  1.
       -2   -1    0    0    0  501  0.00000000000E+00  0.00000000000E+00 -0.10028989764E+04  0.10028989764E+04  0.25500000920E-02 0. -1.
    10030    2    1    2    0    0  0.00000000000E+00  0.00000000000E+00  0.14330571102E+04  0.34388550630E+04  0.31260312640E+04 0.  0.
        3    1    3    3  502    0  0.12407163470E+04 -0.28464284970E+03  0.17142745405E+04  0.21352132952E+04  0.10100000352E+00 0.  1.
       -3    1    3    3    0  502 -0.12407163470E+04  0.28464284970E+03 -0.28121743025E+03  0.13036417678E+04  0.10100000352E+00 0. -1.
</event>
<event>
 5   0  0.2226334E-06  0.3093559E+04  0.7818609E-02  0.8217508E-01
       -2   -1    0    0    0  501  0.00000000000E+00  0.00000000000E+00  0.12173190401E+04  0.12173190401E+04  0.25500000920E-02 0.  1.
        2   -1    0    0  501    0  0.00000000000E+00  0.00000000000E+00 -0.19654063273E+04  0.19654063273E+04  0.25500000920E-02 0. -1.
    10030    2    1    2    0    0  0.00000000000E+00  0.00000000000E+00 -0.74808728723E+03  0.31827253674E+04  0.30935588203E+04 0.  0.
        5    1    3    3  502    0 -0.58771666634E+03 -0.71905923937E+03 -0.16466474795E+04  0.18904832930E+04  0.46999998093E+01 0. -1.
       -5    1    3    3    0  502  0.58771666634E+03  0.71905923937E+03  0.89856019225E+03  0.12922420743E+04  0.46999998093E+01 0.  1.
</event>
<event>
 5   0  0.7656332E-07  0.3085781E+04  0.7818609E-02  0.8219651E-01
       -1   -1    0    0    0  501  0.00000000000E+00  0.00000000000E+00  0.94059288534E+03  0.94059288535E+03  0.50400001928E-02 0.  1.
        1   -1    0    0  501    0  0.00000000000E+00  0.00000000000E+00 -0.25308629367E+04  0.25308629367E+04  0.50400001928E-02 0. -1.
    10030    2    1    2    0    0  0.00000000000E+00  0.00000000000E+00 -0.15902700513E+04  0.34714558220E+04  0.30857813740E+04 0.  0.
        2    1    3    3  502    0  0.11505701321E+04 -0.11090688834E+03 -0.19448226588E+04  0.22623985371E+04  0.25500000920E-02 0. -1.
       -2    1    3    3    0  502 -0.11505701321E+04  0.11090688834E+03  0.35455260748E+03  0.12090572849E+04  0.25500000920E-02 0.  1.
</event>
<event>
 5   0  0.2133385E-06  0.3100773E+04  0.7818609E-02  0.8215526E-01
        2   -1    0    0  501    0  0.00000000000E+00  0.00000000000E+00  0.18801648804E+04  0.18801648804E+04  0.25500000920E-02 0.  1.
       -2   -1    0    0    0  501  0.00000000000E+00  0.00000000000E+00 -0.12784506245E+04  0.12784506245E+04  0.25500000920E-02 0. -1.
    10030    2    1    2    0    0  0.00000000000E+00  0.00000000000E+00  0.60171425595E+03  0.31586155049E+04  0.31007727846E+04 0.  0.
        2    1    3    3  502    0 -0.60377949365E+03  0.12051706116E+04  0.10811171154E+04  0.17279467865E+04  0.25500000920E-02 0.  1.
       -2    1    3    3    0  502  0.60377949365E+03 -0.12051706116E+04 -0.47940285944E+03  0.14306687183E+04  0.25500000920E-02 0. -1.
</event>
<event>
 5   0  0.7656332E-07  0.3059836E+04  0.7818609E-02  0.8226848E-01
        1   -1    0    0  501    0  0.00000000000E+00  0.00000000000E+00  0.14850366093E+04  0.14850366093E+04  0.50400001928E-02 0.  1.
       -1   -1    0    0    0  501  0.00000000000E+00  0.00000000000E+00 -0.15761555862E+04  0.15761555863E+04  0.50400001928E-02 0. -1.
    10030    2    1    2    0    0  0.00000000000E+00  0.00000000000E+00 -0.91118976911E+02  0.30611921956E+04  0.30598357783E+04 0.  0.
        2    1    3    3  502    0  0.63114766427E+02  0.26513650766E+03  0.14605539540E+04  0.14857653563E+04  0.25500000920E-02 0.  1.
       -2    1    3    3    0  502 -0.63114766427E+02 -0.26513650766E+03 -0.15516729309E+04  0.15754268393E+04  0.25500000920E-02 0. -1.
</event>
<event>
 5   0  0.2226334E-06  0.3101127E+04  0.7818609E-02  0.8215429E-01
       -2   -1    0    0    0  501  0.00000000000E+00  0.00000000000E+00  0.11552746471E+04  0.11552746471E+04  0.25500000920E-02 0.  1.
        2   -1    0    0  501    0  0.00000000000E+00  0.00000000000E+00 -0.20811048127E+04  0.20811048127E+04  0.25500000920E-02 0. -1.
    10030    2    1    2    0    0  0.00000000000E+00  0.00000000000E+00 -0.92583016555E+03  0.32363794598E+04  0.31011272970E+04 0.  0.
        5    1    3    3  502    0  0.49516457955E+03  0.14468468955E+04 -0.19547360235E+03  0.15416828205E+04  0.46999998093E+01 0. -1.
       -5    1    3    3    0  502 -0.49516457955E+03 -0.14468468955E+04 -0.73035656320E+03  0.16946966393E+04  0.46999998093E+01 0.  1.
</event>
<event>
 5   0  0.7726743E-07  0.3099578E+04  0.7818609E-02  0.8215854E-01
        1   -1    0    0  501    0  0.00000000000E+00  0.00000000000E+00  0.10802776839E+04  0.10802776840E+04  0.50400001928E-02 0. -1.
       -1   -1    0    0    0  501  0.00000000000E+00  0.00000000000E+00 -0.22233592371E+04  0.22233592371E+04  0.50400001928E-02 0.  1.
    10030    2    1    2    0    0  0.00000000000E+00  0.00000000000E+00 -0.11430815531E+04  0.33036369211E+04  0.30995776275E+04 0.  0.
        1    1    3    3  502    0  0.12638715834E+04 -0.57253785472E+03 -0.13074101100E+04  0.19064344128E+04  0.50400001928E-02 0.  1.
       -1    1    3    3    0  502 -0.12638715834E+04  0.57253785472E+03  0.16432855686E+03  0.13972025083E+04  0.50400001928E-02 0. -1.
</event>
<event>
 5   0  0.7656332E-07  0.3099199E+04  0.7818609E-02  0.8215958E-01
        1   -1    0    0  501    0  0.00000000000E+00  0.00000000000E+00  0.11901565434E+04  0.11901565434E+04  0.50400001928E-02 0.  1.
       -1   -1    0    0    0  501  0.00000000000E+00  0.00000000000E+00 -0.20175988825E+04  0.20175988826E+04  0.50400001928E-02 0. -1.
    10030    2    1    2    0    0  0.00000000000E+00  0.00000000000E+00 -0.82744233918E+03  0.32077554259E+04  0.30991989365E+04 0.  0.
        2    1    3    3  502    0  0.11202001601E+03  0.12574025952E+04  0.51645038489E+03  0.13639394307E+04  0.25500000920E-02 0.  1.
       -2    1    3    3    0  502 -0.11202001601E+03 -0.12574025952E+04 -0.13438927241E+04  0.18438159952E+04  0.25500000920E-02 0. -1.
</event>
<event>
 5   0  0.7726743E-07  0.3226303E+04  0.7818609E-02  0.8181905E-01
       -1   -1    0    0    0  501  0.00000000000E+00  0.00000000000E+00  0.28875066156E+04  0.28875066157E+04  0.50400001928E-02 0.  1.
        1   -1    0    0  501    0  0.00000000000E+00  0.00000000000E+00 -0.90121272996E+03  0.90121272997E+03  0.50400001928E-02 0. -1.
    10030    2    1    2    0    0  0.00000000000E+00  0.00000000000E+00  0.19862938857E+04  0.37887193456E+04  0.32263029739E+04 0.  0.
        1    1    3    3  502    0 -0.14545875317E+04  0.37110138376E+03  0.29968346228E+03  0.15308008695E+04  0.50400001928E-02 0. -1.
       -1    1    3    3    0  502  0.14545875317E+04 -0.37110138376E+03  0.16866104234E+04  0.22579184761E+04  0.50400001928E-02 0.  1.
</event>
<event>
 5   0  0.2226334E-06  0.3117020E+04  0.7818609E-02  0.8211082E-01
        2   -1    0    0  501    0  0.00000000000E+00  0.00000000000E+00  0.14389073315E+04  0.14389073315E+04  0.25500000920E-02 0. -1.
       -2   -1    0    0    0  501  0.00000000000E+00  0.00000000000E+00 -0.16880545184E+04  0.16880545184E+04  0.25500000920E-02 0.  1.
    10030    2    1    2    0    0  0.00000000000E+00  0.00000000000E+00 -0.24914718697E+03  0.31269618499E+04  0.31170203865E+04 0.  0.
        5    1    3    3  502    0  0.18654512014E+03 -0.90943624067E+02 -0.16741236488E+04  0.16869445474E+04  0.46999998093E+01 0.  1.
       -5    1    3    3    0  502 -0.18654512014E+03  0.90943624067E+02  0.14249764618E+04  0.14400173025E+04  0.46999998093E+01 0. -1.
</event>
<event>
 5   0  0.7413481E-07  0.3084747E+04  0.7818609E-02  0.8219936E-01
       -1   -1    0    0    0  501  0.00000000000E+00  0.00000000000E+00  0.12751228835E+04  0.12751228835E+04  0.50400001928E-02 0. -1.
        1   -1    0    0  501    0  0.00000000000E+00  0.00000000000E+00 -0.18656365184E+04  0.18656365184E+04  0.50400001928E-02 0.  1.
    10030    2    1    2    0    0  0.00000000000E+00  0.00000000000E+00 -0.59051363487E+03  0.31407594020E+04  0.30847468726E+04 0.  0.
        5    1    3    3  502    0  0.93214970531E+03  0.11770769536E+04  0.63967556552E+02  0.15028397007E+04  0.46999998093E+01 0. -1.
       -5    1    3    3    0  502 -0.93214970531E+03 -0.11770769536E+04 -0.65448119143E+03  0.16379197012E+04  0.46999998093E+01 0.  1.
</event>
<event>
 5   0  0.7561815E-07  0.2941699E+04  0.7818609E-02  0.8260578E-01
        1   -1    0    0  501    0  0.00000000000E+00  0.00000000000E+00  0.15077939623E+04  0.15077939623E+04  0.50400001928E-02 0. -1.
       -1   -1    0    0    0  501  0.00000000000E+00  0.00000000000E+00 -0.14348098836E+04  0.14348098836E+04  0.50400001928E-02 0.  1.
    10030    2    1    2    0    0  0.00000000000E+00  0.00000000000E+00  0.72984078719E+02  0.29426038459E+04  0.29416986110E+04 0.  0.
        3    1    3    3  502    0 -0.12516358077E+04  0.76222321081E+03 -0.89329222032E+02  0.14681812348E+04  0.10100000352E+00 0. -1.
       -3    1    3    3    0  502  0.12516358077E+04 -0.76222321081E+03  0.16231330075E+03  0.14744226111E+04  0.10100000352E+00 0.  1.
</event>
<event>
 5   0  0.2067926E-06  0.3169038E+04  0.7818609E-02  0.8197042E-01
       -2   -1    0    0    0  501  0.00000000000E+00  0.00000000000E+00  0.13688644014E+04  0.13688644014E+04  0.25500000920E-02 0.  1.
        2   -1    0    0  501    0  0.00000000000E+00  0.00000000000E+00 -0.18341480790E+04  0.18341480790E+04  0.25500000920E-02 0. -1.
    10030    2    1    2    0    0  0.00000000000E+00  0.00000000000E+00 -0.46528367763E+03  0.32030124805E+04  0.31690377166E+04 0.  0.
        1    1    3    3  502    0  0.83435486602E+02 -0.15652458098E+04  0.16712593512E+01  0.15674688892E+04  0.50400001928E-02 0.  1.
       -1    1    3    3    0  502 -0.83435486602E+02  0.15652458098E+04 -0.46695493698E+03  0.16355435912E+04  0.50400001928E-02 0. -1.
</event>
<event>
 5   0  0.7561815E-07  0.2954415E+04  0.7818609E-02  0.8256869E-01
        1   -1    0    0  501    0  0.00000000000E+00  0.00000000000E+00  0.20700109189E+04  0.20700109189E+04  0.50400001928E-02 0. -1.
       -1   -1    0    0    0  501  0.00000000000E+00  0.00000000000E+00 -0.10541695502E+04  0.10541695502E+04  0.50400001928E-02 0.  1.
    10030    2    1    2    0    0  0.00000000000E+00  0.00000000000E+00  0.10158413687E+04  0.31241804691E+04  0.29544153258E+04 0.  0.
        3    1    3    3  502    0 -0.32671275801E+03 -0.31718049918E+03 -0.97810350892E+03  0.10789027666E+04  0.10100000352E+00 0.  1.
       -3    1    3    3    0  502  0.32671275801E+03  0.31718049918E+03  0.19939448776E+04  0.20452777025E+04  0.10100000352E+00 0. -1.
</event>
<event>
 5   0  0.2078009E-06  0.3094567E+04  0.7818609E-02  0.8217231E-01
       -2   -1    0    0    0  501  0.00000000000E+00  0.00000000000E+00  0.10050341384E+04  0.10050341384E+04  0.25500000920E-02 0.  1.
        2   -1    0    0  501    0  0.00000000000E+00  0.00000000000E+00 -0.23820937263E+04  0.23820937263E+04  0.25500000920E-02 0. -1.
    10030    2    1    2    0    0  0.00000000000E+00  0.00000000000E+00 -0.13770595878E+04  0.33871278647E+04  0.30945665389E+04 0.  0.
        3    1    3    3  502    0  0.88087742201E+03 -0.12643542215E+04 -0.53549412816E+03  0.16313462544E+04  0.10100000352E+00 0. -1.
       -3    1    3    3    0  502 -0.88087742201E+03  0.12643542215E+04 -0.84156545967E+03  0.17557816104E+04  0.10100000352E+00 0.  1.
</event>
<event>
 5   0  0.7726743E-07  0.3099014E+04  0.7818609E-02  0.8216009E-01
        1   -1    0    0  501    0  0.00000000000E+00  0.00000000000E+00  0.20064849055E+04  0.20064849055E+04  0.50400001928E-02 0.  1.
       -1   -1    0    0    0  501  0.00000000000E+00  0.00000000000E+00 -0.11966056682E+04  0.11966056682E+04  0.50400001928E-02 0. -1.
    10030    2    1    2    0    0  0.00000000000E+00  0.00000000000E+00  0.80987923738E+03  0.32030905737E+04  0.30990135276E+04 0.  0.
        1    1    3    3  502    0 -0.47719931585E+03 -0.13788337041E+04 -0.13418080986E+03  0.14652324254E+04  0.50400001928E-02 0.  1.
       -1    1    3    3    0  502  0.47719931585E+03  0.13788337041E+04  0.94406004724E+03  0.17378581483E+04  0.50400001928E-02 0. -1.
</event>
<event>
 5   0  0.7726743E-07  0.3108734E+04  0.7818609E-02  0.8213345E-01
        1   -1    0    0  501    0  0.00000000000E+00  0.00000000000E+00  0.18404432939E+04  0.18404432939E+04  0.50400001928E-02 0.  1.
       -1   -1    0    0    0  501  0.00000000000E+00  0.00000000000E+00 -0.13127577617E+04  0.13127577617E+04  0.50400001928E-02 0. -1.
    10030    2    1    2    0    0  0.00000000000E+00  0.00000000000E+00  0.52768553222E+03  0.31532010557E+04  0.31087336452E+04 0.  0.
        1    1    3    3  502    0  0.61984823707E+03 -0.11214527567E+04  0.11563081798E+04  0.17259538607E+04  0.50400001928E-02 0.  1.
       -1    1    3    3    0  502 -0.61984823707E+03  0.11214527567E+04 -0.62862264761E+03  0.14272471950E+04  0.50400001928E-02 0. -1.
</event>
<event>
 5   0  0.2067926E-06  0.3087628E+04  0.7818609E-02  0.8219141E-01
        2   -1    0    0  501    0  0.00000000000E+00  0.00000000000E+00  0.20132330869E+04  0.20132330869E+04  0.25500000920E-02 0. -1.
       -2   -1    0    0    0  501  0.00000000000E+00  0.00000000000E+00 -0.11838482208E+04  0.11838482208E+04  0.25500000920E-02 0.  1.
    10030    2    1    2    0    0  0.00000000000E+00  0.00000000000E+00  0.82938486602E+03  0.31970813077E+04  0.30876284803E+04 0.  0.
        1    1    3    3  502    0  0.47603455989E+03 -0.14009244173E+04 -0.41568531872E+02  0.14801777150E+04  0.50400001928E-02 0.  1.
       -1    1    3    3    0  502 -0.47603455989E+03  0.14009244173E+04  0.87095339789E+03  0.17169035927E+04  0.50400001928E-02 0. -1.
</event>
<event>
 5   0  0.7561815E-07  0.3103809E+04  0.7818609E-02  0.8214693E-01
       -1   -1    0    0    0  501  0.00000000000E+00  0.00000000000E+00  0.18702507171E+04  0.18702507171E+04  0.50400001928E-02 0.  1.
        1   -1    0    0  501    0  0.00000000000E+00  0.00000000000E+00 -0.12877461419E+04  0.12877461419E+04  0.50400001928E-02 0. -1.
    10030    2    1    2    0    0  0.00000000000E+00  0.00000000000E+00  0.58250457526E+03  0.31579968590E+04  0.31038093662E+04 0.  0.
        3    1    3    3  502    0  0.15073847044E+04 -0.37015570634E+02 -0.82349419208E+02  0.15100861686E+04  0.10100000352E+00 0. -1.
       -3    1    3    3    0  502 -0.15073847044E+04  0.37015570634E+02  0.66485399446E+03  0.16479106904E+04  0.10100000352E+00 0.  1.
</event>
<event>
 5   0  0.7726743E-07  0.3435077E+04  0.7818609E-02  0.8129351E-01
       -1   -1    0    0    0  501  0.00000000000E+00  0.00000000000E+00  0.17341795780E+04  0.17341795780E+04  0.50400001928E-02 0. -1.
        1   -1    0    0  501    0  0.00000000000E+00  0.00000000000E+00 -0.17010572260E+04  0.17010572260E+04  0.50400001928E-02 0.  1.
    10030    2    1    2    0    0  0.00000000000E+00  0.00000000000E+00  0.33122351925E+02  0.34352368040E+04  0.34350771184E+04 0.  0.
        1    1    3    3  502    0  0.51330256931E+03  0.15453524339E+04 -0.52967390958E+03  0.17123516353E+04  0.50400001928E-02 0.  1.
       -1    1    3    3    0  502 -0.51330256931E+03 -0.15453524339E+04  0.56279626151E+03  0.17228851687E+04  0.50400001928E-02 0. -1.
</event>
<event>
 5   0  0.2078009E-06  0.3093770E+04  0.7818609E-02  0.8217450E-01
       -2   -1    0    0    0  501  0.00000000000E+00  0.00000000000E+00  0.23003688925E+04  0.23003688925E+04  0.25500000920E-02 0.  1.
        2   -1    0    0  501    0  0.00000000000E+00  0.00000000000E+00 -0.10402040635E+04  0.10402040635E+04  0.25500000920E-02 0. -1.
    10030    2    1    2    0    0  0.00000000000E+00  0.00000000000E+00  0.12601648290E+04  0.33405729560E+04  0.30937699135E+04 0.  0.
        3    1    3    3  502    0 -0.54900744025E+01 -0.12622622198E+04 -0.33540541209E+03  0.13060753627E+04  0.10100000352E+00 0. -1.
       -3    1    3    3    0  502  0.54900744025E+01  0.12622622198E+04  0.15955702411E+04  0.20344975933E+04  0.10100000352E+00 0.  1.
</event>
<event>
 5   0  0.2226334E-06  0.3145575E+04  0.7818609E-02  0.8203340E-01
        2   -1    0    0  501    0  0.00000000000E+00  0.00000000000E+00  0.26964023607E+04  0.26964023607E+04  0.25500000920E-02 0.  1.
       -2   -1    0    0    0  501  0.00000000000E+00  0.00000000000E+00 -0.91739286464E+03  0.91739286465E+03  0.25500000920E-02 0. -1.
    10030    2    1    2    0    0  0.00000000000E+00  0.00000000000E+00  0.17790094960E+04  0.36137952253E+04  0.31455748510E+04 0.  0.
        5    1    3    3  502    0 -0.46557939177E+02  0.14218263999E+04  0.16600745337E+04  0.21862359206E+04  0.46999998093E+01 0.  1.
       -5    1    3    3    0  502  0.46557939177E+02 -0.14218263999E+04  0.11893496228E+03  0.14275593047E+04  0.46999998093E+01 0. -1.
</event>
<event>
 5   0  0.2133385E-06  0.3108225E+04  0.7818609E-02  0.8213484E-01
        2   -1    0    0  501    0  0.00000000000E+00  0.00000000000E+00  0.12426609618E+04  0.12426609618E+04  0.25500000920E-02 0. -1.
       -2   -1    0    0    0  501  0.00000000000E+00  0.00000000000E+00 -0.19436238335E+04  0.19436238335E+04  0.25500000920E-02 0.  1.
    10030    2    1    2    0    0  0.00000000000E+00  0.00000000000E+00 -0.70096287171E+03  0.31862847954E+04  0.31082248712E+04 0.  0.
        2    1    3    3  502    0 -0.49506562725E+03  0.12796227375E+04 -0.10987030962E+04  0.17577465173E+04  0.25500000920E-02 0.  1.
       -2    1    3    3    0  502  0.49506562725E+03 -0.12796227375E+04  0.39774022446E+03  0.14285382780E+04  0.25500000920E-02 0. -1.
</event>
<event>
 5   0  0.2133385E-06  0.3126254E+04  0.7818609E-02  0.8208569E-01
       -2   -1    0    0    0  501  0.00000000000E+00  0.00000000000E+00  0.12216425815E+04  0.12216425815E+04  0.25500000920E-02 0.  1.
        2   -1    0    0  501    0  0.00000000000E+00  0.00000000000E+00 -0.20000667800E+04  0.20000667800E+04  0.25500000920E-02 0. -1.
    10030    2    1    2    0    0  0.00000000000E+00  0.00000000000E+00 -0.77842419850E+03  0.32217093615E+04  0.31262544645E+04 0.  0.
        2    1    3    3  502    0  0.67536088411E+03  0.10816812024E+04 -0.13208166037E+04  0.18359474524E+04  0.25500000920E-02 0. -1.
       -2    1    3    3    0  502 -0.67536088411E+03 -0.10816812024E+04  0.54239240524E+03  0.13857619091E+04  0.25500000920E-02 0.  1.
</event>
<event>
 5   0  0.2078009E-06  0.3048277E+04  0.7818609E-02  0.8230078E-01
        2   -1    0    0  501    0  0.00000000000E+00  0.00000000000E+00  0.12691476194E+04  0.12691476194E+04  0.25500000920E-02 0.  1.
       -2   -1    0    0    0  501  0.00000000000E+00  0.00000000000E+00 -0.18303612631E+04  0.18303612631E+04  0.25500000920E-02 0. -1.
    10030    2    1    2    0    0  0.00000000000E+00  0.00000000000E+00 -0.56121364377E+03  0.30995088825E+04  0.30482773100E+04 0.  0.
        3    1    3    3  502    0 -0.39827695344E+03  0.11170208776E+04 -0.12541101683E+04  0.17260221601E+04  0.10100000352E+00 0. -1.
       -3    1    3    3    0  502  0.39827695344E+03 -0.11170208776E+04  0.69289652454E+03  0.13734867224E+04  0.10100000352E+00 0.  1.
</event>
<event>
 5   0  0.7656332E-07  0.3054490E+04  0.7818609E-02  0.8228340E-01
        1   -1    0    0  501    0  0.00000000000E+00  0.00000000000E+00  0.10639232092E+04  0.10639232092E+04  0.50400001928E-02 0. -1.
       -1   -1    0    0    0  501  0.00000000000E+00  0.00000000000E+00 -0.21923354477E+04  0.21923354477E+04  0.50400001928E-02 0.  1.
    10030    2    1    2    0    0  0.00000000000E+00  0.00000000000E+00 -0.11284122385E+04  0.32562586569E+04  0.30544895253E+04 0.  0.
        2    1    3    3  502    0 -0.31381010899E+03  0.11069077487E+03 -0.21532196262E+04  0.21787803907E+04  0.25500000920E-02 0.  1.
       -2    1    3    3    0  502  0.31381010899E+03 -0.11069077487E+03  0.10248073877E+04  0.10774782662E+04  0.25500000920E-02 0. -1.
</event>
<event>
 5   0  0.2067926E-06  0.3098492E+04  0.7818609E-02  0.8216152E-01
       -2   -1    0    0    0  501  0.00000000000E+00  0.00000000000E+00  0.13142648842E+04  0.13142648842E+04  0.25500000920E-02 0.  1.
        2   -1    0    0  501    0  0.00000000000E+00  0.00000000000E+00 -0.18262398486E+04  0.18262398486E+04  0.25500000920E-02 0. -1.
    10030    2    1    2    0    0  0.00000000000E+00  0.00000000000E+00 -0.51197496444E+03  0.31405047328E+04  0.30984918287E+04 0.  0.
        1    1    3    3  502    0  0.19074370937E+03  0.14909121319E+04 -0.63652563560E+03  0.16322888937E+04  0.50400001928E-02 0. -1.
       -1    1    3    3    0  502 -0.19074370937E+03 -0.14909121319E+04  0.12455067116E+03  0.15082158391E+04  0.50400001928E-02 0.  1.
</event>
<event>
 5   0  0.7561815E-07  0.2740530E+04  0.7818609E-02  0.8321973E-01
        1   -1    0    0  501    0  0.00000000000E+00  0.00000000000E+00  0.10650418594E+04  0.10650418595E+04  0.50400001928E-02 0. -1.
       -1   -1    0    0    0  501  0.00000000000E+00  0.00000000000E+00 -0.17629594795E+04  0.17629594795E+04  0.50400001928E-02 0.  1.
    10030    2    1    2    0    0  0.00000000000E+00  0.00000000000E+00 -0.69791762001E+03  0.28280013389E+04  0.27405296146E+04 0.  0.
        3    1    3    3  502    0 -0.81123259198E+03 -0.68202983794E+03  0.54730361535E+03  0.11928135964E+04  0.10100000352E+00 0. -1.
       -3    1    3    3    0  502  0.81123259198E+03  0.68202983794E+03 -0.12452212354E+04  0.16351877425E+04  0.10100000352E+00 0.  1.
</event>
<event>
 5   0  0.7561815E-07  0.2831507E+04  0.7818609E-02  0.8293553E-01
       -1   -1    0    0    0  501  0.00000000000E+00  0.00000000000E+00  0.13687842192E+04  0.13687842192E+04  0.50400001928E-02 0. -1.
        1   -1    0    0  501    0  0.00000000000E+00  0.00000000000E+00 -0.14643344947E+04  0.14643344947E+04  0.50400001928E-02 0.  1.
    10030    2    1    2    0    0  0.00000000000E+00  0.00000000000E+00 -0.95550275543E+02  0.28331187139E+04  0.28315069825E+04 0.  0.
        3    1    3    3  502    0  0.88852535803E+03  0.10637503280E+04  0.24103404065E+03  0.14068189262E+04  0.10100000352E+00 0. -1.
       -3    1    3    3    0  502 -0.88852535803E+03 -0.10637503280E+04 -0.33658431619E+03  0.14262997877E+04  0.10100000352E+00 0.  1.
</event>
<event>
 5   0  0.7519202E-07  0.3350630E+04  0.7818609E-02  0.8150131E-01
        1   -1    0    0  501    0  0.00000000000E+00  0.00000000000E+00  0.16268203084E+04  0.16268203085E+04  0.50400001928E-02 0.  1.
       -1   -1    0    0    0  501  0.00000000000E+00  0.00000000000E+00 -0.17252557308E+04  0.17252557308E+04  0.50400001928E-02 0. -1.
    10030    2    1    2    0    0  0.00000000000E+00  0.00000000000E+00 -0.98435422396E+02  0.33520760393E+04  0.33506304244E+04 0.  0.
        4    1    3    3  502    0 -0.13990438100E+04 -0.25442091643E+03  0.83695555352E+03  0.16500150898E+04  0.12699999809E+01 0.  1.
       -4    1    3    3    0  502  0.13990438100E+04  0.25442091643E+03 -0.93539097592E+03  0.17020609495E+04  0.12699999809E+01 0. -1.
</event>
<event>
 5   0  0.2094135E-06  0.3088355E+04  0.7818609E-02  0.8218941E-01
        2   -1    0    0  501    0  0.00000000000E+00  0.00000000000E+00  0.21921645042E+04  0.21921645042E+04  0.25500000920E-02 0. -1.
       -2   -1    0    0    0  501  0.00000000000E+00  0.00000000000E+00 -0.10877302050E+04  0.10877302050E+04  0.25500000920E-02 0.  1.
    10030    2    1    2    0    0  0.00000000000E+00  0.00000000000E+00  0.11044342992E+04  0.32798947092E+04  0.30883546076E+04 0.  0.
        4    1    3    3  502    0 -0.10465966230E+04 -0.10659117119E+04  0.13687404491E+03  0.15000894593E+04  0.12699999809E+01 0.  1.
       -4    1    3    3    0  502  0.10465966230E+04  0.10659117119E+04  0.96756025432E+03  0.17798052499E+04  0.12699999809E+01 0. -1.
</event>
<event>
 5   0  0.7561815E-07  0.3332093E+04  0.7818609E-02  0.8154777E-01
        1   -1    0    0  501    0  0.00000000000E+00  0.00000000000E+00  0.19735527074E+04  0.19735527074E+04  0.50400001928E-02 0. -1.
       -1   -1    0    0    0  501  0.00000000000E+00  0.00000000000E+00 -0.14064535079E+04  0.14064535079E+04  0.50400001928E-02 0.  1.
    10030    2    1    2    0    0  0.00000000000E+00  0.00000000000E+00  0.56709919946E+03  0.33800062153E+04  0.33320925127E+04 0.  0.
        3    1    3    3  502    0 -0.25317784121E+03  0.11563002630E+04 -0.90573442445E+03  0.14904644160E+04  0.10100000352E+00 0.  1.
       -3    1    3    3    0  502  0.25317784121E+03 -0.11563002630E+04  0.14728336239E+04  0.18895417993E+04  0.10100000352E+00 0. -1.
</event>
<event>
 5   0  0.2226334E-06  0.3086659E+04  0.7818609E-02  0.8219409E-01
       -2   -1    0    0    0  501  0.00000000000E+00  0.00000000000E+00  0.12327371730E+04  0.12327371730E+04  0.25500000920E-02 0. -1.
        2   -1    0    0  501    0  0.00000000000E+00  0.00000000000E+00 -0.19321772195E+04  0.19321772195E+04  0.25500000920E-02 0.  1.
    10030    2    1    2    0    0  0.00000000000E+00  0.00000000000E+00 -0.69944004653E+03  0.31649143926E+04  0.30866594781E+04 0.  0.
        5    1    3    3  502    0 -0.11070561036E+04 -0.85817318328E+03  0.31463423266E+03  0.14356361724E+04  0.46999998093E+01 0. -1.
       -5    1    3    3    0  502  0.11070561036E+04  0.85817318328E+03 -0.10140742792E+04  0.17292782202E+04  0.46999998093E+01 0.  1.
</event>
<event>
 5   0  0.7561815E-07  0.3081755E+04  0.7818609E-02  0.8220763E-01
       -1   -1    0    0    0  501  0.00000000000E+00  0.00000000000E+00  0.99117739274E+03  0.99117739276E+03  0.50400001928E-02 0. -1.
        1   -1    0    0  501    0  0.00000000000E+00  0.00000000000E+00 -0.23954373103E+04  0.23954373103E+04  0.50400001928E-02 0.  1.
    10030    2    1    2    0    0  0.00000000000E+00  0.00000000000E+00 -0.14042599176E+04  0.33866147031E+04  0.30817548947E+04 0.  0.
        3    1    3    3  502    0 -0.62495081591E+01  0.10526917000E+04 -0.19386536982E+04  0.22060319679E+04  0.10100000352E+00 0.  1.
       -3    1    3    3    0  502  0.62495081591E+01 -0.10526917000E+04  0.53439378069E+03  0.11805827352E+04  0.10100000352E+00 0. -1.
</event>
<event>
 5   0  0.2067926E-06  0.3097941E+04  0.7818609E-02  0.8216303E-01
       -2   -1    0    0    0  501  0.00000000000E+00  0.00000000000E+00  0.12129861649E+04  0.12129861649E+04  0.25500000920E-02 0.  1.
        2   -1    0    0  501    0  0.00000000000E+00  0.00000000000E+00 -0.19780183202E+04  0.19780183202E+04  0.25500000920E-02 0. -1.
    10030    2    1    2    0    0  0.00000000000E+00  0.00000000000E+00 -0.76503215528E+03  0.31910044850E+04  0.30979405135E+04 0.  0.
        1    1    3    3  502    0 -0.91151810753E+03 -0.10767884180E+04  0.27620297451E+03  0.14375766556E+04  0.50400001928E-02 0.  1.
       -1    1    3    3    0  502  0.91151810753E+03  0.10767884180E+04 -0.10412351298E+04  0.17534278295E+04  0.50400001928E-02 0. -1.
</event>
<event>
 5   0  0.7561815E-07  0.3101556E+04  0.7818609E-02  0.8215311E-01
        1   -1    0    0  501    0  0.00000000000E+00  0.00000000000E+00  0.21272746242E+04  0.21272746242E+04  0.50400001928E-02 0. -1.
       -1   -1    0    0    0  501  0.00000000000E+00  0.00000000000E+00 -0.11305136852E+04  0.11305136852E+04  0.50400001928E-02 0.  1.
    10030    2    1    2    0    0  0.00000000000E+00  0.00000000000E+00  0.99676093901E+03  0.32577883094E+04  0.31015564318E+04 0.  0.
        3    1    3    3  502    0  0.20660977887E+03  0.13664016283E+02  0.21126895248E+04  0.21228121313E+04  0.10100000352E+00 0. -1.
       -3    1    3    3    0  502 -0.20660977887E+03 -0.13664016283E+02 -0.11159285858E+04  0.11349761781E+04  0.10100000352E+00 0.  1.
</event>
<event>
 5   0  0.2226334E-06  0.3084279E+04  0.7818609E-02  0.8220066E-01
        2   -1    0    0  501    0  0.00000000000E+00  0.00000000000E+00  0.12542999910E+04  0.12542999910E+04  0.25500000920E-02 0. -1.
       -2   -1    0    0    0  501  0.00000000000E+00  0.00000000000E+00 -0.18960333697E+04  0.18960333697E+04  0.25500000920E-02 0.  1.
    10030    2    1    2    0    0  0.00000000000E+00  0.00000000000E+00 -0.64173337869E+03  0.31503333607E+04  0.30842792601E+04 0.  0.
        5    1    3    3  502    0  0.76101964502E+03 -0.21345301587E+03  0.10316750717E+04  0.12996494272E+04  0.46999998093E+01 0. -1.
       -5    1    3    3    0  502 -0.76101964502E+03  0.21345301587E+03 -0.16734084504E+04  0.18506839335E+04  0.46999998093E+01 0.  1.
</event>
<event>
 5   0  0.2078009E-06  0.3115555E+04  0.7818609E-02  0.8211482E-01
        2   -1    0    0  501    0  0.00000000000E+00  0.00000000000E+00  0.16929718132E+04  0.16929718132E+04  0.25500000920E-02 0. -1.
       -2   -1    0    0    0  501  0.00000000000E+00  0.00000000000E+00 -0.14333788852E+04  0.14333788852E+04  0.25500000920E-02 0.  1.
    10030    2    1    2    0    0  0.00000000000E+00  0.00000000000E+00  0.25959292797E+03  0.31263506985E+04  0.31155545576E+04 0.  0.
        3    1    3    3  502    0  0.11887139149E+04 -0.98147045199E+03 -0.95358016374E+02  0.15444799064E+04  0.10100000352E+00 0.  1.
       -3    1    3    3    0  502 -0.11887139149E+04  0.98147045199E+03  0.35495094434E+03  0.15818707921E+04  0.10100000352E+00 0. -1.
</event>
<event>
 5   0  0.2078009E-06  0.3085938E+04  0.7818609E-02  0.8219608E-01
       -2   -1    0    0    0  501  0.00000000000E+00  0.00000000000E+00  0.10947454718E+04  0.10947454718E+04  0.25500000920E-02 0.  1.
        2   -1    0    0  501    0  0.00000000000E+00  0.00000000000E+00 -0.21747097232E+04  0.21747097232E+04  0.25500000920E-02 0. -1.
    10030    2    1    2    0    0  0.00000000000E+00  0.00000000000E+00 -0.10799642513E+04  0.32694551950E+04  0.30859381860E+04 0.  0.
        3    1    3    3  502    0 -0.28410265453E+03 -0.59804889937E+03 -0.20165550804E+04  0.21224681874E+04  0.10100000352E+00 0. -1.
       -3    1    3    3    0  502  0.28410265453E+03  0.59804889937E+03  0.93659082902E+03  0.11469870076E+04  0.10100000352E+00 0.  1.
</event>
<event>
 5   0  0.7726743E-07  0.3084774E+04  0.7818609E-02  0.8219929E-01
       -1   -1    0    0    0  501  0.00000000000E+00  0.00000000000E+00  0.94477905202E+03  0.94477905203E+03  0.50400001928E-02 0. -1.
        1   -1    0    0  501    0  0.00000000000E+00  0.00000000000E+00 -0.25180038844E+04  0.25180038844E+04  0.50400001928E-02 0.  1.
    10030    2    1    2    0    0  0.00000000000E+00  0.00000000000E+00 -0.15732248324E+04  0.34627829364E+04  0.30847737829E+04 0.  0.
        1    1    3    3  502    0 -0.60941567458E+03  0.80192436395E+02 -0.23745761473E+04  0.24528412445E+04  0.50400001928E-02 0.  1.
       -1    1    3    3    0  502  0.60941567458E+03 -0.80192436395E+02  0.80135131490E+03  0.10099416920E+04  0.50400001928E-02 0. -1.
</event>
<event>
 5   0  0.7519202E-07  0.3084960E+04  0.7818609E-02  0.8219878E-01
        1   -1    0    0  501    0  0.00000000000E+00  0.00000000000E+00  0.22085867783E+04  0.22085867783E+04  0.50400001928E-02 0. -1.
       -1   -1    0    0    0  501  0.00000000000E+00  0.00000000000E+00 -0.10772698816E+04  0.10772698816E+04  0.50400001928E-02 0.  1.
    10030    2    1    2    0    0  0.00000000000E+00  0.00000000000E+00  0.11313168967E+04  0.32858566598E+04  0.30849596542E+04 0.  0.
        4    1    3    3  502    0 -0.73812336660E+03 -0.11801171439E+04  0.12735755494E+04  0.18866634227E+04  0.12699999809E+01 0. -1.
       -4    1    3    3    0  502  0.73812336660E+03  0.11801171439E+04 -0.14225865275E+03  0.13991932371E+04  0.12699999809E+01 0.  1.
</event>
<event>
 5   0  0.7726743E-07  0.3130558E+04  0.7818609E-02  0.8207401E-01
       -1   -1    0    0    0  501  0.00000000000E+00  0.00000000000E+00  0.26945066540E+04  0.26945066540E+04  0.50400001928E-02 0. -1.
        1   -1    0    0  501    0  0.00000000000E+00  0.00000000000E+00 -0.90929411915E+03  0.90929411916E+03  0.50400001928E-02 0.  1.
    10030    2    1    2    0    0  0.00000000000E+00  0.00000000000E+00  0.17852125348E+04  0.36038007732E+04  0.31305584515E+04 0.  0.
        1    1    3    3  502    0  0.30110498009E+03 -0.15358339029E+04  0.86327815493E+03  0.17873721378E+04  0.50400001928E-02 0.  1.
       -1    1    3    3    0  502 -0.30110498009E+03  0.15358339029E+04  0.92193437992E+03  0.18164286353E+04  0.50400001928E-02 0. -1.
</event>
<event>
 5   0  0.6979625E-07  0.3097195E+04  0.7818609E-02  0.8216508E-01
        3   -1    0    0  501    0  0.00000000000E+00  0.00000000000E+00  0.17319047080E+04  0.17319047110E+04  0.10100000352E+00 0. -1.
       -3   -1    0    0    0  501  0.00000000000E+00  0.00000000000E+00 -0.13846915126E+04  0.13846915163E+04  0.10100000352E+00 0.  1.
    10030    2    1    2    0    0  0.00000000000E+00  0.00000000000E+00  0.34721319539E+03  0.31165962273E+04  0.30971947051E+04 0.  0.
        4    1    3    3  502    0  0.12064417679E+04  0.24006279209E+02 -0.80307851067E+03  0.14494877537E+04  0.12699999809E+01 0.  1.
       -4    1    3    3    0  502 -0.12064417679E+04 -0.24006279209E+02  0.11502917061E+04  0.16671084736E+04  0.12699999809E+01 0. -1.
</event>
<event>
 5   0  0.7561815E-07  0.3103849E+04  0.7818609E-02  0.8214682E-01
       -1   -1    0    0    0  501  0.00000000000E+00  0.00000000000E+00  0.13818528845E+04  0.13818528845E+04  0.50400001928E-02 0.  1.
        1   -1    0    0  501    0  0.00000000000E+00  0.00000000000E+00 -0.17429273956E+04  0.17429273956E+04  0.50400001928E-02 0. -1.
    10030    2    1    2    0    0  0.00000000000E+00  0.00000000000E+00 -0.36107451103E+03  0.31247802801E+04  0.31038487393E+04 0.  0.
        3    1    3    3  502    0  0.38061121204E+03  0.22286818640E+03  0.13174264228E+04  0.13892974890E+04  0.10100000352E+00 0.  1.
       -3    1    3    3    0  502 -0.38061121204E+03 -0.22286818640E+03 -0.16785009338E+04  0.17354827911E+04  0.10100000352E+00 0. -1.
</event>
<event>
 5   0  0.7519202E-07  0.3093081E+04  0.7818609E-02  0.8217639E-01
       -1   -1    0    0    0  501  0.00000000000E+00  0.00000000000E+00  0.11007383565E+04  0.11007383565E+04  0.50400001928E-02 0. -1.
        1   -1    0    0  501    0  0.00000000000E+00  0.00000000000E+00 -0.21728938090E+04  0.21728938090E+04  0.50400001928E-02 0.  1.
    10030    2    1    2    0    0  0.00000000000E+00  0.00000000000E+00 -0.10721554525E+04  0.32736321655E+04  0.30930810271E+04 0.  0.
        4    1    3    3  502    0 -0.70084482425E+03 -0.94912024377E+03  0.52217485596E+03  0.12902251346E+04  0.12699999809E+01 0. -1.
       -4    1    3    3    0  502  0.70084482425E+03  0.94912024377E+03 -0.15943303085E+04  0.19834070309E+04  0.12699999809E+01 0.  1.
</event>
<event>
 5   0  0.7656332E-07  0.3109781E+04  0.7818609E-02  0.8213059E-01
        1   -1    0    0  501    0  0.00000000000E+00  0.00000000000E+00  0.18168856624E+04  0.18168856624E+04  0.50400001928E-02 0. -1.
       -1   -1    0    0    0  501  0.00000000000E+00  0.00000000000E+00 -0.13306751778E+04  0.13306751778E+04  0.50400001928E-02 0.  1.
    10030    2    1    2    0    0  0.00000000000E+00  0.00000000000E+00  0.48621048463E+03  0.31475608402E+04  0.31097811189E+04 0.  0.
        2    1    3    3  502    0 -0.10701664851E+04  0.40956252716E+03 -0.82070436853E+03  0.14094514642E+04  0.25500000920E-02 0.  1.
       -2    1    3    3    0  502  0.10701664851E+04 -0.40956252716E+03  0.13069148532E+04  0.17381093760E+04  0.25500000920E-02 0. -1.
</event>
<event>
 5   0  0.2133385E-06  0.3180297E+04  0.7818609E-02  0.8194040E-01
       -2   -1    0    0    0  501  0.00000000000E+00  0.00000000000E+00  0.99188712112E+03  0.99188712112E+03  0.25500000920E-02 0. -1.
        2   -1    0    0  501    0  0.00000000000E+00  0.00000000000E+00 -0.25492535665E+04  0.25492535665E+04  0.25500000920E-02 0.  1.
    10030    2    1    2    0    0  0.00000000000E+00  0.00000000000E+00 -0.15573664454E+04  0.35411406877E+04  0.31802967038E+04 0.  0.
        2    1    3    3  502    0  0.55538033510E+03  0.73097826646E+03  0.66701602056E+03  0.11347629331E+04  0.25500000920E-02 0. -1.
       -2    1    3    3    0  502 -0.55538033510E+03 -0.73097826646E+03 -0.22243824660E+04  0.24063777546E+04  0.25500000920E-02 0.  1.
</event>
<event>
 5   0  0.7413481E-07  0.3087945E+04  0.7818609E-02  0.8219054E-01
        1   -1    0    0  501    0  0.00000000000E+00  0.00000000000E+00  0.29209977638E+04  0.29209977638E+04  0.50400001928E-02 0.  1.
       -1   -1    0    0    0  501  0.00000000000E+00  0.00000000000E+00 -0.81610856896E+03  0.81610856898E+03  0.50400001928E-02 0. -1.
    10030    2    1    2    0    0  0.00000000000E+00  0.00000000000E+00  0.21048891948E+04  0.37371063327E+04  0.30879451452E+04 0.  0.
        5    1    3    3  502    0  0.41150487049E+03 -0.92320126805E+03  0.24649336833E+04  0.26641240573E+04  0.46999998093E+01 0.  1.
       -5    1    3    3    0  502 -0.41150487049E+03  0.92320126805E+03 -0.36004448847E+03  0.10729822755E+04  0.46999998093E+01 0. -1.
</event>
<event>
 5   0  0.7561815E-07  0.3149820E+04  0.7818609E-02  0.8202197E-01
        1   -1    0    0  501    0  0.00000000000E+00  0.00000000000E+00  0.11572428181E+04  0.11572428181E+04  0.50400001928E-02 0. -1.
       -1   -1    0    0    0  501  0.00000000000E+00  0.00000000000E+00 -0.21433202575E+04  0.21433202575E+04  0.50400001928E-02 0.  1.
    10030    2    1    2    0    0  0.00000000000E+00  0.00000000000E+00 -0.98607743943E+03  0.33005630756E+04  0.31498202964E+04 0.  0.
        3    1    3    3  502    0 -0.20377777689E+03  0.57016502559E+03 -0.20164839788E+04  0.21054266042E+04  0.10100000352E+00 0.  1.
       -3    1    3    3    0  502  0.20377777689E+03 -0.57016502559E+03  0.10304065394E+04  0.11951364714E+04  0.10100000352E+00 0. -1.
</event>
<event>
 5   0  0.2133385E-06  0.3091800E+04  0.7818609E-02  0.8217992E-01
       -2   -1    0    0    0  501  0.00000000000E+00  0.00000000000E+00  0.99709443510E+03  0.99709443511E+03  0.25500000920E-02 0.  1.
        2   -1    0    0  501    0  0.00000000000E+00  0.00000000000E+00 -0.23967702971E+04  0.23967702971E+04  0.25500000920E-02 0. -1.
    10030    2    1    2    0    0  0.00000000000E+00  0.00000000000E+00 -0.13996758620E+04  0.33938647322E+04  0.30917996866E+04 0.  0.
        2    1    3    3  502    0 -0.81163890438E+01  0.80821369507E+03  0.74668212470E+03  0.11003678694E+04  0.25500000920E-02 0.  1.
       -2    1    3    3    0  502  0.81163890438E+01 -0.80821369507E+03 -0.21463579867E+04  0.22934968628E+04  0.25500000920E-02 0. -1.
</event>
<event>
 5   0  0.7656332E-07  0.2926027E+04  0.7818609E-02  0.8265176E-01
        1   -1    0    0  501    0  0.00000000000E+00  0.00000000000E+00  0.23054279210E+04  0.23054279210E+04  0.50400001928E-02 0. -1.
       -1   -1    0    0    0  501  0.00000000000E+00  0.00000000000E+00 -0.92842132936E+03  0.92842132938E+03  0.50400001928E-02 0.  1.
    10030    2    1    2    0    0  0.00000000000E+00  0.00000000000E+00  0.13770065916E+04  0.32338492504E+04  0.29260269686E+04 0.  0.
        2    1    3    3  502    0 -0.10945511766E+03 -0.14473286161E+04  0.48571190152E+03  0.15305739437E+04  0.25500000920E-02 0. -1.
       -2    1    3    3    0  502  0.10945511766E+03  0.14473286161E+04  0.89129469012E+03  0.17032753067E+04  0.25500000920E-02 0.  1.
</event>
<event>
 5   0  0.7413481E-07  0.3088939E+04  0.7818609E-02  0.8218780E-01
        1   -1    0    0  501    0  0.00000000000E+00  0.00000000000E+00  0.16337331121E+04  0.16337331121E+04  0.50400001928E-02 0. -1.
       -1   -1    0    0    0  501  0.00000000000E+00  0.00000000000E+00 -0.14600835094E+04  0.14600835094E+04  0.50400001928E-02 0.  1.
    10030    2    1    2    0    0  0.00000000000E+00  0.00000000000E+00  0.17364960270E+03  0.30938166216E+04  0.30889394787E+04 0.  0.
        5    1    3    3  502    0 -0.63525834185E+03 -0.12372912272E+04  0.75939226585E+03  0.15846581477E+04  0.46999998093E+01 0.  1.
       -5    1    3    3    0  502  0.63525834185E+03  0.12372912272E+04 -0.58574266315E+03  0.15091584738E+04  0.46999998093E+01 0. -1.
</event>
<event>
 5   0  0.2067926E-06  0.3111674E+04  0.7818609E-02  0.8212541E-01
       -2   -1    0    0    0  501  0.00000000000E+00  0.00000000000E+00  0.12873846933E+04  0.12873846933E+04  0.25500000920E-02 0.  1.
        2   -1    0    0  501    0  0.00000000000E+00  0.00000000000E+00 -0.18802684776E+04  0.18802684776E+04  0.25500000920E-02 0. -1.
    10030    2    1    2    0    0  0.00000000000E+00  0.00000000000E+00 -0.59288378434E+03  0.31676531709E+04  0.31116740557E+04 0.  0.
        1    1    3    3  502    0  0.26771056027E+03  0.84750684698E+03 -0.15964004379E+04  0.18271374217E+04  0.50400001928E-02 0.  1.
       -1    1    3    3    0  502 -0.26771056027E+03 -0.84750684698E+03  0.10035166535E+04  0.13405157491E+04  0.50400001928E-02 0. -1.
</event>
<event>
 5   0  0.2133385E-06  0.3121113E+04  0.7818609E-02  0.8209967E-01
       -2   -1    0    0    0  501  0.00000000000E+00  0.00000000000E+00  0.16250775559E+04  0.16250775559E+04  0.25500000920E-02 0. -1.
        2   -1    0    0  501    0  0.00000000000E+00  0.00000000000E+00 -0.14985975888E+04  0.14985975888E+04  0.25500000920E-02 0.  1.
    10030    2    1    2    0    0  0.00000000000E+00  0.00000000000E+00  0.12647996717E+03  0.31236751447E+04  0.31211134596E+04 0.  0.
        2    1    3    3  502    0  0.11053862012E+04  0.98690738691E+03 -0.42652089994E+03  0.15420067841E+04  0.25500000920E-02 0.  1.
       -2    1    3    3    0  502 -0.11053862012E+04 -0.98690738691E+03  0.55300086712E+03  0.15816683606E+04  0.25500000920E-02 0. -1.
</event>
<event>
 5   0  0.2094135E-06  0.3103965E+04  0.7818609E-02  0.8214651E-01
        2   -1    0    0  501    0  0.00000000000E+00  0.00000000000E+00  0.10814605277E+04  0.10814605277E+04  0.25500000920E-02 0. -1.
       -2   -1    0    0    0  501  0.00000000000E+00  0.00000000000E+00 -0.22272194669E+04  0.22272194669E+04  0.25500000920E-02 0.  1.
    10030    2    1    2    0    0  0.00000000000E+00  0.00000000000E+00 -0.11457589392E+04  0.33086799947E+04  0.31039651674E+04 0.  0.
        4    1    3    3  502    0 -0.10896014156E+04  0.10136339285E+04 -0.10423385624E+04  0.18169084394E+04  0.12699999809E+01 0. -1.
       -4    1    3    3    0  502  0.10896014156E+04 -0.10136339285E+04 -0.10342037685E+03  0.14917715552E+04  0.12699999809E+01 0.  1.
</event>
<event>
 5   0  0.2226334E-06  0.3066746E+04  0.7818609E-02  0.8224924E-01
       -2   -1    0    0    0  501  0.00000000000E+00  0.00000000000E+00  0.12933331709E+04  0.12933331709E+04  0.25500000920E-02 0.  1.
        2   -1    0    0  501    0  0.00000000000E+00  0.00000000000E+00 -0.18179635295E+04  0.18179635295E+04  0.25500000920E-02 0. -1.
    10030    2    1    2    0    0  0.00000000000E+00  0.00000000000E+00 -0.52463035854E+03  0.31112967004E+04  0.30667458559E+04 0.  0.
        5    1    3    3  502    0 -0.10337248882E+03 -0.94483996661E+03  0.95841091811E+03  0.13498081389E+04  0.46999998093E+01 0.  1.
       -5    1    3    3    0  502  0.10337248882E+03  0.94483996661E+03 -0.14830412766E+04  0.17614885615E+04  0.46999998093E+01 0. -1.
</event>
<event>
 5   0  0.2094135E-06  0.3094545E+04  0.7818609E-02  0.8217236E-01
        2   -1    0    0  501    0  0.00000000000E+00  0.00000000000E+00  0.14344703596E+04  0.14344703596E+04  0.25500000920E-02 0.  1.
       -2   -1    0    0    0  501  0.00000000000E+00  0.00000000000E+00 -0.16689455310E+04  0.16689455310E+04  0.25500000920E-02 0. -1.
    10030    2    1    2    0    0  0.00000000000E+00  0.00000000000E+00 -0.23447517142E+03  0.31034158905E+04  0.30945454567E+04 0.  0.
        4    1    3    3  502    0  0.14665409540E+04 -0.48571696269E+03 -0.31038044608E+02  0.15451952338E+04  0.12699999809E+01 0.  1.
       -4    1    3    3    0  502 -0.14665409540E+04  0.48571696269E+03 -0.20343712681E+03  0.15582206567E+04  0.12699999809E+01 0. -1.
</event>
<event>
 5   0  0.2067926E-06  0.3128375E+04  0.7818609E-02  0.8207993E-01
       -2   -1    0    0    0  501  0.00000000000E+00  0.00000000000E+00  0.13452952441E+04  0.13452952441E+04  0.25500000920E-02 0.  1.
        2   -1    0    0  501    0  0.00000000000E+00  0.00000000000E+00 -0.18186958729E+04  0.18186958729E+04  0.25500000920E-02 0. -1.
    10030    2    1    2    0    0  0.00000000000E+00  0.00000000000E+00 -0.47340062879E+03  0.31639911170E+04  0.31283752386E+04 0.  0.
        1    1    3    3  502    0  0.80512673854E+03 -0.30474672007E+03 -0.15575484294E+04  0.17796226393E+04  0.50400001928E-02 0. -1.
       -1    1    3    3    0  502 -0.80512673854E+03  0.30474672007E+03  0.10841478006E+04  0.13843684777E+04  0.50400001928E-02 0.  1.
</event>
<event>
 5   0  0.7656332E-07  0.3105279E+04  0.7818609E-02  0.8214291E-01
       -1   -1    0    0    0  501  0.00000000000E+00  0.00000000000E+00  0.19302065824E+04  0.19302065824E+04  0.50400001928E-02 0.  1.
        1   -1    0    0  501    0  0.00000000000E+00  0.00000000000E+00 -0.12489282538E+04  0.12489282538E+04  0.50400001928E-02 0. -1.
    10030    2    1    2    0    0  0.00000000000E+00  0.00000000000E+00  0.68127832861E+03  0.31791348362E+04  0.31052790769E+04 0.  0.
        2    1    3    3  502    0  0.11755545383E+04 -0.88933874779E+03  0.83992427900E+03  0.16965626058E+04  0.25500000920E-02 0.  1.
       -2    1    3    3    0  502 -0.11755545383E+04  0.88933874779E+03 -0.15864595039E+03  0.14825722304E+04  0.25500000920E-02 0. -1.
</event>
<event>
 5   0  0.2133385E-06  0.3026535E+04  0.7818609E-02  0.8236194E-01
       -2   -1    0    0    0  501  0.00000000000E+00  0.00000000000E+00  0.18402113949E+04  0.18402113949E+04  0.25500000920E-02 0.  1.
        2   -1    0    0  501    0  0.00000000000E+00  0.00000000000E+00 -0.12444101978E+04  0.12444101978E+04  0.25500000920E-02 0. -1.
    10030    2    1    2    0    0  0.00000000000E+00  0.00000000000E+00  0.59580119702E+03  0.30846215927E+04  0.30265345370E+04 0.  0.
        2    1    3    3  502    0  0.12207846285E+03 -0.58950638220E+03  0.17129117539E+04  0.18156231995E+04  0.25500000920E-02 0.  1.
       -2    1    3    3    0  502 -0.12207846285E+03  0.58950638220E+03 -0.11171105569E+04  0.12689983932E+04  0.25500000920E-02 0. -1.
</event>
<event>
 5   0  0.2078009E-06  0.3137144E+04  0.7818609E-02  0.8205617E-01
        2   -1    0    0  501    0  0.00000000000E+00  0.00000000000E+00  0.15612707544E+04  0.15612707544E+04  0.25500000920E-02 0.  1.
       -2   -1    0    0    0  501  0.00000000000E+00  0.00000000000E+00 -0.15759070852E+04  0.15759070852E+04  0.25500000920E-02 0. -1.
    10030    2    1    2    0    0  0.00000000000E+00  0.00000000000E+00 -0.14636330793E+02  0.31371778395E+04  0.31371436969E+04 0.  0.
        3    1    3    3  502    0 -0.47708737940E+03 -0.25130785109E+03  0.14656709236E+04  0.15617167701E+04  0.10100000352E+00 0.  1.
       -3    1    3    3    0  502  0.47708737940E+03  0.25130785109E+03 -0.14803072544E+04  0.15754610694E+04  0.10100000352E+00 0. -1.
</event>
<event>
 5   0  0.2226334E-06  0.3111736E+04  0.7818609E-02  0.8212524E-01
        2   -1    0    0  501    0  0.00000000000E+00  0.00000000000E+00  0.28136917315E+04  0.28136917315E+04  0.25500000920E-02 0. -1.
       -2   -1    0    0    0  501  0.00000000000E+00  0.00000000000E+00 -0.86033771147E+03  0.86033771147E+03  0.25500000920E-02 0.  1.
    10030    2    1    2    0    0  0.00000000000E+00  0.00000000000E+00  0.19533540201E+04  0.36740294430E+04  0.31117359175E+04 0.  0.
        5    1    3    3  502    0 -0.19546195889E+03 -0.54023436639E+03  0.26838596713E+04  0.27446645284E+04  0.46999998093E+01 0. -1.
       -5    1    3    3    0  502  0.19546195889E+03  0.54023436639E+03 -0.73050565127E+03  0.92936491462E+03  0.46999998093E+01 0.  1.
</event>
<event>
 5   0  0.2067926E-06  0.2976514E+04  0.7818609E-02  0.8250469E-01
       -2   -1    0    0    0  501  0.00000000000E+00  0.00000000000E+00  0.14572774816E+04  0.14572774816E+04  0.25500000920E-02 0. -1.
        2   -1    0    0  501    0  0.00000000000E+00  0.00000000000E+00 -0.15198954950E+04  0.15198954950E+04  0.25500000920E-02 0.  1.
    10030    2    1    2    0    0  0.00000000000E+00  0.00000000000E+00 -0.62618013447E+02  0.29771729766E+04  0.29765143905E+04 0.  0.
        1    1    3    3  502    0 -0.96119688732E+03  0.94494262727E+03 -0.66239508535E+03  0.15018599383E+04  0.50400001928E-02 0.  1.
       -1    1    3    3    0  502  0.96119688732E+03 -0.94494262727E+03  0.59977707191E+03  0.14753130383E+04  0.50400001928E-02 0. -1.
</event>
<event>
 5   0  0.7726743E-07  0.3078424E+04  0.7818609E-02  0.8221684E-01
        1   -1    0    0  501    0  0.00000000000E+00  0.00000000000E+00  0.15668237339E+04  0.15668237340E+04  0.50400001928E-02 0.  1.
       -1   -1    0    0    0  501  0.00000000000E+00  0.00000000000E+00 -0.15120869560E+04  0.15120869560E+04  0.50400001928E-02 0. -1.
    10030    2    1    2    0    0  0.00000000000E+00  0.00000000000E+00  0.54736777923E+02  0.30789106900E+04  0.30784240972E+04 0.  0.
        1    1    3    3  502    0  0.75192578906E+03  0.10074832064E+04 -0.86089300159E+03  0.15236638618E+04  0.50400001928E-02 0. -1.
       -1    1    3    3    0  502 -0.75192578906E+03 -0.10074832064E+04  0.91562977951E+03  0.15552468282E+04  0.50400001928E-02 0.  1.
</event>
<event>
 5   0  0.2133385E-06  0.3099433E+04  0.7818609E-02  0.8215893E-01
        2   -1    0    0  501    0  0.00000000000E+00  0.00000000000E+00  0.18930334265E+04  0.18930334265E+04  0.25500000920E-02 0.  1.
       -2   -1    0    0    0  501  0.00000000000E+00  0.00000000000E+00 -0.12686631085E+04  0.12686631085E+04  0.25500000920E-02 0. -1.
    10030    2    1    2    0    0  0.00000000000E+00  0.00000000000E+00  0.62437031805E+03  0.31616965350E+04  0.30994332845E+04 0.  0.
        2    1    3    3  502    0 -0.11101058821E+04  0.10701788196E+04  0.15414088821E+03  0.15496377605E+04  0.25500000920E-02 0. -1.
       -2    1    3    3    0  502  0.11101058821E+04 -0.10701788196E+04  0.47022942984E+03  0.16120587744E+04  0.25500000920E-02 0.  1.
</event>
<event>
 5   0  0.7413481E-07  0.3091671E+04  0.7818609E-02  0.8218028E-01
        1   -1    0    0  501    0  0.00000000000E+00  0.00000000000E+00  0.30073050089E+04  0.30073050089E+04  0.50400001928E-02 0.  1.
       -1   -1    0    0    0  501  0.00000000000E+00  0.00000000000E+00 -0.79460080759E+03  0.79460080761E+03  0.50400001928E-02 0. -1.
    10030    2    1    2    0    0  0.00000000000E+00  0.00000000000E+00  0.22127042013E+04  0.38019058165E+04  0.30916707385E+04 0.  0.
        5    1    3    3  502    0 -0.13552842669E+04  0.53446531576E+02  0.20182851992E+04  0.24316967761E+04  0.46999998093E+01 0.  1.
       -5    1    3    3    0  502  0.13552842669E+04 -0.53446531576E+02  0.19441900213E+03  0.13702090404E+04  0.46999998093E+01 0. -1.
</event>
<event>
 5   0  0.2226334E-06  0.3108365E+04  0.7818609E-02  0.8213446E-01
        2   -1    0    0  501    0  0.00000000000E+00  0.00000000000E+00  0.22293916303E+04  0.22293916303E+04  0.25500000920E-02 0. -1.
       -2   -1    0    0    0  501  0.00000000000E+00  0.00000000000E+00 -0.10834718926E+04  0.10834718926E+04  0.25500000920E-02 0.  1.
    10030    2    1    2    0    0  0.00000000000E+00  0.00000000000E+00  0.11459197378E+04  0.33128635229E+04  0.31083649522E+04 0.  0.
        5    1    3    3  502    0 -0.83307966128E+03 -0.29409072693E+03 -0.78981394374E+03  0.11850481988E+04  0.46999998093E+01 0.  1.
       -5    1    3    3    0  502  0.83307966128E+03  0.29409072693E+03  0.19357336815E+04  0.21278153241E+04  0.46999998093E+01 0. -1.
</event>
<event>
 5   0  0.7519202E-07  0.3110773E+04  0.7818609E-02  0.8212788E-01
        1   -1    0    0  501    0  0.00000000000E+00  0.00000000000E+00  0.21284844085E+04  0.21284844085E+04  0.50400001928E-02 0. -1.
       -1   -1    0    0    0  501  0.00000000000E+00  0.00000000000E+00 -0.11365962923E+04  0.11365962923E+04  0.50400001928E-02 0.  1.
    10030    2    1    2    0    0  0.00000000000E+00  0.00000000000E+00  0.99188811624E+03  0.32650807008E+04  0.31107732073E+04 0.  0.
        4    1    3    3  502    0 -0.14218309557E+04 -0.41447289088E+02  0.11563651200E+04  0.18331674904E+04  0.12699999809E+01 0. -1.
       -4    1    3    3    0  502  0.14218309557E+04  0.41447289088E+02 -0.16447700377E+03  0.14319132103E+04  0.12699999809E+01 0.  1.
</event>
<event>
 5   0  0.2094135E-06  0.3089322E+04  0.7818609E-02  0.8218674E-01
       -2   -1    0    0    0  501  0.00000000000E+00  0.00000000000E+00  0.95818391482E+03  0.95818391482E+03  0.25500000920E-02 0. -1.
        2   -1    0    0  501    0  0.00000000000E+00  0.00000000000E+00 -0.24901044626E+04  0.24901044626E+04  0.25500000920E-02 0.  1.
    10030    2    1    2    0    0  0.00000000000E+00  0.00000000000E+00 -0.15319205478E+04  0.34482883774E+04  0.30893222831E+04 0.  0.
        4    1    3    3  502    0 -0.15070572023E+04  0.33683609538E+03 -0.72577004616E+03  0.17062894652E+04  0.12699999809E+01 0. -1.
       -4    1    3    3    0  502  0.15070572023E+04 -0.33683609538E+03 -0.80615050161E+03  0.17419989122E+04  0.12699999809E+01 0.  1.
</event>
<event>
 5   0  0.7726743E-07  0.3096474E+04  0.7818609E-02  0.8216706E-01
        1   -1    0    0  501    0  0.00000000000E+00  0.00000000000E+00  0.12545077990E+04  0.12545077991E+04  0.50400001928E-02 0.  1.
       -1   -1    0    0    0  501  0.00000000000E+00  0.00000000000E+00 -0.19107398181E+04  0.19107398181E+04  0.50400001928E-02 0. -1.
    10030    2    1    2    0    0  0.00000000000E+00  0.00000000000E+00 -0.65623201909E+03  0.31652476172E+04  0.30964741264E+04 0.  0.
        1    1    3    3  502    0  0.14242589494E+03 -0.48980403867E+03  0.11661459227E+04  0.12728273429E+04  0.50400001928E-02 0.  1.
       -1    1    3    3    0  502 -0.14242589494E+03  0.48980403867E+03 -0.18223779418E+04  0.18924202743E+04  0.50400001928E-02 0. -1.
</event>
<event>
 5   0  0.2067926E-06  0.3112743E+04  0.7818609E-02  0.8212249E-01
       -2   -1    0    0    0  501  0.00000000000E+00  0.00000000000E+00  0.14774640064E+04  0.14774640064E+04  0.25500000920E-02 0. -1.
        2   -1    0    0  501    0  0.00000000000E+00  0.00000000000E+00 -0.16394928962E+04  0.16394928962E+04  0.25500000920E-02 0.  1.
    10030    2    1    2    0    0  0.00000000000E+00  0.00000000000E+00 -0.16202888976E+03  0.31169569026E+04  0.31127426767E+04 0.  0.
        1    1    3    3  502    0  0.38788563668E+03 -0.10839526809E+04  0.96772533681E+03  0.15039617711E+04  0.50400001928E-02 0. -1.
       -1    1    3    3    0  502 -0.38788563668E+03  0.10839526809E+04 -0.11297542266E+04  0.16129951314E+04  0.50400001928E-02 0.  1.
</event>
<event>
 5   0  0.7519202E-07  0.2886599E+04  0.7818609E-02  0.8276876E-01
        1   -1    0    0  501    0  0.00000000000E+00  0.00000000000E+00  0.17475022251E+04  0.17475022251E+04  0.50400001928E-02 0.  1.
       -1   -1    0    0    0  501  0.00000000000E+00  0.00000000000E+00 -0.11920521086E+04  0.11920521086E+04  0.50400001928E-02 0. -1.
    10030    2    1    2    0    0  0.00000000000E+00  0.00000000000E+00  0.55545011655E+03  0.29395543337E+04  0.28865991840E+04 0.  0.
        4    1    3    3  502    0  0.71609534305E+03  0.80369409861E+03  0.12568179209E+04  0.16547838662E+04  0.12699999809E+01 0.  1.
       -4    1    3    3    0  502 -0.71609534305E+03 -0.80369409861E+03 -0.70136780436E+03  0.12847704676E+04  0.12699999809E+01 0. -1.
</event>
<event>
 5   0  0.2078009E-06  0.3129188E+04  0.7818609E-02  0.8207773E-01
       -2   -1    0    0    0  501  0.00000000000E+00  0.00000000000E+00  0.19214639026E+04  0.19214639026E+04  0.25500000920E-02 0.  1.
        2   -1    0    0  501    0  0.00000000000E+00  0.00000000000E+00 -0.12740046401E+04  0.12740046401E+04  0.25500000920E-02 0. -1.
    10030    2    1    2    0    0  0.00000000000E+00  0.00000000000E+00  0.64745926251E+03  0.31954685427E+04  0.31291877078E+04 0.  0.
        3    1    3    3  502    0 -0.41076300196E+03  0.36016721163E+03 -0.11734447546E+04  0.12943798772E+04  0.10100000352E+00 0. -1.
       -3    1    3    3    0  502  0.41076300196E+03 -0.36016721163E+03  0.18209040172E+04  0.19010886655E+04  0.10100000352E+00 0.  1.
</event>
<event>
 5   0  0.7561815E-07  0.3150463E+04  0.7818609E-02  0.8202024E-01
       -1   -1    0    0    0  501  0.00000000000E+00  0.00000000000E+00  0.12245365468E+04  0.12245365468E+04  0.50400001928E-02 0. -1.
        1   -1    0    0  501    0  0.00000000000E+00  0.00000000000E+00 -0.20263618675E+04  0.20263618675E+04  0.50400001928E-02 0.  1.
    10030    2    1    2    0    0  0.00000000000E+00  0.00000000000E+00 -0.80182532072E+03  0.32508984143E+04  0.31504629271E+04 0.  0.
        3    1    3    3  502    0 -0.95664235518E+03  0.12487052966E+04 -0.48677992453E+03  0.16466281361E+04  0.10100000352E+00 0.  1.
       -3    1    3    3    0  502  0.95664235518E+03 -0.12487052966E+04 -0.31504539619E+03  0.16042702782E+04  0.10100000352E+00 0. -1.
</event>
<event>
 5   0  0.2067926E-06  0.3165787E+04  0.7818609E-02  0.8197912E-01
       -2   -1    0    0    0  501  0.00000000000E+00  0.00000000000E+00  0.28869169227E+04  0.28869169227E+04  0.25500000920E-02 0.  1.
        2   -1    0    0  501    0  0.00000000000E+00  0.00000000000E+00 -0.86789887616E+03  0.86789887617E+03  0.25500000920E-02 0. -1.
    10030    2    1    2    0    0  0.00000000000E+00  0.00000000000E+00  0.20190180465E+04  0.37548157989E+04  0.31657870761E+04 0.  0.
        1    1    3    3  502    0  0.19629552870E+03  0.23013478453E+03 -0.83330192925E+03  0.88650214831E+03  0.50400001928E-02 0. -1.
       -1    1    3    3    0  502 -0.19629552870E+03 -0.23013478453E+03  0.28523199758E+04  0.28683136505E+04  0.50400001928E-02 0.  1.
</event>
<event>
 5   0  0.7519202E-07  0.3083837E+04  0.7818609E-02  0.8220188E-01
        1   -1    0    0  501    0  0.00000000000E+00  0.00000000000E+00  0.18113018582E+04  0.18113018582E+04  0.50400001928E-02 0.  1.
       -1   -1    0    0    0  501  0.00000000000E+00  0.00000000000E+00 -0.13125989805E+04  0.13125989805E+04  0.50400001928E-02 0. -1.
    10030    2    1    2    0    0  0.00000000000E+00  0.00000000000E+00  0.49870287767E+03  0.31239008387E+04  0.30838372022E+04 0.  0.
        4    1    3    3  502    0  0.68526839635E+03 -0.54001576095E+03  0.15372065111E+04  0.17675449832E+04  0.12699999809E+01 0.  1.
       -4    1    3    3    0  502 -0.68526839635E+03  0.54001576095E+03 -0.10385036334E+04  0.13563558555E+04  0.12699999809E+01 0. -1.
</event>
<event>
 5   0  0.2078009E-06  0.3103466E+04  0.7818609E-02  0.8214787E-01
        2   -1    0    0  501    0  0.00000000000E+00  0.00000000000E+00  0.21074784169E+04  0.21074784169E+04  0.25500000920E-02 0. -1.
       -2   -1    0    0    0  501  0.00000000000E+00  0.00000000000E+00 -0.11425387730E+04  0.11425387730E+04  0.25500000920E-02 0.  1.
    10030    2    1    2    0    0  0.00000000000E+00  0.00000000000E+00  0.96493964390E+03  0.32500171898E+04  0.31034663230E+04 0.  0.
        3    1    3    3  502    0  0.69526022715E+03  0.95361731758E+03  0.15375699638E+04  0.19382709242E+04  0.10100000352E+00 0. -1.
       -3    1    3    3    0  502 -0.69526022715E+03 -0.95361731758E+03 -0.57263031992E+03  0.13117462656E+04  0.10100000352E+00 0.  1.
</event>
<event>
 5   0  0.7519202E-07  0.3088627E+04  0.7818609E-02  0.8218866E-01
        1   -1    0    0  501    0  0.00000000000E+00  0.00000000000E+00  0.18175895541E+04  0.18175895541E+04  0.50400001928E-02 0.  1.
       -1   -1    0    0    0  501  0.00000000000E+00  0.00000000000E+00 -0.13121248072E+04  0.13121248072E+04  0.50400001928E-02 0. -1.
    10030    2    1    2    0    0  0.00000000000E+00  0.00000000000E+00  0.50546474693E+03  0.31297143613E+04  0.30886271016E+04 0.  0.
        4    1    3    3  502    0  0.56342259567E+03  0.12627486726E+04  0.94957494029E+03  0.16774007904E+04  0.12699999809E+01 0.  1.
       -4    1    3    3    0  502 -0.56342259567E+03 -0.12627486726E+04 -0.44411019336E+03  0.14523135709E+04  0.12699999809E+01 0. -1.
</event>
<event>
 5   0  0.6979625E-07  0.3094651E+04  0.7818609E-02  0.8217208E-01
        3   -1    0    0  501    0  0.00000000000E+00  0.00000000000E+00  0.16922138066E+04  0.16922138097E+04  0.10100000352E+00 0.  1.
       -3   -1    0    0    0  501  0.00000000000E+00  0.00000000000E+00 -0.14148421549E+04  0.14148421585E+04  0.10100000352E+00 0. -1.
    10030    2    1    2    0    0  0.00000000000E+00  0.00000000000E+00  0.27737165177E+03  0.31070559681E+04  0.30946505063E+04 0.  0.
        4    1    3    3  502    0 -0.10862003988E+04 -0.10138004494E+04 -0.29500777029E+03  0.15148114915E+04  0.12699999809E+01 0. -1.
       -4    1    3    3    0  502  0.10862003988E+04  0.10138004494E+04  0.57237942207E+03  0.15922444766E+04  0.12699999809E+01 0.  1.
</event>
<event>
 5   0  0.7519202E-07  0.3087209E+04  0.7818609E-02  0.8219257E-01
        1   -1    0    0  501    0  0.00000000000E+00  0.00000000000E+00  0.11986794794E+04  0.11986794794E+04  0.50400001928E-02 0. -1.
       -1   -1    0    0    0  501  0.00000000000E+00  0.00000000000E+00 -0.19877830235E+04  0.19877830235E+04  0.50400001928E-02 0.  1.
    10030    2    1    2    0    0  0.00000000000E+00  0.00000000000E+00 -0.78910354410E+03  0.31864625030E+04  0.30872089142E+04 0.  0.
        4    1    3    3  502    0 -0.15572927193E+03  0.92137918485E+03 -0.16626780485E+04  0.19072732144E+04  0.12699999809E+01 0.  1.
       -4    1    3    3    0  502  0.15572927193E+03 -0.92137918485E+03  0.87357450441E+03  0.12791892886E+04  0.12699999809E+01 0. -1.
</event>
<event>
 5   0  0.7413481E-07  0.3085474E+04  0.7818609E-02  0.8219736E-01
       -1   -1    0    0    0  501  0.00000000000E+00  0.00000000000E+00  0.11900995685E+04  0.11900995685E+04  0.50400001928E-02 0. -1.
        1   -1    0    0  501    0  0.00000000000E+00  0.00000000000E+00 -0.19998636190E+04  0.19998636191E+04  0.50400001928E-02 0.  1.
    10030    2    1    2    0    0  0.00000000000E+00  0.00000000000E+00 -0.80976405055E+03  0.31899631876E+04  0.30854735974E+04 0.  0.
        5    1    3    3  502    0 -0.14209453914E+04  0.59711057640E+03 -0.33639758399E+03  0.15775969924E+04  0.46999998093E+01 0.  1.
       -5    1    3    3    0  502  0.14209453914E+04 -0.59711057640E+03 -0.47336646656E+03  0.16123661952E+04  0.46999998093E+01 0. -1.
</event>
<event>
 5   0  0.2133385E-06  0.3129354E+04  0.7818609E-02  0.8207728E-01
        2   -1    0    0  501    0  0.00000000000E+00  0.00000000000E+00  0.12464777910E+04  0.12464777910E+04  0.25500000920E-02 0.  1.
       -2   -1    0    0    0  501  0.00000000000E+00  0.00000000000E+00 -0.19641058091E+04  0.19641058091E+04  0.25500000920E-02 0. -1.
    10030    2    1    2    0    0  0.00000000000E+00  0.00000000000E+00 -0.71762801806E+03  0.32105836001E+04  0.31293540996E+04 0.  0.
        2    1    3    3  502    0  0.13579257537E+04  0.77438008982E+03 -0.28932560960E+03  0.15897597882E+04  0.25500000920E-02 0.  1.
       -2    1    3    3    0  502 -0.13579257537E+04 -0.77438008982E+03 -0.42830240847E+03  0.16208238118E+04  0.25500000920E-02 0. -1.
</event>
<event>
 5   0  0.2094135E-06  0.3056451E+04  0.7818609E-02  0.8227792E-01
        2   -1    0    0  501    0  0.00000000000E+00  0.00000000000E+00  0.22841367770E+04  0.22841367770E+04  0.25500000920E-02 0. -1.
       -2   -1    0    0    0  501  0.00000000000E+00  0.00000000000E+00 -0.10224753956E+04  0.10224753956E+04  0.25500000920E-02 0.  1.
    10030    2    1    2    0    0  0.00000000000E+00  0.00000000000E+00  0.12616613814E+04  0.33066121725E+04  0.30564513113E+04 0.  0.
        4    1    3    3  502    0 -0.11550848263E+04  0.52837617392E+03  0.15501266267E+04  0.20040699860E+04  0.12699999809E+01 0. -1.
       -4    1    3    3    0  502  0.11550848263E+04 -0.52837617392E+03 -0.28846524530E+03  0.13025421865E+04  0.12699999809E+01 0.  1.
</event>
<event>
 5   0  0.2078009E-06  0.3088711E+04  0.7818609E-02  0.8218843E-01
        2   -1    0    0  501    0  0.00000000000E+00  0.00000000000E+00  0.32047863994E+04  0.32047863994E+04  0.25500000920E-02 0. -1.
       -2   -1    0    0    0  501  0.00000000000E+00  0.00000000000E+00 -0.74421009390E+03  0.74421009390E+03  0.25500000920E-02 0.  1.
    10030    2    1    2    0    0  0.00000000000E+00  0.00000000000E+00  0.24605763055E+04  0.39489964933E+04  0.30887113087E+04 0.  0.
        3    1    3    3  502    0 -0.12185351659E+04  0.91112717951E+03  0.15686839305E+04  0.21853489359E+04  0.10100000352E+00 0. -1.
       -3    1    3    3    0  502  0.12185351659E+04 -0.91112717951E+03  0.89189237496E+03  0.17636475573E+04  0.10100000352E+00 0.  1.
</event>
<event>
 5   0  0.2226334E-06  0.3064627E+04  0.7818609E-02  0.8225513E-01
       -2   -1    0    0    0  501  0.00000000000E+00  0.00000000000E+00  0.13085118912E+04  0.13085118912E+04  0.25500000920E-02 0.  1.
        2   -1    0    0  501    0  0.00000000000E+00  0.00000000000E+00 -0.17943927006E+04  0.17943927006E+04  0.25500000920E-02 0. -1.
    10030    2    1    2    0    0  0.00000000000E+00  0.00000000000E+00 -0.48588080942E+03  0.31029045918E+04  0.30646266894E+04 0.  0.
        5    1    3    3  502    0  0.98088841035E+03  0.81369801289E+03  0.61839995954E+03  0.14165758468E+04  0.46999998093E+01 0.  1.
       -5    1    3    3    0  502 -0.98088841035E+03 -0.81369801289E+03 -0.11042807690E+04  0.16863287451E+04  0.46999998093E+01 0. -1.
</event>
<event>
 5   0  0.7519202E-07  0.3144423E+04  0.7818609E-02  0.8203651E-01
        1   -1    0    0  501    0  0.00000000000E+00  0.00000000000E+00  0.12368249734E+04  0.12368249734E+04  0.50400001928E-02 0.  1.
       -1   -1    0    0    0  501  0.00000000000E+00  0.00000000000E+00 -0.19985441568E+04  0.19985441568E+04  0.50400001928E-02 0. -1.
    10030    2    1    2    0    0  0.00000000000E+00  0.00000000000E+00 -0.76171918344E+03  0.32353691302E+04  0.31444232053E+04 0.  0.
        4    1    3    3  502    0  0.12659745072E+04  0.75430520341E+03 -0.94459285606E+03  0.17504071153E+04  0.12699999809E+01 0. -1.
       -4    1    3    3    0  502 -0.12659745072E+04 -0.75430520341E+03  0.18287367261E+03  0.14849620149E+04  0.12699999809E+01 0.  1.
</event>
<event>
 5   0  0.7726743E-07  0.2982199E+04  0.7818609E-02  0.8248832E-01
       -1   -1    0    0    0  501  0.00000000000E+00  0.00000000000E+00  0.27653859164E+04  0.27653859164E+04  0.50400001928E-02 0.  1.
        1   -1    0    0  501    0  0.00000000000E+00  0.00000000000E+00 -0.80400294054E+03  0.80400294056E+03  0.50400001928E-02 0. -1.
    10030    2    1    2    0    0  0.00000000000E+00  0.00000000000E+00  0.19613829758E+04  0.35693888569E+04  0.29821994625E+04 0.  0.
        1    1    3    3  502    0  0.74276117174E+03 -0.81938397582E+03 -0.21638262865E+03  0.11269009274E+04  0.50400001928E-02 0. -1.
       -1    1    3    3    0  502 -0.74276117174E+03  0.81938397582E+03  0.21777656045E+04  0.24424879296E+04  0.50400001928E-02 0.  1.
</event>
<event>
 5   0  0.2078009E-06  0.3091799E+04  0.7818609E-02  0.8217992E-01
       -2   -1    0    0    0  501  0.00000000000E+00  0.00000000000E+00  0.12836549898E+04  0.12836549898E+04  0.25500000920E-02 0. -1.
        2   -1    0    0  501    0  0.00000000000E+00  0.00000000000E+00 -0.18617193266E+04  0.18617193266E+04  0.25500000920E-02 0.  1.
    10030    2    1    2    0    0  0.00000000000E+00  0.00000000000E+00 -0.57806433683E+03  0.31453743165E+04  0.30917990253E+04 0.  0.
        3    1    3    3  502    0  0.10847991016E+04 -0.78590635373E+03  0.49593882283E+03  0.14284233315E+04  0.10100000352E+00 0. -1.
       -3    1    3    3    0  502 -0.10847991016E+04  0.78590635373E+03 -0.10740031597E+04  0.17169509850E+04  0.10100000352E+00 0.  1.
</event>
<event>
 5   0  0.2067926E-06  0.3121053E+04  0.7818609E-02  0.8209984E-01
       -2   -1    0    0    0  501  0.00000000000E+00  0.00000000000E+00  0.98148470513E+03  0.98148470513E+03  0.25500000920E-02 0. -1.
        2   -1    0    0  501    0  0.00000000000E+00  0.00000000000E+00 -0.24811832714E+04  0.24811832714E+04  0.25500000920E-02 0.  1.
    10030    2    1    2    0    0  0.00000000000E+00  0.00000000000E+00 -0.14996985663E+04  0.34626679765E+04  0.31210533039E+04 0.  0.
        1    1    3    3  502    0  0.12098468061E+04  0.94119969823E+03 -0.10745563699E+04  0.18719662279E+04  0.50400001928E-02 0. -1.
       -1    1    3    3    0  502 -0.12098468061E+04 -0.94119969823E+03 -0.42514219634E+03  0.15907017487E+04  0.50400001928E-02 0.  1.
</event>
<event>
 5   0  0.2078009E-06  0.2923947E+04  0.7818609E-02  0.8265788E-01
       -2   -1    0    0    0  501  0.00000000000E+00  0.00000000000E+00  0.14111177551E+04  0.14111177551E+04  0.25500000920E-02 0.  1.
        2   -1    0    0  501    0  0.00000000000E+00  0.00000000000E+00 -0.15146616826E+04  0.15146616826E+04  0.25500000920E-02 0. -1.
    10030    2    1    2    0    0  0.00000000000E+00  0.00000000000E+00 -0.10354392752E+03  0.29257794377E+04  0.29239466434E+04 0.  0.
        3    1    3    3  502    0 -0.83057706547E+03  0.28164319595E+03 -0.12221994866E+04  0.15043113862E+04  0.10100000352E+00 0. -1.
       -3    1    3    3    0  502  0.83057706547E+03 -0.28164319595E+03  0.11186555590E+04  0.14214680515E+04  0.10100000352E+00 0.  1.
</event>
<event>
 5   0  0.7561815E-07  0.3106185E+04  0.7818609E-02  0.8214043E-01
       -1   -1    0    0    0  501  0.00000000000E+00  0.00000000000E+00  0.14690946759E+04  0.14690946759E+04  0.50400001928E-02 0. -1.
        1   -1    0    0  501    0  0.00000000000E+00  0.00000000000E+00 -0.16418931152E+04  0.16418931152E+04  0.50400001928E-02 0.  1.
    10030    2    1    2    0    0  0.00000000000E+00  0.00000000000E+00 -0.17279843932E+03  0.31109877912E+04  0.31061850776E+04 0.  0.
        3    1    3    3  502    0 -0.35021964221E+03 -0.14774509534E+04  0.24057348332E+03  0.15373323416E+04  0.10100000352E+00 0. -1.
       -3    1    3    3    0  502  0.35021964221E+03  0.14774509534E+04 -0.41337192264E+03  0.15736554496E+04  0.10100000352E+00 0.  1.
</event>
<event>
 5   0  0.2133385E-06  0.3083834E+04  0.7818609E-02  0.8220189E-01
        2   -1    0    0  501    0  0.00000000000E+00  0.00000000000E+00  0.26478297384E+04  0.26478297384E+04  0.25500000920E-02 0.  1.
       -2   -1    0    0    0  501  0.00000000000E+00  0.00000000000E+00 -0.89790825985E+03  0.89790825985E+03  0.25500000920E-02 0. -1.
    10030    2    1    2    0    0  0.00000000000E+00  0.00000000000E+00  0.17499214786E+04  0.35457379983E+04  0.30838341024E+04 0.  0.
        2    1    3    3  502    0  0.91772941479E+03 -0.42657429060E+03 -0.46260497769E+03  0.11127426790E+04  0.25500000920E-02 0. -1.
       -2    1    3    3    0  502 -0.91772941479E+03  0.42657429060E+03  0.22125264563E+04  0.24329953193E+04  0.25500000920E-02 0.  1.
</event>
<event>
 5   0  0.7726743E-07  0.3130928E+04  0.7818609E-02  0.8207301E-01
        1   -1    0    0  501    0  0.00000000000E+00  0.00000000000E+00  0.22767513732E+04  0.22767513732E+04  0.50400001928E-02 0. -1.
       -1   -1    0    0    0  501  0.00000000000E+00  0.00000000000E+00 -0.10763923208E+04  0.10763923208E+04  0.50400001928E-02 0.  1.
    10030    2    1    2    0    0  0.00000000000E+00  0.00000000000E+00  0.12003590524E+04  0.33531436939E+04  0.31309281016E+04 0.  0.
        1    1    3    3  502    0 -0.75545608478E+03 -0.12416378638E+04 -0.22736585955E+02  0.14535802121E+04  0.50400001928E-02 0.  1.
       -1    1    3    3    0  502  0.75545608478E+03  0.12416378638E+04  0.12230956383E+04  0.18995634818E+04  0.50400001928E-02 0. -1.
</event>
<event>
 5   0  0.2078009E-06  0.3302462E+04  0.7818609E-02  0.8162269E-01
       -2   -1    0    0    0  501  0.00000000000E+00  0.00000000000E+00  0.14406680550E+04  0.14406680550E+04  0.25500000920E-02 0.  1.
        2   -1    0    0  501    0  0.00000000000E+00  0.00000000000E+00 -0.18925695771E+04  0.18925695771E+04  0.25500000920E-02 0. -1.
    10030    2    1    2    0    0  0.00000000000E+00  0.00000000000E+00 -0.45190152214E+03  0.33332376322E+04  0.33024624338E+04 0.  0.
        3    1    3    3  502    0  0.13828379223E+04 -0.66691742423E+03 -0.83951780822E+03  0.17498027691E+04  0.10100000352E+00 0. -1.
       -3    1    3    3    0  502 -0.13828379223E+04  0.66691742423E+03  0.38761628609E+03  0.15834348631E+04  0.10100000352E+00 0.  1.
</event>
<event>
 5   0  0.2133385E-06  0.3060230E+04  0.7818609E-02  0.8226738E-01
       -2   -1    0    0    0  501  0.00000000000E+00  0.00000000000E+00  0.15392441955E+04  0.15392441955E+04  0.25500000920E-02 0.  1.
        2   -1    0    0  501    0  0.00000000000E+00  0.00000000000E+00 -0.15210402229E+04  0.15210402229E+04  0.25500000920E-02 0. -1.
    10030    2    1    2    0    0  0.00000000000E+00  0.00000000000E+00  0.18203972618E+02  0.30602844184E+04  0.30602302751E+04 0.  0.
        2    1    3    3  502    0  0.52442157467E+03 -0.47603761017E+03 -0.13472488664E+04  0.15220740134E+04  0.25500000920E-02 0. -1.
       -2    1    3    3    0  502 -0.52442157467E+03  0.47603761017E+03  0.13654528390E+04  0.15382104050E+04  0.25500000920E-02 0.  1.
</event>
<event>
 5   0  0.7726743E-07  0.3098901E+04  0.7818609E-02  0.8216040E-01
       -1   -1    0    0    0  501  0.00000000000E+00  0.00000000000E+00  0.17875845991E+04  0.17875845991E+04  0.50400001928E-02 0. -1.
        1   -1    0    0  501    0  0.00000000000E+00  0.00000000000E+00 -0.13430398185E+04  0.13430398185E+04  0.50400001928E-02 0.  1.
    10030    2    1    2    0    0  0.00000000000E+00  0.00000000000E+00  0.44454478063E+03  0.31306244177E+04  0.30989012863E+04 0.  0.
        1    1    3    3  502    0  0.96424105029E+03  0.85361673575E+03 -0.64815967973E+03  0.14417119355E+04  0.50400001928E-02 0.  1.
       -1    1    3    3    0  502 -0.96424105029E+03 -0.85361673575E+03  0.10927044604E+04  0.16889124821E+04  0.50400001928E-02 0. -1.
</event>
<event>
 5   0  0.2226334E-06  0.3095404E+04  0.7818609E-02  0.8217000E-01
       -2   -1    0    0    0  501  0.00000000000E+00  0.00000000000E+00  0.17469008258E+04  0.17469008258E+04  0.25500000920E-02 0.  1.
        2   -1    0    0  501    0  0.00000000000E+00  0.00000000000E+00 -0.13712176083E+04  0.13712176083E+04  0.25500000920E-02 0. -1.
    10030    2    1    2    0    0  0.00000000000E+00  0.00000000000E+00  0.37568321747E+03  0.31181184341E+04  0.30954038006E+04 0.  0.
        5    1    3    3  502    0  0.82437412764E+03  0.12374146861E+04  0.62061181152E+03  0.16112010794E+04  0.46999998093E+01 0. -1.
       -5    1    3    3    0  502 -0.82437412764E+03 -0.12374146861E+04 -0.24492859405E+03  0.15069173547E+04  0.46999998093E+01 0.  1.
</event>
<event>
 5   0  0.2133385E-06  0.3094314E+04  0.7818609E-02  0.8217300E-01
        2   -1    0    0  501    0  0.00000000000E+00  0.00000000000E+00  0.18083527692E+04  0.18083527692E+04  0.25500000920E-02 0.  1.
       -2   -1    0    0    0  501  0.00000000000E+00  0.00000000000E+00 -0.13236880405E+04  0.13236880405E+04  0.25500000920E-02 0. -1.
    10030    2    1    2    0    0  0.00000000000E+00  0.00000000000E+00  0.48466472872E+03  0.31320408097E+04  0.30943140975E+04 0.  0.
        2    1    3    3  502    0 -0.94690297143E+03  0.92768481039E+03 -0.56518558793E+03  0.14410617938E+04  0.25500000920E-02 0. -1.
       -2    1    3    3    0  502  0.94690297143E+03 -0.92768481039E+03  0.10498503166E+04  0.16909790159E+04  0.25500000920E-02 0.  1.
</event>
<event>
 5   0  0.2226334E-06  0.3106354E+04  0.7818609E-02  0.8213996E-01
       -2   -1    0    0    0  501  0.00000000000E+00  0.00000000000E+00  0.20095158511E+04  0.20095158511E+04  0.25500000920E-02 0. -1.
        2   -1    0    0  501    0  0.00000000000E+00  0.00000000000E+00 -0.12004675630E+04  0.12004675630E+04  0.25500000920E-02 0.  1.
    10030    2    1    2    0    0  0.00000000000E+00  0.00000000000E+00  0.80904828805E+03  0.32099834141E+04  0.31063538733E+04 0.  0.
        5    1    3    3  502    0 -0.15226618082E+04 -0.14654301692E+03  0.68250132536E+03  0.16750534281E+04  0.46999998093E+01 0. -1.
       -5    1    3    3    0  502  0.15226618082E+04  0.14654301692E+03  0.12654696269E+03  0.15349299860E+04  0.46999998093E+01 0.  1.
</event>
<event>
 5   0  0.7726743E-07  0.3097075E+04  0.7818609E-02  0.8216541E-01
       -1   -1    0    0    0  501  0.00000000000E+00  0.00000000000E+00  0.13888540846E+04  0.13888540846E+04  0.50400001928E-02 0.  1.
        1   -1    0    0  501    0  0.00000000000E+00  0.00000000000E+00 -0.17265809317E+04  0.17265809317E+04  0.50400001928E-02 0. -1.
    10030    2    1    2    0    0  0.00000000000E+00  0.00000000000E+00 -0.33772684711E+03  0.31154350164E+04  0.30970753814E+04 0.  0.
        1    1    3    3  502    0 -0.80354353119E+03  0.23117847105E+03 -0.14799868589E+04  0.16998490506E+04  0.50400001928E-02 0.  1.
       -1    1    3    3    0  502  0.80354353119E+03 -0.23117847105E+03  0.11422600118E+04  0.14155859658E+04  0.50400001928E-02 0. -1.
</event>
<event>
 5   0  0.2094135E-06  0.3108568E+04  0.7818609E-02  0.8213390E-01
        2   -1    0    0  501    0  0.00000000000E+00  0.00000000000E+00  0.16543867569E+04  0.16543867569E+04  0.25500000920E-02 0.  1.
       -2   -1    0    0    0  501  0.00000000000E+00  0.00000000000E+00 -0.14602386114E+04  0.14602386114E+04  0.25500000920E-02 0. -1.
    10030    2    1    2    0    0  0.00000000000E+00  0.00000000000E+00  0.19414814552E+03  0.31146253683E+04  0.31085684298E+04 0.  0.
        4    1    3    3  502    0  0.94428265925E+03  0.10426991291E+04 -0.56520294409E+03  0.15160300773E+04  0.12699999809E+01 0. -1.
       -4    1    3    3    0  502 -0.94428265925E+03 -0.10426991291E+04  0.75935108962E+03  0.15985952910E+04  0.12699999809E+01 0.  1.
</event>
<event>
 5   0  0.2078009E-06  0.3276918E+04  0.7818609E-02  0.8168794E-01
       -2   -1    0    0    0  501  0.00000000000E+00  0.00000000000E+00  0.15330326817E+04  0.15330326817E+04  0.25500000920E-02 0. -1.
        2   -1    0    0  501    0  0.00000000000E+00  0.00000000000E+00 -0.17511353559E+04  0.17511353559E+04  0.25500000920E-02 0.  1.
    10030    2    1    2    0    0  0.00000000000E+00  0.00000000000E+00 -0.21810267413E+03  0.32841680376E+04  0.32769178999E+04 0.  0.
        3    1    3    3  502    0  0.46790893199E+03  0.18991683327E+03 -0.16711982873E+04  0.17458267090E+04  0.10100000352E+00 0.  1.
       -3    1    3    3    0  502 -0.46790893199E+03 -0.18991683327E+03  0.14530956131E+04  0.15383413286E+04  0.10100000352E+00 0. -1.
</event>
<event>
 5   0  0.2226334E-06  0.3086698E+04  0.7818609E-02  0.8219398E-01
       -2   -1    0    0    0  501  0.00000000000E+00  0.00000000000E+00  0.13274983168E+04  0.13274983168E+04  0.25500000920E-02 0.  1.
        2   -1    0    0  501    0  0.00000000000E+00  0.00000000000E+00 -0.17942973479E+04  0.17942973479E+04  0.25500000920E-02 0. -1.
    10030    2    1    2    0    0  0.00000000000E+00  0.00000000000E+00 -0.46679903110E+03  0.31217956647E+04  0.30866983715E+04 0.  0.
        5    1    3    3  502    0  0.42945053863E+03 -0.61669180270E+03 -0.15967509814E+04  0.17647584343E+04  0.46999998093E+01 0. -1.
       -5    1    3    3    0  502 -0.42945053863E+03  0.61669180270E+03  0.11299519503E+04  0.13570372304E+04  0.46999998093E+01 0.  1.
</event>
<event>
 5   0  0.2078009E-06  0.3099977E+04  0.7818609E-02  0.8215744E-01
        2   -1    0    0  501    0  0.00000000000E+00  0.00000000000E+00  0.97198260079E+03  0.97198260079E+03  0.25500000920E-02 0.  1.
       -2   -1    0    0    0  501  0.00000000000E+00  0.00000000000E+00 -0.24717159132E+04  0.24717159132E+04  0.25500000920E-02 0. -1.
    10030    2    1    2    0    0  0.00000000000E+00  0.00000000000E+00 -0.14997333124E+04  0.34436985140E+04  0.30999773301E+04 0.  0.
        3    1    3    3  502    0  0.26666853008E+03  0.93723766744E+03  0.58916298733E+03  0.11387008325E+04  0.10100000352E+00 0.  1.
       -3    1    3    3    0  502 -0.26666853008E+03 -0.93723766744E+03 -0.20888962997E+04  0.23049976814E+04  0.10100000352E+00 0. -1.
</event>
<event>
 5   0  0.7561815E-07  0.3096379E+04  0.7818609E-02  0.8216732E-01
       -1   -1    0    0    0  501  0.00000000000E+00  0.00000000000E+00  0.21466737701E+04  0.21466737701E+04  0.50400001928E-02 0.  1.
        1   -1    0    0  501    0  0.00000000000E+00  0.00000000000E+00 -0.11165602550E+04  0.11165602550E+04  0.50400001928E-02 0. -1.
    10030    2    1    2    0    0  0.00000000000E+00  0.00000000000E+00  0.10301135151E+04  0.32632340251E+04  0.30963789252E+04 0.  0.
        3    1    3    3  502    0  0.14530968865E+04  0.26829776588E+03  0.28192423214E+02  0.14779272903E+04  0.10100000352E+00 0. -1.
       -3    1    3    3    0  502 -0.14530968865E+04 -0.26829776588E+03  0.10019210919E+04  0.17853067348E+04  0.10100000352E+00 0.  1.
</event>
<event>
 5   0  0.7561815E-07  0.3078250E+04  0.7818609E-02  0.8221732E-01
       -1   -1    0    0    0  501  0.00000000000E+00  0.00000000000E+00  0.14779813714E+04  0.14779813714E+04  0.50400001928E-02 0. -1.
        1   -1    0    0  501    0  0.00000000000E+00  0.00000000000E+00 -0.16027984398E+04  0.16027984398E+04  0.50400001928E-02 0.  1.
    10030    2    1    2    0    0  0.00000000000E+00  0.00000000000E+00 -0.12481706844E+03  0.30807798112E+04  0.30782503057E+04 0.  0.
        3    1    3    3  502    0 -0.63142821431E+03  0.72834311016E+03  0.11384611755E+04  0.14917369521E+04  0.10100000352E+00 0. -1.
       -3    1    3    3    0  502  0.63142821431E+03 -0.72834311016E+03 -0.12632782440E+04  0.15890428590E+04  0.10100000352E+00 0.  1.
</event>
<event>
 5   0  0.2094135E-06  0.2774174E+04  0.7818609E-02  0.8311331E-01
        2   -1    0    0  501    0  0.00000000000E+00  0.00000000000E+00  0.15335191550E+04  0.15335191550E+04  0.25500000920E-02 0.  1.
       -2   -1    0    0    0  501  0.00000000000E+00  0.00000000000E+00 -0.12546371447E+04  0.12546371447E+04  0.25500000920E-02 0. -1.
    10030    2    1    2    0    0  0.00000000000E+00  0.00000000000E+00  0.27888201032E+03  0.27881562997E+04  0.27741738186E+04 0.  0.
        4    1    3    3  502    0  0.45108796668E+03 -0.12960502084E+04 -0.63522346567E+02  0.13737769825E+04  0.12699999809E+01 0. -1.
       -4    1    3    3    0  502 -0.45108796668E+03  0.12960502084E+04  0.34240435689E+03  0.14143793172E+04  0.12699999809E+01 0.  1.
</event>
<event>
 5   0  0.7413481E-07  0.3100546E+04  0.7818609E-02  0.8215588E-01
       -1   -1    0    0    0  501  0.00000000000E+00  0.00000000000E+00  0.14807516767E+04  0.14807516768E+04  0.50400001928E-02 0.  1.
        1   -1    0    0  501    0  0.00000000000E+00  0.00000000000E+00 -0.16230580811E+04  0.16230580811E+04  0.50400001928E-02 0. -1.
    10030    2    1    2    0    0  0.00000000000E+00  0.00000000000E+00 -0.14230640431E+03  0.31038097578E+04  0.31005457423E+04 0.  0.
        5    1    3    3  502    0 -0.92939979416E+03  0.12379347904E+04  0.12943343325E+02  0.15480491410E+04  0.46999998093E+01 0. -1.
       -5    1    3    3    0  502  0.92939979416E+03 -0.12379347904E+04 -0.15524974764E+03  0.15557606168E+04  0.46999998093E+01 0.  1.
</event>
<event>
 5   0  0.7561815E-07  0.3088787E+04  0.7818609E-02  0.8218822E-01
        1   -1    0    0  501    0  0.00000000000E+00  0.00000000000E+00  0.12753967162E+04  0.12753967163E+04  0.50400001928E-02 0. -1.
       -1   -1    0    0    0  501  0.00000000000E+00  0.00000000000E+00 -0.18701247438E+04  0.18701247438E+04  0.50400001928E-02 0.  1.
    10030    2    1    2    0    0  0.00000000000E+00  0.00000000000E+00 -0.59472802757E+03  0.31455214601E+04  0.30887867892E+04 0.  0.
        3    1    3    3  502    0  0.13485285936E+04 -0.64859184616E+03 -0.68641548603E+03  0.16463192219E+04  0.10100000352E+00 0. -1.
       -3    1    3    3    0  502 -0.13485285936E+04  0.64859184616E+03  0.91687458458E+02  0.14992022382E+04  0.10100000352E+00 0.  1.
</event>
<event>
 5   0  0.6979625E-07  0.3104630E+04  0.7818609E-02  0.8214469E-01
        3   -1    0    0  501    0  0.00000000000E+00  0.00000000000E+00  0.11210260576E+04  0.11210260621E+04  0.10100000352E+00 0.  1.
       -3   -1    0    0    0  501  0.00000000000E+00  0.00000000000E+00 -0.21495318427E+04  0.21495318451E+04  0.10100000352E+00 0. -1.
    10030    2    1    2    0    0  0.00000000000E+00  0.00000000000E+00 -0.10285057851E+04  0.32705579072E+04  0.31046295873E+04 0.  0.
        1    1    3    3  502    0 -0.15320028803E+04 -0.16007224442E+03 -0.71695635484E+03  0.16990239444E+04  0.50400001928E-02 0.  1.
       -1    1    3    3    0  502  0.15320028803E+04  0.16007224442E+03 -0.31154943031E+03  0.15715339628E+04  0.50400001928E-02 0. -1.
</event>
<event>
 5   0  0.7561815E-07  0.3099970E+04  0.7818609E-02  0.8215746E-01
       -1   -1    0    0    0  501  0.00000000000E+00  0.00000000000E+00  0.13022380727E+04  0.13022380727E+04  0.50400001928E-02 0.  1.
        1   -1    0    0  501    0  0.00000000000E+00  0.00000000000E+00 -0.18448645272E+04  0.18448645272E+04  0.50400001928E-02 0. -1.
    10030    2    1    2    0    0  0.00000000000E+00  0.00000000000E+00 -0.54262645449E+03  0.31471025998E+04  0.30999695651E+04 0.  0.
        3    1    3    3  502    0  0.24385646507E+03  0.66557684084E+03 -0.16706737626E+04  0.18148303881E+04  0.10100000352E+00 0. -1.
       -3    1    3    3    0  502 -0.24385646507E+03 -0.66557684084E+03  0.11280473081E+04  0.13322722117E+04  0.10100000352E+00 0.  1.
</event>
<event>
 5   0  0.2067926E-06  0.3103173E+04  0.7818609E-02  0.8214868E-01
       -2   -1    0    0    0  501  0.00000000000E+00  0.00000000000E+00  0.17388656180E+04  0.17388656180E+04  0.25500000920E-02 0. -1.
        2   -1    0    0  501    0  0.00000000000E+00  0.00000000000E+00 -0.13844774452E+04  0.13844774452E+04  0.25500000920E-02 0.  1.
    10030    2    1    2    0    0  0.00000000000E+00  0.00000000000E+00  0.35438817287E+03  0.31233430632E+04  0.31031727173E+04 0.  0.
        1    1    3    3  502    0 -0.13311871384E+04 -0.58597968461E+03  0.72106629482E+03  0.16233816525E+04  0.50400001928E-02 0. -1.
       -1    1    3    3    0  502  0.13311871384E+04  0.58597968461E+03 -0.36667812195E+03  0.14999614106E+04  0.50400001928E-02 0.  1.
</event>
<event>
 5   0  0.7656332E-07  0.3123517E+04  0.7818609E-02  0.8209313E-01
        1   -1    0    0  501    0  0.00000000000E+00  0.00000000000E+00  0.13021846848E+04  0.13021846848E+04  0.50400001928E-02 0.  1.
       -1   -1    0    0    0  501  0.00000000000E+00  0.00000000000E+00 -0.18730745782E+04  0.18730745783E+04  0.50400001928E-02 0. -1.
    10030    2    1    2    0    0  0.00000000000E+00  0.00000000000E+00 -0.57088989346E+03  0.31752592631E+04  0.31235166267E+04 0.  0.
        2    1    3    3  502    0  0.26956915950E+02 -0.23243296961E+03  0.12842642875E+04  0.13054066496E+04  0.25500000920E-02 0.  1.
       -2    1    3    3    0  502 -0.26956915950E+02  0.23243296961E+03 -0.18551541810E+04  0.18698526134E+04  0.25500000920E-02 0. -1.
</event>
<event>
 5   0  0.7561815E-07  0.3114771E+04  0.7818609E-02  0.8211696E-01
       -1   -1    0    0    0  501  0.00000000000E+00  0.00000000000E+00  0.10646114708E+04  0.10646114708E+04  0.50400001928E-02 0. -1.
        1   -1    0    0  501    0  0.00000000000E+00  0.00000000000E+00 -0.22782490623E+04  0.22782490623E+04  0.50400001928E-02 0.  1.
    10030    2    1    2    0    0  0.00000000000E+00  0.00000000000E+00 -0.12136375915E+04  0.33428605330E+04  0.31147713142E+04 0.  0.
        3    1    3    3  502    0  0.11798842360E+04  0.10164502144E+04 -0.62006027134E+03  0.16762376321E+04  0.10100000352E+00 0. -1.
       -3    1    3    3    0  502 -0.11798842360E+04 -0.10164502144E+04 -0.59357732017E+03  0.16666229010E+04  0.10100000352E+00 0.  1.
</event>
<event>
 5   0  0.7656332E-07  0.3086394E+04  0.7818609E-02  0.8219482E-01
       -1   -1    0    0    0  501  0.00000000000E+00  0.00000000000E+00  0.12784924821E+04  0.12784924821E+04  0.50400001928E-02 0. -1.
        1   -1    0    0  501    0  0.00000000000E+00  0.00000000000E+00 -0.18627068609E+04  0.18627068610E+04  0.50400001928E-02 0.  1.
    10030    2    1    2    0    0  0.00000000000E+00  0.00000000000E+00 -0.58421437883E+03  0.31411993431E+04  0.30863938298E+04 0.  0.
        2    1    3    3  502    0  0.13191413009E+04 -0.68234723321E+03  0.13453242553E+03  0.14912513175E+04  0.25500000920E-02 0. -1.
       -2    1    3    3    0  502 -0.13191413009E+04  0.68234723321E+03 -0.71874680437E+03  0.16499480256E+04  0.25500000920E-02 0.  1.
</event>
<event>
 5   0  0.7561815E-07  0.3080351E+04  0.7818609E-02  0.8221151E-01
       -1   -1    0    0    0  501  0.00000000000E+00  0.00000000000E+00  0.11164713644E+04  0.11164713644E+04  0.50400001928E-02 0. -1.
        1   -1    0    0  501    0  0.00000000000E+00  0.00000000000E+00 -0.21246763990E+04  0.21246763990E+04  0.50400001928E-02 0.  1.
    10030    2    1    2    0    0  0.00000000000E+00  0.00000000000E+00 -0.10082050346E+04  0.32411477634E+04  0.30803508620E+04 0.  0.
        3    1    3    3  502    0 -0.74955086698E+03  0.61123042561E+03  0.75709580576E+03  0.12282602349E+04  0.10100000352E+00 0. -1.
       -3    1    3    3    0  502  0.74955086698E+03 -0.61123042561E+03 -0.17653008403E+04  0.20128875285E+04  0.10100000352E+00 0.  1.
</event>
<event>
 5   0  0.2226334E-06  0.3100759E+04  0.7818609E-02  0.8215530E-01
       -2   -1    0    0    0  501  0.00000000000E+00  0.00000000000E+00  0.17058103842E+04  0.17058103842E+04  0.25500000920E-02 0.  1.
        2   -1    0    0  501    0  0.00000000000E+00  0.00000000000E+00 -0.14091114582E+04  0.14091114582E+04  0.25500000920E-02 0. -1.
    10030    2    1    2    0    0  0.00000000000E+00  0.00000000000E+00  0.29669892603E+03  0.31149218425E+04  0.31007592348E+04 0.  0.
        5    1    3    3  502    0  0.72468944900E+03  0.47014974135E+03 -0.11449465041E+04  0.14342733923E+04  0.46999998093E+01 0.  1.
       -5    1    3    3    0  502 -0.72468944900E+03 -0.47014974135E+03  0.14416454301E+04  0.16806484501E+04  0.46999998093E+01 0. -1.
</event>
<event>
 5   0  0.2067926E-06  0.3072176E+04  0.7818609E-02  0.8223416E-01
        2   -1    0    0  501    0  0.00000000000E+00  0.00000000000E+00  0.17907252541E+04  0.17907252541E+04  0.25500000920E-02 0.  1.
       -2   -1    0    0    0  501  0.00000000000E+00  0.00000000000E+00 -0.13176593614E+04  0.13176593614E+04  0.25500000920E-02 0. -1.
    10030    2    1    2    0    0  0.00000000000E+00  0.00000000000E+00  0.47306589273E+03  0.31083846155E+04  0.30721757077E+04 0.  0.
        1    1    3    3  502    0  0.67931616517E+03 -0.59607811401E+03  0.14932618116E+04  0.17454542126E+04  0.50400001928E-02 0.  1.
       -1    1    3    3    0  502 -0.67931616517E+03  0.59607811401E+03 -0.10201959188E+04  0.13629304029E+04  0.50400001928E-02 0. -1.
</event>
<event>
 5   0  0.7726743E-07  0.3109424E+04  0.7818609E-02  0.8213156E-01
        1   -1    0    0  501    0  0.00000000000E+00  0.00000000000E+00  0.15358032787E+04  0.15358032787E+04  0.50400001928E-02 0. -1.
       -1   -1    0    0    0  501  0.00000000000E+00  0.00000000000E+00 -0.15738534749E+04  0.15738534749E+04  0.50400001928E-02 0.  1.
    10030    2    1    2    0    0  0.00000000000E+00  0.00000000000E+00 -0.38050196129E+02  0.31096567536E+04  0.31094239511E+04 0.  0.
        1    1    3    3  502    0  0.18306375868E+03  0.28558489306E+02 -0.15627732037E+04  0.15737178951E+04  0.50400001928E-02 0.  1.
       -1    1    3    3    0  502 -0.18306375868E+03 -0.28558489306E+02  0.15247230076E+04  0.15359388585E+04  0.50400001928E-02 0. -1.
</event>
<event>
 5   0  0.2133385E-06  0.3091925E+04  0.7818609E-02  0.8217958E-01
        2   -1    0    0  501    0  0.00000000000E+00  0.00000000000E+00  0.18722828411E+04  0.18722828411E+04  0.25500000920E-02 0.  1.
       -2   -1    0    0    0  501  0.00000000000E+00  0.00000000000E+00 -0.12765163164E+04  0.12765163164E+04  0.25500000920E-02 0. -1.
    10030    2    1    2    0    0  0.00000000000E+00  0.00000000000E+00  0.59576652469E+03  0.31487991575E+04  0.30919247052E+04 0.  0.
        2    1    3    3  502    0 -0.13417759826E+04  0.52662370448E+03 -0.27123827458E+03  0.14667193034E+04  0.25500000920E-02 0.  1.
       -2    1    3    3    0  502  0.13417759826E+04 -0.52662370448E+03  0.86700479927E+03  0.16820798541E+04  0.25500000920E-02 0. -1.
</event>
<event>
 5   0  0.2226334E-06  0.3078336E+04  0.7818609E-02  0.8221709E-01
       -2   -1    0    0    0  501  0.00000000000E+00  0.00000000000E+00  0.10245778384E+04  0.10245778384E+04  0.25500000920E-02 0.  1.
        2   -1    0    0  501    0  0.00000000000E+00  0.00000000000E+00 -0.23122090834E+04  0.23122090834E+04  0.25500000920E-02 0. -1.
    10030    2    1    2    0    0  0.00000000000E+00  0.00000000000E+00 -0.12876312450E+04  0.33367869219E+04  0.30783360341E+04 0.  0.
        5    1    3    3  502    0 -0.14712601848E+04 -0.10401358285E+03 -0.16688551823E+03  0.14843511117E+04  0.46999998093E+01 0. -1.
       -5    1    3    3    0  502  0.14712601848E+04  0.10401358285E+03 -0.11207457268E+04  0.18524358102E+04  0.46999998093E+01 0.  1.
</event>
<event>
 5   0  0.7656332E-07  0.3117563E+04  0.7818609E-02  0.8210934E-01
       -1   -1    0    0    0  501  0.00000000000E+00  0.00000000000E+00  0.94110793246E+03  0.94110793248E+03  0.50400001928E-02 0. -1.
        1   -1    0    0  501    0  0.00000000000E+00  0.00000000000E+00 -0.25818505131E+04  0.25818505131E+04  0.50400001928E-02 0.  1.
    10030    2    1    2    0    0  0.00000000000E+00  0.00000000000E+00 -0.16407425806E+04  0.35229584456E+04  0.31175631498E+04 0.  0.
        2    1    3    3  502    0 -0.14195582273E+04 -0.38560697515E+03 -0.23759508681E+03  0.14900636649E+04  0.25500000920E-02 0.  1.
       -2    1    3    3    0  502  0.14195582273E+04  0.38560697515E+03 -0.14031474938E+04  0.20328947807E+04  0.25500000920E-02 0. -1.
</event>
<event>
 5   0  0.2133385E-06  0.3093869E+04  0.7818609E-02  0.8217422E-01
       -2   -1    0    0    0  501  0.00000000000E+00  0.00000000000E+00  0.21070316408E+04  0.21070316408E+04  0.25500000920E-02 0.  1.
        2   -1    0    0  501    0  0.00000000000E+00  0.00000000000E+00 -0.11357242775E+04  0.11357242775E+04  0.25500000920E-02 0. -1.
    10030    2    1    2    0    0  0.00000000000E+00  0.00000000000E+00  0.97130736333E+03  0.32427559184E+04  0.30938694142E+04 0.  0.
        2    1    3    3  502    0 -0.14823956758E+04 -0.38700701879E+03  0.70980409624E+03  0.16885180566E+04  0.25500000920E-02 0.  1.
       -2    1    3    3    0  502  0.14823956758E+04  0.38700701879E+03  0.26150326709E+03  0.15542378618E+04  0.25500000920E-02 0. -1.
</event>
<event>
 5   0  0.2078009E-06  0.3116604E+04  0.7818609E-02  0.8211196E-01
        2   -1    0    0  501    0  0.00000000000E+00  0.00000000000E+00  0.95080692623E+03  0.95080692624E+03  0.25500000920E-02 0.  1.
       -2   -1    0    0    0  501  0.00000000000E+00  0.00000000000E+00 -0.25539419169E+04  0.25539419169E+04  0.25500000920E-02 0. -1.
    10030    2    1    2    0    0  0.00000000000E+00  0.00000000000E+00 -0.16031349907E+04  0.35047488432E+04  0.31166043469E+04 0.  0.
        3    1    3    3  502    0 -0.47154584420E+03  0.14847028210E+04 -0.75647770293E+03  0.17317495417E+04  0.10100000352E+00 0.  1.
       -3    1    3    3    0  502  0.47154584420E+03 -0.14847028210E+04 -0.84665728775E+03  0.17729993015E+04  0.10100000352E+00 0. -1.
</event>
<event>
 5   0  0.6979625E-07  0.3103888E+04  0.7818609E-02  0.8214672E-01
        3   -1    0    0  501    0  0.00000000000E+00  0.00000000000E+00  0.16553654041E+04  0.16553654071E+04  0.10100000352E+00 0. -1.
       -3   -1    0    0    0  501  0.00000000000E+00  0.00000000000E+00 -0.14549839957E+04  0.14549839992E+04  0.10100000352E+00 0.  1.
    10030    2    1    2    0    0  0.00000000000E+00  0.00000000000E+00  0.20038140834E+03  0.31103494064E+04  0.31038880007E+04 0.  0.
        4    1    3    3  502    0  0.11036814637E+04 -0.17312737591E+03  0.11796716688E+04  0.16247192745E+04  0.12699999809E+01 0.  1.
       -4    1    3    3    0  502 -0.11036814637E+04  0.17312737591E+03 -0.97929026050E+03  0.14856301319E+04  0.12699999809E+01 0. -1.
</event>
<event>
 5   0  0.7413481E-07  0.3101960E+04  0.7818609E-02  0.8215200E-01
       -1   -1    0    0    0  501  0.00000000000E+00  0.00000000000E+00  0.15389871547E+04  0.15389871547E+04  0.50400001928E-02 0. -1.
        1   -1    0    0  501    0  0.00000000000E+00  0.00000000000E+00 -0.15630667385E+04  0.15630667385E+04  0.50400001928E-02 0.  1.
    10030    2    1    2    0    0  0.00000000000E+00  0.00000000000E+00 -0.24079583831E+02  0.31020538932E+04  0.31019604334E+04 0.  0.
        5    1    3    3  502    0 -0.55345927750E+03  0.13604049616E+04 -0.51055126182E+03  0.15548966243E+04  0.46999998093E+01 0.  1.
       -5    1    3    3    0  502  0.55345927750E+03 -0.13604049616E+04  0.48647167799E+03  0.15471572689E+04  0.46999998093E+01 0. -1.
</event>
<event>
 5   0  0.2067926E-06  0.3131671E+04  0.7818609E-02  0.8207099E-01
        2   -1    0    0  501    0  0.00000000000E+00  0.00000000000E+00  0.13815557946E+04  0.13815557946E+04  0.25500000920E-02 0.  1.
       -2   -1    0    0    0  501  0.00000000000E+00  0.00000000000E+00 -0.17746953208E+04  0.17746953208E+04  0.25500000920E-02 0. -1.
    10030    2    1    2    0    0  0.00000000000E+00  0.00000000000E+00 -0.39313952620E+03  0.31562511154E+04  0.31316708665E+04 0.  0.
        1    1    3    3  502    0  0.60590746777E+03 -0.36618599361E+02 -0.16512892173E+04  0.17593239782E+04  0.50400001928E-02 0. -1.
       -1    1    3    3    0  502 -0.60590746777E+03  0.36618599361E+02  0.12581496911E+04  0.13969271371E+04  0.50400001928E-02 0.  1.
</event>
<event>
 5   0  0.7519202E-07  0.3111595E+04  0.7818609E-02  0.8212563E-01
        1   -1    0    0  501    0  0.00000000000E+00  0.00000000000E+00  0.16222399742E+04  0.16222399742E+04  0.50400001928E-02 0. -1.
       -1   -1    0    0    0  501  0.00000000000E+00  0.00000000000E+00 -0.14920765541E+04  0.14920765541E+04  0.50400001928E-02 0.  1.
    10030    2    1    2    0    0  0.00000000000E+00  0.00000000000E+00  0.13016342009E+03  0.31143165284E+04  0.31115952376E+04 0.  0.
        4    1    3    3  502    0  0.10477088713E+04 -0.11046312652E+04  0.38567498337E+03  0.15705575178E+04  0.12699999809E+01 0. -1.
       -4    1    3    3    0  502 -0.10477088713E+04  0.11046312652E+04 -0.25551156328E+03  0.15437590106E+04  0.12699999809E+01 0.  1.
</event>
<event>
 5   0  0.7656332E-07  0.3001688E+04  0.7818609E-02  0.8243249E-01
        1   -1    0    0  501    0  0.00000000000E+00  0.00000000000E+00  0.26731802515E+04  0.26731802515E+04  0.50400001928E-02 0.  1.
       -1   -1    0    0    0  501  0.00000000000E+00  0.00000000000E+00 -0.84264178405E+03  0.84264178406E+03  0.50400001928E-02 0. -1.
    10030    2    1    2    0    0  0.00000000000E+00  0.00000000000E+00  0.18305384674E+04  0.35158220355E+04  0.30016884423E+04 0.  0.
        2    1    3    3  502    0 -0.96793112674E+03  0.11004885772E+04  0.53651295231E+03  0.15607087886E+04  0.25500000920E-02 0. -1.
       -2    1    3    3    0  502  0.96793112674E+03 -0.11004885772E+04  0.12940255151E+04  0.19551132470E+04  0.25500000920E-02 0.  1.
</event>
<event>
 5   0  0.2094135E-06  0.3088563E+04  0.7818609E-02  0.8218884E-01
        2   -1    0    0  501    0  0.00000000000E+00  0.00000000000E+00  0.26692276330E+04  0.26692276330E+04  0.25500000920E-02 0. -1.
       -2   -1    0    0    0  501  0.00000000000E+00  0.00000000000E+00 -0.89344381455E+03  0.89344381455E+03  0.25500000920E-02 0.  1.
    10030    2    1    2    0    0  0.00000000000E+00  0.00000000000E+00  0.17757838184E+04  0.35626714475E+04  0.30885627197E+04 0.  0.
        4    1    3    3  502    0  0.14746601639E+04  0.12669622632E+03  0.37965722197E+03  0.15280103900E+04  0.12699999809E+01 0. -1.
       -4    1    3    3    0  502 -0.14746601639E+04 -0.12669622632E+03  0.13961265965E+04  0.20346610575E+04  0.12699999809E+01 0.  1.
</event>
<event>
 5   0  0.2133385E-06  0.3072602E+04  0.7818609E-02  0.8223297E-01
       -2   -1    0    0    0  501  0.00000000000E+00  0.00000000000E+00  0.17520002146E+04  0.17520002146E+04  0.25500000920E-02 0. -1.
        2   -1    0    0  501    0  0.00000000000E+00  0.00000000000E+00 -0.13471578487E+04  0.13471578487E+04  0.25500000920E-02 0.  1.
    10030    2    1    2    0    0  0.00000000000E+00  0.00000000000E+00  0.40484236587E+03  0.30991580634E+04  0.30726020505E+04 0.  0.
        2    1    3    3  502    0 -0.69416003392E+03 -0.13470378802E+04  0.45729394628E+03  0.15828730071E+04  0.25500000920E-02 0. -1.
       -2    1    3    3    0  502  0.69416003392E+03  0.13470378802E+04 -0.52451580417E+02  0.15162850562E+04  0.25500000920E-02 0.  1.
</event>
<event>
 5   0  0.2078009E-06  0.3042895E+04  0.7818609E-02  0.8231587E-01
       -2   -1    0    0    0  501  0.00000000000E+00  0.00000000000E+00  0.99662202886E+03  0.99662202886E+03  0.25500000920E-02 0.  1.
        2   -1    0    0  501    0  0.00000000000E+00  0.00000000000E+00 -0.23226490334E+04  0.23226490334E+04  0.25500000920E-02 0. -1.
    10030    2    1    2    0    0  0.00000000000E+00  0.00000000000E+00 -0.13260270046E+04  0.33192710623E+04  0.30428954580E+04 0.  0.
        3    1    3    3  502    0 -0.23217787971E+02  0.51164969673E+03 -0.22257833296E+04  0.22839518205E+04  0.10100000352E+00 0. -1.
       -3    1    3    3    0  502  0.23217787971E+02 -0.51164969673E+03  0.89975632502E+03  0.10353192418E+04  0.10100000352E+00 0.  1.
</event>
<event>
 5   0  0.6979625E-07  0.2797464E+04  0.7818609E-02  0.8304056E-01
       -4   -1    0    0    0  501  0.00000000000E+00  0.00000000000E+00  0.15153726642E+04  0.15153731964E+04  0.12699999809E+01 0.  1.
        4   -1    0    0  501    0  0.00000000000E+00  0.00000000000E+00 -0.12910684335E+04  0.12910690581E+04  0.12699999809E+01 0. -1.
    10030    2    1    2    0    0  0.00000000000E+00  0.00000000000E+00  0.22430423073E+03  0.28064422546E+04  0.27974641625E+04 0.  0.
        5    1    3    3  502    0  0.15402029057E+03 -0.78953453357E+03 -0.10357852194E+04  0.13114725084E+04  0.46999998093E+01 0. -1.
       -5    1    3    3    0  502 -0.15402029057E+03  0.78953453357E+03  0.12600894501E+04  0.14949697462E+04  0.46999998093E+01 0.  1.
</event>
<event>
 5   0  0.2094135E-06  0.3113705E+04  0.7818609E-02  0.8211987E-01
        2   -1    0    0  501    0  0.00000000000E+00  0.00000000000E+00  0.26252861124E+04  0.26252861124E+04  0.25500000920E-02 0.  1.
       -2   -1    0    0    0  501  0.00000000000E+00  0.00000000000E+00 -0.92324800063E+03  0.92324800063E+03  0.25500000920E-02 0. -1.
    10030    2    1    2    0    0  0.00000000000E+00  0.00000000000E+00  0.17020381118E+04  0.35485341130E+04  0.31137052875E+04 0.  0.
        4    1    3    3  502    0  0.15402264789E+04 -0.17277921352E+03  0.10186610555E+04  0.18546757727E+04  0.12699999809E+01 0. -1.
       -4    1    3    3    0  502 -0.15402264789E+04  0.17277921352E+03  0.68337705630E+03  0.16938583403E+04  0.12699999809E+01 0.  1.
</event>
<event>
 5   0  0.2078009E-06  0.3171142E+04  0.7818609E-02  0.8196480E-01
       -2   -1    0    0    0  501  0.00000000000E+00  0.00000000000E+00  0.11801419755E+04  0.11801419755E+04  0.25500000920E-02 0.  1.
        2   -1    0    0  501    0  0.00000000000E+00  0.00000000000E+00 -0.21302823093E+04  0.21302823093E+04  0.25500000920E-02 0. -1.
    10030    2    1    2    0    0  0.00000000000E+00  0.00000000000E+00 -0.95014033381E+03  0.33104242848E+04  0.31711421116E+04 0.  0.
        3    1    3    3  502    0  0.13585145432E+04  0.41090536408E+03  0.26282125278E+03  0.14434264801E+04  0.10100000352E+00 0.  1.
       -3    1    3    3    0  502 -0.13585145432E+04 -0.41090536408E+03 -0.12129615866E+04  0.18669978048E+04  0.10100000352E+00 0. -1.
</event>
<event>
 5   0  0.7561815E-07  0.3106568E+04  0.7818609E-02  0.8213938E-01
        1   -1    0    0  501    0  0.00000000000E+00  0.00000000000E+00  0.15015280376E+04  0.15015280376E+04  0.50400001928E-02 0.  1.
       -1   -1    0    0    0  501  0.00000000000E+00  0.00000000000E+00 -0.16068239631E+04  0.16068239631E+04  0.50400001928E-02 0. -1.
    10030    2    1    2    0    0  0.00000000000E+00  0.00000000000E+00 -0.10529592551E+03  0.31083520007E+04  0.31065680306E+04 0.  0.
        3    1    3    3  502    0  0.15333847219E+04  0.50496772918E+02  0.19012812310E+03  0.15459519213E+04  0.10100000352E+00 0.  1.
       -3    1    3    3    0  502 -0.15333847219E+04 -0.50496772918E+02 -0.29542404861E+03  0.15624000794E+04  0.10100000352E+00 0. -1.
</event>
<event>
 5   0  0.2067926E-06  0.3108756E+04  0.7818609E-02  0.8213339E-01
        2   -1    0    0  501    0  0.00000000000E+00  0.00000000000E+00  0.20904808814E+04  0.20904808814E+04  0.25500000920E-02 0. -1.
       -2   -1    0    0    0  501  0.00000000000E+00  0.00000000000E+00 -0.11557587445E+04  0.11557587445E+04  0.25500000920E-02 0.  1.
    10030    2    1    2    0    0  0.00000000000E+00  0.00000000000E+00  0.93472213695E+03  0.32462396259E+04  0.31087563808E+04 0.  0.
        1    1    3    3  502    0 -0.34499817370E+03 -0.29321674701E+02 -0.11149778264E+04  0.11675012008E+04  0.50400001928E-02 0.  1.
       -1    1    3    3    0  502  0.34499817370E+03  0.29321674701E+02  0.20496999633E+04  0.20787384251E+04  0.50400001928E-02 0. -1.
</event>
<event>
 5   0  0.7656332E-07  0.3043290E+04  0.7818609E-02  0.8231476E-01
       -1   -1    0    0    0  501  0.00000000000E+00  0.00000000000E+00  0.11927767004E+04  0.11927767004E+04  0.50400001928E-02 0. -1.
        1   -1    0    0  501    0  0.00000000000E+00  0.00000000000E+00 -0.19411880226E+04  0.19411880226E+04  0.50400001928E-02 0.  1.
    10030    2    1    2    0    0  0.00000000000E+00  0.00000000000E+00 -0.74841132221E+03  0.31339647229E+04  0.30432902223E+04 0.  0.
        2    1    3    3  502    0  0.33509477684E+03  0.76893668930E+03 -0.16816200914E+04  0.18792014989E+04  0.25500000920E-02 0.  1.
       -2    1    3    3    0  502 -0.33509477684E+03 -0.76893668930E+03  0.93320876917E+03  0.12547632241E+04  0.25500000920E-02 0. -1.
</event>
<event>
 5   0  0.7726743E-07  0.3124223E+04  0.7818609E-02  0.8209122E-01
        1   -1    0    0  501    0  0.00000000000E+00  0.00000000000E+00  0.28598099207E+04  0.28598099207E+04  0.50400001928E-02 0.  1.
       -1   -1    0    0    0  501  0.00000000000E+00  0.00000000000E+00 -0.85327060162E+03  0.85327060163E+03  0.50400001928E-02 0. -1.
    10030    2    1    2    0    0  0.00000000000E+00  0.00000000000E+00  0.20065393191E+04  0.37130805223E+04  0.31242226115E+04 0.  0.
        1    1    3    3  502    0  0.67493385591E+03  0.11144027097E+04  0.20275466497E+04  0.24100569549E+04  0.50400001928E-02 0.  1.
       -1    1    3    3    0  502 -0.67493385591E+03 -0.11144027097E+04 -0.21007330686E+02  0.13030235674E+04  0.50400001928E-02 0. -1.
</event>
<event>
 5   0  0.2094135E-06  0.3078136E+04  0.7818609E-02  0.8221764E-01
       -2   -1    0    0    0  501  0.00000000000E+00  0.00000000000E+00  0.86587065135E+03  0.86587065135E+03  0.25500000920E-02 0. -1.
        2   -1    0    0  501    0  0.00000000000E+00  0.00000000000E+00 -0.27356625462E+04  0.27356625462E+04  0.25500000920E-02 0.  1.
    10030    2    1    2    0    0  0.00000000000E+00  0.00000000000E+00 -0.18697918948E+04  0.36015331976E+04  0.30781357415E+04 0.  0.
        4    1    3    3  502    0  0.12155261515E+04  0.92628515719E+03 -0.11481519681E+04  0.19114817740E+04  0.12699999809E+01 0.  1.
       -4    1    3    3    0  502 -0.12155261515E+04 -0.92628515719E+03 -0.72163992675E+03  0.16900514236E+04  0.12699999809E+01 0. -1.
</event>
<event>
 5   0  0.2094135E-06  0.3091182E+04  0.7818609E-02  0.8218162E-01
       -2   -1    0    0    0  501  0.00000000000E+00  0.00000000000E+00  0.13361819909E+04  0.13361819909E+04  0.25500000920E-02 0. -1.
        2   -1    0    0  501    0  0.00000000000E+00  0.00000000000E+00 -0.17878189608E+04  0.17878189609E+04  0.25500000920E-02 0.  1.
    10030    2    1    2    0    0  0.00000000000E+00  0.00000000000E+00 -0.45163696998E+03  0.31240009517E+04  0.30911819736E+04 0.  0.
        4    1    3    3  502    0 -0.97591370336E+03 -0.11974907625E+04 -0.27592514258E+03  0.15692443978E+04  0.12699999809E+01 0. -1.
       -4    1    3    3    0  502  0.97591370336E+03  0.11974907625E+04 -0.17571182740E+03  0.15547565539E+04  0.12699999809E+01 0.  1.
</event>
<event>
 5   0  0.2094135E-06  0.3245330E+04  0.7818609E-02  0.8176947E-01
        2   -1    0    0  501    0  0.00000000000E+00  0.00000000000E+00  0.14497088757E+04  0.14497088757E+04  0.25500000920E-02 0. -1.
       -2   -1    0    0    0  501  0.00000000000E+00  0.00000000000E+00 -0.18162550493E+04  0.18162550493E+04  0.25500000920E-02 0.  1.
    10030    2    1    2    0    0  0.00000000000E+00  0.00000000000E+00 -0.36654617368E+03  0.32659639250E+04  0.32453296076E+04 0.  0.
        4    1    3    3  502    0  0.14760095745E+04 -0.36002269289E+02  0.49416296361E+03  0.15569518538E+04  0.12699999809E+01 0. -1.
       -4    1    3    3    0  502 -0.14760095745E+04  0.36002269289E+02 -0.86070913729E+03  0.17090120712E+04  0.12699999809E+01 0.  1.
</event>
<event>
 5   0  0.7726743E-07  0.3160375E+04  0.7818609E-02  0.8199361E-01
       -1   -1    0    0    0  501  0.00000000000E+00  0.00000000000E+00  0.19541096120E+04  0.19541096120E+04  0.50400001928E-02 0. -1.
        1   -1    0    0  501    0  0.00000000000E+00  0.00000000000E+00 -0.12778162907E+04  0.12778162907E+04  0.50400001928E-02 0.  1.
    10030    2    1    2    0    0  0.00000000000E+00  0.00000000000E+00  0.67629332133E+03  0.32319259028E+04  0.31603753550E+04 0.  0.
        1    1    3    3  502    0 -0.38245542553E+02  0.30213197955E+03 -0.12475212517E+04  0.12841556479E+04  0.50400001928E-02 0.  1.
       -1    1    3    3    0  502  0.38245542553E+02 -0.30213197955E+03  0.19238145730E+04  0.19477702549E+04  0.50400001928E-02 0. -1.
</event>
<event>
 5   0  0.2078009E-06  0.3098220E+04  0.7818609E-02  0.8216227E-01
       -2   -1    0    0    0  501  0.00000000000E+00  0.00000000000E+00  0.81581912560E+03  0.81581912561E+03  0.25500000920E-02 0.  1.
        2   -1    0    0  501    0  0.00000000000E+00  0.00000000000E+00 -0.29415125164E+04  0.29415125164E+04  0.25500000920E-02 0. -1.
    10030    2    1    2    0    0  0.00000000000E+00  0.00000000000E+00 -0.21256933908E+04  0.37573316421E+04  0.30982202434E+04 0.  0.
        3    1    3    3  502    0 -0.19370554131E+03  0.11534112455E+04  0.16906116125E+03  0.11817195202E+04  0.10100000352E+00 0.  1.
       -3    1    3    3    0  502  0.19370554131E+03 -0.11534112455E+04 -0.22947545521E+04  0.25756121219E+04  0.10100000352E+00 0. -1.
</event>
<event>
 5   0  0.2067926E-06  0.3086751E+04  0.7818609E-02  0.8219383E-01
       -2   -1    0    0    0  501  0.00000000000E+00  0.00000000000E+00  0.10079458400E+04  0.10079458400E+04  0.25500000920E-02 0.  1.
        2   -1    0    0  501    0  0.00000000000E+00  0.00000000000E+00 -0.23632304343E+04  0.23632304343E+04  0.25500000920E-02 0. -1.
    10030    2    1    2    0    0  0.00000000000E+00  0.00000000000E+00 -0.13552845943E+04  0.33711762743E+04  0.30867512276E+04 0.  0.
        1    1    3    3  502    0  0.90081506439E+03  0.12216481685E+04 -0.37239590055E+03  0.15628725907E+04  0.50400001928E-02 0. -1.
       -1    1    3    3    0  502 -0.90081506439E+03 -0.12216481685E+04 -0.98288869371E+03  0.18083036836E+04  0.50400001928E-02 0.  1.
</event>
<event>
 5   0  0.7656332E-07  0.3099508E+04  0.7818609E-02  0.8215873E-01
       -1   -1    0    0    0  501  0.00000000000E+00  0.00000000000E+00  0.15514842986E+04  0.15514842986E+04  0.50400001928E-02 0. -1.
        1   -1    0    0  501    0  0.00000000000E+00  0.00000000000E+00 -0.15480253688E+04  0.15480253688E+04  0.50400001928E-02 0.  1.
    10030    2    1    2    0    0  0.00000000000E+00  0.00000000000E+00  0.34589298459E+01  0.30995096674E+04  0.30995077374E+04 0.  0.
        2    1    3    3  502    0  0.10084518526E+04 -0.57272829970E+03  0.10297107514E+04  0.15509020200E+04  0.25500000920E-02 0. -1.
       -2    1    3    3    0  502 -0.10084518526E+04  0.57272829970E+03 -0.10262518215E+04  0.15486076474E+04  0.25500000920E-02 0.  1.
</event>
<event>
 5   0  0.7726743E-07  0.3239702E+04  0.7818609E-02  0.8178410E-01
        1   -1    0    0  501    0  0.00000000000E+00  0.00000000000E+00  0.11986658791E+04  0.11986658792E+04  0.50400001928E-02 0. -1.
       -1   -1    0    0    0  501  0.00000000000E+00  0.00000000000E+00 -0.21890315916E+04  0.21890315916E+04  0.50400001928E-02 0.  1.
    10030    2    1    2    0    0  0.00000000000E+00  0.00000000000E+00 -0.99036571242E+03  0.33876974707E+04  0.32397021327E+04 0.  0.
        1    1    3    3  502    0 -0.14463950128E+04  0.33478246597E+03 -0.11726843012E+04  0.18919107545E+04  0.50400001928E-02 0.  1.
       -1    1    3    3    0  502  0.14463950128E+04 -0.33478246597E+03  0.18231858882E+03  0.14957867162E+04  0.50400001928E-02 0. -1.
</event>
<event>
 5   0  0.7656332E-07  0.2768064E+04  0.7818609E-02  0.8313252E-01
       -1   -1    0    0    0  501  0.00000000000E+00  0.00000000000E+00  0.18156619406E+04  0.18156619406E+04  0.50400001928E-02 0.  1.
        1   -1    0    0  501    0  0.00000000000E+00  0.00000000000E+00 -0.10550118877E+04  0.10550118877E+04  0.50400001928E-02 0. -1.
    10030    2    1    2    0    0  0.00000000000E+00  0.00000000000E+00  0.76065005290E+03  0.28706738283E+04  0.27680642561E+04 0.  0.
        2    1    3    3  502    0 -0.11005131671E+04  0.45723551440E+03  0.11102267233E+04  0.16287409014E+04  0.25500000920E-02 0.  1.
       -2    1    3    3    0  502  0.11005131671E+04 -0.45723551440E+03 -0.34957667045E+03  0.12419329270E+04  0.25500000920E-02 0. -1.
</event>
<event>
 5   0  0.2078009E-06  0.2845246E+04  0.7818609E-02  0.8289357E-01
       -2   -1    0    0    0  501  0.00000000000E+00  0.00000000000E+00  0.77378596559E+03  0.77378596560E+03  0.25500000920E-02 0.  1.
        2   -1    0    0  501    0  0.00000000000E+00  0.00000000000E+00 -0.26155242026E+04  0.26155242026E+04  0.25500000920E-02 0. -1.
    10030    2    1    2    0    0  0.00000000000E+00  0.00000000000E+00 -0.18417382370E+04  0.33893101682E+04  0.28452458035E+04 0.  0.
        3    1    3    3  502    0 -0.12707584192E+04  0.56615973251E+02 -0.16201173690E+03  0.12822948731E+04  0.10100000352E+00 0.  1.
       -3    1    3    3    0  502  0.12707584192E+04 -0.56615973251E+02 -0.16797265001E+04  0.21070152951E+04  0.10100000352E+00 0. -1.
</event>
<event>
 5   0  0.7656332E-07  0.2980702E+04  0.7818609E-02  0.8249263E-01
        1   -1    0    0  501    0  0.00000000000E+00  0.00000000000E+00  0.14638427473E+04  0.14638427473E+04  0.50400001928E-02 0.  1.
       -1   -1    0    0    0  501  0.00000000000E+00  0.00000000000E+00 -0.15173393000E+04  0.15173393001E+04  0.50400001928E-02 0. -1.
    10030    2    1    2    0    0  0.00000000000E+00  0.00000000000E+00 -0.53496552723E+02  0.29811820474E+04  0.29807020177E+04 0.  0.
        2    1    3    3  502    0 -0.20662427559E+03  0.97817776769E+03 -0.11321958322E+04  0.15104279986E+04  0.25500000920E-02 0. -1.
       -2    1    3    3    0  502  0.20662427559E+03 -0.97817776769E+03  0.10786992795E+04  0.14707540488E+04  0.25500000920E-02 0.  1.
</event>
<event>
 5   0  0.2133385E-06  0.3131501E+04  0.7818609E-02  0.8207146E-01
       -2   -1    0    0    0  501  0.00000000000E+00  0.00000000000E+00  0.15650097079E+04  0.15650097079E+04  0.25500000920E-02 0.  1.
        2   -1    0    0  501    0  0.00000000000E+00  0.00000000000E+00 -0.15664915584E+04  0.15664915584E+04  0.25500000920E-02 0. -1.
    10030    2    1    2    0    0  0.00000000000E+00  0.00000000000E+00 -0.14818505493E+01  0.31315012663E+04  0.31315009157E+04 0.  0.
        2    1    3    3  502    0 -0.13248512373E+04 -0.36710184741E+03 -0.75012737743E+03  0.15661052486E+04  0.25500000920E-02 0. -1.
       -2    1    3    3    0  502  0.13248512373E+04  0.36710184741E+03  0.74864552688E+03  0.15653960177E+04  0.25500000920E-02 0.  1.
</event>
<event>
 5   0  0.7561815E-07  0.3112163E+04  0.7818609E-02  0.8212408E-01
        1   -1    0    0  501    0  0.00000000000E+00  0.00000000000E+00  0.86017203045E+03  0.86017203047E+03  0.50400001928E-02 0. -1.
       -1   -1    0    0    0  501  0.00000000000E+00  0.00000000000E+00 -0.28150061048E+04  0.28150061048E+04  0.50400001928E-02 0.  1.
    10030    2    1    2    0    0  0.00000000000E+00  0.00000000000E+00 -0.19548340743E+04  0.36751781352E+04  0.31121629243E+04 0.  0.
        3    1    3    3  502    0 -0.13490369356E+04  0.74090014951E+03 -0.12481408665E+04  0.19815875751E+04  0.10100000352E+00 0.  1.
       -3    1    3    3    0  502  0.13490369356E+04 -0.74090014951E+03 -0.70669320779E+03  0.16935905601E+04  0.10100000352E+00 0. -1.
</event>
<event>
 5   0  0.7726743E-07  0.3056102E+04  0.7818609E-02  0.8227890E-01
       -1   -1    0    0    0  501  0.00000000000E+00  0.00000000000E+00  0.90730763698E+03  0.90730763699E+03  0.50400001928E-02 0.  1.
        1   -1    0    0  501    0  0.00000000000E+00  0.00000000000E+00 -0.25734823152E+04  0.25734823153E+04  0.50400001928E-02 0. -1.
    10030    2    1    2    0    0  0.00000000000E+00  0.00000000000E+00 -0.16661746783E+04  0.34807899522E+04  0.30561021961E+04 0.  0.
        1    1    3    3  502    0  0.10641308098E+04  0.10448492181E+04 -0.12123056757E+04  0.19219181357E+04  0.50400001928E-02 0.  1.
       -1    1    3    3    0  502 -0.10641308098E+04 -0.10448492181E+04 -0.45386900262E+03  0.15588718166E+04  0.50400001928E-02 0. -1.
</event>
<event>
 5   0  0.2094135E-06  0.3100424E+04  0.7818609E-02  0.8215621E-01
       -2   -1    0    0    0  501  0.00000000000E+00  0.00000000000E+00  0.13721873898E+04  0.13721873898E+04  0.25500000920E-02 0. -1.
        2   -1    0    0  501    0  0.00000000000E+00  0.00000000000E+00 -0.17513336137E+04  0.17513336137E+04  0.25500000920E-02 0.  1.
    10030    2    1    2    0    0  0.00000000000E+00  0.00000000000E+00 -0.37914622394E+03  0.31235210035E+04  0.31004244226E+04 0.  0.
        4    1    3    3  502    0  0.95479879452E+03  0.25327189564E+01  0.10407983240E+04  0.14124127998E+04  0.12699999809E+01 0. -1.
       -4    1    3    3    0  502 -0.95479879452E+03 -0.25327189564E+01 -0.14199445480E+04  0.17111082037E+04  0.12699999809E+01 0.  1.
</event>
<event>
 5   0  0.2226334E-06  0.3090922E+04  0.7818609E-02  0.8218234E-01
        2   -1    0    0  501    0  0.00000000000E+00  0.00000000000E+00  0.28810673414E+04  0.28810673414E+04  0.25500000920E-02 0. -1.
       -2   -1    0    0    0  501  0.00000000000E+00  0.00000000000E+00 -0.82901561116E+03  0.82901561116E+03  0.25500000920E-02 0.  1.
    10030    2    1    2    0    0  0.00000000000E+00  0.00000000000E+00  0.20520517302E+04  0.37100829525E+04  0.30909220649E+04 0.  0.
        5    1    3    3  502    0 -0.50493116559E+03  0.11532201109E+04  0.21020042153E+04  0.24501665081E+04  0.46999998093E+01 0. -1.
       -5    1    3    3    0  502  0.50493116559E+03 -0.11532201109E+04 -0.49952485056E+02  0.12599164445E+04  0.46999998093E+01 0.  1.
</event>
<event>
 5   0  0.7656332E-07  0.3104682E+04  0.7818609E-02  0.8214454E-01
        1   -1    0    0  501    0  0.00000000000E+00  0.00000000000E+00  0.28052854296E+04  0.28052854296E+04  0.50400001928E-02 0. -1.
       -1   -1    0    0    0  501  0.00000000000E+00  0.00000000000E+00 -0.85900783933E+03  0.85900783935E+03  0.50400001928E-02 0.  1.
    10030    2    1    2    0    0  0.00000000000E+00  0.00000000000E+00  0.19462775902E+04  0.36642932689E+04  0.31046817393E+04 0.  0.
        2    1    3    3  502    0 -0.84144778050E+03  0.96721173369E+03  0.20062629287E+04  0.23808871968E+04  0.25500000920E-02 0.  1.
       -2    1    3    3    0  502  0.84144778050E+03 -0.96721173369E+03 -0.59985338411E+02  0.12834060721E+04  0.25500000920E-02 0. -1.
</event>
<event>
 5   0  0.7656332E-07  0.3087247E+04  0.7818609E-02  0.8219247E-01
        1   -1    0    0  501    0  0.00000000000E+00  0.00000000000E+00  0.32569160167E+04  0.32569160167E+04  0.50400001928E-02 0.  1.
       -1   -1    0    0    0  501  0.00000000000E+00  0.00000000000E+00 -0.73160435095E+03  0.73160435097E+03  0.50400001928E-02 0. -1.
    10030    2    1    2    0    0  0.00000000000E+00  0.00000000000E+00  0.25253116657E+04  0.39885203677E+04  0.30872472713E+04 0.  0.
        2    1    3    3  502    0  0.15418022549E+04 -0.12125568942E+02  0.11670814611E+04  0.19337477497E+04  0.25500000920E-02 0.  1.
       -2    1    3    3    0  502 -0.15418022549E+04  0.12125568942E+02  0.13582302046E+04  0.20547726179E+04  0.25500000920E-02 0. -1.
</event>
<event>
 5   0  0.7726743E-07  0.3103785E+04  0.7818609E-02  0.8214700E-01
       -1   -1    0    0    0  501  0.00000000000E+00  0.00000000000E+00  0.14215700690E+04  0.14215700690E+04  0.50400001928E-02 0.  1.
        1   -1    0    0  501    0  0.00000000000E+00  0.00000000000E+00 -0.16941625294E+04  0.16941625294E+04  0.50400001928E-02 0. -1.
    10030    2    1    2    0    0  0.00000000000E+00  0.00000000000E+00 -0.27259246038E+03  0.31157325984E+04  0.31037852657E+04 0.  0.
        1    1    3    3  502    0 -0.13433822103E+04 -0.66524516959E+03 -0.53926869537E+03  0.15931219742E+04  0.50400001928E-02 0. -1.
       -1    1    3    3    0  502  0.13433822103E+04  0.66524516959E+03  0.26667623498E+03  0.15226106242E+04  0.50400001928E-02 0.  1.
</event>
<event>
 5   0  0.7413481E-07  0.3121750E+04  0.7818609E-02  0.8209794E-01
       -1   -1    0    0    0  501  0.00000000000E+00  0.00000000000E+00  0.15300514558E+04  0.15300514558E+04  0.50400001928E-02 0. -1.
        1   -1    0    0  501    0  0.00000000000E+00  0.00000000000E+00 -0.15923199386E+04  0.15923199386E+04  0.50400001928E-02 0.  1.
    10030    2    1    2    0    0  0.00000000000E+00  0.00000000000E+00 -0.62268482797E+02  0.31223713944E+04  0.31217504322E+04 0.  0.
        5    1    3    3  502    0  0.75756246356E+03  0.10992847402E+04 -0.83998634343E+03  0.15773163834E+04  0.46999998093E+01 0.  1.
       -5    1    3    3    0  502 -0.75756246356E+03 -0.10992847402E+04  0.77771786063E+03  0.15450550110E+04  0.46999998093E+01 0. -1.
</event>
<event>
 5   0  0.7561815E-07  0.3098461E+04  0.7818609E-02  0.8216160E-01
        1   -1    0    0  501    0  0.00000000000E+00  0.00000000000E+00  0.11402913058E+04  0.11402913058E+04  0.50400001928E-02 0. -1.
       -1   -1    0    0    0  501  0.00000000000E+00  0.00000000000E+00 -0.21048261380E+04  0.21048261380E+04  0.50400001928E-02 0.  1.
    10030    2    1    2    0    0  0.00000000000E+00  0.00000000000E+00 -0.96453483219E+03  0.32451174438E+04  0.30984608730E+04 0.  0.
        3    1    3    3  502    0  0.89821186748E+03  0.77656918900E+03  0.55995728282E+03  0.13127819442E+04  0.10100000352E+00 0. -1.
       -3    1    3    3    0  502 -0.89821186748E+03 -0.77656918900E+03 -0.15244921150E+04  0.19323354996E+04  0.10100000352E+00 0.  1.
</event>
<event>
 5   0  0.2067926E-06  0.3104006E+04  0.7818609E-02  0.8214639E-01
        2   -1    0    0  501    0  0.00000000000E+00  0.00000000000E+00  0.20972366617E+04  0.20972366617E+04  0.25500000920E-02 0.  1.
       -2   -1    0    0    0  501  0.00000000000E+00  0.00000000000E+00 -0.11485173901E+04  0.11485173901E+04  0.25500000920E-02 0. -1.
    10030    2    1    2    0    0  0.00000000000E+00  0.00000000000E+00  0.94871927159E+03  0.32457540517E+04  0.31040056553E+04 0.  0.
        1    1    3    3  502    0 -0.11547584258E+04  0.90626094558E+03  0.10012933315E+04  0.17768973687E+04  0.50400001928E-02 0.  1.
       -1    1    3    3    0  502  0.11547584258E+04 -0.90626094558E+03 -0.52574059863E+02  0.14688566830E+04  0.50400001928E-02 0. -1.
</event>
<event>
 5   0  0.7413481E-07  0.3122411E+04  0.7818609E-02  0.8209614E-01
        1   -1    0    0  501    0  0.00000000000E+00  0.00000000000E+00  0.77907262664E+03  0.77907262666E+03  0.50400001928E-02 0. -1.
       -1   -1    0    0    0  501  0.00000000000E+00  0.00000000000E+00 -0.31285427033E+04  0.31285427033E+04  0.50400001928E-02 0.  1.
    10030    2    1    2    0    0  0.00000000000E+00  0.00000000000E+00 -0.23494700766E+04  0.39076153299E+04  0.31224105953E+04 0.  0.
        5    1    3    3  502    0 -0.76191003617E+03 -0.74442624580E+03  0.25362521657E+03  0.10950000818E+04  0.46999998093E+01 0. -1.
       -5    1    3    3    0  502  0.76191003617E+03  0.74442624580E+03 -0.26030952932E+04  0.28126152482E+04  0.46999998093E+01 0.  1.
</event>
<event>
 5   0  0.7726743E-07  0.3098006E+04  0.7818609E-02  0.8216285E-01
       -1   -1    0    0    0  501  0.00000000000E+00  0.00000000000E+00  0.11329806854E+04  0.11329806854E+04  0.50400001928E-02 0.  1.
        1   -1    0    0  501    0  0.00000000000E+00  0.00000000000E+00 -0.21177856207E+04  0.21177856207E+04  0.50400001928E-02 0. -1.
    10030    2    1    2    0    0  0.00000000000E+00  0.00000000000E+00 -0.98480493528E+03  0.32507663061E+04  0.30980059419E+04 0.  0.
        1    1    3    3  502    0  0.77006919844E+03 -0.12869253146E+04 -0.89910540611E+03  0.17485919670E+04  0.50400001928E-02 0. -1.
       -1    1    3    3    0  502 -0.77006919844E+03  0.12869253146E+04 -0.85699529173E+02  0.15021743391E+04  0.50400001928E-02 0.  1.
</event>
<event>
 5   0  0.7726743E-07  0.3084501E+04  0.7818609E-02  0.8220004E-01
        1   -1    0    0  501    0  0.00000000000E+00  0.00000000000E+00  0.13300677887E+04  0.13300677887E+04  0.50400001928E-02 0.  1.
       -1   -1    0    0    0  501  0.00000000000E+00  0.00000000000E+00 -0.17882827717E+04  0.17882827717E+04  0.50400001928E-02 0. -1.
    10030    2    1    2    0    0  0.00000000000E+00  0.00000000000E+00 -0.45821498302E+03  0.31183505605E+04  0.30845014585E+04 0.  0.
        1    1    3    3  502    0  0.53028833579E+03 -0.66805265443E+03  0.10699201473E+04  0.13682942629E+04  0.50400001928E-02 0.  1.
       -1    1    3    3    0  502 -0.53028833579E+03  0.66805265443E+03 -0.15281351303E+04  0.17500562976E+04  0.50400001928E-02 0. -1.
</event>
<event>
 5   0  0.7519202E-07  0.3090978E+04  0.7818609E-02  0.8218218E-01
       -1   -1    0    0    0  501  0.00000000000E+00  0.00000000000E+00  0.90414248472E+03  0.90414248473E+03  0.50400001928E-02 0. -1.
        1   -1    0    0  501    0  0.00000000000E+00  0.00000000000E+00 -0.26417692671E+04  0.26417692671E+04  0.50400001928E-02 0.  1.
    10030    2    1    2    0    0  0.00000000000E+00  0.00000000000E+00 -0.17376267824E+04  0.35459117518E+04  0.30909777283E+04 0.  0.
        4    1    3    3  502    0 -0.93761905997E+03  0.11167500429E+04 -0.28131089816E+03  0.14850581114E+04  0.12699999809E+01 0.  1.
       -4    1    3    3    0  502  0.93761905997E+03 -0.11167500429E+04 -0.14563158842E+04  0.20608536405E+04  0.12699999809E+01 0. -1.
</event>
<event>
 5   0  0.7561815E-07  0.3084720E+04  0.7818609E-02  0.8219944E-01
        1   -1    0    0  501    0  0.00000000000E+00  0.00000000000E+00  0.20373960372E+04  0.20373960372E+04  0.50400001928E-02 0.  1.
       -1   -1    0    0    0  501  0.00000000000E+00  0.00000000000E+00 -0.11676050555E+04  0.11676050555E+04  0.50400001928E-02 0. -1.
    10030    2    1    2    0    0  0.00000000000E+00  0.00000000000E+00  0.86979098171E+03  0.32050010927E+04  0.30847197040E+04 0.  0.
        3    1    3    3  502    0  0.40102606246E+03  0.14864807368E+04  0.53027376661E+03  0.16283848321E+04  0.10100000352E+00 0. -1.
       -3    1    3    3    0  502 -0.40102606246E+03 -0.14864807368E+04  0.33951721510E+03  0.15766162606E+04  0.10100000352E+00 0.  1.
</event>
<event>
 5   0  0.2067926E-06  0.3108949E+04  0.7818609E-02  0.8213286E-01
       -2   -1    0    0    0  501  0.00000000000E+00  0.00000000000E+00  0.13167089375E+04  0.13167089375E+04  0.25500000920E-02 0. -1.
        2   -1    0    0  501    0  0.00000000000E+00  0.00000000000E+00 -0.18351748402E+04  0.18351748402E+04  0.25500000920E-02 0.  1.
    10030    2    1    2    0    0  0.00000000000E+00  0.00000000000E+00 -0.51846590273E+03  0.31518837777E+04  0.31089490919E+04 0.  0.
        1    1    3    3  502    0  0.22145442355E+03 -0.13980926464E+04 -0.91051102125E+03  0.16830732098E+04  0.50400001928E-02 0.  1.
       -1    1    3    3    0  502 -0.22145442355E+03  0.13980926464E+04  0.39204511851E+03  0.14688105680E+04  0.50400001928E-02 0. -1.
</event>
<event>
 5   0  0.2078009E-06  0.3091313E+04  0.7818609E-02  0.8218126E-01
        2   -1    0    0  501    0  0.00000000000E+00  0.00000000000E+00  0.19569967360E+04  0.19569967360E+04  0.25500000920E-02 0. -1.
       -2   -1    0    0    0  501  0.00000000000E+00  0.00000000000E+00 -0.12207754635E+04  0.12207754635E+04  0.25500000920E-02 0.  1.
    10030    2    1    2    0    0  0.00000000000E+00  0.00000000000E+00  0.73622127252E+03  0.31777721996E+04  0.30913127293E+04 0.  0.
        3    1    3    3  502    0  0.34566371633E+03  0.67593243799E+03  0.17521264491E+04  0.19095327097E+04  0.10100000352E+00 0. -1.
       -3    1    3    3    0  502 -0.34566371633E+03 -0.67593243799E+03 -0.10159051766E+04  0.12682394899E+04  0.10100000352E+00 0.  1.
</event>
<event>
 5   0  0.7561815E-07  0.3091679E+04  0.7818609E-02  0.8218025E-01
       -1   -1    0    0    0  501  0.00000000000E+00  0.00000000000E+00  0.11589319855E+04  0.11589319855E+04  0.50400001928E-02 0.  1.
        1   -1    0    0  501    0  0.00000000000E+00  0.00000000000E+00 -0.20619151447E+04  0.20619151447E+04  0.50400001928E-02 0. -1.
    10030    2    1    2    0    0  0.00000000000E+00  0.00000000000E+00 -0.90298315922E+03  0.32208471302E+04  0.30916787754E+04 0.  0.
        3    1    3    3  502    0 -0.88916226658E+03  0.38545220434E+03 -0.17061488362E+04  0.19621739983E+04  0.10100000352E+00 0. -1.
       -3    1    3    3    0  502  0.88916226658E+03 -0.38545220434E+03  0.80316567696E+03  0.12586731319E+04  0.10100000352E+00 0.  1.
</event>
<event>
 5   0  0.2226334E-06  0.2959290E+04  0.7818609E-02  0.8255452E-01
       -2   -1    0    0    0  501  0.00000000000E+00  0.00000000000E+00  0.13621422595E+04  0.13621422595E+04  0.25500000920E-02 0. -1.
        2   -1    0    0  501    0  0.00000000000E+00  0.00000000000E+00 -0.16072834931E+04  0.16072834931E+04  0.25500000920E-02 0.  1.
    10030    2    1    2    0    0  0.00000000000E+00  0.00000000000E+00 -0.24514123359E+03  0.29694257527E+04  0.29592896236E+04 0.  0.
        5    1    3    3  502    0  0.11445664492E+04  0.91259310574E+03  0.93732446939E+02  0.14668559557E+04  0.46999998093E+01 0. -1.
       -5    1    3    3    0  502 -0.11445664492E+04 -0.91259310574E+03 -0.33887368053E+03  0.15025697969E+04  0.46999998093E+01 0.  1.
</event>
<event>
 5   0  0.7519202E-07  0.3097384E+04  0.7818609E-02  0.8216456E-01
       -1   -1    0    0    0  501  0.00000000000E+00  0.00000000000E+00  0.18240482255E+04  0.18240482255E+04  0.50400001928E-02 0. -1.
        1   -1    0    0  501    0  0.00000000000E+00  0.00000000000E+00 -0.13149029689E+04  0.13149029689E+04  0.50400001928E-02 0.  1.
    10030    2    1    2    0    0  0.00000000000E+00  0.00000000000E+00  0.50914525661E+03  0.31389511944E+04  0.30973836877E+04 0.  0.
        4    1    3    3  502    0 -0.96017390246E+03  0.10293587697E+04  0.90894034605E+03  0.16756155780E+04  0.12699999809E+01 0. -1.
       -4    1    3    3    0  502  0.96017390246E+03 -0.10293587697E+04 -0.39979508944E+03  0.14633356164E+04  0.12699999809E+01 0.  1.
</event>
<event>
 5   0  0.7656332E-07  0.3111485E+04  0.7818609E-02  0.8212593E-01
        1   -1    0    0  501    0  0.00000000000E+00  0.00000000000E+00  0.20905224669E+04  0.20905224669E+04  0.50400001928E-02 0.  1.
       -1   -1    0    0    0  501  0.00000000000E+00  0.00000000000E+00 -0.11577654745E+04  0.11577654745E+04  0.50400001928E-02 0. -1.
    10030    2    1    2    0    0  0.00000000000E+00  0.00000000000E+00  0.93275699243E+03  0.32482879414E+04  0.31114850062E+04 0.  0.
        2    1    3    3  502    0 -0.54612156113E+02 -0.14927677532E+04  0.12526867036E+02  0.14938189231E+04  0.25500000920E-02 0.  1.
       -2    1    3    3    0  502  0.54612156113E+02  0.14927677532E+04  0.92023012539E+03  0.17544690183E+04  0.25500000920E-02 0. -1.
</event>
<event>
 5   0  0.7726743E-07  0.3093271E+04  0.7818609E-02  0.8217587E-01
        1   -1    0    0  501    0  0.00000000000E+00  0.00000000000E+00  0.11377667254E+04  0.11377667254E+04  0.50400001928E-02 0. -1.
       -1   -1    0    0    0  501  0.00000000000E+00  0.00000000000E+00 -0.21024359638E+04  0.21024359638E+04  0.50400001928E-02 0.  1.
    10030    2    1    2    0    0  0.00000000000E+00  0.00000000000E+00 -0.96466923841E+03  0.32402026892E+04  0.30932712018E+04 0.  0.
        1    1    3    3  502    0  0.35410261722E+03  0.98819460595E+03 -0.16721421500E+04  0.19743294083E+04  0.50400001928E-02 0.  1.
       -1    1    3    3    0  502 -0.35410261722E+03 -0.98819460595E+03  0.70747291157E+03  0.12658732809E+04  0.50400001928E-02 0. -1.
</event>
<event>
 5   0  0.7413481E-07  0.3082527E+04  0.7818609E-02  0.8220550E-01
        1   -1    0    0  501    0  0.00000000000E+00  0.00000000000E+00  0.21595168374E+04  0.21595168374E+04  0.50400001928E-02 0.  1.
       -1   -1    0    0    0  501  0.00000000000E+00  0.00000000000E+00 -0.11000113419E+04  0.11000113419E+04  0.50400001928E-02 0. -1.
    10030    2    1    2    0    0  0.00000000000E+00  0.00000000000E+00  0.10595054955E+04  0.32595281793E+04  0.30825268947E+04 0.  0.
        5    1    3    3  502    0  0.14697185994E+04 -0.43169248658E+03  0.70994842743E+03  0.16883364665E+04  0.46999998093E+01 0. -1.
       -5    1    3    3    0  502 -0.14697185994E+04  0.43169248658E+03  0.34955706805E+03  0.15711917128E+04  0.46999998093E+01 0.  1.
</event>
<event>
 5   0  0.2226334E-06  0.3149916E+04  0.7818609E-02  0.8202171E-01
        2   -1    0    0  501    0  0.00000000000E+00  0.00000000000E+00  0.23839545889E+04  0.23839545889E+04  0.25500000920E-02 0.  1.
       -2   -1    0    0    0  501  0.00000000000E+00  0.00000000000E+00 -0.10404952598E+04  0.10404952598E+04  0.25500000920E-02 0. -1.
    10030    2    1    2    0    0  0.00000000000E+00  0.00000000000E+00  0.13434593291E+04  0.34244498487E+04  0.31499164746E+04 0.  0.
        5    1    3    3  502    0  0.11488699947E+04  0.82695610501E+03 -0.78890334183E+02  0.14177462534E+04  0.46999998093E+01 0. -1.
       -5    1    3    3    0  502 -0.11488699947E+04 -0.82695610501E+03  0.14223496633E+04  0.20067035952E+04  0.46999998093E+01 0.  1.
</event>
<event>
 5   0  0.2094135E-06  0.3110634E+04  0.7818609E-02  0.8212826E-01
        2   -1    0    0  501    0  0.00000000000E+00  0.00000000000E+00  0.21481833169E+04  0.21481833169E+04  0.25500000920E-02 0.  1.
       -2   -1    0    0    0  501  0.00000000000E+00  0.00000000000E+00 -0.11260729166E+04  0.11260729166E+04  0.25500000920E-02 0. -1.
    10030    2    1    2    0    0  0.00000000000E+00  0.00000000000E+00  0.10221104003E+04  0.32742562335E+04  0.31106340531E+04 0.  0.
        4    1    3    3  502    0  0.66831175979E+03 -0.13388421111E+04  0.95747543629E+03  0.17764851901E+04  0.12699999809E+01 0.  1.
       -4    1    3    3    0  502 -0.66831175979E+03  0.13388421111E+04  0.64634964038E+02  0.14977710433E+04  0.12699999809E+01 0. -1.
</event>
<event>
 5   0  0.7413481E-07  0.3000586E+04  0.7818609E-02  0.8243563E-01
       -1   -1    0    0    0  501  0.00000000000E+00  0.00000000000E+00  0.13936541711E+04  0.13936541711E+04  0.50400001928E-02 0.  1.
        1   -1    0    0  501    0  0.00000000000E+00  0.00000000000E+00 -0.16150920870E+04  0.16150920870E+04  0.50400001928E-02 0. -1.
    10030    2    1    2    0    0  0.00000000000E+00  0.00000000000E+00 -0.22143791583E+03  0.30087462581E+04  0.30005864919E+04 0.  0.
        5    1    3    3  502    0 -0.10353257557E+04 -0.94956714915E+03 -0.63872526594E+03  0.15432333739E+04  0.46999998093E+01 0. -1.
       -5    1    3    3    0  502  0.10353257557E+04  0.94956714915E+03  0.41728735011E+03  0.14655128842E+04  0.46999998093E+01 0.  1.
</event>
<event>
 5   0  0.6979625E-07  0.3120579E+04  0.7818609E-02  0.8210113E-01
        3   -1    0    0  501    0  0.00000000000E+00  0.00000000000E+00  0.19243543506E+04  0.19243543533E+04  0.10100000352E+00 0. -1.
       -3   -1    0    0    0  501  0.00000000000E+00  0.00000000000E+00 -0.12651015220E+04  0.12651015260E+04  0.10100000352E+00 0.  1.
    10030    2    1    2    0    0  0.00000000000E+00  0.00000000000E+00  0.65925282861E+03  0.31894558793E+04  0.31205791953E+04 0.  0.
        1    1    3    3  502    0  0.65589884548E+02  0.24181275352E+03 -0.12444066379E+04  0.12693791086E+04  0.50400001928E-02 0.  1.
       -1    1    3    3    0  502 -0.65589884548E+02 -0.24181275352E+03  0.19036594666E+04  0.19200767707E+04  0.50400001928E-02 0. -1.
</event>
<event>
 5   0  0.2067926E-06  0.3079367E+04  0.7818609E-02  0.8221423E-01
       -2   -1    0    0    0  501  0.00000000000E+00  0.00000000000E+00  0.97385624343E+03  0.97385624343E+03  0.25500000920E-02 0. -1.
        2   -1    0    0  501    0  0.00000000000E+00  0.00000000000E+00 -0.24342660456E+04  0.24342660456E+04  0.25500000920E-02 0.  1.
    10030    2    1    2    0    0  0.00000000000E+00  0.00000000000E+00 -0.14604098022E+04  0.34081222891E+04  0.30793669393E+04 0.  0.
        1    1    3    3  502    0 -0.37372203632E+03  0.35298345589E+03 -0.23364802557E+04  0.23923639910E+04  0.50400001928E-02 0.  1.
       -1    1    3    3    0  502  0.37372203632E+03 -0.35298345589E+03  0.87607045345E+03  0.10157582980E+04  0.50400001928E-02 0. -1.
</event>
<event>
 5   0  0.2094135E-06  0.3062358E+04  0.7818609E-02  0.8226145E-01
       -2   -1    0    0    0  501  0.00000000000E+00  0.00000000000E+00  0.11213110607E+04  0.11213110607E+04  0.25500000920E-02 0. -1.
        2   -1    0    0  501    0  0.00000000000E+00  0.00000000000E+00 -0.20908643223E+04  0.20908643223E+04  0.25500000920E-02 0.  1.
    10030    2    1    2    0    0  0.00000000000E+00  0.00000000000E+00 -0.96955326160E+03  0.32121753830E+04  0.30623581051E+04 0.  0.
        4    1    3    3  502    0  0.55670175396E+03  0.12690349478E+04  0.19834568467E+03  0.13998961266E+04  0.12699999809E+01 0. -1.
       -4    1    3    3    0  502 -0.55670175396E+03 -0.12690349478E+04 -0.11678989463E+04  0.18122792564E+04  0.12699999809E+01 0.  1.
</event>
<event>
 5   0  0.2094135E-06  0.3099308E+04  0.7818609E-02  0.8215928E-01
       -2   -1    0    0    0  501  0.00000000000E+00  0.00000000000E+00  0.86578625685E+03  0.86578625685E+03  0.25500000920E-02 0.  1.
        2   -1    0    0  501    0  0.00000000000E+00  0.00000000000E+00 -0.27736954021E+04  0.27736954021E+04  0.25500000920E-02 0. -1.
    10030    2    1    2    0    0  0.00000000000E+00  0.00000000000E+00 -0.19079091452E+04  0.36394816589E+04  0.30993078968E+04 0.  0.
        4    1    3    3  502    0  0.12508551028E+04  0.66883037237E+03 -0.16867832330E+04  0.22039083110E+04  0.12699999809E+01 0. -1.
       -4    1    3    3    0  502 -0.12508551028E+04 -0.66883037237E+03 -0.22112591224E+03  0.14355733479E+04  0.12699999809E+01 0.  1.
</event>
<event>
 5   0  0.7519202E-07  0.3097357E+04  0.7818609E-02  0.8216464E-01
       -1   -1    0    0    0  501  0.00000000000E+00  0.00000000000E+00  0.25425952999E+04  0.25425952999E+04  0.50400001928E-02 0. -1.
        1   -1    0    0  501    0  0.00000000000E+00  0.00000000000E+00 -0.94328995731E+03  0.94328995732E+03  0.50400001928E-02 0.  1.
    10030    2    1    2    0    0  0.00000000000E+00  0.00000000000E+00  0.15993053426E+04  0.34858852572E+04  0.30973566872E+04 0.  0.
        4    1    3    3  502    0  0.24570347217E+03  0.54887786322E+03  0.24058260507E+04  0.24798463065E+04  0.12699999809E+01 0. -1.
       -4    1    3    3    0  502 -0.24570347217E+03 -0.54887786322E+03 -0.80652070806E+03  0.10060389507E+04  0.12699999809E+01 0.  1.
</event>
<event>
 5   0  0.7561815E-07  0.3100413E+04  0.7818609E-02  0.8215625E-01
        1   -1    0    0  501    0  0.00000000000E+00  0.00000000000E+00  0.10909354333E+04  0.10909354333E+04  0.50400001928E-02 0. -1.
       -1   -1    0    0    0  501  0.00000000000E+00  0.00000000000E+00 -0.22028248575E+04  0.22028248575E+04  0.50400001928E-02 0.  1.
    10030    2    1    2    0    0  0.00000000000E+00  0.00000000000E+00 -0.11118894242E+04  0.32937602908E+04  0.31004126760E+04 0.  0.
        3    1    3    3  502    0  0.32779591550E+03  0.50113664804E+03 -0.20749927956E+04  0.21596720154E+04  0.10100000352E+00 0.  1.
       -3    1    3    3    0  502 -0.32779591550E+03 -0.50113664804E+03  0.96310337135E+03  0.11340882754E+04  0.10100000352E+00 0. -1.
</event>
<event>
 5   0  0.7561815E-07  0.3098128E+04  0.7818609E-02  0.8216252E-01
       -1   -1    0    0    0  501  0.00000000000E+00  0.00000000000E+00  0.12743378092E+04  0.12743378092E+04  0.50400001928E-02 0.  1.
        1   -1    0    0  501    0  0.00000000000E+00  0.00000000000E+00 -0.18830163911E+04  0.18830163911E+04  0.50400001928E-02 0. -1.
    10030    2    1    2    0    0  0.00000000000E+00  0.00000000000E+00 -0.60867858186E+03  0.31573542003E+04  0.30981278105E+04 0.  0.
        3    1    3    3  502    0  0.11128555239E+04 -0.48248920870E+03  0.67759218857E+03  0.13893791555E+04  0.10100000352E+00 0.  1.
       -3    1    3    3    0  502 -0.11128555239E+04  0.48248920870E+03 -0.12862707704E+04  0.17679750447E+04  0.10100000352E+00 0. -1.
</event>
<event>
 5   0  0.2094135E-06  0.3066988E+04  0.7818609E-02  0.8224857E-01
        2   -1    0    0  501    0  0.00000000000E+00  0.00000000000E+00  0.22846164221E+04  0.22846164221E+04  0.25500000920E-02 0.  1.
       -2   -1    0    0    0  501  0.00000000000E+00  0.00000000000E+00 -0.10293209538E+04  0.10293209538E+04  0.25500000920E-02 0. -1.
    10030    2    1    2    0    0  0.00000000000E+00  0.00000000000E+00  0.12552954683E+04  0.33139373760E+04  0.30669878088E+04 0.  0.
        4    1    3    3  502    0  0.11372880861E+04  0.37381715817E+03  0.16631648554E+04  0.20492150711E+04  0.12699999809E+01 0.  1.
       -4    1    3    3    0  502 -0.11372880861E+04 -0.37381715817E+03 -0.40786938713E+03  0.12647223048E+04  0.12699999809E+01 0. -1.
</event>
<event>
 5   0  0.7519202E-07  0.3027207E+04  0.7818609E-02  0.8236004E-01
        1   -1    0    0  501    0  0.00000000000E+00  0.00000000000E+00  0.15170986389E+04  0.15170986389E+04  0.50400001928E-02 0.  1.
       -1   -1    0    0    0  501  0.00000000000E+00  0.00000000000E+00 -0.15101168755E+04  0.15101168755E+04  0.50400001928E-02 0. -1.
    10030    2    1    2    0    0  0.00000000000E+00  0.00000000000E+00  0.69817634349E+01  0.30272155144E+04  0.30272074633E+04 0.  0.
        4    1    3    3  502    0  0.33121889838E+03  0.13777136420E+04 -0.52867010143E+03  0.15123804174E+04  0.12699999809E+01 0. -1.
       -4    1    3    3    0  502 -0.33121889838E+03 -0.13777136420E+04  0.53565186487E+03  0.15148350970E+04  0.12699999809E+01 0.  1.
</event>
<event>
 5   0  0.2067926E-06  0.3100466E+04  0.7818609E-02  0.8215610E-01
        2   -1    0    0  501    0  0.00000000000E+00  0.00000000000E+00  0.16613747338E+04  0.16613747338E+04  0.25500000920E-02 0.  1.
       -2   -1    0    0    0  501  0.00000000000E+00  0.00000000000E+00 -0.14465261198E+04  0.14465261198E+04  0.25500000920E-02 0. -1.
    10030    2    1    2    0    0  0.00000000000E+00  0.00000000000E+00  0.21484861398E+03  0.31079008535E+04  0.31004657373E+04 0.  0.
        1    1    3    3  502    0 -0.45757217846E+03  0.12848023820E+04  0.84616684971E+03  0.16050195628E+04  0.50400001928E-02 0. -1.
       -1    1    3    3    0  502  0.45757217846E+03 -0.12848023820E+04 -0.63131823573E+03  0.15028812908E+04  0.50400001928E-02 0.  1.
</event>
<event>
 5   0  0.7413481E-07  0.3246974E+04  0.7818609E-02  0.8176521E-01
       -1   -1    0    0    0  501  0.00000000000E+00  0.00000000000E+00  0.15823781509E+04  0.15823781509E+04  0.50400001928E-02 0. -1.
        1   -1    0    0  501    0  0.00000000000E+00  0.00000000000E+00 -0.16656634564E+04  0.16656634564E+04  0.50400001928E-02 0.  1.
    10030    2    1    2    0    0  0.00000000000E+00  0.00000000000E+00 -0.83285305509E+02  0.32480416073E+04  0.32469736434E+04 0.  0.
        5    1    3    3  502    0 -0.18727171019E+03  0.56012363030E+03 -0.15543828154E+04  0.16628100317E+04  0.46999998093E+01 0.  1.
       -5    1    3    3    0  502  0.18727171019E+03 -0.56012363030E+03  0.14710975099E+04  0.15852315756E+04  0.46999998093E+01 0. -1.
</event>
<event>
 5   0  0.2078009E-06  0.3105776E+04  0.7818609E-02  0.8214154E-01
        2   -1    0    0  501    0  0.00000000000E+00  0.00000000000E+00  0.21452606933E+04  0.21452606933E+04  0.25500000920E-02 0. -1.
       -2   -1    0    0    0  501  0.00000000000E+00  0.00000000000E+00 -0.11240879610E+04  0.11240879610E+04  0.25500000920E-02 0.  1.
    10030    2    1    2    0    0  0.00000000000E+00  0.00000000000E+00  0.10211727323E+04  0.32693486543E+04  0.31057763722E+04 0.  0.
        3    1    3    3  502    0 -0.36584303168E+02  0.55518397730E+03 -0.10155609816E+04  0.11579860869E+04  0.10100000352E+00 0.  1.
       -3    1    3    3    0  502  0.36584303168E+02 -0.55518397730E+03  0.20367337139E+04  0.21113625675E+04  0.10100000352E+00 0. -1.
</event>
<event>
 5   0  0.2067926E-06  0.3129155E+04  0.7818609E-02  0.8207782E-01
        2   -1    0    0  501    0  0.00000000000E+00  0.00000000000E+00  0.21416544350E+04  0.21416544350E+04  0.25500000920E-02 0. -1.
       -2   -1    0    0    0  501  0.00000000000E+00  0.00000000000E+00 -0.11429964486E+04  0.11429964486E+04  0.25500000920E-02 0.  1.
    10030    2    1    2    0    0  0.00000000000E+00  0.00000000000E+00  0.99865798646E+03  0.32846508836E+04  0.31291554217E+04 0.  0.
        1    1    3    3  502    0 -0.72582954184E+03 -0.12394955091E+04  0.11504140410E+04  0.18402798990E+04  0.50400001928E-02 0. -1.
       -1    1    3    3    0  502  0.72582954184E+03  0.12394955091E+04 -0.15175605456E+03  0.14443709846E+04  0.50400001928E-02 0.  1.
</event>
<event>
 5   0  0.7413481E-07  0.3125145E+04  0.7818609E-02  0.8208871E-01
       -1   -1    0    0    0  501  0.00000000000E+00  0.00000000000E+00  0.15589573793E+04  0.15589573794E+04  0.50400001928E-02 0.  1.
        1   -1    0    0  501    0  0.00000000000E+00  0.00000000000E+00 -0.15661957569E+04  0.15661957569E+04  0.50400001928E-02 0. -1.
    10030    2    1    2    0    0  0.00000000000E+00  0.00000000000E+00 -0.72383775272E+01  0.31251531362E+04  0.31251447536E+04 0.  0.
        5    1    3    3  502    0  0.74279596824E+03 -0.12840067525E+04  0.48749428658E+03  0.15614390671E+04  0.46999998093E+01 0. -1.
       -5    1    3    3    0  502 -0.74279596824E+03  0.12840067525E+04 -0.49473266410E+03  0.15637140691E+04  0.46999998093E+01 0.  1.
</event>
<event>
 5   0  0.7656332E-07  0.3157140E+04  0.7818609E-02  0.8200229E-01
       -1   -1    0    0    0  501  0.00000000000E+00  0.00000000000E+00  0.18213651670E+04  0.18213651670E+04  0.50400001928E-02 0. -1.
        1   -1    0    0  501    0  0.00000000000E+00  0.00000000000E+00 -0.13681406731E+04  0.13681406731E+04  0.50400001928E-02 0.  1.
    10030    2    1    2    0    0  0.00000000000E+00  0.00000000000E+00  0.45322449397E+03  0.31895058401E+04  0.31571403298E+04 0.  0.
        2    1    3    3  502    0 -0.73281639050E+03 -0.13943609754E+04  0.33072881853E+03  0.16095477450E+04  0.25500000920E-02 0. -1.
       -2    1    3    3    0  502  0.73281639050E+03  0.13943609754E+04  0.12249567544E+03  0.15799580952E+04  0.25500000920E-02 0.  1.
</event>
<event>
 5   0  0.2133385E-06  0.3109042E+04  0.7818609E-02  0.8213261E-01
        2   -1    0    0  501    0  0.00000000000E+00  0.00000000000E+00  0.21573963152E+04  0.21573963152E+04  0.25500000920E-02 0.  1.
       -2   -1    0    0    0  501  0.00000000000E+00  0.00000000000E+00 -0.11201168663E+04  0.11201168663E+04  0.25500000920E-02 0. -1.
    10030    2    1    2    0    0  0.00000000000E+00  0.00000000000E+00  0.10372794489E+04  0.32775131815E+04  0.31090422963E+04 0.  0.
        2    1    3    3  502    0 -0.81187504294E+03 -0.86795546258E+02 -0.87586390265E+03  0.11974189443E+04  0.25500000920E-02 0. -1.
       -2    1    3    3    0  502  0.81187504294E+03  0.86795546258E+02  0.19131433515E+04  0.20800942372E+04  0.25500000920E-02 0.  1.
</event>
<event>
 5   0  0.2133385E-06  0.3111753E+04  0.7818609E-02  0.8212520E-01
        2   -1    0    0  501    0  0.00000000000E+00  0.00000000000E+00  0.16836450279E+04  0.16836450279E+04  0.25500000920E-02 0.  1.
       -2   -1    0    0    0  501  0.00000000000E+00  0.00000000000E+00 -0.14378040649E+04  0.14378040649E+04  0.25500000920E-02 0. -1.
    10030    2    1    2    0    0  0.00000000000E+00  0.00000000000E+00  0.24584096302E+03  0.31214490929E+04  0.31117529883E+04 0.  0.
        2    1    3    3  502    0  0.89525425484E+03 -0.10554037627E+04 -0.59020564223E+03  0.15045597307E+04  0.25500000920E-02 0.  1.
       -2    1    3    3    0  502 -0.89525425484E+03  0.10554037627E+04  0.83604660525E+03  0.16168893621E+04  0.25500000920E-02 0. -1.
</event>
<event>
 5   0  0.7561815E-07  0.3111323E+04  0.7818609E-02  0.8212637E-01
       -1   -1    0    0    0  501  0.00000000000E+00  0.00000000000E+00  0.13898101311E+04  0.13898101311E+04  0.50400001928E-02 0.  1.
        1   -1    0    0  501    0  0.00000000000E+00  0.00000000000E+00 -0.17413047416E+04  0.17413047416E+04  0.50400001928E-02 0. -1.
    10030    2    1    2    0    0  0.00000000000E+00  0.00000000000E+00 -0.35149461049E+03  0.31311148728E+04  0.31113231728E+04 0.  0.
        3    1    3    3  502    0  0.17215781560E+03 -0.92648186575E+02  0.13773979730E+04  0.13912035028E+04  0.10100000352E+00 0.  1.
       -3    1    3    3    0  502 -0.17215781560E+03  0.92648186575E+02 -0.17288925835E+04  0.17399113700E+04  0.10100000352E+00 0. -1.
</event>
<event>
 5   0  0.7656332E-07  0.3125382E+04  0.7818609E-02  0.8208806E-01
       -1   -1    0    0    0  501  0.00000000000E+00  0.00000000000E+00  0.12689322609E+04  0.12689322609E+04  0.50400001928E-02 0.  1.
        1   -1    0    0  501    0  0.00000000000E+00  0.00000000000E+00 -0.19244547156E+04  0.19244547156E+04  0.50400001928E-02 0. -1.
    10030    2    1    2    0    0  0.00000000000E+00  0.00000000000E+00 -0.65552245474E+03  0.31933869765E+04  0.31253816876E+04 0.  0.
        2    1    3    3  502    0 -0.74707731975E+03  0.32267675751E+03  0.10353426295E+04  0.13168823683E+04  0.25500000920E-02 0.  1.
       -2    1    3    3    0  502  0.74707731975E+03 -0.32267675751E+03 -0.16908650842E+04  0.18765046082E+04  0.25500000920E-02 0. -1.
</event>
<event>
 5   0  0.2067926E-06  0.3158752E+04  0.7818609E-02  0.8199797E-01
       -2   -1    0    0    0  501  0.00000000000E+00  0.00000000000E+00  0.10739022096E+04  0.10739022096E+04  0.25500000920E-02 0. -1.
        2   -1    0    0  501    0  0.00000000000E+00  0.00000000000E+00 -0.23227700111E+04  0.23227700111E+04  0.25500000920E-02 0.  1.
    10030    2    1    2    0    0  0.00000000000E+00  0.00000000000E+00 -0.12488678015E+04  0.33966722207E+04  0.31587515555E+04 0.  0.
        1    1    3    3  502    0  0.49387662546E+03  0.82618073786E+02 -0.22351514901E+04  0.22905549658E+04  0.50400001928E-02 0.  1.
       -1    1    3    3    0  502 -0.49387662546E+03 -0.82618073786E+02  0.98628368862E+03  0.11061172550E+04  0.50400001928E-02 0. -1.
</event>
<event>
 5   0  0.7519202E-07  0.3068849E+04  0.7818609E-02  0.8224339E-01
       -1   -1    0    0    0  501  0.00000000000E+00  0.00000000000E+00  0.93789147113E+03  0.93789147115E+03  0.50400001928E-02 0. -1.
        1   -1    0    0  501    0  0.00000000000E+00  0.00000000000E+00 -0.25103747909E+04  0.25103747909E+04  0.50400001928E-02 0.  1.
    10030    2    1    2    0    0  0.00000000000E+00  0.00000000000E+00 -0.15724833198E+04  0.34482662621E+04  0.30688493647E+04 0.  0.
        4    1    3    3  502    0 -0.65565774928E+03  0.12630548341E+04 -0.14309994789E+04  0.20181565152E+04  0.12699999809E+01 0.  1.
       -4    1    3    3    0  502  0.65565774928E+03 -0.12630548341E+04 -0.14148384087E+03  0.14301097469E+04  0.12699999809E+01 0. -1.
</event>
<event>
 5   0  0.2067926E-06  0.3099471E+04  0.7818609E-02  0.8215883E-01
       -2   -1    0    0    0  501  0.00000000000E+00  0.00000000000E+00  0.10119956340E+04  0.10119956340E+04  0.25500000920E-02 0. -1.
        2   -1    0    0  501    0  0.00000000000E+00  0.00000000000E+00 -0.23732126479E+04  0.23732126479E+04  0.25500000920E-02 0.  1.
    10030    2    1    2    0    0  0.00000000000E+00  0.00000000000E+00 -0.13612170139E+04  0.33852082818E+04  0.30994714634E+04 0.  0.
        1    1    3    3  502    0 -0.67263090934E+03  0.91382259281E+03 -0.18334638099E+04  0.21561756917E+04  0.50400001928E-02 0.  1.
       -1    1    3    3    0  502  0.67263090934E+03 -0.91382259281E+03  0.47224679595E+03  0.12290325901E+04  0.50400001928E-02 0. -1.
</event>
<event>
 5   0  0.7726743E-07  0.3137286E+04  0.7818609E-02  0.8205579E-01
       -1   -1    0    0    0  501  0.00000000000E+00  0.00000000000E+00  0.15969162989E+04  0.15969162989E+04  0.50400001928E-02 0.  1.
        1   -1    0    0  501    0  0.00000000000E+00  0.00000000000E+00 -0.15408701009E+04  0.15408701009E+04  0.50400001928E-02 0. -1.
    10030    2    1    2    0    0  0.00000000000E+00  0.00000000000E+00  0.56046197918E+02  0.31377863998E+04  0.31372858197E+04 0.  0.
        1    1    3    3  502    0  0.12815498926E+04 -0.37159635460E+03 -0.79684275482E+03  0.15541596939E+04  0.50400001928E-02 0. -1.
       -1    1    3    3    0  502 -0.12815498926E+04  0.37159635460E+03  0.85288895274E+03  0.15836267060E+04  0.50400001928E-02 0.  1.
</event>
<event>
 5   0  0.2094135E-06  0.3091682E+04  0.7818609E-02  0.8218024E-01
        2   -1    0    0  501    0  0.00000000000E+00  0.00000000000E+00  0.18614018596E+04  0.18614018596E+04  0.25500000920E-02 0.  1.
       -2   -1    0    0    0  501  0.00000000000E+00  0.00000000000E+00 -0.12837769969E+04  0.12837769969E+04  0.25500000920E-02 0. -1.
    10030    2    1    2    0    0  0.00000000000E+00  0.00000000000E+00  0.57762486275E+03  0.31451788565E+04  0.30916823183E+04 0.  0.
        4    1    3    3  502    0 -0.12485807698E+04  0.45646435055E+03  0.10913285197E+04  0.17199747652E+04  0.12699999809E+01 0.  1.
       -4    1    3    3    0  502  0.12485807698E+04 -0.45646435055E+03 -0.51370365696E+03  0.14252040914E+04  0.12699999809E+01 0. -1.
</event>
<event>
 5   0  0.6979625E-07  0.3078205E+04  0.7818609E-02  0.8221745E-01
       -3   -1    0    0    0  501  0.00000000000E+00  0.00000000000E+00  0.99646770265E+03  0.99646770777E+03  0.10100000352E+00 0.  1.
        3   -1    0    0  501    0  0.00000000000E+00  0.00000000000E+00 -0.23772337521E+04  0.23772337542E+04  0.10100000352E+00 0. -1.
    10030    2    1    2    0    0  0.00000000000E+00  0.00000000000E+00 -0.13807660494E+04  0.33737014620E+04  0.30782051055E+04 0.  0.
        4    1    3    3  502    0  0.12203440204E+04 -0.47188346849E+02  0.33621443468E+03  0.12666917648E+04  0.12699999809E+01 0.  1.
       -4    1    3    3    0  502 -0.12203440204E+04  0.47188346849E+02 -0.17169804841E+04  0.21070096972E+04  0.12699999809E+01 0. -1.
</event>
<event>
 5   0  0.2078009E-06  0.3101324E+04  0.7818609E-02  0.8215375E-01
       -2   -1    0    0    0  501  0.00000000000E+00  0.00000000000E+00  0.12088487846E+04  0.12088487846E+04  0.25500000920E-02 0.  1.
        2   -1    0    0  501    0  0.00000000000E+00  0.00000000000E+00 -0.19891258357E+04  0.19891258357E+04  0.25500000920E-02 0. -1.
    10030    2    1    2    0    0  0.00000000000E+00  0.00000000000E+00 -0.78027705112E+03  0.31979746202E+04  0.31013238133E+04 0.  0.
        3    1    3    3  502    0 -0.47170020599E+03  0.88170933337E+03  0.83197176263E+03  0.13008033890E+04  0.10100000352E+00 0.  1.
       -3    1    3    3    0  502  0.47170020599E+03 -0.88170933337E+03 -0.16122488137E+04  0.18971712312E+04  0.10100000352E+00 0. -1.
</event>
<event>
 5   0  0.2133385E-06  0.3033932E+04  0.7818609E-02  0.8234107E-01
       -2   -1    0    0    0  501  0.00000000000E+00  0.00000000000E+00  0.10197267435E+04  0.10197267435E+04  0.25500000920E-02 0. -1.
        2   -1    0    0  501    0  0.00000000000E+00  0.00000000000E+00 -0.22566696204E+04  0.22566696204E+04  0.25500000920E-02 0.  1.
    10030    2    1    2    0    0  0.00000000000E+00  0.00000000000E+00 -0.12369428769E+04  0.32763963639E+04  0.30339323415E+04 0.  0.
        2    1    3    3  502    0  0.62420627156E+03 -0.93908345821E+03  0.47735218869E+03  0.12244902299E+04  0.25500000920E-02 0. -1.
       -2    1    3    3    0  502 -0.62420627156E+03  0.93908345821E+03 -0.17142950656E+04  0.20519061340E+04  0.25500000920E-02 0.  1.
</event>
<event>
 5   0  0.2067926E-06  0.3083190E+04  0.7818609E-02  0.8220367E-01
       -2   -1    0    0    0  501  0.00000000000E+00  0.00000000000E+00  0.19814642354E+04  0.19814642355E+04  0.25500000920E-02 0.  1.
        2   -1    0    0  501    0  0.00000000000E+00  0.00000000000E+00 -0.11993730308E+04  0.11993730308E+04  0.25500000920E-02 0. -1.
    10030    2    1    2    0    0  0.00000000000E+00  0.00000000000E+00  0.78209120470E+03  0.31808372662E+04  0.30831897544E+04 0.  0.
        1    1    3    3  502    0 -0.21735472169E+03 -0.10060115672E+04  0.15750930467E+04  0.18815473563E+04  0.50400001928E-02 0.  1.
       -1    1    3    3    0  502  0.21735472169E+03  0.10060115672E+04 -0.79300184198E+03  0.12992899099E+04  0.50400001928E-02 0. -1.
</event>
<event>
 5   0  0.7519202E-07  0.3106011E+04  0.7818609E-02  0.8214090E-01
        1   -1    0    0  501    0  0.00000000000E+00  0.00000000000E+00  0.11620255888E+04  0.11620255888E+04  0.50400001928E-02 0.  1.
       -1   -1    0    0    0  501  0.00000000000E+00  0.00000000000E+00 -0.20755356553E+04  0.20755356553E+04  0.50400001928E-02 0. -1.
    10030    2    1    2    0    0  0.00000000000E+00  0.00000000000E+00 -0.91351006652E+03  0.32375612442E+04  0.31060106516E+04 0.  0.
        4    1    3    3  502    0 -0.11397902262E+04 -0.56924776224E+03 -0.13824325730E+04  0.18799697355E+04  0.12699999809E+01 0. -1.
       -4    1    3    3    0  502  0.11397902262E+04  0.56924776224E+03  0.46892250646E+03  0.13575915087E+04  0.12699999809E+01 0.  1.
</event>
<event>
 5   0  0.2133385E-06  0.3098319E+04  0.7818609E-02  0.8216199E-01
       -2   -1    0    0    0  501  0.00000000000E+00  0.00000000000E+00  0.93200262224E+03  0.93200262224E+03  0.25500000920E-02 0.  1.
        2   -1    0    0  501    0  0.00000000000E+00  0.00000000000E+00 -0.25749870907E+04  0.25749870907E+04  0.25500000920E-02 0. -1.
    10030    2    1    2    0    0  0.00000000000E+00  0.00000000000E+00 -0.16429844684E+04  0.35069897129E+04  0.30983187188E+04 0.  0.
        2    1    3    3  502    0  0.13883333894E+04  0.58263610344E+03 -0.12342254113E+04  0.19468556174E+04  0.25500000920E-02 0. -1.
       -2    1    3    3    0  502 -0.13883333894E+04 -0.58263610344E+03 -0.40875905717E+03  0.15601340955E+04  0.25500000920E-02 0.  1.
</event>
<event>
 5   0  0.7561815E-07  0.3041320E+04  0.7818609E-02  0.8232029E-01
       -1   -1    0    0    0  501  0.00000000000E+00  0.00000000000E+00  0.14181350480E+04  0.14181350480E+04  0.50400001928E-02 0.  1.
        1   -1    0    0  501    0  0.00000000000E+00  0.00000000000E+00 -0.16305965964E+04  0.16305965964E+04  0.50400001928E-02 0. -1.
    10030    2    1    2    0    0  0.00000000000E+00  0.00000000000E+00 -0.21246154833E+03  0.30487316444E+04  0.30413195705E+04 0.  0.
        3    1    3    3  502    0 -0.13451258130E+04 -0.70769535830E+03 -0.59105573035E+02  0.15210817374E+04  0.10100000352E+00 0.  1.
       -3    1    3    3    0  502  0.13451258130E+04  0.70769535830E+03 -0.15335597530E+03  0.15276499070E+04  0.10100000352E+00 0. -1.
</event>
<event>
 5   0  0.7519202E-07  0.3079606E+04  0.7818609E-02  0.8221357E-01
       -1   -1    0    0    0  501  0.00000000000E+00  0.00000000000E+00  0.19677722848E+04  0.19677722848E+04  0.50400001928E-02 0. -1.
        1   -1    0    0  501    0  0.00000000000E+00  0.00000000000E+00 -0.12049121366E+04  0.12049121366E+04  0.50400001928E-02 0.  1.
    10030    2    1    2    0    0  0.00000000000E+00  0.00000000000E+00  0.76286014828E+03  0.31726844214E+04  0.30796056293E+04 0.  0.
        4    1    3    3  502    0  0.59651347518E+02  0.14581929485E+04  0.88729655488E+03  0.17079759212E+04  0.12699999809E+01 0. -1.
       -4    1    3    3    0  502 -0.59651347518E+02 -0.14581929485E+04 -0.12443640660E+03  0.14647085002E+04  0.12699999809E+01 0.  1.
</event>
<event>
 5   0  0.7656332E-07  0.3108319E+04  0.7818609E-02  0.8213458E-01
       -1   -1    0    0    0  501  0.00000000000E+00  0.00000000000E+00  0.91197482484E+03  0.91197482486E+03  0.50400001928E-02 0. -1.
        1   -1    0    0  501    0  0.00000000000E+00  0.00000000000E+00 -0.26485512420E+04  0.26485512420E+04  0.50400001928E-02 0.  1.
    10030    2    1    2    0    0  0.00000000000E+00  0.00000000000E+00 -0.17365764171E+04  0.35605260668E+04  0.31083191953E+04 0.  0.
        2    1    3    3  502    0  0.93430620132E+03 -0.12022684257E+04 -0.51146598869E+03  0.16062300280E+04  0.25500000920E-02 0. -1.
       -2    1    3    3    0  502 -0.93430620132E+03  0.12022684257E+04 -0.12251104284E+04  0.19542960388E+04  0.25500000920E-02 0.  1.
</event>
<event>
 5   0  0.7413481E-07  0.3001997E+04  0.7818609E-02  0.8243161E-01
        1   -1    0    0  501    0  0.00000000000E+00  0.00000000000E+00  0.11931908961E+04  0.11931908962E+04  0.50400001928E-02 0.  1.
       -1   -1    0    0    0  501  0.00000000000E+00  0.00000000000E+00 -0.18882111633E+04  0.18882111633E+04  0.50400001928E-02 0. -1.
    10030    2    1    2    0    0  0.00000000000E+00  0.00000000000E+00 -0.69502026719E+03  0.30814020595E+04  0.30019969155E+04 0.  0.
        5    1    3    3  502    0  0.11324095232E+04 -0.13413252266E+03  0.65433496351E+03  0.13147316062E+04  0.46999998093E+01 0.  1.
       -5    1    3    3    0  502 -0.11324095232E+04  0.13413252266E+03 -0.13493552307E+04  0.17666704533E+04  0.46999998093E+01 0. -1.
</event>
<event>
 5   0  0.2067926E-06  0.3093101E+04  0.7818609E-02  0.8217634E-01
        2   -1    0    0  501    0  0.00000000000E+00  0.00000000000E+00  0.18457344740E+04  0.18457344740E+04  0.25500000920E-02 0.  1.
       -2   -1    0    0    0  501  0.00000000000E+00  0.00000000000E+00 -0.12958625756E+04  0.12958625756E+04  0.25500000920E-02 0. -1.
    10030    2    1    2    0    0  0.00000000000E+00  0.00000000000E+00  0.54987189840E+03  0.31415970497E+04  0.30931008580E+04 0.  0.
        1    1    3    3  502    0  0.13846701984E+04 -0.11733225310E+03 -0.41448467304E+03  0.14501296356E+04  0.50400001928E-02 0. -1.
       -1    1    3    3    0  502 -0.13846701984E+04  0.11733225310E+03  0.96435657144E+03  0.16914674141E+04  0.50400001928E-02 0.  1.
</event>
<event>
 5   0  0.2094135E-06  0.3087735E+04  0.7818609E-02  0.8219112E-01
        2   -1    0    0  501    0  0.00000000000E+00  0.00000000000E+00  0.22282907747E+04  0.22282907747E+04  0.25500000920E-02 0.  1.
       -2   -1    0    0    0  501  0.00000000000E+00  0.00000000000E+00 -0.10696663284E+04  0.10696663284E+04  0.25500000920E-02 0. -1.
    10030    2    1    2    0    0  0.00000000000E+00  0.00000000000E+00  0.11586244463E+04  0.32979571032E+04  0.30877354885E+04 0.  0.
        4    1    3    3  502    0 -0.11414690357E+04 -0.10080089550E+04  0.30806885097E+03  0.15536864686E+04  0.12699999809E+01 0. -1.
       -4    1    3    3    0  502  0.11414690357E+04  0.10080089550E+04  0.85055559530E+03  0.17442706345E+04  0.12699999809E+01 0.  1.
</event>
<event>
 5   0  0.2078009E-06  0.3081961E+04  0.7818609E-02  0.8220706E-01
       -2   -1    0    0    0  501  0.00000000000E+00  0.00000000000E+00  0.12660896676E+04  0.12660896676E+04  0.25500000920E-02 0. -1.
        2   -1    0    0  501    0  0.00000000000E+00  0.00000000000E+00 -0.18755547721E+04  0.18755547721E+04  0.25500000920E-02 0.  1.
    10030    2    1    2    0    0  0.00000000000E+00  0.00000000000E+00 -0.60946510450E+03  0.31416444396E+04  0.30819607511E+04 0.  0.
        3    1    3    3  502    0  0.84759867750E+03  0.35876744508E+03  0.95511532287E+03  0.13264173129E+04  0.10100000352E+00 0. -1.
       -3    1    3    3    0  502 -0.84759867750E+03 -0.35876744508E+03 -0.15645804274E+04  0.18152271267E+04  0.10100000352E+00 0.  1.
</event>
<event>
 5   0  0.7656332E-07  0.3100629E+04  0.7818609E-02  0.8215565E-01
       -1   -1    0    0    0  501  0.00000000000E+00  0.00000000000E+00  0.28131407511E+04  0.28131407511E+04  0.50400001928E-02 0. -1.
        1   -1    0    0  501    0  0.00000000000E+00  0.00000000000E+00 -0.85437430148E+03  0.85437430149E+03  0.50400001928E-02 0.  1.
    10030    2    1    2    0    0  0.00000000000E+00  0.00000000000E+00  0.19587664496E+04  0.36675150526E+04  0.31006290744E+04 0.  0.
        2    1    3    3  502    0  0.55817125852E+03 -0.80044481040E+02  0.26875431521E+04  0.27460609002E+04  0.25500000920E-02 0. -1.
       -2    1    3    3    0  502 -0.55817125852E+03  0.80044481040E+02 -0.72877670255E+03  0.92145415240E+03  0.25500000920E-02 0.  1.
</event>
<event>
 5   0  0.7656332E-07  0.3106929E+04  0.7818609E-02  0.8213839E-01
       -1   -1    0    0    0  501  0.00000000000E+00  0.00000000000E+00  0.13533639436E+04  0.13533639436E+04  0.50400001928E-02 0. -1.
        1   -1    0    0  501    0  0.00000000000E+00  0.00000000000E+00 -0.17831504107E+04  0.17831504107E+04  0.50400001928E-02 0.  1.
    10030    2    1    2    0    0  0.00000000000E+00  0.00000000000E+00 -0.42978646715E+03  0.31365143543E+04  0.31069286904E+04 0.  0.
        2    1    3    3  502    0  0.58463685836E+03  0.14337477836E+04 -0.87923922961E+02  0.15508589812E+04  0.25500000920E-02 0. -1.
       -2    1    3    3    0  502 -0.58463685836E+03 -0.14337477836E+04 -0.34186254418E+03  0.15856553731E+04  0.25500000920E-02 0.  1.
</event>
<event>
 5   0  0.6979625E-07  0.3095702E+04  0.7818609E-02  0.8216918E-01
       -3   -1    0    0    0  501  0.00000000000E+00  0.00000000000E+00  0.11280543016E+04  0.11280543061E+04  0.10100000352E+00 0. -1.
        3   -1    0    0  501    0  0.00000000000E+00  0.00000000000E+00 -0.21238723461E+04  0.21238723485E+04  0.10100000352E+00 0.  1.
    10030    2    1    2    0    0  0.00000000000E+00  0.00000000000E+00 -0.99581804452E+03  0.32519266546E+04  0.30957024064E+04 0.  0.
        5    1    3    3  502    0 -0.23002136221E+03 -0.34388866721E+03 -0.20647054786E+04  0.21057540327E+04  0.46999998093E+01 0.  1.
       -5    1    3    3    0  502  0.23002136221E+03  0.34388866721E+03  0.10688874341E+04  0.11461726220E+04  0.46999998093E+01 0. -1.
</event>
<event>
 5   0  0.6979625E-07  0.3103890E+04  0.7818609E-02  0.8214671E-01
        3   -1    0    0  501    0  0.00000000000E+00  0.00000000000E+00  0.16189517185E+04  0.16189517217E+04  0.10100000352E+00 0.  1.
       -3   -1    0    0    0  501  0.00000000000E+00  0.00000000000E+00 -0.14877118550E+04  0.14877118584E+04  0.10100000352E+00 0. -1.
    10030    2    1    2    0    0  0.00000000000E+00  0.00000000000E+00  0.13123986350E+03  0.31066635801E+04  0.31038902523E+04 0.  0.
        1    1    3    3  502    0 -0.32351472081E+03 -0.14858072863E+04  0.37613672873E+03  0.15664494582E+04  0.50400001928E-02 0.  1.
       -1    1    3    3    0  502  0.32351472081E+03  0.14858072863E+04 -0.24489686523E+03  0.15402141218E+04  0.50400001928E-02 0. -1.
</event>
<event>
 5   0  0.7519202E-07  0.3089671E+04  0.7818609E-02  0.8218578E-01
       -1   -1    0    0    0  501  0.00000000000E+00  0.00000000000E+00  0.19277646900E+04  0.19277646900E+04  0.50400001928E-02 0. -1.
        1   -1    0    0  501    0  0.00000000000E+00  0.00000000000E+00 -0.12379708373E+04  0.12379708373E+04  0.50400001928E-02 0.  1.
    10030    2    1    2    0    0  0.00000000000E+00  0.00000000000E+00  0.68979385267E+03  0.31657355273E+04  0.30896708352E+04 0.  0.
        4    1    3    3  502    0  0.33122455083E+03  0.24830245417E+03  0.18698767191E+04  0.19151512654E+04  0.12699999809E+01 0. -1.
       -4    1    3    3    0  502 -0.33122455083E+03 -0.24830245417E+03 -0.11800828664E+04  0.12505842620E+04  0.12699999809E+01 0.  1.
</event>
<event>
 5   0  0.7726743E-07  0.3134317E+04  0.7818609E-02  0.8206383E-01
       -1   -1    0    0    0  501  0.00000000000E+00  0.00000000000E+00  0.14784074747E+04  0.14784074747E+04  0.50400001928E-02 0.  1.
        1   -1    0    0  501    0  0.00000000000E+00  0.00000000000E+00 -0.16612373687E+04  0.16612373687E+04  0.50400001928E-02 0. -1.
    10030    2    1    2    0    0  0.00000000000E+00  0.00000000000E+00 -0.18282989401E+03  0.31396448433E+04  0.31343169865E+04 0.  0.
        1    1    3    3  502    0  0.61482515117E+03 -0.84521212525E+03 -0.12611294310E+04  0.16379380162E+04  0.50400001928E-02 0. -1.
       -1    1    3    3    0  502 -0.61482515117E+03  0.84521212525E+03  0.10782995370E+04  0.15017068271E+04  0.50400001928E-02 0.  1.
</event>
<event>
 5   0  0.2094135E-06  0.3074513E+04  0.7818609E-02  0.8222768E-01
       -2   -1    0    0    0  501  0.00000000000E+00  0.00000000000E+00  0.13047365122E+04  0.13047365122E+04  0.25500000920E-02 0.  1.
        2   -1    0    0  501    0  0.00000000000E+00  0.00000000000E+00 -0.18112143916E+04  0.18112143916E+04  0.25500000920E-02 0. -1.
    10030    2    1    2    0    0  0.00000000000E+00  0.00000000000E+00 -0.50647787939E+03  0.31159509039E+04  0.30745130009E+04 0.  0.
        4    1    3    3  502    0  0.75146448500E+03  0.24539217953E+03  0.10829538065E+04  0.13407858718E+04  0.12699999809E+01 0.  1.
       -4    1    3    3    0  502 -0.75146448500E+03 -0.24539217953E+03 -0.15894316859E+04  0.17751650321E+04  0.12699999809E+01 0. -1.
</event>
<event>
 5   0  0.2226334E-06  0.3076644E+04  0.7818609E-02  0.8222177E-01
        2   -1    0    0  501    0  0.00000000000E+00  0.00000000000E+00  0.26317211349E+04  0.26317211349E+04  0.25500000920E-02 0. -1.
       -2   -1    0    0    0  501  0.00000000000E+00  0.00000000000E+00 -0.89919634538E+03  0.89919634539E+03  0.25500000920E-02 0.  1.
    10030    2    1    2    0    0  0.00000000000E+00  0.00000000000E+00  0.17325247896E+04  0.35309174803E+04  0.30766436431E+04 0.  0.
        5    1    3    3  502    0 -0.77371429544E+03  0.10718665588E+04 -0.36583583580E+02  0.13224568724E+04  0.46999998093E+01 0.  1.
       -5    1    3    3    0  502  0.77371429544E+03 -0.10718665588E+04  0.17691083731E+04  0.22084606079E+04  0.46999998093E+01 0. -1.
</event>
<event>
 5   0  0.7413481E-07  0.3145805E+04  0.7818609E-02  0.8203278E-01
        1   -1    0    0  501    0  0.00000000000E+00  0.00000000000E+00  0.22557845834E+04  0.22557845834E+04  0.50400001928E-02 0.  1.
       -1   -1    0    0    0  501  0.00000000000E+00  0.00000000000E+00 -0.10967457167E+04  0.10967457167E+04  0.50400001928E-02 0. -1.
    10030    2    1    2    0    0  0.00000000000E+00  0.00000000000E+00  0.11590388668E+04  0.33525303001E+04  0.31458048761E+04 0.  0.
        5    1    3    3  502    0 -0.15652662113E+04  0.11418836729E+03  0.69079705701E+03  0.17147361195E+04  0.46999998093E+01 0. -1.
       -5    1    3    3    0  502  0.15652662113E+04 -0.11418836729E+03  0.46824180978E+03  0.16377941806E+04  0.46999998093E+01 0.  1.
</event>
<event>
 5   0  0.2067926E-06  0.3113117E+04  0.7818609E-02  0.8212147E-01
       -2   -1    0    0    0  501  0.00000000000E+00  0.00000000000E+00  0.14378899955E+04  0.14378899955E+04  0.25500000920E-02 0.  1.
        2   -1    0    0  501    0  0.00000000000E+00  0.00000000000E+00 -0.16850210601E+04  0.16850210601E+04  0.25500000920E-02 0. -1.
    10030    2    1    2    0    0  0.00000000000E+00  0.00000000000E+00 -0.24713106458E+03  0.31229110557E+04  0.31131173602E+04 0.  0.
        1    1    3    3  502    0  0.18494684776E+03 -0.45384257821E+02 -0.16732912381E+04  0.16840928225E+04  0.50400001928E-02 0. -1.
       -1    1    3    3    0  502 -0.18494684776E+03  0.45384257821E+02  0.14261601735E+04  0.14388182331E+04  0.50400001928E-02 0.  1.
</event>
<event>
 5   0  0.2133385E-06  0.3130186E+04  0.7818609E-02  0.8207502E-01
       -2   -1    0    0    0  501  0.00000000000E+00  0.00000000000E+00  0.14478626486E+04  0.14478626486E+04  0.25500000920E-02 0. -1.
        2   -1    0    0  501    0  0.00000000000E+00  0.00000000000E+00 -0.16918153527E+04  0.16918153527E+04  0.25500000920E-02 0.  1.
    10030    2    1    2    0    0  0.00000000000E+00  0.00000000000E+00 -0.24395270414E+03  0.31396780013E+04  0.31301861015E+04 0.  0.
        2    1    3    3  502    0 -0.54550488603E+03  0.14570147090E+04  0.48977605611E+02  0.15565558932E+04  0.25500000920E-02 0. -1.
       -2    1    3    3    0  502  0.54550488603E+03 -0.14570147090E+04 -0.29293030975E+03  0.15831221081E+04  0.25500000920E-02 0.  1.
</event>
<event>
 5   0  0.2133385E-06  0.3097360E+04  0.7818609E-02  0.8216463E-01
        2   -1    0    0  501    0  0.00000000000E+00  0.00000000000E+00  0.18853388255E+04  0.18853388255E+04  0.25500000920E-02 0. -1.
       -2   -1    0    0    0  501  0.00000000000E+00  0.00000000000E+00 -0.12721369607E+04  0.12721369607E+04  0.25500000920E-02 0.  1.
    10030    2    1    2    0    0  0.00000000000E+00  0.00000000000E+00  0.61320186477E+03  0.31574757862E+04  0.30973596520E+04 0.  0.
        2    1    3    3  502    0  0.39478764233E+03 -0.20353785098E+03  0.18190148762E+04  0.18724582930E+04  0.25500000920E-02 0. -1.
       -2    1    3    3    0  502 -0.39478764233E+03  0.20353785098E+03 -0.12058130114E+04  0.12850174932E+04  0.25500000920E-02 0.  1.
</event>
<event>
 5   0  0.7519202E-07  0.3050215E+04  0.7818609E-02  0.8229535E-01
       -1   -1    0    0    0  501  0.00000000000E+00  0.00000000000E+00  0.99170842723E+03  0.99170842725E+03  0.50400001928E-02 0. -1.
        1   -1    0    0  501    0  0.00000000000E+00  0.00000000000E+00 -0.23454000291E+04  0.23454000291E+04  0.50400001928E-02 0.  1.
    10030    2    1    2    0    0  0.00000000000E+00  0.00000000000E+00 -0.13536916019E+04  0.33371084564E+04  0.30502150574E+04 0.  0.
        4    1    3    3  502    0 -0.14140627392E+04  0.56410433722E+03 -0.57799108015E+03  0.16284540016E+04  0.12699999809E+01 0.  1.
       -4    1    3    3    0  502  0.14140627392E+04 -0.56410433722E+03 -0.77570052175E+03  0.17086544548E+04  0.12699999809E+01 0. -1.
</event>
<event>
 5   0  0.7726743E-07  0.3097886E+04  0.7818609E-02  0.8216318E-01
       -1   -1    0    0    0  501  0.00000000000E+00  0.00000000000E+00  0.12494254022E+04  0.12494254022E+04  0.50400001928E-02 0.  1.
        1   -1    0    0  501    0  0.00000000000E+00  0.00000000000E+00 -0.19202624196E+04  0.19202624196E+04  0.50400001928E-02 0. -1.
    10030    2    1    2    0    0  0.00000000000E+00  0.00000000000E+00 -0.67083701737E+03  0.31696878218E+04  0.30978861476E+04 0.  0.
        1    1    3    3  502    0  0.13196415242E+04  0.79064619599E+03 -0.52029820340E+03  0.16239720995E+04  0.50400001928E-02 0.  1.
       -1    1    3    3    0  502 -0.13196415242E+04 -0.79064619599E+03 -0.15053881397E+03  0.15457157223E+04  0.50400001928E-02 0. -1.
</event>
<event>
 5   0  0.2226334E-06  0.3098141E+04  0.7818609E-02  0.8216248E-01
       -2   -1    0    0    0  501  0.00000000000E+00  0.00000000000E+00  0.17139455221E+04  0.17139455221E+04  0.25500000920E-02 0.  1.
        2   -1    0    0  501    0  0.00000000000E+00  0.00000000000E+00 -0.14000560748E+04  0.14000560748E+04  0.25500000920E-02 0. -1.
    10030    2    1    2    0    0  0.00000000000E+00  0.00000000000E+00  0.31388944738E+03  0.31140015969E+04  0.30981412751E+04 0.  0.
        5    1    3    3  502    0 -0.99559466278E+03  0.10470446562E+04 -0.40456219054E+03  0.15004012465E+04  0.46999998093E+01 0. -1.
       -5    1    3    3    0  502  0.99559466278E+03 -0.10470446562E+04  0.71845163792E+03  0.16136003503E+04  0.46999998093E+01 0.  1.
</event>
<event>
 5   0  0.7413481E-07  0.3120684E+04  0.7818609E-02  0.8210084E-01
       -1   -1    0    0    0  501  0.00000000000E+00  0.00000000000E+00  0.93530093146E+03  0.93530093148E+03  0.50400001928E-02 0.  1.
        1   -1    0    0  501    0  0.00000000000E+00  0.00000000000E+00 -0.26030840530E+04  0.26030840530E+04  0.50400001928E-02 0. -1.
    10030    2    1    2    0    0  0.00000000000E+00  0.00000000000E+00 -0.16677831215E+04  0.35383849845E+04  0.31206838606E+04 0.  0.
        5    1    3    3  502    0 -0.55909315962E+03 -0.35500124796E+03  0.76802265092E+03  0.10141459114E+04  0.46999998093E+01 0.  1.
       -5    1    3    3    0  502  0.55909315962E+03  0.35500124796E+03 -0.24358057724E+04  0.25242390731E+04  0.46999998093E+01 0. -1.
</event>
<event>
 5   0  0.2133385E-06  0.2958620E+04  0.7818609E-02  0.8255647E-01
       -2   -1    0    0    0  501  0.00000000000E+00  0.00000000000E+00  0.10245599390E+04  0.10245599390E+04  0.25500000920E-02 0. -1.
        2   -1    0    0  501    0  0.00000000000E+00  0.00000000000E+00 -0.21359007629E+04  0.21359007629E+04  0.25500000920E-02 0.  1.
    10030    2    1    2    0    0  0.00000000000E+00  0.00000000000E+00 -0.11113408239E+04  0.31604607019E+04  0.29586201887E+04 0.  0.
        2    1    3    3  502    0 -0.16972244277E+03 -0.71474803327E+03 -0.19272796546E+04  0.20625414725E+04  0.25500000920E-02 0.  1.
       -2    1    3    3    0  502  0.16972244277E+03  0.71474803327E+03  0.81593883077E+03  0.10979192294E+04  0.25500000920E-02 0. -1.
</event>
<event>
 5   0  0.2094135E-06  0.3098956E+04  0.7818609E-02  0.8216024E-01
       -2   -1    0    0    0  501  0.00000000000E+00  0.00000000000E+00  0.12022676442E+04  0.12022676442E+04  0.25500000920E-02 0.  1.
        2   -1    0    0  501    0  0.00000000000E+00  0.00000000000E+00 -0.19969616814E+04  0.19969616814E+04  0.25500000920E-02 0. -1.
    10030    2    1    2    0    0  0.00000000000E+00  0.00000000000E+00 -0.79469403721E+03  0.31992293255E+04  0.30989562218E+04 0.  0.
        4    1    3    3  502    0  0.36235529466E+03  0.12882236585E+04 -0.12036828125E+04  0.17999098533E+04  0.12699999809E+01 0.  1.
       -4    1    3    3    0  502 -0.36235529466E+03 -0.12882236585E+04  0.40898877533E+03  0.13993194722E+04  0.12699999809E+01 0. -1.
</event>
<event>
 5   0  0.7519202E-07  0.3114000E+04  0.7818609E-02  0.8211906E-01
        1   -1    0    0  501    0  0.00000000000E+00  0.00000000000E+00  0.24181332845E+04  0.24181332845E+04  0.50400001928E-02 0. -1.
       -1   -1    0    0    0  501  0.00000000000E+00  0.00000000000E+00 -0.10025290968E+04  0.10025290968E+04  0.50400001928E-02 0.  1.
    10030    2    1    2    0    0  0.00000000000E+00  0.00000000000E+00  0.14156041878E+04  0.34206623813E+04  0.31139999856E+04 0.  0.
        4    1    3    3  502    0  0.13767956816E+04  0.10348020608E+03 -0.82776605412E+02  0.13831587332E+04  0.12699999809E+01 0.  1.
       -4    1    3    3    0  502 -0.13767956816E+04 -0.10348020608E+03  0.14983807932E+04  0.20375036481E+04  0.12699999809E+01 0. -1.
</event>
<event>
 5   0  0.2226334E-06  0.3099950E+04  0.7818609E-02  0.8215752E-01
        2   -1    0    0  501    0  0.00000000000E+00  0.00000000000E+00  0.16047273093E+04  0.16047273093E+04  0.25500000920E-02 0. -1.
       -2   -1    0    0    0  501  0.00000000000E+00  0.00000000000E+00 -0.14970912020E+04  0.14970912020E+04  0.25500000920E-02 0.  1.
    10030    2    1    2    0    0  0.00000000000E+00  0.00000000000E+00  0.10763610736E+03  0.31018185113E+04  0.30999504101E+04 0.  0.
        5    1    3    3  502    0  0.12832226348E+04 -0.84656774350E+03 -0.14394662257E+03  0.15440466298E+04  0.46999998093E+01 0. -1.
       -5    1    3    3    0  502 -0.12832226348E+04  0.84656774350E+03  0.25158272993E+03  0.15577718815E+04  0.46999998093E+01 0.  1.
</event>
<event>
 5   0  0.2078009E-06  0.3154113E+04  0.7818609E-02  0.8201042E-01
        2   -1    0    0  501    0  0.00000000000E+00  0.00000000000E+00  0.22402943910E+04  0.22402943910E+04  0.25500000920E-02 0. -1.
       -2   -1    0    0    0  501  0.00000000000E+00  0.00000000000E+00 -0.11101696515E+04  0.11101696515E+04  0.25500000920E-02 0.  1.
    10030    2    1    2    0    0  0.00000000000E+00  0.00000000000E+00  0.11301247395E+04  0.33504640426E+04  0.31541127712E+04 0.  0.
        3    1    3    3  502    0 -0.10944825024E+04  0.45253105688E+03  0.16712495267E+04  0.20483533133E+04  0.10100000352E+00 0. -1.
       -3    1    3    3    0  502  0.10944825024E+04 -0.45253105688E+03 -0.54112478724E+03  0.13021107292E+04  0.10100000352E+00 0.  1.
</event>
<event>
 5   0  0.2094135E-06  0.3169481E+04  0.7818609E-02  0.8196924E-01
       -2   -1    0    0    0  501  0.00000000000E+00  0.00000000000E+00  0.21226517946E+04  0.21226517946E+04  0.25500000920E-02 0.  1.
        2   -1    0    0  501    0  0.00000000000E+00  0.00000000000E+00 -0.11831438133E+04  0.11831438133E+04  0.25500000920E-02 0. -1.
    10030    2    1    2    0    0  0.00000000000E+00  0.00000000000E+00  0.93950798134E+03  0.33057956079E+04  0.31694809282E+04 0.  0.
        4    1    3    3  502    0 -0.32893357014E+03 -0.10985706095E+04 -0.67106374720E+03  0.13286771027E+04  0.12699999809E+01 0. -1.
       -4    1    3    3    0  502  0.32893357014E+03  0.10985706095E+04  0.16105717285E+04  0.19771185051E+04  0.12699999809E+01 0.  1.
</event>
<event>
 5   0  0.7656332E-07  0.3096041E+04  0.7818609E-02  0.8216825E-01
        1   -1    0    0  501    0  0.00000000000E+00  0.00000000000E+00  0.13748036195E+04  0.13748036195E+04  0.50400001928E-02 0. -1.
       -1   -1    0    0    0  501  0.00000000000E+00  0.00000000000E+00 -0.17430619294E+04  0.17430619295E+04  0.50400001928E-02 0.  1.
    10030    2    1    2    0    0  0.00000000000E+00  0.00000000000E+00 -0.36825830994E+03  0.31178655490E+04  0.30960412463E+04 0.  0.
        2    1    3    3  502    0  0.14917234268E+04  0.15515951255E+03 -0.57030930122E+03  0.16045454046E+04  0.25500000920E-02 0. -1.
       -2    1    3    3    0  502 -0.14917234268E+04 -0.15515951255E+03  0.20205099128E+03  0.15133201444E+04  0.25500000920E-02 0.  1.
</event>
<event>
 5   0  0.2078009E-06  0.3081762E+04  0.7818609E-02  0.8220761E-01
       -2   -1    0    0    0  501  0.00000000000E+00  0.00000000000E+00  0.11049925629E+04  0.11049925629E+04  0.25500000920E-02 0.  1.
        2   -1    0    0  501    0  0.00000000000E+00  0.00000000000E+00 -0.21487148698E+04  0.21487148698E+04  0.25500000920E-02 0. -1.
    10030    2    1    2    0    0  0.00000000000E+00  0.00000000000E+00 -0.10437223069E+04  0.32537074327E+04  0.30817618019E+04 0.  0.
        3    1    3    3  502    0 -0.98256724908E+02  0.15225648682E+04 -0.29429938323E+03  0.15538565890E+04  0.10100000352E+00 0.  1.
       -3    1    3    3    0  502  0.98256724908E+02 -0.15225648682E+04 -0.74942292366E+03  0.16998508437E+04  0.10100000352E+00 0. -1.
</event>
<event>
 5   0  0.7413481E-07  0.3097879E+04  0.7818609E-02  0.8216320E-01
       -1   -1    0    0    0  501  0.00000000000E+00  0.00000000000E+00  0.11438554491E+04  0.11438554491E+04  0.50400001928E-02 0.  1.
        1   -1    0    0  501    0  0.00000000000E+00  0.00000000000E+00 -0.20974799049E+04  0.20974799049E+04  0.50400001928E-02 0. -1.
    10030    2    1    2    0    0  0.00000000000E+00  0.00000000000E+00 -0.95362445574E+03  0.32413353540E+04  0.30978791575E+04 0.  0.
        5    1    3    3  502    0 -0.28885886350E+03 -0.14043821944E+04 -0.10900083978E+04  0.18010744538E+04  0.46999998093E+01 0. -1.
       -5    1    3    3    0  502  0.28885886350E+03  0.14043821944E+04  0.13638394202E+03  0.14402609002E+04  0.46999998093E+01 0.  1.
</event>
<event>
 5   0  0.2094135E-06  0.3095958E+04  0.7818609E-02  0.8216848E-01
       -2   -1    0    0    0  501  0.00000000000E+00  0.00000000000E+00  0.14469524875E+04  0.14469524875E+04  0.25500000920E-02 0. -1.
        2   -1    0    0  501    0  0.00000000000E+00  0.00000000000E+00 -0.16560592989E+04  0.16560592989E+04  0.25500000920E-02 0.  1.
    10030    2    1    2    0    0  0.00000000000E+00  0.00000000000E+00 -0.20910681134E+03  0.31030117864E+04  0.30959580888E+04 0.  0.
        4    1    3    3  502    0 -0.11138564196E+04 -0.46316045177E+03 -0.10768376920E+04  0.16170265166E+04  0.12699999809E+01 0.  1.
       -4    1    3    3    0  502  0.11138564196E+04  0.46316045177E+03  0.86773088071E+03  0.14859852697E+04  0.12699999809E+01 0. -1.
</event>
<event>
 5   0  0.7726743E-07  0.3102899E+04  0.7818609E-02  0.8214943E-01
       -1   -1    0    0    0  501  0.00000000000E+00  0.00000000000E+00  0.16124854230E+04  0.16124854230E+04  0.50400001928E-02 0.  1.
        1   -1    0    0  501    0  0.00000000000E+00  0.00000000000E+00 -0.14927240782E+04  0.14927240782E+04  0.50400001928E-02 0. -1.
    10030    2    1    2    0    0  0.00000000000E+00  0.00000000000E+00  0.11976134486E+03  0.31052095012E+04  0.31028991712E+04 0.  0.
        1    1    3    3  502    0 -0.56184930027E+03  0.11644441891E+04 -0.79830719790E+03  0.15195062645E+04  0.50400001928E-02 0. -1.
       -1    1    3    3    0  502  0.56184930027E+03 -0.11644441891E+04  0.91806854276E+03  0.15857032367E+04  0.50400001928E-02 0.  1.
</event>
<event>
 5   0  0.2226334E-06  0.3051585E+04  0.7818609E-02  0.8229152E-01
       -2   -1    0    0    0  501  0.00000000000E+00  0.00000000000E+00  0.82559308120E+03  0.82559308120E+03  0.25500000920E-02 0.  1.
        2   -1    0    0  501    0  0.00000000000E+00  0.00000000000E+00 -0.28198430853E+04  0.28198430853E+04  0.25500000920E-02 0. -1.
    10030    2    1    2    0    0  0.00000000000E+00  0.00000000000E+00 -0.19942500041E+04  0.36454361665E+04  0.30515851234E+04 0.  0.
        5    1    3    3  502    0 -0.10311053644E+04  0.10901452314E+04 -0.13273762298E+04  0.20033832992E+04  0.46999998093E+01 0. -1.
       -5    1    3    3    0  502  0.10311053644E+04 -0.10901452314E+04 -0.66687377429E+03  0.16420528673E+04  0.46999998093E+01 0.  1.
</event>
<event>
 5   0  0.7413481E-07  0.3093458E+04  0.7818609E-02  0.8217535E-01
        1   -1    0    0  501    0  0.00000000000E+00  0.00000000000E+00  0.25564437904E+04  0.25564437904E+04  0.50400001928E-02 0. -1.
       -1   -1    0    0    0  501  0.00000000000E+00  0.00000000000E+00 -0.93582004593E+03  0.93582004594E+03  0.50400001928E-02 0.  1.
    10030    2    1    2    0    0  0.00000000000E+00  0.00000000000E+00  0.16206237445E+04  0.34922638363E+04  0.30934584823E+04 0.  0.
        5    1    3    3  502    0 -0.39847682671E+03 -0.19802534477E+03  0.24826182524E+04  0.25221842312E+04  0.46999998093E+01 0. -1.
       -5    1    3    3    0  502  0.39847682671E+03  0.19802534477E+03 -0.86199450797E+03  0.97007960517E+03  0.46999998093E+01 0.  1.
</event>
<event>
 5   0  0.7413481E-07  0.3163147E+04  0.7818609E-02  0.8198618E-01
       -1   -1    0    0    0  501  0.00000000000E+00  0.00000000000E+00  0.19031778585E+04  0.19031778585E+04  0.50400001928E-02 0. -1.
        1   -1    0    0  501    0  0.00000000000E+00  0.00000000000E+00 -0.13143149008E+04  0.13143149008E+04  0.50400001928E-02 0.  1.
    10030    2    1    2    0    0  0.00000000000E+00  0.00000000000E+00  0.58886295766E+03  0.32174927593E+04  0.31631471785E+04 0.  0.
        5    1    3    3  502    0  0.33037509472E+03 -0.11301515211E+04  0.13684910274E+04  0.18053199013E+04  0.46999998093E+01 0. -1.
       -5    1    3    3    0  502 -0.33037509472E+03  0.11301515211E+04 -0.77962806974E+03  0.14121728580E+04  0.46999998093E+01 0.  1.
</event>
<event>
 5   0  0.2226334E-06  0.3077830E+04  0.7818609E-02  0.8221849E-01
       -2   -1    0    0    0  501  0.00000000000E+00  0.00000000000E+00  0.11832654335E+04  0.11832654335E+04  0.25500000920E-02 0. -1.
        2   -1    0    0  501    0  0.00000000000E+00  0.00000000000E+00 -0.20014602963E+04  0.20014602963E+04  0.25500000920E-02 0.  1.
    10030    2    1    2    0    0  0.00000000000E+00  0.00000000000E+00 -0.81819486274E+03  0.31847257298E+04  0.30778296153E+04 0.  0.
        5    1    3    3  502    0  0.15083523771E+04  0.26290447602E+03 -0.24882752531E+03  0.15511875723E+04  0.46999998093E+01 0. -1.
       -5    1    3    3    0  502 -0.15083523771E+04 -0.26290447602E+03 -0.56936733742E+03  0.16335381575E+04  0.46999998093E+01 0.  1.
</event>
<event>
 5   0  0.7519202E-07  0.3107853E+04  0.7818609E-02  0.8213586E-01
        1   -1    0    0  501    0  0.00000000000E+00  0.00000000000E+00  0.16268961306E+04  0.16268961306E+04  0.50400001928E-02 0. -1.
       -1   -1    0    0    0  501  0.00000000000E+00  0.00000000000E+00 -0.14842293578E+04  0.14842293578E+04  0.50400001928E-02 0.  1.
    10030    2    1    2    0    0  0.00000000000E+00  0.00000000000E+00  0.14266677274E+03  0.31111254884E+04  0.31078526343E+04 0.  0.
        4    1    3    3  502    0 -0.10648010137E+04 -0.11836416939E+03 -0.10554069499E+04  0.15038938520E+04  0.12699999809E+01 0. -1.
       -4    1    3    3    0  502  0.10648010137E+04  0.11836416939E+03  0.11980737227E+04  0.16072316364E+04  0.12699999809E+01 0.  1.
</event>
<event>
 5   0  0.7519202E-07  0.3065065E+04  0.7818609E-02  0.8225391E-01
        1   -1    0    0  501    0  0.00000000000E+00  0.00000000000E+00  0.12617144786E+04  0.12617144787E+04  0.50400001928E-02 0. -1.
       -1   -1    0    0    0  501  0.00000000000E+00  0.00000000000E+00 -0.18614801629E+04  0.18614801629E+04  0.50400001928E-02 0.  1.
    10030    2    1    2    0    0  0.00000000000E+00  0.00000000000E+00 -0.59976568423E+03  0.31231946415E+04  0.30650653978E+04 0.  0.
        4    1    3    3  502    0 -0.31091283686E+03  0.80838682839E+03 -0.15881782638E+04  0.18089963701E+04  0.12699999809E+01 0.  1.
       -4    1    3    3    0  502  0.31091283686E+03 -0.80838682839E+03  0.98841257955E+03  0.13141982715E+04  0.12699999809E+01 0. -1.
</event>
<event>
 5   0  0.7413481E-07  0.3045968E+04  0.7818609E-02  0.8230725E-01
        1   -1    0    0  501    0  0.00000000000E+00  0.00000000000E+00  0.16744894743E+04  0.16744894743E+04  0.50400001928E-02 0.  1.
       -1   -1    0    0    0  501  0.00000000000E+00  0.00000000000E+00 -0.13851863253E+04  0.13851863253E+04  0.50400001928E-02 0. -1.
    10030    2    1    2    0    0  0.00000000000E+00  0.00000000000E+00  0.28930314897E+03  0.30596757996E+04  0.30459677751E+04 0.  0.
        5    1    3    3  502    0  0.54953598426E+03 -0.79681793305E+03  0.13257617393E+04  0.16415160358E+04  0.46999998093E+01 0.  1.
       -5    1    3    3    0  502 -0.54953598426E+03  0.79681793305E+03 -0.10364585903E+04  0.14181597639E+04  0.46999998093E+01 0. -1.
</event>
<event>
 5   0  0.7519202E-07  0.3092392E+04  0.7818609E-02  0.8217829E-01
       -1   -1    0    0    0  501  0.00000000000E+00  0.00000000000E+00  0.29289683476E+04  0.29289683476E+04  0.50400001928E-02 0.  1.
        1   -1    0    0  501    0  0.00000000000E+00  0.00000000000E+00 -0.81623347338E+03  0.81623347339E+03  0.50400001928E-02 0. -1.
    10030    2    1    2    0    0  0.00000000000E+00  0.00000000000E+00  0.21127348742E+04  0.37452018210E+04  0.30923919595E+04 0.  0.
        4    1    3    3  502    0  0.54849000745E+03 -0.61718363127E+03  0.26396086287E+04  0.27657353902E+04  0.12699999809E+01 0.  1.
       -4    1    3    3    0  502 -0.54849000745E+03  0.61718363127E+03 -0.52687375449E+03  0.97946643079E+03  0.12699999809E+01 0. -1.
</event>
<event>
 5   0  0.7519202E-07  0.3125547E+04  0.7818609E-02  0.8208762E-01
        1   -1    0    0  501    0  0.00000000000E+00  0.00000000000E+00  0.24562941927E+04  0.24562941927E+04  0.50400001928E-02 0.  1.
       -1   -1    0    0    0  501  0.00000000000E+00  0.00000000000E+00 -0.99428676035E+03  0.99428676036E+03  0.50400001928E-02 0. -1.
    10030    2    1    2    0    0  0.00000000000E+00  0.00000000000E+00  0.14620074324E+04  0.34505809531E+04  0.31255468612E+04 0.  0.
        4    1    3    3  502    0  0.55060639512E+03  0.10667830002E+04 -0.37357716191E+03  0.12572807485E+04  0.12699999809E+01 0. -1.
       -4    1    3    3    0  502 -0.55060639512E+03 -0.10667830002E+04  0.18355845943E+04  0.21933002046E+04  0.12699999809E+01 0.  1.
</event>
<event>
 5   0  0.7519202E-07  0.3094223E+04  0.7818609E-02  0.8217325E-01
        1   -1    0    0  501    0  0.00000000000E+00  0.00000000000E+00  0.16285767537E+04  0.16285767537E+04  0.50400001928E-02 0. -1.
       -1   -1    0    0    0  501  0.00000000000E+00  0.00000000000E+00 -0.14697212333E+04  0.14697212333E+04  0.50400001928E-02 0.  1.
    10030    2    1    2    0    0  0.00000000000E+00  0.00000000000E+00  0.15885552043E+03  0.30982979871E+04  0.30942228976E+04 0.  0.
        4    1    3    3  502    0 -0.12151718230E+04  0.37448503574E+03  0.96187759859E+03  0.15943938437E+04  0.12699999809E+01 0. -1.
       -4    1    3    3    0  502  0.12151718230E+04 -0.37448503574E+03 -0.80302207815E+03  0.15039041433E+04  0.12699999809E+01 0.  1.
</event>
<event>
 5   0  0.7726743E-07  0.3073977E+04  0.7818609E-02  0.8222916E-01
       -1   -1    0    0    0  501  0.00000000000E+00  0.00000000000E+00  0.83680480681E+03  0.83680480683E+03  0.50400001928E-02 0. -1.
        1   -1    0    0  501    0  0.00000000000E+00  0.00000000000E+00 -0.28230408582E+04  0.28230408582E+04  0.50400001928E-02 0.  1.
    10030    2    1    2    0    0  0.00000000000E+00  0.00000000000E+00 -0.19862360514E+04  0.36598456650E+04  0.30739773324E+04 0.  0.
        1    1    3    3  502    0 -0.58462364440E+03 -0.26984775141E+03  0.66848264975E+03  0.92815498036E+03  0.50400001928E-02 0. -1.
       -1    1    3    3    0  502  0.58462364440E+03  0.26984775141E+03 -0.26547187011E+04  0.27316906847E+04  0.50400001928E-02 0.  1.
</event>
<event>
 5   0  0.2133385E-06  0.3039086E+04  0.7818609E-02  0.8232657E-01
       -2   -1    0    0    0  501  0.00000000000E+00  0.00000000000E+00  0.10034818302E+04  0.10034818302E+04  0.25500000920E-02 0.  1.
        2   -1    0    0  501    0  0.00000000000E+00  0.00000000000E+00 -0.23009991190E+04  0.23009991190E+04  0.25500000920E-02 0. -1.
    10030    2    1    2    0    0  0.00000000000E+00  0.00000000000E+00 -0.12975172888E+04  0.33044809492E+04  0.30390859200E+04 0.  0.
        2    1    3    3  502    0 -0.17498017574E+03 -0.19898281952E+03  0.97816730295E+03  0.10134216778E+04  0.25500000920E-02 0.  1.
       -2    1    3    3    0  502  0.17498017574E+03  0.19898281952E+03 -0.22756845917E+04  0.22910592714E+04  0.25500000920E-02 0. -1.
</event>
<event>
 5   0  0.7726743E-07  0.3245354E+04  0.7818609E-02  0.8176941E-01
       -1   -1    0    0    0  501  0.00000000000E+00  0.00000000000E+00  0.14320295907E+04  0.14320295907E+04  0.50400001928E-02 0. -1.
        1   -1    0    0  501    0  0.00000000000E+00  0.00000000000E+00 -0.18387050715E+04  0.18387050715E+04  0.50400001928E-02 0.  1.
    10030    2    1    2    0    0  0.00000000000E+00  0.00000000000E+00 -0.40667548087E+03  0.32707346622E+04  0.32453536454E+04 0.  0.
        1    1    3    3  502    0  0.47465418881E+03  0.35708840007E+03 -0.17252042144E+04  0.18245926410E+04  0.50400001928E-02 0.  1.
       -1    1    3    3    0  502 -0.47465418881E+03 -0.35708840007E+03  0.13185287335E+04  0.14461420212E+04  0.50400001928E-02 0. -1.
</event>
<event>
 5   0  0.7726743E-07  0.3060192E+04  0.7818609E-02  0.8226749E-01
        1   -1    0    0  501    0  0.00000000000E+00  0.00000000000E+00  0.24225826215E+04  0.24225826215E+04  0.50400001928E-02 0.  1.
       -1   -1    0    0    0  501  0.00000000000E+00  0.00000000000E+00 -0.96640392700E+03  0.96640392701E+03  0.50400001928E-02 0. -1.
    10030    2    1    2    0    0  0.00000000000E+00  0.00000000000E+00  0.14561786945E+04  0.33889865485E+04  0.30601917319E+04 0.  0.
        1    1    3    3  502    0  0.35554158622E+03 -0.10650332910E+04  0.18792371978E+04  0.21891181275E+04  0.50400001928E-02 0.  1.
       -1    1    3    3    0  502 -0.35554158622E+03  0.10650332910E+04 -0.42305850329E+03  0.11998684210E+04  0.50400001928E-02 0. -1.
</event>
<event>
 5   0  0.2226334E-06  0.3074533E+04  0.7818609E-02  0.8222762E-01
        2   -1    0    0  501    0  0.00000000000E+00  0.00000000000E+00  0.23532014509E+04  0.23532014509E+04  0.25500000920E-02 0.  1.
       -2   -1    0    0    0  501  0.00000000000E+00  0.00000000000E+00 -0.10042438506E+04  0.10042438506E+04  0.25500000920E-02 0. -1.
    10030    2    1    2    0    0  0.00000000000E+00  0.00000000000E+00  0.13489576003E+04  0.33574453016E+04  0.30745328663E+04 0.  0.
        5    1    3    3  502    0  0.11049537018E+04  0.71703625119E+03  0.15399348289E+04  0.20264464059E+04  0.46999998093E+01 0.  1.
       -5    1    3    3    0  502 -0.11049537018E+04 -0.71703625119E+03 -0.19097722862E+03  0.13309988957E+04  0.46999998093E+01 0. -1.
</event>
<event>
 5   0  0.2226334E-06  0.3149533E+04  0.7818609E-02  0.8202274E-01
       -2   -1    0    0    0  501  0.00000000000E+00  0.00000000000E+00  0.14751703089E+04  0.14751703089E+04  0.25500000920E-02 0.  1.
        2   -1    0    0  501    0  0.00000000000E+00  0.00000000000E+00 -0.16810871009E+04  0.16810871010E+04  0.25500000920E-02 0. -1.
    10030    2    1    2    0    0  0.00000000000E+00  0.00000000000E+00 -0.20591679206E+03  0.31562574098E+04  0.31495331578E+04 0.  0.
        5    1    3    3  502    0 -0.88023116470E+03 -0.35739210546E+03  0.11556416447E+04  0.14960166180E+04  0.46999998093E+01 0.  1.
       -5    1    3    3    0  502  0.88023116470E+03  0.35739210546E+03 -0.13615584367E+04  0.16602407919E+04  0.46999998093E+01 0. -1.
</event>
<event>
 5   0  0.7561815E-07  0.2899864E+04  0.7818609E-02  0.8272918E-01
       -1   -1    0    0    0  501  0.00000000000E+00  0.00000000000E+00  0.31160953551E+04  0.31160953551E+04  0.50400001928E-02 0. -1.
        1   -1    0    0  501    0  0.00000000000E+00  0.00000000000E+00 -0.67465937311E+03  0.67465937313E+03  0.50400001928E-02 0.  1.
    10030    2    1    2    0    0  0.00000000000E+00  0.00000000000E+00  0.24414359820E+04  0.37907547282E+04  0.28998640926E+04 0.  0.
        3    1    3    3  502    0 -0.94912282523E+03  0.10602170940E+04  0.15844172201E+04  0.21296178909E+04  0.10100000352E+00 0.  1.
       -3    1    3    3    0  502  0.94912282523E+03 -0.10602170940E+04  0.85701876188E+03  0.16611368373E+04  0.10100000352E+00 0. -1.
</event>
<event>
 5   0  0.7519202E-07  0.3196751E+04  0.7818609E-02  0.8189676E-01
        1   -1    0    0  501    0  0.00000000000E+00  0.00000000000E+00  0.98467725736E+03  0.98467725738E+03  0.50400001928E-02 0. -1.
       -1   -1    0    0    0  501  0.00000000000E+00  0.00000000000E+00 -0.25945607125E+04  0.25945607125E+04  0.50400001928E-02 0.  1.
    10030    2    1    2    0    0  0.00000000000E+00  0.00000000000E+00 -0.16098834551E+04  0.35792379699E+04  0.31967514301E+04 0.  0.
        4    1    3    3  502    0  0.13055545368E+04  0.76868622704E+03 -0.23463257380E+03  0.15331031347E+04  0.12699999809E+01 0. -1.
       -4    1    3    3    0  502 -0.13055545368E+04 -0.76868622704E+03 -0.13752508813E+04  0.20461348352E+04  0.12699999809E+01 0.  1.
</event>
<event>
 5   0  0.7519202E-07  0.3103479E+04  0.7818609E-02  0.8214784E-01
        1   -1    0    0  501    0  0.00000000000E+00  0.00000000000E+00  0.85717496939E+03  0.85717496940E+03  0.50400001928E-02 0. -1.
       -1   -1    0    0    0  501  0.00000000000E+00  0.00000000000E+00 -0.28091057765E+04  0.28091057765E+04  0.50400001928E-02 0.  1.
    10030    2    1    2    0    0  0.00000000000E+00  0.00000000000E+00 -0.19519308071E+04  0.36662807459E+04  0.31034787952E+04 0.  0.
        4    1    3    3  502    0  0.11692726200E+04 -0.10198170079E+04 -0.10065062239E+04  0.18494003302E+04  0.12699999809E+01 0. -1.
       -4    1    3    3    0  502 -0.11692726200E+04  0.10198170079E+04 -0.94542458317E+03  0.18168804157E+04  0.12699999809E+01 0.  1.
</event>
<event>
 5   0  0.2094135E-06  0.3084092E+04  0.7818609E-02  0.8220117E-01
        2   -1    0    0  501    0  0.00000000000E+00  0.00000000000E+00  0.21710669806E+04  0.21710669806E+04  0.25500000920E-02 0. -1.
       -2   -1    0    0    0  501  0.00000000000E+00  0.00000000000E+00 -0.10952706243E+04  0.10952706243E+04  0.25500000920E-02 0.  1.
    10030    2    1    2    0    0  0.00000000000E+00  0.00000000000E+00  0.10757963563E+04  0.32663376049E+04  0.30840920138E+04 0.  0.
        4    1    3    3  502    0  0.74415609043E+03 -0.60859597975E+03 -0.73906433483E+03  0.12125902265E+04  0.12699999809E+01 0.  1.
       -4    1    3    3    0  502 -0.74415609043E+03  0.60859597975E+03  0.18148606911E+04  0.20537473784E+04  0.12699999809E+01 0. -1.
</event>
<event>
 5   0  0.6979625E-07  0.3144451E+04  0.7818609E-02  0.8203643E-01
       -3   -1    0    0    0  501  0.00000000000E+00  0.00000000000E+00  0.20618536373E+04  0.20618536398E+04  0.10100000352E+00 0. -1.
        3   -1    0    0  501    0  0.00000000000E+00  0.00000000000E+00 -0.11988694831E+04  0.11988694873E+04  0.10100000352E+00 0.  1.
    10030    2    1    2    0    0  0.00000000000E+00  0.00000000000E+00  0.86298415423E+03  0.32607231271E+04  0.31444512496E+04 0.  0.
        3    1    3    3  502    0  0.70849769470E+03 -0.70040028606E+03  0.16927577048E+04  0.19641685777E+04  0.10100000352E+00 0. -1.
       -3    1    3    3    0  502 -0.70849769470E+03  0.70040028606E+03 -0.82977355061E+03  0.12965545494E+04  0.10100000352E+00 0.  1.
</event>
<event>
 5   0  0.7561815E-07  0.3072646E+04  0.7818609E-02  0.8223285E-01
        1   -1    0    0  501    0  0.00000000000E+00  0.00000000000E+00  0.19980366396E+04  0.19980366396E+04  0.50400001928E-02 0. -1.
       -1   -1    0    0    0  501  0.00000000000E+00  0.00000000000E+00 -0.11813034725E+04  0.11813034725E+04  0.50400001928E-02 0.  1.
    10030    2    1    2    0    0  0.00000000000E+00  0.00000000000E+00  0.81673316715E+03  0.31793401121E+04  0.30726455185E+04 0.  0.
        3    1    3    3  502    0 -0.26408875110E+03 -0.83165594594E+02  0.19720082355E+04  0.19913502644E+04  0.10100000352E+00 0. -1.
       -3    1    3    3    0  502  0.26408875110E+03  0.83165594594E+02 -0.11552750683E+04  0.11879898477E+04  0.10100000352E+00 0.  1.
</event>
<event>
 5   0  0.2133385E-06  0.3109180E+04  0.7818609E-02  0.8213223E-01
        2   -1    0    0  501    0  0.00000000000E+00  0.00000000000E+00  0.13103502563E+04  0.13103502563E+04  0.25500000920E-02 0.  1.
       -2   -1    0    0    0  501  0.00000000000E+00  0.00000000000E+00 -0.18443539222E+04  0.18443539223E+04  0.25500000920E-02 0. -1.
    10030    2    1    2    0    0  0.00000000000E+00  0.00000000000E+00 -0.53400366598E+03  0.31547041785E+04  0.31091797212E+04 0.  0.
        2    1    3    3  502    0 -0.85990237755E+03 -0.18458741731E+03 -0.15676624103E+04  0.17975177458E+04  0.25500000920E-02 0. -1.
       -2    1    3    3    0  502  0.85990237755E+03  0.18458741731E+03  0.10336587443E+04  0.13571864328E+04  0.25500000920E-02 0.  1.
</event>
<event>
 5   0  0.2226334E-06  0.3038711E+04  0.7818609E-02  0.8232762E-01
        2   -1    0    0  501    0  0.00000000000E+00  0.00000000000E+00  0.18218464691E+04  0.18218464691E+04  0.25500000920E-02 0.  1.
       -2   -1    0    0    0  501  0.00000000000E+00  0.00000000000E+00 -0.12670886089E+04  0.12670886089E+04  0.25500000920E-02 0. -1.
    10030    2    1    2    0    0  0.00000000000E+00  0.00000000000E+00  0.55475786016E+03  0.30889350780E+04  0.30387108505E+04 0.  0.
        5    1    3    3  502    0 -0.10837802274E+03  0.89943975970E+03 -0.96248587648E+03  0.13217937924E+04  0.46999998093E+01 0. -1.
       -5    1    3    3    0  502  0.10837802274E+03 -0.89943975970E+03  0.15172437366E+04  0.17671412857E+04  0.46999998093E+01 0.  1.
</event>
<event>
 5   0  0.2078009E-06  0.3091940E+04  0.7818609E-02  0.8217953E-01
       -2   -1    0    0    0  501  0.00000000000E+00  0.00000000000E+00  0.75535991788E+03  0.75535991789E+03  0.25500000920E-02 0. -1.
        2   -1    0    0  501    0  0.00000000000E+00  0.00000000000E+00 -0.31640859650E+04  0.31640859650E+04  0.25500000920E-02 0.  1.
    10030    2    1    2    0    0  0.00000000000E+00  0.00000000000E+00 -0.24087260471E+04  0.39194458829E+04  0.30919403065E+04 0.  0.
        3    1    3    3  502    0 -0.50626954342E+03 -0.19433940947E+03 -0.30395643937E+04  0.30875602618E+04  0.10100000352E+00 0.  1.
       -3    1    3    3    0  502  0.50626954342E+03  0.19433940947E+03  0.63083834664E+03  0.83188562102E+03  0.10100000352E+00 0. -1.
</event>
<event>
 5   0  0.7656332E-07  0.3156611E+04  0.7818609E-02  0.8200371E-01
       -1   -1    0    0    0  501  0.00000000000E+00  0.00000000000E+00  0.11620053235E+04  0.11620053235E+04  0.50400001928E-02 0.  1.
        1   -1    0    0  501    0  0.00000000000E+00  0.00000000000E+00 -0.21437490500E+04  0.21437490500E+04  0.50400001928E-02 0. -1.
    10030    2    1    2    0    0  0.00000000000E+00  0.00000000000E+00 -0.98174372653E+03  0.33057543735E+04  0.31566107193E+04 0.  0.
        2    1    3    3  502    0 -0.52756616340E+03  0.13994838529E+04 -0.10188414144E+04  0.18096737106E+04  0.25500000920E-02 0. -1.
       -2    1    3    3    0  502  0.52756616340E+03 -0.13994838529E+04  0.37097687876E+02  0.14960806628E+04  0.25500000920E-02 0.  1.
</event>
<event>
 5   0  0.2078009E-06  0.3086811E+04  0.7818609E-02  0.8219367E-01
       -2   -1    0    0    0  501  0.00000000000E+00  0.00000000000E+00  0.13608647115E+04  0.13608647115E+04  0.25500000920E-02 0.  1.
        2   -1    0    0  501    0  0.00000000000E+00  0.00000000000E+00 -0.17504318001E+04  0.17504318001E+04  0.25500000920E-02 0. -1.
    10030    2    1    2    0    0  0.00000000000E+00  0.00000000000E+00 -0.38956708860E+03  0.31112965115E+04  0.30868112132E+04 0.  0.
        3    1    3    3  502    0  0.12456429355E+04  0.65740919451E+03 -0.83088995387E+03  0.16352954771E+04  0.10100000352E+00 0. -1.
       -3    1    3    3    0  502 -0.12456429355E+04 -0.65740919451E+03  0.44132286527E+03  0.14760010344E+04  0.10100000352E+00 0.  1.
</event>
<event>
 5   0  0.7413481E-07  0.3100857E+04  0.7818609E-02  0.8215503E-01
        1   -1    0    0  501    0  0.00000000000E+00  0.00000000000E+00  0.11712486491E+04  0.11712486491E+04  0.50400001928E-02 0. -1.
       -1   -1    0    0    0  501  0.00000000000E+00  0.00000000000E+00 -0.20523640599E+04  0.20523640599E+04  0.50400001928E-02 0.  1.
    10030    2    1    2    0    0  0.00000000000E+00  0.00000000000E+00 -0.88111541079E+03  0.32236127090E+04  0.31008570639E+04 0.  0.
        5    1    3    3  502    0  0.10039010340E+04 -0.16202083311E+03 -0.16572477209E+04  0.19443662553E+04  0.46999998093E+01 0.  1.
       -5    1    3    3    0  502 -0.10039010340E+04  0.16202083311E+03  0.77613231011E+03  0.12792464537E+04  0.46999998093E+01 0. -1.
</event>
<event>
 5   0  0.7561815E-07  0.2794495E+04  0.7818609E-02  0.8304980E-01
        1   -1    0    0  501    0  0.00000000000E+00  0.00000000000E+00  0.22129886604E+04  0.22129886604E+04  0.50400001928E-02 0. -1.
       -1   -1    0    0    0  501  0.00000000000E+00  0.00000000000E+00 -0.88220066638E+03  0.88220066639E+03  0.50400001928E-02 0.  1.
    10030    2    1    2    0    0  0.00000000000E+00  0.00000000000E+00  0.13307879940E+04  0.30951893268E+04  0.27944946383E+04 0.  0.
        3    1    3    3  502    0 -0.21988855678E+03 -0.13939977608E+03 -0.85509731694E+03  0.89385385081E+03  0.10100000352E+00 0.  1.
       -3    1    3    3    0  502  0.21988855678E+03  0.13939977608E+03  0.21858853109E+04  0.22013354760E+04  0.10100000352E+00 0. -1.
</event>
<event>
 5   0  0.7519202E-07  0.3091726E+04  0.7818609E-02  0.8218012E-01
        1   -1    0    0  501    0  0.00000000000E+00  0.00000000000E+00  0.16832496569E+04  0.16832496569E+04  0.50400001928E-02 0. -1.
       -1   -1    0    0    0  501  0.00000000000E+00  0.00000000000E+00 -0.14196894312E+04  0.14196894312E+04  0.50400001928E-02 0.  1.
    10030    2    1    2    0    0  0.00000000000E+00  0.00000000000E+00  0.26356022565E+03  0.31029390881E+04  0.30917255687E+04 0.  0.
        4    1    3    3  502    0  0.14933103936E+04  0.25606354507E+03 -0.17616440341E+03  0.15253130763E+04  0.12699999809E+01 0. -1.
       -4    1    3    3    0  502 -0.14933103936E+04 -0.25606354507E+03  0.43972462905E+03  0.15776260118E+04  0.12699999809E+01 0.  1.
</event>
<event>
 5   0  0.2094135E-06  0.3025712E+04  0.7818609E-02  0.8236426E-01
       -2   -1    0    0    0  501  0.00000000000E+00  0.00000000000E+00  0.18225578171E+04  0.18225578171E+04  0.25500000920E-02 0. -1.
        2   -1    0    0  501    0  0.00000000000E+00  0.00000000000E+00 -0.12557811091E+04  0.12557811091E+04  0.25500000920E-02 0.  1.
    10030    2    1    2    0    0  0.00000000000E+00  0.00000000000E+00  0.56677670798E+03  0.30783389262E+04  0.30257122645E+04 0.  0.
        4    1    3    3  502    0 -0.13595360520E+04 -0.64922841779E+03  0.42324290626E+03  0.15649191627E+04  0.12699999809E+01 0.  1.
       -4    1    3    3    0  502  0.13595360520E+04  0.64922841779E+03  0.14353380172E+03  0.15134197634E+04  0.12699999809E+01 0. -1.
</event>
<event>
 5   0  0.7519202E-07  0.3103880E+04  0.7818609E-02  0.8214674E-01
        1   -1    0    0  501    0  0.00000000000E+00  0.00000000000E+00  0.21101266861E+04  0.21101266861E+04  0.50400001928E-02 0. -1.
       -1   -1    0    0    0  501  0.00000000000E+00  0.00000000000E+00 -0.11414090161E+04  0.11414090161E+04  0.50400001928E-02 0.  1.
    10030    2    1    2    0    0  0.00000000000E+00  0.00000000000E+00  0.96871766995E+03  0.32515357022E+04  0.31038799105E+04 0.  0.
        4    1    3    3  502    0 -0.16248043009E+03  0.13144005592E+04  0.13318351905E+04  0.18782532597E+04  0.12699999809E+01 0. -1.
       -4    1    3    3    0  502  0.16248043009E+03 -0.13144005592E+04 -0.36311752051E+03  0.13732824425E+04  0.12699999809E+01 0.  1.
</event>
<event>
 5   0  0.2226334E-06  0.3109772E+04  0.7818609E-02  0.8213061E-01
        2   -1    0    0  501    0  0.00000000000E+00  0.00000000000E+00  0.12706508030E+04  0.12706508030E+04  0.25500000920E-02 0. -1.
       -2   -1    0    0    0  501  0.00000000000E+00  0.00000000000E+00 -0.19027027743E+04  0.19027027743E+04  0.25500000920E-02 0.  1.
    10030    2    1    2    0    0  0.00000000000E+00  0.00000000000E+00 -0.63205197125E+03  0.31733535773E+04  0.31097722154E+04 0.  0.
        5    1    3    3  502    0 -0.24960466870E+03  0.20550851389E+03  0.12359616639E+04  0.12775600043E+04  0.46999998093E+01 0. -1.
       -5    1    3    3    0  502  0.24960466870E+03 -0.20550851389E+03 -0.18680136352E+04  0.18957935729E+04  0.46999998093E+01 0.  1.
</event>
<event>
 5   0  0.7561815E-07  0.3114824E+04  0.7818609E-02  0.8211681E-01
       -1   -1    0    0    0  501  0.00000000000E+00  0.00000000000E+00  0.10669932584E+04  0.10669932584E+04  0.50400001928E-02 0. -1.
        1   -1    0    0  501    0  0.00000000000E+00  0.00000000000E+00 -0.22732400936E+04  0.22732400936E+04  0.50400001928E-02 0.  1.
    10030    2    1    2    0    0  0.00000000000E+00  0.00000000000E+00 -0.12062468352E+04  0.33402333520E+04  0.31148238182E+04 0.  0.
        3    1    3    3  502    0 -0.19668383017E+02 -0.52157967087E+03 -0.21766547169E+04  0.22383605530E+04  0.10100000352E+00 0.  1.
       -3    1    3    3    0  502  0.19668383017E+02  0.52157967087E+03  0.97040788165E+03  0.11018727991E+04  0.10100000352E+00 0. -1.
</event>
<event>
 5   0  0.2133385E-06  0.3113791E+04  0.7818609E-02  0.8211963E-01
        2   -1    0    0  501    0  0.00000000000E+00  0.00000000000E+00  0.18697557836E+04  0.18697557836E+04  0.25500000920E-02 0.  1.
       -2   -1    0    0    0  501  0.00000000000E+00  0.00000000000E+00 -0.12963849762E+04  0.12963849762E+04  0.25500000920E-02 0. -1.
    10030    2    1    2    0    0  0.00000000000E+00  0.00000000000E+00  0.57337080733E+03  0.31661407598E+04  0.31137908132E+04 0.  0.
        2    1    3    3  502    0  0.10628640941E+04  0.32453841971E+03  0.13953922873E+04  0.17838511440E+04  0.25500000920E-02 0.  1.
       -2    1    3    3    0  502 -0.10628640941E+04 -0.32453841971E+03 -0.82202147998E+03  0.13822896158E+04  0.25500000920E-02 0. -1.
</event>
<event>
 5   0  0.2094135E-06  0.3108056E+04  0.7818609E-02  0.8213530E-01
       -2   -1    0    0    0  501  0.00000000000E+00  0.00000000000E+00  0.10381435568E+04  0.10381435568E+04  0.25500000920E-02 0.  1.
        2   -1    0    0  501    0  0.00000000000E+00  0.00000000000E+00 -0.23262708525E+04  0.23262708525E+04  0.25500000920E-02 0. -1.
    10030    2    1    2    0    0  0.00000000000E+00  0.00000000000E+00 -0.12881272957E+04  0.33644144093E+04  0.31080560464E+04 0.  0.
        4    1    3    3  502    0  0.12654913432E+04  0.65041556281E+03 -0.13205002894E+04  0.19411932854E+04  0.12699999809E+01 0. -1.
       -4    1    3    3    0  502 -0.12654913432E+04 -0.65041556281E+03  0.32372993646E+02  0.14232211240E+04  0.12699999809E+01 0.  1.
</event>
<event>
 5   0  0.2133385E-06  0.3140337E+04  0.7818609E-02  0.8204754E-01
       -2   -1    0    0    0  501  0.00000000000E+00  0.00000000000E+00  0.81422434343E+03  0.81422434343E+03  0.25500000920E-02 0. -1.
        2   -1    0    0  501    0  0.00000000000E+00  0.00000000000E+00 -0.30279491376E+04  0.30279491376E+04  0.25500000920E-02 0.  1.
    10030    2    1    2    0    0  0.00000000000E+00  0.00000000000E+00 -0.22137247942E+04  0.38421734810E+04  0.31403374968E+04 0.  0.
        2    1    3    3  502    0  0.12763766287E+04  0.82117609733E+03 -0.15992507486E+04  0.22047835355E+04  0.25500000920E-02 0.  1.
       -2    1    3    3    0  502 -0.12763766287E+04 -0.82117609733E+03 -0.61447404555E+03  0.16373899456E+04  0.25500000920E-02 0. -1.
</event>
<event>
 5   0  0.7519202E-07  0.3101432E+04  0.7818609E-02  0.8215345E-01
        1   -1    0    0  501    0  0.00000000000E+00  0.00000000000E+00  0.15274201715E+04  0.15274201715E+04  0.50400001928E-02 0. -1.
       -1   -1    0    0    0  501  0.00000000000E+00  0.00000000000E+00 -0.15743669747E+04  0.15743669748E+04  0.50400001928E-02 0.  1.
    10030    2    1    2    0    0  0.00000000000E+00  0.00000000000E+00 -0.46946803217E+02  0.31017871463E+04  0.31014318465E+04 0.  0.
        4    1    3    3  502    0  0.10288331884E+04 -0.11132875526E+04  0.30338410778E+03  0.15459464525E+04  0.12699999809E+01 0.  1.
       -4    1    3    3    0  502 -0.10288331884E+04  0.11132875526E+04 -0.35033091100E+03  0.15558406938E+04  0.12699999809E+01 0. -1.
</event>
<event>
 5   0  0.2226334E-06  0.3108261E+04  0.7818609E-02  0.8213474E-01
       -2   -1    0    0    0  501  0.00000000000E+00  0.00000000000E+00  0.15620095336E+04  0.15620095336E+04  0.25500000920E-02 0.  1.
        2   -1    0    0  501    0  0.00000000000E+00  0.00000000000E+00 -0.15462916947E+04  0.15462916947E+04  0.25500000920E-02 0. -1.
    10030    2    1    2    0    0  0.00000000000E+00  0.00000000000E+00  0.15717838897E+02  0.31083012284E+04  0.31082614877E+04 0.  0.
        5    1    3    3  502    0 -0.14026975592E+04 -0.66494880203E+03 -0.66861022630E+02  0.15537727756E+04  0.46999998093E+01 0.  1.
       -5    1    3    3    0  502  0.14026975592E+04  0.66494880203E+03  0.82578861528E+02  0.15545284527E+04  0.46999998093E+01 0. -1.
</event>
<event>
 5   0  0.7656332E-07  0.3119584E+04  0.7818609E-02  0.8210384E-01
        1   -1    0    0  501    0  0.00000000000E+00  0.00000000000E+00  0.22137339885E+04  0.22137339885E+04  0.50400001928E-02 0.  1.
       -1   -1    0    0    0  501  0.00000000000E+00  0.00000000000E+00 -0.10990261278E+04  0.10990261278E+04  0.50400001928E-02 0. -1.
    10030    2    1    2    0    0  0.00000000000E+00  0.00000000000E+00  0.11147078607E+04  0.33127601163E+04  0.31195842629E+04 0.  0.
        2    1    3    3  502    0 -0.12886611002E+03 -0.98501267879E+02 -0.10900460660E+04  0.11020478212E+04  0.25500000920E-02 0. -1.
       -2    1    3    3    0  502  0.12886611002E+03  0.98501267879E+02  0.22047539268E+04  0.22107122951E+04  0.25500000920E-02 0.  1.
</event>
<event>
 5   0  0.7726743E-07  0.3056810E+04  0.7818609E-02  0.8227692E-01
        1   -1    0    0  501    0  0.00000000000E+00  0.00000000000E+00  0.13794989489E+04  0.13794989489E+04  0.50400001928E-02 0. -1.
       -1   -1    0    0    0  501  0.00000000000E+00  0.00000000000E+00 -0.16933848169E+04  0.16933848169E+04  0.50400001928E-02 0.  1.
    10030    2    1    2    0    0  0.00000000000E+00  0.00000000000E+00 -0.31388586797E+03  0.30728837658E+04  0.30568104782E+04 0.  0.
        1    1    3    3  502    0  0.13025621219E+02  0.13523826057E+04 -0.87266572442E+03  0.16095508211E+04  0.50400001928E-02 0.  1.
       -1    1    3    3    0  502 -0.13025621219E+02 -0.13523826057E+04  0.55877985646E+03  0.14633329447E+04  0.50400001928E-02 0. -1.
</event>
<event>
 5   0  0.7413481E-07  0.3005582E+04  0.7818609E-02  0.8242139E-01
        1   -1    0    0  501    0  0.00000000000E+00  0.00000000000E+00  0.11435523190E+04  0.11435523190E+04  0.50400001928E-02 0.  1.
       -1   -1    0    0    0  501  0.00000000000E+00  0.00000000000E+00 -0.19748824348E+04  0.19748824348E+04  0.50400001928E-02 0. -1.
    10030    2    1    2    0    0  0.00000000000E+00  0.00000000000E+00 -0.83133011580E+03  0.31184347538E+04  0.30055823982E+04 0.  0.
        5    1    3    3  502    0 -0.12866795778E+04  0.13757270827E+03  0.37715214099E+03  0.13478636480E+04  0.46999998093E+01 0.  1.
       -5    1    3    3    0  502  0.12866795778E+04 -0.13757270827E+03 -0.12084822568E+04  0.17705711059E+04  0.46999998093E+01 0. -1.
</event>
<event>
 5   0  0.7519202E-07  0.3119197E+04  0.7818609E-02  0.8210489E-01
        1   -1    0    0  501    0  0.00000000000E+00  0.00000000000E+00  0.83094410010E+03  0.83094410012E+03  0.50400001928E-02 0.  1.
       -1   -1    0    0    0  501  0.00000000000E+00  0.00000000000E+00 -0.29272100357E+04  0.29272100357E+04  0.50400001928E-02 0. -1.
    10030    2    1    2    0    0  0.00000000000E+00  0.00000000000E+00 -0.20962659356E+04  0.37581541359E+04  0.31191972743E+04 0.  0.
        4    1    3    3  502    0  0.69901604347E+03  0.12977982126E+03 -0.27206058599E+04  0.28119680099E+04  0.12699999809E+01 0. -1.
       -4    1    3    3    0  502 -0.69901604347E+03 -0.12977982126E+03  0.62433992425E+03  0.94618612595E+03  0.12699999809E+01 0.  1.
</event>
<event>
 5   0  0.2067926E-06  0.3032937E+04  0.7818609E-02  0.8234388E-01
       -2   -1    0    0    0  501  0.00000000000E+00  0.00000000000E+00  0.18212933461E+04  0.18212933461E+04  0.25500000920E-02 0. -1.
        2   -1    0    0  501    0  0.00000000000E+00  0.00000000000E+00 -0.12626611036E+04  0.12626611036E+04  0.25500000920E-02 0.  1.
    10030    2    1    2    0    0  0.00000000000E+00  0.00000000000E+00  0.55863224252E+03  0.30839544496E+04  0.30329367064E+04 0.  0.
        1    1    3    3  502    0 -0.16430751907E+03  0.11788027822E+04  0.12348594020E+04  0.17150658013E+04  0.50400001928E-02 0. -1.
       -1    1    3    3    0  502  0.16430751907E+03 -0.11788027822E+04 -0.67622715952E+03  0.13688886483E+04  0.50400001928E-02 0.  1.
</event>
<event>
 5   0  0.7726743E-07  0.2752474E+04  0.7818609E-02  0.8318177E-01
        1   -1    0    0  501    0  0.00000000000E+00  0.00000000000E+00  0.60191785429E+03  0.60191785431E+03  0.50400001928E-02 0. -1.
       -1   -1    0    0    0  501  0.00000000000E+00  0.00000000000E+00 -0.31466553057E+04  0.31466553057E+04  0.50400001928E-02 0.  1.
    10030    2    1    2    0    0  0.00000000000E+00  0.00000000000E+00 -0.25447374514E+04  0.37485731600E+04  0.27524738036E+04 0.  0.
        1    1    3    3  502    0 -0.12417432735E+04  0.56267236688E+03 -0.10157632593E+04  0.17000886885E+04  0.50400001928E-02 0.  1.
       -1    1    3    3    0  502  0.12417432735E+04 -0.56267236688E+03 -0.15289741921E+04  0.20484844715E+04  0.50400001928E-02 0. -1.
</event>
<event>
 5   0  0.2078009E-06  0.3109700E+04  0.7818609E-02  0.8213081E-01
        2   -1    0    0  501    0  0.00000000000E+00  0.00000000000E+00  0.11473620188E+04  0.11473620188E+04  0.25500000920E-02 0. -1.
       -2   -1    0    0    0  501  0.00000000000E+00  0.00000000000E+00 -0.21070579077E+04  0.21070579077E+04  0.25500000920E-02 0.  1.
    10030    2    1    2    0    0  0.00000000000E+00  0.00000000000E+00 -0.95969588889E+03  0.32544199266E+04  0.31096998021E+04 0.  0.
        3    1    3    3  502    0 -0.14728323889E+04 -0.28330461796E+03 -0.50816443877E+02  0.15006928645E+04  0.10100000352E+00 0. -1.
       -3    1    3    3    0  502  0.14728323889E+04  0.28330461796E+03 -0.90887944501E+03  0.17537270621E+04  0.10100000352E+00 0.  1.
</event>
<event>
 5   0  0.2067926E-06  0.3010966E+04  0.7818609E-02  0.8240606E-01
        2   -1    0    0  501    0  0.00000000000E+00  0.00000000000E+00  0.13544232323E+04  0.13544232323E+04  0.25500000920E-02 0.  1.
       -2   -1    0    0    0  501  0.00000000000E+00  0.00000000000E+00 -0.16733902547E+04  0.16733902547E+04  0.25500000920E-02 0. -1.
    10030    2    1    2    0    0  0.00000000000E+00  0.00000000000E+00 -0.31896702247E+03  0.30278134870E+04  0.30109657173E+04 0.  0.
        1    1    3    3  502    0 -0.68934237976E+03  0.12986900006E+04  0.16588529600E+03  0.14796305504E+04  0.50400001928E-02 0.  1.
       -1    1    3    3    0  502  0.68934237976E+03 -0.12986900006E+04 -0.48485231847E+03  0.15481829366E+04  0.50400001928E-02 0. -1.
</event>
<event>
 5   0  0.2067926E-06  0.3124810E+04  0.7818609E-02  0.8208962E-01
       -2   -1    0    0    0  501  0.00000000000E+00  0.00000000000E+00  0.72790699571E+03  0.72790699571E+03  0.25500000920E-02 0.  1.
        2   -1    0    0  501    0  0.00000000000E+00  0.00000000000E+00 -0.33536014830E+04  0.33536014830E+04  0.25500000920E-02 0. -1.
    10030    2    1    2    0    0  0.00000000000E+00  0.00000000000E+00 -0.26256944873E+04  0.40815084787E+04  0.31248103816E+04 0.  0.
        1    1    3    3  502    0 -0.75828982556E+03 -0.51365490407E+03  0.34050058340E+03  0.97713124367E+03  0.50400001928E-02 0.  1.
       -1    1    3    3    0  502  0.75828982556E+03  0.51365490407E+03 -0.29661950707E+04  0.31043772350E+04  0.50400001928E-02 0. -1.
</event>
<event>
 5   0  0.2226334E-06  0.3014760E+04  0.7818609E-02  0.8239529E-01
       -2   -1    0    0    0  501  0.00000000000E+00  0.00000000000E+00  0.13441206403E+04  0.13441206403E+04  0.25500000920E-02 0.  1.
        2   -1    0    0  501    0  0.00000000000E+00  0.00000000000E+00 -0.16904691213E+04  0.16904691213E+04  0.25500000920E-02 0. -1.
    10030    2    1    2    0    0  0.00000000000E+00  0.00000000000E+00 -0.34634848094E+03  0.30345897616E+04  0.30147599823E+04 0.  0.
        5    1    3    3  502    0  0.71825665018E+03 -0.66146817714E+03  0.98274306948E+03  0.13853659428E+04  0.46999998093E+01 0.  1.
       -5    1    3    3    0  502 -0.71825665018E+03  0.66146817714E+03 -0.13290915504E+04  0.16492238187E+04  0.46999998093E+01 0. -1.
</event>
<event>
 5   0  0.7413481E-07  0.3096702E+04  0.7818609E-02  0.8216644E-01
        1   -1    0    0  501    0  0.00000000000E+00  0.00000000000E+00  0.17355344166E+04  0.17355344166E+04  0.50400001928E-02 0.  1.
       -1   -1    0    0    0  501  0.00000000000E+00  0.00000000000E+00 -0.13813562626E+04  0.13813562626E+04  0.50400001928E-02 0. -1.
    10030    2    1    2    0    0  0.00000000000E+00  0.00000000000E+00  0.35417815402E+03  0.31168906792E+04  0.30967023333E+04 0.  0.
        5    1    3    3  502    0 -0.14542509523E+04  0.47323585667E+03 -0.66503644271E+02  0.15307654402E+04  0.46999998093E+01 0. -1.
       -5    1    3    3    0  502  0.14542509523E+04 -0.47323585667E+03  0.42068179829E+03  0.15861252390E+04  0.46999998093E+01 0.  1.
</event>
<event>
 5   0  0.2078009E-06  0.3028336E+04  0.7818609E-02  0.8235685E-01
        2   -1    0    0  501    0  0.00000000000E+00  0.00000000000E+00  0.26460285277E+04  0.26460285277E+04  0.25500000920E-02 0. -1.
       -2   -1    0    0    0  501  0.00000000000E+00  0.00000000000E+00 -0.86647016612E+03  0.86647016612E+03  0.25500000920E-02 0.  1.
    10030    2    1    2    0    0  0.00000000000E+00  0.00000000000E+00  0.17795583616E+04  0.35124986939E+04  0.30283360302E+04 0.  0.
        3    1    3    3  502    0 -0.10685638907E+04 -0.45038087677E+03 -0.23955856946E+03  0.11840861629E+04  0.10100000352E+00 0.  1.
       -3    1    3    3    0  502  0.10685638907E+04  0.45038087677E+03  0.20191169311E+04  0.23284125310E+04  0.10100000352E+00 0. -1.
</event>
<event>
 5   0  0.7656332E-07  0.3095828E+04  0.7818609E-02  0.8216884E-01
       -1   -1    0    0    0  501  0.00000000000E+00  0.00000000000E+00  0.72976907350E+03  0.72976907351E+03  0.50400001928E-02 0. -1.
        1   -1    0    0  501    0  0.00000000000E+00  0.00000000000E+00 -0.32832825960E+04  0.32832825960E+04  0.50400001928E-02 0.  1.
    10030    2    1    2    0    0  0.00000000000E+00  0.00000000000E+00 -0.25535135225E+04  0.40130516695E+04  0.30958282240E+04 0.  0.
        2    1    3    3  502    0 -0.76357315223E+03 -0.44111300012E+03 -0.29258402261E+04  0.30558412371E+04  0.25500000920E-02 0.  1.
       -2    1    3    3    0  502  0.76357315223E+03  0.44111300012E+03  0.37232670361E+03  0.95721043241E+03  0.25500000920E-02 0. -1.
</event>
<event>
 5   0  0.7726743E-07  0.3096723E+04  0.7818609E-02  0.8216638E-01
        1   -1    0    0  501    0  0.00000000000E+00  0.00000000000E+00  0.21081678271E+04  0.21081678271E+04  0.50400001928E-02 0.  1.
       -1   -1    0    0    0  501  0.00000000000E+00  0.00000000000E+00 -0.11372068926E+04  0.11372068926E+04  0.50400001928E-02 0. -1.
    10030    2    1    2    0    0  0.00000000000E+00  0.00000000000E+00  0.97096093458E+03  0.32453747197E+04  0.30967227733E+04 0.  0.
        1    1    3    3  502    0  0.57951683940E+03 -0.12299741202E+04 -0.29085343663E+03  0.13904214559E+04  0.50400001928E-02 0.  1.
       -1    1    3    3    0  502 -0.57951683940E+03  0.12299741202E+04  0.12618143712E+04  0.18549532638E+04  0.50400001928E-02 0. -1.
</event>
<event>
 5   0  0.7561815E-07  0.3057601E+04  0.7818609E-02  0.8227471E-01
       -1   -1    0    0    0  501  0.00000000000E+00  0.00000000000E+00  0.96109662771E+03  0.96109662773E+03  0.50400001928E-02 0. -1.
        1   -1    0    0  501    0  0.00000000000E+00  0.00000000000E+00 -0.24318380788E+04  0.24318380788E+04  0.50400001928E-02 0.  1.
    10030    2    1    2    0    0  0.00000000000E+00  0.00000000000E+00 -0.14707414511E+04  0.33929347065E+04  0.30576012668E+04 0.  0.
        3    1    3    3  502    0  0.11905632249E+04  0.26730366247E+03  0.28669647744E+03  0.12534300622E+04  0.10100000352E+00 0. -1.
       -3    1    3    3    0  502 -0.11905632249E+04 -0.26730366247E+03 -0.17574379285E+04  0.21395046443E+04  0.10100000352E+00 0.  1.
</event>
<event>
 5   0  0.7561815E-07  0.3111506E+04  0.7818609E-02  0.8212587E-01
       -1   -1    0    0    0  501  0.00000000000E+00  0.00000000000E+00  0.93497166923E+03  0.93497166924E+03  0.50400001928E-02 0. -1.
        1   -1    0    0  501    0  0.00000000000E+00  0.00000000000E+00 -0.25887063811E+04  0.25887063811E+04  0.50400001928E-02 0.  1.
    10030    2    1    2    0    0  0.00000000000E+00  0.00000000000E+00 -0.16537347119E+04  0.35236780503E+04  0.31115058260E+04 0.  0.
        3    1    3    3  502    0  0.12859708581E+04  0.15835608887E+03  0.14835019382E+03  0.13041493354E+04  0.10100000352E+00 0. -1.
       -3    1    3    3    0  502 -0.12859708581E+04 -0.15835608887E+03 -0.18020849057E+04  0.22195287149E+04  0.10100000352E+00 0.  1.
</event>
<event>
 5   0  0.2133385E-06  0.3093041E+04  0.7818609E-02  0.8217650E-01
        2   -1    0    0  501    0  0.00000000000E+00  0.00000000000E+00  0.17887245920E+04  0.17887245920E+04  0.25500000920E-02 0. -1.
       -2   -1    0    0    0  501  0.00000000000E+00  0.00000000000E+00 -0.13371121425E+04  0.13371121425E+04  0.25500000920E-02 0.  1.
    10030    2    1    2    0    0  0.00000000000E+00  0.00000000000E+00  0.45161244955E+03  0.31258367345E+04  0.30930408155E+04 0.  0.
        2    1    3    3  502    0  0.99225036520E+02 -0.83673675362E+03  0.15363801847E+04  0.17522665536E+04  0.25500000920E-02 0. -1.
       -2    1    3    3    0  502 -0.99225036520E+02  0.83673675362E+03 -0.10847677352E+04  0.13735701809E+04  0.25500000920E-02 0.  1.
</event>
<event>
 5   0  0.7413481E-07  0.3083590E+04  0.7818609E-02  0.8220256E-01
        1   -1    0    0  501    0  0.00000000000E+00  0.00000000000E+00  0.22616920565E+04  0.22616920565E+04  0.50400001928E-02 0. -1.
       -1   -1    0    0    0  501  0.00000000000E+00  0.00000000000E+00 -0.10510413514E+04  0.10510413514E+04  0.50400001928E-02 0.  1.
    10030    2    1    2    0    0  0.00000000000E+00  0.00000000000E+00  0.12106507050E+04  0.33127334079E+04  0.30835900347E+04 0.  0.
        5    1    3    3  502    0 -0.59723173734E+03  0.84974740559E+03  0.18294518847E+04  0.21037282833E+04  0.46999998093E+01 0. -1.
       -5    1    3    3    0  502  0.59723173734E+03 -0.84974740559E+03 -0.61880117967E+03  0.12090051246E+04  0.46999998093E+01 0.  1.
</event>
<event>
 5   0  0.2226334E-06  0.3031094E+04  0.7818609E-02  0.8234907E-01
       -2   -1    0    0    0  501  0.00000000000E+00  0.00000000000E+00  0.99899678799E+03  0.99899678799E+03  0.25500000920E-02 0. -1.
        2   -1    0    0  501    0  0.00000000000E+00  0.00000000000E+00 -0.22991897786E+04  0.22991897786E+04  0.25500000920E-02 0.  1.
    10030    2    1    2    0    0  0.00000000000E+00  0.00000000000E+00 -0.13001929906E+04  0.32981865666E+04  0.30310943263E+04 0.  0.
        5    1    3    3  502    0 -0.11325078065E+04  0.92436669626E+03 -0.10851167979E+04  0.18205845973E+04  0.46999998093E+01 0.  1.
       -5    1    3    3    0  502  0.11325078065E+04 -0.92436669626E+03 -0.21507619267E+03  0.14776019692E+04  0.46999998093E+01 0. -1.
</event>
<event>
 5   0  0.7656332E-07  0.3106627E+04  0.7818609E-02  0.8213922E-01
        1   -1    0    0  501    0  0.00000000000E+00  0.00000000000E+00  0.22255119283E+04  0.22255119283E+04  0.50400001928E-02 0.  1.
       -1   -1    0    0    0  501  0.00000000000E+00  0.00000000000E+00 -0.10841472440E+04  0.10841472441E+04  0.50400001928E-02 0. -1.
    10030    2    1    2    0    0  0.00000000000E+00  0.00000000000E+00  0.11413646842E+04  0.33096591723E+04  0.31066268676E+04 0.  0.
        2    1    3    3  502    0 -0.43700697303E+03 -0.11159205777E+03 -0.10128498814E+04  0.11087347582E+04  0.25500000920E-02 0. -1.
       -2    1    3    3    0  502  0.43700697303E+03  0.11159205777E+03  0.21542145656E+04  0.22009244141E+04  0.25500000920E-02 0.  1.
</event>
<event>
 5   0  0.6979625E-07  0.3106369E+04  0.7818609E-02  0.8213992E-01
        4   -1    0    0  501    0  0.00000000000E+00  0.00000000000E+00  0.11805870869E+04  0.11805877700E+04  0.12699999809E+01 0. -1.
       -4   -1    0    0    0  501  0.00000000000E+00  0.00000000000E+00 -0.20433732047E+04  0.20433735993E+04  0.12699999809E+01 0.  1.
    10030    2    1    2    0    0  0.00000000000E+00  0.00000000000E+00 -0.86278611778E+03  0.32239613693E+04  0.31063687846E+04 0.  0.
        2    1    3    3  502    0 -0.31583228676E+03  0.13994099077E+04  0.18635638187E+03  0.14466605767E+04  0.25500000920E-02 0. -1.
       -2    1    3    3    0  502  0.31583228676E+03 -0.13994099077E+04 -0.10491424996E+04  0.17773007927E+04  0.25500000920E-02 0.  1.
</event>
<event>
 5   0  0.7726743E-07  0.3079551E+04  0.7818609E-02  0.8221372E-01
        1   -1    0    0  501    0  0.00000000000E+00  0.00000000000E+00  0.18400776054E+04  0.18400776054E+04  0.50400001928E-02 0.  1.
       -1   -1    0    0    0  501  0.00000000000E+00  0.00000000000E+00 -0.12884832736E+04  0.12884832736E+04  0.50400001928E-02 0. -1.
    10030    2    1    2    0    0  0.00000000000E+00  0.00000000000E+00  0.55159433182E+03  0.31285608790E+04  0.30795514068E+04 0.  0.
        1    1    3    3  502    0 -0.11730920640E+04 -0.69580691399E+03  0.10017439271E+04  0.16922715940E+04  0.50400001928E-02 0.  1.
       -1    1    3    3    0  502  0.11730920640E+04  0.69580691399E+03 -0.45014959528E+03  0.14362892851E+04  0.50400001928E-02 0. -1.
</event>
<event>
 5   0  0.7656332E-07  0.3087288E+04  0.7818609E-02  0.8219235E-01
        1   -1    0    0  501    0  0.00000000000E+00  0.00000000000E+00  0.15442202219E+04  0.15442202219E+04  0.50400001928E-02 0.  1.
       -1   -1    0    0    0  501  0.00000000000E+00  0.00000000000E+00 -0.15430677738E+04  0.15430677738E+04  0.50400001928E-02 0. -1.
    10030    2    1    2    0    0  0.00000000000E+00  0.00000000000E+00  0.11524481218E+01  0.30872879957E+04  0.30872877806E+04 0.  0.
        2    1    3    3  502    0  0.21818907028E+03  0.58302218602E+03  0.14131325586E+04  0.15441712884E+04  0.25500000920E-02 0.  1.
       -2    1    3    3    0  502 -0.21818907028E+03 -0.58302218602E+03 -0.14119801105E+04  0.15431167073E+04  0.25500000920E-02 0. -1.
</event>
<event>
 5   0  0.2067926E-06  0.3107633E+04  0.7818609E-02  0.8213646E-01
       -2   -1    0    0    0  501  0.00000000000E+00  0.00000000000E+00  0.19001399243E+04  0.19001399243E+04  0.25500000920E-02 0. -1.
        2   -1    0    0  501    0  0.00000000000E+00  0.00000000000E+00 -0.12706147527E+04  0.12706147527E+04  0.25500000920E-02 0.  1.
    10030    2    1    2    0    0  0.00000000000E+00  0.00000000000E+00  0.62952517161E+03  0.31707546770E+04  0.31076330671E+04 0.  0.
        1    1    3    3  502    0 -0.93918809654E+03 -0.98456137637E+03  0.10802755635E+04  0.17373631393E+04  0.50400001928E-02 0. -1.
       -1    1    3    3    0  502  0.93918809654E+03  0.98456137637E+03 -0.45075039192E+03  0.14333915377E+04  0.50400001928E-02 0.  1.
</event>
<event>
 5   0  0.2067926E-06  0.3127869E+04  0.7818609E-02  0.8208131E-01
       -2   -1    0    0    0  501  0.00000000000E+00  0.00000000000E+00  0.10295546285E+04  0.10295546285E+04  0.25500000920E-02 0.  1.
        2   -1    0    0  501    0  0.00000000000E+00  0.00000000000E+00 -0.23756788400E+04  0.23756788400E+04  0.25500000920E-02 0. -1.
    10030    2    1    2    0    0  0.00000000000E+00  0.00000000000E+00 -0.13461242115E+04  0.34052334684E+04  0.31278690161E+04 0.  0.
        1    1    3    3  502    0  0.84506254017E+03  0.28102510061E+03 -0.20726705736E+04  0.22558965203E+04  0.50400001928E-02 0. -1.
       -1    1    3    3    0  502 -0.84506254017E+03 -0.28102510061E+03  0.72654636208E+03  0.11493369481E+04  0.50400001928E-02 0.  1.
</event>
<event>
 5   0  0.6979625E-07  0.3088302E+04  0.7818609E-02  0.8218956E-01
       -3   -1    0    0    0  501  0.00000000000E+00  0.00000000000E+00  0.18279272320E+04  0.18279272348E+04  0.10100000352E+00 0.  1.
        3   -1    0    0  501    0  0.00000000000E+00  0.00000000000E+00 -0.13044299567E+04  0.13044299606E+04  0.10100000352E+00 0. -1.
    10030    2    1    2    0    0  0.00000000000E+00  0.00000000000E+00  0.52349727531E+03  0.31323571955E+04  0.30883024792E+04 0.  0.
        5    1    3    3  502    0  0.76204528810E+03  0.75550538373E+03  0.13879389206E+04  0.17543938962E+04  0.46999998093E+01 0.  1.
       -5    1    3    3    0  502 -0.76204528810E+03 -0.75550538373E+03 -0.86444164526E+03  0.13779632992E+04  0.46999998093E+01 0. -1.
</event>
<event>
 5   0  0.7519202E-07  0.3102994E+04  0.7818609E-02  0.8214917E-01
       -1   -1    0    0    0  501  0.00000000000E+00  0.00000000000E+00  0.11826564771E+04  0.11826564771E+04  0.50400001928E-02 0. -1.
        1   -1    0    0  501    0  0.00000000000E+00  0.00000000000E+00 -0.20353689318E+04  0.20353689318E+04  0.50400001928E-02 0.  1.
    10030    2    1    2    0    0  0.00000000000E+00  0.00000000000E+00 -0.85271245472E+03  0.32180254090E+04  0.31029935550E+04 0.  0.
        4    1    3    3  502    0  0.71043421141E+03  0.86329766473E+03 -0.15419388440E+04  0.19046198146E+04  0.12699999809E+01 0.  1.
       -4    1    3    3    0  502 -0.71043421141E+03 -0.86329766473E+03  0.68922638928E+03  0.13134055943E+04  0.12699999809E+01 0. -1.
</event>
<event>
 5   0  0.2226334E-06  0.3077372E+04  0.7818609E-02  0.8221976E-01
       -2   -1    0    0    0  501  0.00000000000E+00  0.00000000000E+00  0.17189728687E+04  0.17189728687E+04  0.25500000920E-02 0.  1.
        2   -1    0    0  501    0  0.00000000000E+00  0.00000000000E+00 -0.13773077241E+04  0.13773077241E+04  0.25500000920E-02 0. -1.
    10030    2    1    2    0    0  0.00000000000E+00  0.00000000000E+00  0.34166514465E+03  0.30962805928E+04  0.30773720020E+04 0.  0.
        5    1    3    3  502    0 -0.11435856081E+04 -0.70138645635E+03 -0.58732344478E+03  0.14644800862E+04  0.46999998093E+01 0. -1.
       -5    1    3    3    0  502  0.11435856081E+04  0.70138645635E+03  0.92898858943E+03  0.16318005066E+04  0.46999998093E+01 0.  1.
</event>
<event>
 5   0  0.7413481E-07  0.3084018E+04  0.7818609E-02  0.8220138E-01
       -1   -1    0    0    0  501  0.00000000000E+00  0.00000000000E+00  0.13127836773E+04  0.13127836773E+04  0.50400001928E-02 0. -1.
        1   -1    0    0  501    0  0.00000000000E+00  0.00000000000E+00 -0.18112599520E+04  0.18112599520E+04  0.50400001928E-02 0.  1.
    10030    2    1    2    0    0  0.00000000000E+00  0.00000000000E+00 -0.49847627463E+03  0.31240436293E+04  0.30840184827E+04 0.  0.
        5    1    3    3  502    0  0.16984842170E+03 -0.91618151832E+03 -0.14938142877E+04  0.17606079282E+04  0.46999998093E+01 0.  1.
       -5    1    3    3    0  502 -0.16984842170E+03  0.91618151832E+03  0.99533801302E+03  0.13634357011E+04  0.46999998093E+01 0. -1.
</event>
<event>
 5   0  0.7656332E-07  0.3067799E+04  0.7818609E-02  0.8224631E-01
       -1   -1    0    0    0  501  0.00000000000E+00  0.00000000000E+00  0.11229412459E+04  0.11229412459E+04  0.50400001928E-02 0.  1.
        1   -1    0    0  501    0  0.00000000000E+00  0.00000000000E+00 -0.20952544276E+04  0.20952544276E+04  0.50400001928E-02 0. -1.
    10030    2    1    2    0    0  0.00000000000E+00  0.00000000000E+00 -0.97231318169E+03  0.32181956735E+04  0.30677989618E+04 0.  0.
        2    1    3    3  502    0 -0.10459156373E+03  0.13409056447E+04 -0.12597935416E+04  0.18428367021E+04  0.25500000920E-02 0. -1.
       -2    1    3    3    0  502  0.10459156373E+03 -0.13409056447E+04  0.28748035990E+03  0.13753589715E+04  0.25500000920E-02 0.  1.
</event>
<event>
 5   0  0.2226334E-06  0.3126928E+04  0.7818609E-02  0.8208386E-01
        2   -1    0    0  501    0  0.00000000000E+00  0.00000000000E+00  0.16676616593E+04  0.16676616593E+04  0.25500000920E-02 0. -1.
       -2   -1    0    0    0  501  0.00000000000E+00  0.00000000000E+00 -0.14657771128E+04  0.14657771128E+04  0.25500000920E-02 0.  1.
    10030    2    1    2    0    0  0.00000000000E+00  0.00000000000E+00  0.20188454651E+03  0.31334387722E+04  0.31269283920E+04 0.  0.
        5    1    3    3  502    0 -0.10615908304E+04  0.11128912525E+04 -0.18052716136E+03  0.15485845721E+04  0.46999998093E+01 0.  1.
       -5    1    3    3    0  502  0.10615908304E+04 -0.11128912525E+04  0.38241170787E+03  0.15848542000E+04  0.46999998093E+01 0. -1.
</event>
<event>
 5   0  0.2067926E-06  0.3106929E+04  0.7818609E-02  0.8213839E-01
        2   -1    0    0  501    0  0.00000000000E+00  0.00000000000E+00  0.11041931076E+04  0.11041931076E+04  0.25500000920E-02 0. -1.
       -2   -1    0    0    0  501  0.00000000000E+00  0.00000000000E+00 -0.21855348121E+04  0.21855348121E+04  0.25500000920E-02 0.  1.
    10030    2    1    2    0    0  0.00000000000E+00  0.00000000000E+00 -0.10813417045E+04  0.32897279198E+04  0.31069293368E+04 0.  0.
        1    1    3    3  502    0  0.67543419995E+02 -0.15516654907E+04 -0.57456298439E+03  0.16560043875E+04  0.50400001928E-02 0.  1.
       -1    1    3    3    0  502 -0.67543419995E+02  0.15516654907E+04 -0.50677872015E+03  0.16337235322E+04  0.50400001928E-02 0. -1.
</event>
<event>
 5   0  0.7656332E-07  0.3113981E+04  0.7818609E-02  0.8211912E-01
       -1   -1    0    0    0  501  0.00000000000E+00  0.00000000000E+00  0.12072040080E+04  0.12072040080E+04  0.50400001928E-02 0.  1.
        1   -1    0    0  501    0  0.00000000000E+00  0.00000000000E+00 -0.20081268461E+04  0.20081268461E+04  0.50400001928E-02 0. -1.
    10030    2    1    2    0    0  0.00000000000E+00  0.00000000000E+00 -0.80092283812E+03  0.32153308541E+04  0.31139805890E+04 0.  0.
        2    1    3    3  502    0 -0.40943451124E+03 -0.14816692690E+04 -0.65597939334E+03  0.16713136768E+04  0.25500000920E-02 0. -1.
       -2    1    3    3    0  502  0.40943451124E+03  0.14816692690E+04 -0.14494344478E+03  0.15440171773E+04  0.25500000920E-02 0.  1.
</event>
<event>
 5   0  0.7413481E-07  0.3096296E+04  0.7818609E-02  0.8216755E-01
       -1   -1    0    0    0  501  0.00000000000E+00  0.00000000000E+00  0.18335110001E+04  0.18335110001E+04  0.50400001928E-02 0.  1.
        1   -1    0    0  501    0  0.00000000000E+00  0.00000000000E+00 -0.13071983525E+04  0.13071983525E+04  0.50400001928E-02 0. -1.
    10030    2    1    2    0    0  0.00000000000E+00  0.00000000000E+00  0.52631264759E+03  0.31407093526E+04  0.30962962124E+04 0.  0.
        5    1    3    3  502    0 -0.12024960984E+03 -0.50671880413E+03 -0.12156710879E+04  0.13225362751E+04  0.46999998093E+01 0. -1.
       -5    1    3    3    0  502  0.12024960984E+03  0.50671880413E+03  0.17419837355E+04  0.18181730775E+04  0.46999998093E+01 0.  1.
</event>
<event>
 5   0  0.7561815E-07  0.3130364E+04  0.7818609E-02  0.8207454E-01
        1   -1    0    0  501    0  0.00000000000E+00  0.00000000000E+00  0.20834245630E+04  0.20834245630E+04  0.50400001928E-02 0.  1.
       -1   -1    0    0    0  501  0.00000000000E+00  0.00000000000E+00 -0.11758500319E+04  0.11758500319E+04  0.50400001928E-02 0. -1.
    10030    2    1    2    0    0  0.00000000000E+00  0.00000000000E+00  0.90757453106E+03  0.32592745949E+04  0.31303640931E+04 0.  0.
        3    1    3    3  502    0  0.12122276782E+03 -0.63523734405E+03  0.19378161555E+04  0.20428785831E+04  0.10100000352E+00 0.  1.
       -3    1    3    3    0  502 -0.12122276782E+03  0.63523734405E+03 -0.10302416244E+04  0.12163960118E+04  0.10100000352E+00 0. -1.
</event>
<event>
 5   0  0.7561815E-07  0.3092182E+04  0.7818609E-02  0.8217887E-01
        1   -1    0    0  501    0  0.00000000000E+00  0.00000000000E+00  0.21710707881E+04  0.21710707882E+04  0.50400001928E-02 0.  1.
       -1   -1    0    0    0  501  0.00000000000E+00  0.00000000000E+00 -0.11010226223E+04  0.11010226223E+04  0.50400001928E-02 0. -1.
    10030    2    1    2    0    0  0.00000000000E+00  0.00000000000E+00  0.10700481659E+04  0.32720934104E+04  0.30921824347E+04 0.  0.
        3    1    3    3  502    0  0.14202548636E+04 -0.61005789782E+03  0.49987193963E+03  0.16245511634E+04  0.10100000352E+00 0.  1.
       -3    1    3    3    0  502 -0.14202548636E+04  0.61005789782E+03  0.57017622626E+03  0.16475422470E+04  0.10100000352E+00 0. -1.
</event>
<event>
 5   0  0.7413481E-07  0.3079685E+04  0.7818609E-02  0.8221335E-01
       -1   -1    0    0    0  501  0.00000000000E+00  0.00000000000E+00  0.12118893014E+04  0.12118893014E+04  0.50400001928E-02 0.  1.
        1   -1    0    0  501    0  0.00000000000E+00  0.00000000000E+00 -0.19565436264E+04  0.19565436264E+04  0.50400001928E-02 0. -1.
    10030    2    1    2    0    0  0.00000000000E+00  0.00000000000E+00 -0.74465432500E+03  0.31684329277E+04  0.30796845867E+04 0.  0.
        5    1    3    3  502    0  0.66486704773E+03  0.13270767340E+04  0.49251191944E+02  0.14851358925E+04  0.46999998093E+01 0.  1.
       -5    1    3    3    0  502 -0.66486704773E+03 -0.13270767340E+04 -0.79390551695E+03  0.16832970353E+04  0.46999998093E+01 0. -1.
</event>
<event>
 5   0  0.7519202E-07  0.3066786E+04  0.7818609E-02  0.8224913E-01
       -1   -1    0    0    0  501  0.00000000000E+00  0.00000000000E+00  0.14545904519E+04  0.14545904519E+04  0.50400001928E-02 0. -1.
        1   -1    0    0  501    0  0.00000000000E+00  0.00000000000E+00 -0.16164651200E+04  0.16164651200E+04  0.50400001928E-02 0.  1.
    10030    2    1    2    0    0  0.00000000000E+00  0.00000000000E+00 -0.16187466804E+03  0.30710555719E+04  0.30667864154E+04 0.  0.
        4    1    3    3  502    0  0.45443597603E+03 -0.42505338827E+03  0.13224809253E+04  0.14615539162E+04  0.12699999809E+01 0. -1.
       -4    1    3    3    0  502 -0.45443597603E+03  0.42505338827E+03 -0.14843555934E+04  0.16095016557E+04  0.12699999809E+01 0.  1.
</event>
<event>
 5   0  0.7413481E-07  0.3097875E+04  0.7818609E-02  0.8216321E-01
        1   -1    0    0  501    0  0.00000000000E+00  0.00000000000E+00  0.10598677550E+04  0.10598677550E+04  0.50400001928E-02 0. -1.
       -1   -1    0    0    0  501  0.00000000000E+00  0.00000000000E+00 -0.22636859877E+04  0.22636859877E+04  0.50400001928E-02 0.  1.
    10030    2    1    2    0    0  0.00000000000E+00  0.00000000000E+00 -0.12038182327E+04  0.33235537427E+04  0.30978752627E+04 0.  0.
        5    1    3    3  502    0  0.12489828620E+04  0.83528000994E+03 -0.10055270121E+04  0.18079705603E+04  0.46999998093E+01 0.  1.
       -5    1    3    3    0  502 -0.12489828620E+04 -0.83528000994E+03 -0.19829122060E+03  0.15155831824E+04  0.46999998093E+01 0. -1.
</event>
<event>
 5   0  0.2094135E-06  0.3110018E+04  0.7818609E-02  0.8212994E-01
       -2   -1    0    0    0  501  0.00000000000E+00  0.00000000000E+00  0.12211587573E+04  0.12211587573E+04  0.25500000920E-02 0. -1.
        2   -1    0    0  501    0  0.00000000000E+00  0.00000000000E+00 -0.19801299064E+04  0.19801299064E+04  0.25500000920E-02 0.  1.
    10030    2    1    2    0    0  0.00000000000E+00  0.00000000000E+00 -0.75897114915E+03  0.32012886637E+04  0.31100179908E+04 0.  0.
        4    1    3    3  502    0  0.89317065650E+03  0.89091815860E+03 -0.13153215833E+04  0.18225151487E+04  0.12699999809E+01 0.  1.
       -4    1    3    3    0  502 -0.89317065650E+03 -0.89091815860E+03  0.55635043417E+03  0.13787735149E+04  0.12699999809E+01 0. -1.
</event>
<event>
 5   0  0.7413481E-07  0.3110721E+04  0.7818609E-02  0.8212802E-01
        1   -1    0    0  501    0  0.00000000000E+00  0.00000000000E+00  0.19556124691E+04  0.19556124691E+04  0.50400001928E-02 0. -1.
       -1   -1    0    0    0  501  0.00000000000E+00  0.00000000000E+00 -0.12370274526E+04  0.12370274526E+04  0.50400001928E-02 0.  1.
    10030    2    1    2    0    0  0.00000000000E+00  0.00000000000E+00  0.71858501644E+03  0.31926399217E+04  0.31107210167E+04 0.  0.
        5    1    3    3  502    0  0.37484805759E+03  0.55286874196E+02 -0.11889275495E+04  0.12478535622E+04  0.46999998093E+01 0.  1.
       -5    1    3    3    0  502 -0.37484805759E+03 -0.55286874196E+02  0.19075125660E+04  0.19447863595E+04  0.46999998093E+01 0. -1.
</event>
<event>
 5   0  0.2078009E-06  0.3132473E+04  0.7818609E-02  0.8206882E-01
        2   -1    0    0  501    0  0.00000000000E+00  0.00000000000E+00  0.23945563081E+04  0.23945563081E+04  0.25500000920E-02 0.  1.
       -2   -1    0    0    0  501  0.00000000000E+00  0.00000000000E+00 -0.10244472861E+04  0.10244472861E+04  0.25500000920E-02 0. -1.
    10030    2    1    2    0    0  0.00000000000E+00  0.00000000000E+00  0.13701090220E+04  0.34190035942E+04  0.31324729599E+04 0.  0.
        3    1    3    3  502    0  0.23721034038E+03 -0.85369022590E+03  0.20947184211E+04  0.22744012445E+04  0.10100000352E+00 0.  1.
       -3    1    3    3    0  502 -0.23721034038E+03  0.85369022590E+03 -0.72460939907E+03  0.11446023496E+04  0.10100000352E+00 0. -1.
</event>
<event>
 5   0  0.2078009E-06  0.3097582E+04  0.7818609E-02  0.8216402E-01
        2   -1    0    0  501    0  0.00000000000E+00  0.00000000000E+00  0.25519650647E+04  0.25519650647E+04  0.25500000920E-02 0. -1.
       -2   -1    0    0    0  501  0.00000000000E+00  0.00000000000E+00 -0.93996347257E+03  0.93996347258E+03  0.25500000920E-02 0.  1.
    10030    2    1    2    0    0  0.00000000000E+00  0.00000000000E+00  0.16120015922E+04  0.34919285373E+04  0.30975822469E+04 0.  0.
        3    1    3    3  502    0 -0.59454550751E+03  0.33869809814E+02  0.24177443811E+04  0.24900039011E+04  0.10100000352E+00 0. -1.
       -3    1    3    3    0  502  0.59454550751E+03 -0.33869809814E+02 -0.80574278899E+03  0.10019246363E+04  0.10100000352E+00 0.  1.
</event>
<event>
 5   0  0.6979625E-07  0.3098643E+04  0.7818609E-02  0.8216110E-01
        4   -1    0    0  501    0  0.00000000000E+00  0.00000000000E+00  0.15441829633E+04  0.15441834855E+04  0.12699999809E+01 0.  1.
       -4   -1    0    0    0  501  0.00000000000E+00  0.00000000000E+00 -0.15544763131E+04  0.15544768319E+04  0.12699999809E+01 0. -1.
    10030    2    1    2    0    0  0.00000000000E+00  0.00000000000E+00 -0.10293349813E+02  0.30986603175E+04  0.30986432208E+04 0.  0.
        3    1    3    3  502    0 -0.89257190399E+03  0.46052041205E+03 -0.11848284732E+04  0.15532489095E+04  0.10100000352E+00 0. -1.
       -3    1    3    3    0  502  0.89257190399E+03 -0.46052041205E+03  0.11745351234E+04  0.15454114080E+04  0.10100000352E+00 0.  1.
</event>
<event>
 5   0  0.2226334E-06  0.3122918E+04  0.7818609E-02  0.8209476E-01
       -2   -1    0    0    0  501  0.00000000000E+00  0.00000000000E+00  0.13189743209E+04  0.13189743209E+04  0.25500000920E-02 0.  1.
        2   -1    0    0  501    0  0.00000000000E+00  0.00000000000E+00 -0.18485233381E+04  0.18485233381E+04  0.25500000920E-02 0. -1.
    10030    2    1    2    0    0  0.00000000000E+00  0.00000000000E+00 -0.52954901721E+03  0.31674976589E+04  0.31229183879E+04 0.  0.
        5    1    3    3  502    0  0.73905330069E+03 -0.77531727815E+03  0.88758462404E+03  0.13910949708E+04  0.46999998093E+01 0.  1.
       -5    1    3    3    0  502 -0.73905330069E+03  0.77531727815E+03 -0.14171336412E+04  0.17764026881E+04  0.46999998093E+01 0. -1.
</event>
<event>
 5   0  0.7413481E-07  0.3099399E+04  0.7818609E-02  0.8215903E-01
        1   -1    0    0  501    0  0.00000000000E+00  0.00000000000E+00  0.18368132320E+04  0.18368132320E+04  0.50400001928E-02 0.  1.
       -1   -1    0    0    0  501  0.00000000000E+00  0.00000000000E+00 -0.13074645383E+04  0.13074645383E+04  0.50400001928E-02 0. -1.
    10030    2    1    2    0    0  0.00000000000E+00  0.00000000000E+00  0.52934869370E+03  0.31442777703E+04  0.30993987573E+04 0.  0.
        5    1    3    3  502    0 -0.11871584558E+04 -0.62687897160E+03 -0.52062984614E+03  0.14399305438E+04  0.46999998093E+01 0.  1.
       -5    1    3    3    0  502  0.11871584558E+04  0.62687897160E+03  0.10499785398E+04  0.17043472265E+04  0.46999998093E+01 0. -1.
</event>
<event>
 5   0  0.7656332E-07  0.3109546E+04  0.7818609E-02  0.8213123E-01
       -1   -1    0    0    0  501  0.00000000000E+00  0.00000000000E+00  0.12662668572E+04  0.12662668572E+04  0.50400001928E-02 0.  1.
        1   -1    0    0  501    0  0.00000000000E+00  0.00000000000E+00 -0.19090129723E+04  0.19090129723E+04  0.50400001928E-02 0. -1.
    10030    2    1    2    0    0  0.00000000000E+00  0.00000000000E+00 -0.64274611513E+03  0.31752798295E+04  0.31095464986E+04 0.  0.
        2    1    3    3  502    0  0.82926757118E+03  0.12418126776E+04 -0.76358225025E+03  0.16771527312E+04  0.25500000920E-02 0. -1.
       -2    1    3    3    0  502 -0.82926757118E+03 -0.12418126776E+04  0.12083613512E+03  0.14981270983E+04  0.25500000920E-02 0.  1.
</event>
<event>
 5   0  0.2226334E-06  0.3102860E+04  0.7818609E-02  0.8214953E-01
        2   -1    0    0  501    0  0.00000000000E+00  0.00000000000E+00  0.18327511420E+04  0.18327511420E+04  0.25500000920E-02 0. -1.
       -2   -1    0    0    0  501  0.00000000000E+00  0.00000000000E+00 -0.13132906660E+04  0.13132906660E+04  0.25500000920E-02 0.  1.
    10030    2    1    2    0    0  0.00000000000E+00  0.00000000000E+00  0.51946047604E+03  0.31460418080E+04  0.31028599504E+04 0.  0.
        5    1    3    3  502    0  0.26430168691E+03  0.13983888190E+04 -0.36657676590E+03  0.14696078681E+04  0.46999998093E+01 0.  1.
       -5    1    3    3    0  502 -0.26430168691E+03 -0.13983888190E+04  0.88603724193E+03  0.16764339399E+04  0.46999998093E+01 0. -1.
</event>
<event>
 5   0  0.2067926E-06  0.3074866E+04  0.7818609E-02  0.8222670E-01
        2   -1    0    0  501    0  0.00000000000E+00  0.00000000000E+00  0.25725487306E+04  0.25725487306E+04  0.25500000920E-02 0. -1.
       -2   -1    0    0    0  501  0.00000000000E+00  0.00000000000E+00 -0.91881627524E+03  0.91881627525E+03  0.25500000920E-02 0.  1.
    10030    2    1    2    0    0  0.00000000000E+00  0.00000000000E+00  0.16537324554E+04  0.34913650059E+04  0.30748656182E+04 0.  0.
        1    1    3    3  502    0 -0.43280630902E+03 -0.14660296268E+04  0.10139076631E+04  0.18342772192E+04  0.50400001928E-02 0.  1.
       -1    1    3    3    0  502  0.43280630902E+03  0.14660296268E+04  0.63982479230E+03  0.16570877866E+04  0.50400001928E-02 0. -1.
</event>
<event>
 5   0  0.7656332E-07  0.3107629E+04  0.7818609E-02  0.8213647E-01
       -1   -1    0    0    0  501  0.00000000000E+00  0.00000000000E+00  0.10994646832E+04  0.10994646832E+04  0.50400001928E-02 0.  1.
        1   -1    0    0  501    0  0.00000000000E+00  0.00000000000E+00 -0.21959221265E+04  0.21959221265E+04  0.50400001928E-02 0. -1.
    10030    2    1    2    0    0  0.00000000000E+00  0.00000000000E+00 -0.10964574433E+04  0.32953868097E+04  0.31076285654E+04 0.  0.
        2    1    3    3  502    0  0.12785291952E+04 -0.22187870404E+03  0.35808594981E+03  0.13461398923E+04  0.25500000920E-02 0.  1.
       -2    1    3    3    0  502 -0.12785291952E+04  0.22187870404E+03 -0.14545433931E+04  0.19492469173E+04  0.25500000920E-02 0. -1.
</event>
<event>
 5   0  0.2067926E-06  0.3097124E+04  0.7818609E-02  0.8216528E-01
        2   -1    0    0  501    0  0.00000000000E+00  0.00000000000E+00  0.17408116122E+04  0.17408116122E+04  0.25500000920E-02 0. -1.
       -2   -1    0    0    0  501  0.00000000000E+00  0.00000000000E+00 -0.13775436932E+04  0.13775436932E+04  0.25500000920E-02 0.  1.
    10030    2    1    2    0    0  0.00000000000E+00  0.00000000000E+00  0.36326791894E+03  0.31183553054E+04  0.30971238642E+04 0.  0.
        1    1    3    3  502    0 -0.42137153997E+03  0.13048282394E+04 -0.54296144424E+03  0.14747670456E+04  0.50400001928E-02 0.  1.
       -1    1    3    3    0  502  0.42137153997E+03 -0.13048282394E+04  0.90622936318E+03  0.16435882598E+04  0.50400001928E-02 0. -1.
</event>
<event>
 5   0  0.7519202E-07  0.3106894E+04  0.7818609E-02  0.8213848E-01
        1   -1    0    0  501    0  0.00000000000E+00  0.00000000000E+00  0.19097908672E+04  0.19097908672E+04  0.50400001928E-02 0.  1.
       -1   -1    0    0    0  501  0.00000000000E+00  0.00000000000E+00 -0.12635929831E+04  0.12635929831E+04  0.50400001928E-02 0. -1.
    10030    2    1    2    0    0  0.00000000000E+00  0.00000000000E+00  0.64619788410E+03  0.31733838504E+04  0.31068944875E+04 0.  0.
        4    1    3    3  502    0 -0.60629865782E+03  0.13184521191E+04 -0.24309489654E+03  0.14713975651E+04  0.12699999809E+01 0. -1.
       -4    1    3    3    0  502  0.60629865782E+03 -0.13184521191E+04  0.88929278065E+03  0.17019862853E+04  0.12699999809E+01 0.  1.
</event>
<event>
 5   0  0.2078009E-06  0.3113532E+04  0.7818609E-02  0.8212034E-01
       -2   -1    0    0    0  501  0.00000000000E+00  0.00000000000E+00  0.12946232119E+04  0.12946232119E+04  0.25500000920E-02 0. -1.
        2   -1    0    0  501    0  0.00000000000E+00  0.00000000000E+00 -0.18719887887E+04  0.18719887887E+04  0.25500000920E-02 0.  1.
    10030    2    1    2    0    0  0.00000000000E+00  0.00000000000E+00 -0.57736557674E+03  0.31666120006E+04  0.31135318456E+04 0.  0.
        3    1    3    3  502    0 -0.21240727584E+03 -0.66912628990E+03  0.11244921758E+04  0.13256430539E+04  0.10100000352E+00 0. -1.
       -3    1    3    3    0  502  0.21240727584E+03  0.66912628990E+03 -0.17018577526E+04  0.18409689467E+04  0.10100000352E+00 0.  1.
</event>
<event>
 5   0  0.7519202E-07  0.3125731E+04  0.7818609E-02  0.8208712E-01
        1   -1    0    0  501    0  0.00000000000E+00  0.00000000000E+00  0.15197547790E+04  0.15197547790E+04  0.50400001928E-02 0.  1.
       -1   -1    0    0    0  501  0.00000000000E+00  0.00000000000E+00 -0.16071990878E+04  0.16071990878E+04  0.50400001928E-02 0. -1.
    10030    2    1    2    0    0  0.00000000000E+00  0.00000000000E+00 -0.87444308803E+02  0.31269538669E+04  0.31257309511E+04 0.  0.
        4    1    3    3  502    0 -0.71973282083E+03 -0.80615029740E+03 -0.11731692917E+04  0.15950615773E+04  0.12699999809E+01 0. -1.
       -4    1    3    3    0  502  0.71973282083E+03  0.80615029740E+03  0.10857249829E+04  0.15318922896E+04  0.12699999809E+01 0.  1.
</event>
<event>
 5   0  0.2078009E-06  0.3093708E+04  0.7818609E-02  0.8217467E-01
        2   -1    0    0  501    0  0.00000000000E+00  0.00000000000E+00  0.22998597335E+04  0.22998597335E+04  0.25500000920E-02 0. -1.
       -2   -1    0    0    0  501  0.00000000000E+00  0.00000000000E+00 -0.10403927121E+04  0.10403927121E+04  0.25500000920E-02 0.  1.
    10030    2    1    2    0    0  0.00000000000E+00  0.00000000000E+00  0.12594670213E+04  0.33402524456E+04  0.30937080054E+04 0.  0.
        3    1    3    3  502    0  0.83349363182E+03 -0.12405014630E+04  0.10605317614E+04  0.18325619065E+04  0.10100000352E+00 0. -1.
       -3    1    3    3    0  502 -0.83349363182E+03  0.12405014630E+04  0.19893525996E+03  0.15076905391E+04  0.10100000352E+00 0.  1.
</event>
<event>
 5   0  0.2094135E-06  0.3085474E+04  0.7818609E-02  0.8219736E-01
       -2   -1    0    0    0  501  0.00000000000E+00  0.00000000000E+00  0.87036988909E+03  0.87036988909E+03  0.25500000920E-02 0.  1.
        2   -1    0    0  501    0  0.00000000000E+00  0.00000000000E+00 -0.27345132905E+04  0.27345132905E+04  0.25500000920E-02 0. -1.
    10030    2    1    2    0    0  0.00000000000E+00  0.00000000000E+00 -0.18641434015E+04  0.36048831796E+04  0.30854743748E+04 0.  0.
        4    1    3    3  502    0  0.30613353683E+03 -0.22745843026E+03  0.81442325311E+03  0.89930079949E+03  0.12699999809E+01 0.  1.
       -4    1    3    3    0  502 -0.30613353683E+03  0.22745843026E+03 -0.26785666546E+04  0.27055823801E+04  0.12699999809E+01 0. -1.
</event>
<event>
 5   0  0.2133385E-06  0.3081682E+04  0.7818609E-02  0.8220783E-01
       -2   -1    0    0    0  501  0.00000000000E+00  0.00000000000E+00  0.10619392271E+04  0.10619392271E+04  0.25500000920E-02 0.  1.
        2   -1    0    0  501    0  0.00000000000E+00  0.00000000000E+00 -0.22357125332E+04  0.22357125332E+04  0.25500000920E-02 0. -1.
    10030    2    1    2    0    0  0.00000000000E+00  0.00000000000E+00 -0.11737733062E+04  0.32976517603E+04  0.30816819041E+04 0.  0.
        2    1    3    3  502    0 -0.65352410946E+02  0.15251106816E+04 -0.81123999404E+03  0.17286826940E+04  0.25500000920E-02 0. -1.
       -2    1    3    3    0  502  0.65352410946E+02 -0.15251106816E+04 -0.36253331211E+03  0.15689690663E+04  0.25500000920E-02 0.  1.
</event>
<event>
 5   0  0.2133385E-06  0.3075672E+04  0.7818609E-02  0.8222446E-01
       -2   -1    0    0    0  501  0.00000000000E+00  0.00000000000E+00  0.99961143404E+03  0.99961143404E+03  0.25500000920E-02 0.  1.
        2   -1    0    0  501    0  0.00000000000E+00  0.00000000000E+00 -0.23658593371E+04  0.23658593371E+04  0.25500000920E-02 0. -1.
    10030    2    1    2    0    0  0.00000000000E+00  0.00000000000E+00 -0.13662479031E+04  0.33654707712E+04  0.30756723133E+04 0.  0.
        2    1    3    3  502    0  0.73573748534E+03  0.22656691457E+03  0.77358944039E+03  0.10913674159E+04  0.25500000920E-02 0.  1.
       -2    1    3    3    0  502 -0.73573748534E+03 -0.22656691457E+03 -0.21398373435E+04  0.22741033553E+04  0.25500000920E-02 0. -1.
</event>
<event>
 5   0  0.7519202E-07  0.3106516E+04  0.7818609E-02  0.8213952E-01
       -1   -1    0    0    0  501  0.00000000000E+00  0.00000000000E+00  0.11830618813E+04  0.11830618813E+04  0.50400001928E-02 0. -1.
        1   -1    0    0  501    0  0.00000000000E+00  0.00000000000E+00 -0.20392935359E+04  0.20392935359E+04  0.50400001928E-02 0.  1.
    10030    2    1    2    0    0  0.00000000000E+00  0.00000000000E+00 -0.85623165464E+03  0.32223554173E+04  0.31065160210E+04 0.  0.
        4    1    3    3  502    0 -0.92234808640E+03  0.19506725220E+03  0.85235099911E+03  0.12709370810E+04  0.12699999809E+01 0. -1.
       -4    1    3    3    0  502  0.92234808640E+03 -0.19506725220E+03 -0.17085826537E+04  0.19514183362E+04  0.12699999809E+01 0.  1.
</event>
<event>
 5   0  0.2133385E-06  0.3099244E+04  0.7818609E-02  0.8215946E-01
        2   -1    0    0  501    0  0.00000000000E+00  0.00000000000E+00  0.22580817274E+04  0.22580817274E+04  0.25500000920E-02 0.  1.
       -2   -1    0    0    0  501  0.00000000000E+00  0.00000000000E+00 -0.10634369898E+04  0.10634369898E+04  0.25500000920E-02 0. -1.
    10030    2    1    2    0    0  0.00000000000E+00  0.00000000000E+00  0.11946447376E+04  0.33215187173E+04  0.30992435432E+04 0.  0.
        2    1    3    3  502    0 -0.63496776084E+03 -0.32959428598E+03  0.20705020916E+04  0.21906152930E+04  0.25500000920E-02 0.  1.
       -2    1    3    3    0  502  0.63496776084E+03  0.32959428598E+03 -0.87585735393E+03  0.11309034243E+04  0.25500000920E-02 0. -1.
</event>
<event>
 5   0  0.2226334E-06  0.3116987E+04  0.7818609E-02  0.8211091E-01
       -2   -1    0    0    0  501  0.00000000000E+00  0.00000000000E+00  0.17888779941E+04  0.17888779941E+04  0.25500000920E-02 0. -1.
        2   -1    0    0  501    0  0.00000000000E+00  0.00000000000E+00 -0.13577793940E+04  0.13577793940E+04  0.25500000920E-02 0.  1.
    10030    2    1    2    0    0  0.00000000000E+00  0.00000000000E+00  0.43109860008E+03  0.31466573881E+04  0.31169868006E+04 0.  0.
        5    1    3    3  502    0 -0.80726433728E+03  0.13287111398E+04  0.10621049075E+03  0.15583490500E+04  0.46999998093E+01 0. -1.
       -5    1    3    3    0  502  0.80726433728E+03 -0.13287111398E+04  0.32488810932E+03  0.15883083381E+04  0.46999998093E+01 0.  1.
</event>
<event>
 5   0  0.2226334E-06  0.3098276E+04  0.7818609E-02  0.8216211E-01
       -2   -1    0    0    0  501  0.00000000000E+00  0.00000000000E+00  0.11159551212E+04  0.11159551212E+04  0.25500000920E-02 0.  1.
        2   -1    0    0  501    0  0.00000000000E+00  0.00000000000E+00 -0.21504704195E+04  0.21504704195E+04  0.25500000920E-02 0. -1.
    10030    2    1    2    0    0  0.00000000000E+00  0.00000000000E+00 -0.10345152983E+04  0.32664255407E+04  0.30982759578E+04 0.  0.
        5    1    3    3  502    0  0.87782538685E+03 -0.12753883119E+04 -0.46335937401E+03  0.16161425542E+04  0.46999998093E+01 0.  1.
       -5    1    3    3    0  502 -0.87782538685E+03  0.12753883119E+04 -0.57115592427E+03  0.16502829866E+04  0.46999998093E+01 0. -1.
</event>
<event>
 5   0  0.2078009E-06  0.3100005E+04  0.7818609E-02  0.8215737E-01
        2   -1    0    0  501    0  0.00000000000E+00  0.00000000000E+00  0.18650345184E+04  0.18650345184E+04  0.25500000920E-02 0. -1.
       -2   -1    0    0    0  501  0.00000000000E+00  0.00000000000E+00 -0.12881838232E+04  0.12881838232E+04  0.25500000920E-02 0.  1.
    10030    2    1    2    0    0  0.00000000000E+00  0.00000000000E+00  0.57685069518E+03  0.31532183417E+04  0.31000047074E+04 0.  0.
        3    1    3    3  502    0  0.13375194398E+04 -0.42736321998E+03 -0.37927996593E+03  0.14544589635E+04  0.10100000352E+00 0.  1.
       -3    1    3    3    0  502 -0.13375194398E+04  0.42736321998E+03  0.95613066111E+03  0.16987593782E+04  0.10100000352E+00 0. -1.
</event>
<event>
 5   0  0.7413481E-07  0.2779972E+04  0.7818609E-02  0.8309513E-01
        1   -1    0    0  501    0  0.00000000000E+00  0.00000000000E+00  0.10033457509E+04  0.10033457509E+04  0.50400001928E-02 0. -1.
       -1   -1    0    0    0  501  0.00000000000E+00  0.00000000000E+00 -0.19256185478E+04  0.19256185478E+04  0.50400001928E-02 0.  1.
    10030    2    1    2    0    0  0.00000000000E+00  0.00000000000E+00 -0.92227279687E+03  0.29289642987E+04  0.27799720774E+04 0.  0.
        5    1    3    3  502    0 -0.13798265924E+04 -0.12720040269E+03 -0.57625208916E+03  0.15007297984E+04  0.46999998093E+01 0. -1.
       -5    1    3    3    0  502  0.13798265924E+04  0.12720040269E+03 -0.34602070771E+03  0.14282345003E+04  0.46999998093E+01 0.  1.
</event>
<event>
 5   0  0.7726743E-07  0.3099704E+04  0.7818609E-02  0.8215819E-01
        1   -1    0    0  501    0  0.00000000000E+00  0.00000000000E+00  0.19953068729E+04  0.19953068729E+04  0.50400001928E-02 0. -1.
       -1   -1    0    0    0  501  0.00000000000E+00  0.00000000000E+00 -0.12038458496E+04  0.12038458496E+04  0.50400001928E-02 0.  1.
    10030    2    1    2    0    0  0.00000000000E+00  0.00000000000E+00  0.79146102325E+03  0.31991527225E+04  0.30997044360E+04 0.  0.
        1    1    3    3  502    0 -0.83759544724E+03 -0.97578031420E+03  0.12885442069E+04  0.18204558572E+04  0.50400001928E-02 0. -1.
       -1    1    3    3    0  502  0.83759544724E+03  0.97578031420E+03 -0.49708318367E+03  0.13786968653E+04  0.50400001928E-02 0.  1.
</event>
<event>
 5   0  0.2078009E-06  0.3100149E+04  0.7818609E-02  0.8215697E-01
        2   -1    0    0  501    0  0.00000000000E+00  0.00000000000E+00  0.19632840116E+04  0.19632840116E+04  0.25500000920E-02 0. -1.
       -2   -1    0    0    0  501  0.00000000000E+00  0.00000000000E+00 -0.12238324587E+04  0.12238324587E+04  0.25500000920E-02 0.  1.
    10030    2    1    2    0    0  0.00000000000E+00  0.00000000000E+00  0.73945155291E+03  0.31871164703E+04  0.31001488345E+04 0.  0.
        3    1    3    3  502    0 -0.43305468117E+03 -0.14657103774E+04  0.63560696895E+03  0.16552460531E+04  0.10100000352E+00 0. -1.
       -3    1    3    3    0  502  0.43305468117E+03  0.14657103774E+04  0.10384458396E+03  0.15318704172E+04  0.10100000352E+00 0.  1.
</event>
<event>
 5   0  0.7656332E-07  0.3108353E+04  0.7818609E-02  0.8213449E-01
        1   -1    0    0  501    0  0.00000000000E+00  0.00000000000E+00  0.26098232742E+04  0.26098232742E+04  0.50400001928E-02 0.  1.
       -1   -1    0    0    0  501  0.00000000000E+00  0.00000000000E+00 -0.92552830513E+03  0.92552830514E+03  0.50400001928E-02 0. -1.
    10030    2    1    2    0    0  0.00000000000E+00  0.00000000000E+00  0.16842949691E+04  0.35353515793E+04  0.31083534623E+04 0.  0.
        2    1    3    3  502    0 -0.12343696330E+04  0.89643834866E+03  0.11799203091E+04  0.19285958725E+04  0.25500000920E-02 0. -1.
       -2    1    3    3    0  502  0.12343696330E+04 -0.89643834866E+03  0.50437465997E+03  0.16067557068E+04  0.25500000920E-02 0.  1.
</event>
<event>
 5   0  0.2094135E-06  0.3134481E+04  0.7818609E-02  0.8206338E-01
       -2   -1    0    0    0  501  0.00000000000E+00  0.00000000000E+00  0.23169736502E+04  0.23169736502E+04  0.25500000920E-02 0. -1.
        2   -1    0    0  501    0  0.00000000000E+00  0.00000000000E+00 -0.10601084285E+04  0.10601084285E+04  0.25500000920E-02 0.  1.
    10030    2    1    2    0    0  0.00000000000E+00  0.00000000000E+00  0.12568652217E+04  0.33770820787E+04  0.31344813256E+04 0.  0.
        4    1    3    3  502    0  0.27990803348E+03 -0.61622087416E+03  0.21514035072E+04  0.22553525970E+04  0.12699999809E+01 0. -1.
       -4    1    3    3    0  502 -0.27990803348E+03  0.61622087416E+03 -0.89453828551E+03  0.11217294817E+04  0.12699999809E+01 0.  1.
</event>
<event>
 5   0  0.7519202E-07  0.3094349E+04  0.7818609E-02  0.8217290E-01
        1   -1    0    0  501    0  0.00000000000E+00  0.00000000000E+00  0.19722417997E+04  0.19722417997E+04  0.50400001928E-02 0. -1.
       -1   -1    0    0    0  501  0.00000000000E+00  0.00000000000E+00 -0.12137199143E+04  0.12137199143E+04  0.50400001928E-02 0.  1.
    10030    2    1    2    0    0  0.00000000000E+00  0.00000000000E+00  0.75852188540E+03  0.31859617140E+04  0.30943491388E+04 0.  0.
        4    1    3    3  502    0  0.18898047932E+03  0.12250097186E+04 -0.57410405991E+03  0.13660012872E+04  0.12699999809E+01 0.  1.
       -4    1    3    3    0  502 -0.18898047932E+03 -0.12250097186E+04  0.13326259453E+04  0.18199604268E+04  0.12699999809E+01 0. -1.
</event>
<event>
 5   0  0.2094135E-06  0.3065253E+04  0.7818609E-02  0.8225339E-01
       -2   -1    0    0    0  501  0.00000000000E+00  0.00000000000E+00  0.12608482192E+04  0.12608482192E+04  0.25500000920E-02 0. -1.
        2   -1    0    0  501    0  0.00000000000E+00  0.00000000000E+00 -0.18629876347E+04  0.18629876347E+04  0.25500000920E-02 0.  1.
    10030    2    1    2    0    0  0.00000000000E+00  0.00000000000E+00 -0.60213941554E+03  0.31238358539E+04  0.30652534262E+04 0.  0.
        4    1    3    3  502    0  0.46242568398E+03 -0.13561291998E+04 -0.85554435358E+03  0.16687964746E+04  0.12699999809E+01 0.  1.
       -4    1    3    3    0  502 -0.46242568398E+03  0.13561291998E+04  0.25340493805E+03  0.14550393793E+04  0.12699999809E+01 0. -1.
</event>
<event>
 5   0  0.2067926E-06  0.3097340E+04  0.7818609E-02  0.8216468E-01
       -2   -1    0    0    0  501  0.00000000000E+00  0.00000000000E+00  0.14541499637E+04  0.14541499637E+04  0.25500000920E-02 0.  1.
        2   -1    0    0  501    0  0.00000000000E+00  0.00000000000E+00 -0.16493337159E+04  0.16493337159E+04  0.25500000920E-02 0. -1.
    10030    2    1    2    0    0  0.00000000000E+00  0.00000000000E+00 -0.19518375215E+03  0.31034836796E+04  0.30973398671E+04 0.  0.
        1    1    3    3  502    0  0.93400934077E+02  0.98270239807E+03  0.10980692216E+04  0.14765445314E+04  0.50400001928E-02 0.  1.
       -1    1    3    3    0  502 -0.93400934077E+02 -0.98270239807E+03 -0.12932529738E+04  0.16269391482E+04  0.50400001928E-02 0. -1.
</event>
<event>
 5   0  0.2133385E-06  0.3118344E+04  0.7818609E-02  0.8210721E-01
       -2   -1    0    0    0  501  0.00000000000E+00  0.00000000000E+00  0.79483391717E+03  0.79483391718E+03  0.25500000920E-02 0. -1.
        2   -1    0    0  501    0  0.00000000000E+00  0.00000000000E+00 -0.30585228908E+04  0.30585228908E+04  0.25500000920E-02 0.  1.
    10030    2    1    2    0    0  0.00000000000E+00  0.00000000000E+00 -0.22636889736E+04  0.38533568080E+04  0.31183442594E+04 0.  0.
        2    1    3    3  502    0  0.66469370336E+03 -0.10590271241E+04  0.19195325266E+02  0.12504897558E+04  0.25500000920E-02 0. -1.
       -2    1    3    3    0  502 -0.66469370336E+03  0.10590271241E+04 -0.22828842989E+04  0.26028670521E+04  0.25500000920E-02 0.  1.
</event>
<event>
 5   0  0.7561815E-07  0.3023545E+04  0.7818609E-02  0.8237039E-01
        1   -1    0    0  501    0  0.00000000000E+00  0.00000000000E+00  0.17420217703E+04  0.17420217703E+04  0.50400001928E-02 0.  1.
       -1   -1    0    0    0  501  0.00000000000E+00  0.00000000000E+00 -0.13119560044E+04  0.13119560044E+04  0.50400001928E-02 0. -1.
    10030    2    1    2    0    0  0.00000000000E+00  0.00000000000E+00  0.43006576585E+03  0.30539777747E+04  0.30235448873E+04 0.  0.
        3    1    3    3  502    0  0.88166080507E+03  0.10227570488E+04 -0.47158730607E+03  0.14302979946E+04  0.10100000352E+00 0. -1.
       -3    1    3    3    0  502 -0.88166080507E+03 -0.10227570488E+04  0.90165307192E+03  0.16236797801E+04  0.10100000352E+00 0.  1.
</event>
<event>
 5   0  0.7726743E-07  0.3097317E+04  0.7818609E-02  0.8216475E-01
        1   -1    0    0  501    0  0.00000000000E+00  0.00000000000E+00  0.19435562345E+04  0.19435562345E+04  0.50400001928E-02 0. -1.
       -1   -1    0    0    0  501  0.00000000000E+00  0.00000000000E+00 -0.12339969927E+04  0.12339969928E+04  0.50400001928E-02 0.  1.
    10030    2    1    2    0    0  0.00000000000E+00  0.00000000000E+00  0.70955924174E+03  0.31775532273E+04  0.30973166119E+04 0.  0.
        1    1    3    3  502    0 -0.83081913426E+02 -0.69983052081E+03  0.17695163560E+04  0.19046924940E+04  0.50400001928E-02 0. -1.
       -1    1    3    3    0  502  0.83081913426E+02  0.69983052081E+03 -0.10599571143E+04  0.12728607333E+04  0.50400001928E-02 0.  1.
</event>
<event>
 5   0  0.7656332E-07  0.3126693E+04  0.7818609E-02  0.8208450E-01
       -1   -1    0    0    0  501  0.00000000000E+00  0.00000000000E+00  0.11860671810E+04  0.11860671810E+04  0.50400001928E-02 0.  1.
        1   -1    0    0  501    0  0.00000000000E+00  0.00000000000E+00 -0.20606354240E+04  0.20606354240E+04  0.50400001928E-02 0. -1.
    10030    2    1    2    0    0  0.00000000000E+00  0.00000000000E+00 -0.87456824307E+03  0.32467026050E+04  0.31266928524E+04 0.  0.
        2    1    3    3  502    0  0.19313869791E+03 -0.35486681903E+03 -0.20054886470E+04  0.20457804694E+04  0.25500000920E-02 0. -1.
       -2    1    3    3    0  502 -0.19313869791E+03  0.35486681903E+03  0.11309204039E+04  0.12009221356E+04  0.25500000920E-02 0.  1.
</event>
<event>
 5   0  0.2133385E-06  0.3134734E+04  0.7818609E-02  0.8206270E-01
       -2   -1    0    0    0  501  0.00000000000E+00  0.00000000000E+00  0.14161784668E+04  0.14161784668E+04  0.25500000920E-02 0. -1.
        2   -1    0    0  501    0  0.00000000000E+00  0.00000000000E+00 -0.17346957616E+04  0.17346957616E+04  0.25500000920E-02 0.  1.
    10030    2    1    2    0    0  0.00000000000E+00  0.00000000000E+00 -0.31851729480E+03  0.31508742283E+04  0.31347336627E+04 0.  0.
        2    1    3    3  502    0  0.91598642543E+03  0.26156979309E+03  0.10918142276E+04  0.14489679761E+04  0.25500000920E-02 0. -1.
       -2    1    3    3    0  502 -0.91598642543E+03 -0.26156979309E+03 -0.14103315224E+04  0.17019062522E+04  0.25500000920E-02 0.  1.
</event>
<event>
 5   0  0.2226334E-06  0.3161219E+04  0.7818609E-02  0.8199135E-01
       -2   -1    0    0    0  501  0.00000000000E+00  0.00000000000E+00  0.18679060547E+04  0.18679060547E+04  0.25500000920E-02 0.  1.
        2   -1    0    0  501    0  0.00000000000E+00  0.00000000000E+00 -0.13375008396E+04  0.13375008396E+04  0.25500000920E-02 0. -1.
    10030    2    1    2    0    0  0.00000000000E+00  0.00000000000E+00  0.53040521516E+03  0.32054068943E+04  0.31612186995E+04 0.  0.
        5    1    3    3  502    0  0.42963794704E+03 -0.96886416760E+03 -0.92379971609E+03  0.14059568081E+04  0.46999998093E+01 0. -1.
       -5    1    3    3    0  502 -0.42963794704E+03  0.96886416760E+03  0.14542049312E+04  0.17994500862E+04  0.46999998093E+01 0.  1.
</event>
<event>
 5   0  0.7726743E-07  0.3105524E+04  0.7818609E-02  0.8214223E-01
       -1   -1    0    0    0  501  0.00000000000E+00  0.00000000000E+00  0.13558758027E+04  0.13558758027E+04  0.50400001928E-02 0.  1.
        1   -1    0    0  501    0  0.00000000000E+00  0.00000000000E+00 -0.17782381672E+04  0.17782381672E+04  0.50400001928E-02 0. -1.
    10030    2    1    2    0    0  0.00000000000E+00  0.00000000000E+00 -0.42236236446E+03  0.31341139699E+04  0.31055241763E+04 0.  0.
        1    1    3    3  502    0 -0.15313526114E+04 -0.70057462940E+02  0.38321906797E+02  0.15334332190E+04  0.50400001928E-02 0.  1.
       -1    1    3    3    0  502  0.15313526114E+04  0.70057462940E+02 -0.46068427126E+03  0.16006807509E+04  0.50400001928E-02 0. -1.
</event>
<event>
 5   0  0.2067926E-06  0.3092346E+04  0.7818609E-02  0.8217842E-01
        2   -1    0    0  501    0  0.00000000000E+00  0.00000000000E+00  0.16194482272E+04  0.16194482272E+04  0.25500000920E-02 0. -1.
       -2   -1    0    0    0  501  0.00000000000E+00  0.00000000000E+00 -0.14762134300E+04  0.14762134300E+04  0.25500000920E-02 0.  1.
    10030    2    1    2    0    0  0.00000000000E+00  0.00000000000E+00  0.14323479715E+03  0.30956616572E+04  0.30923461786E+04 0.  0.
        1    1    3    3  502    0  0.12330946543E+04 -0.41227709113E+02 -0.86127715778E+03  0.15046662398E+04  0.50400001928E-02 0.  1.
       -1    1    3    3    0  502 -0.12330946543E+04  0.41227709113E+02  0.10045119549E+04  0.15909954174E+04  0.50400001928E-02 0. -1.
</event>
<event>
 5   0  0.7726743E-07  0.3028331E+04  0.7818609E-02  0.8235687E-01
       -1   -1    0    0    0  501  0.00000000000E+00  0.00000000000E+00  0.13455136433E+04  0.13455136433E+04  0.50400001928E-02 0.  1.
        1   -1    0    0  501    0  0.00000000000E+00  0.00000000000E+00 -0.17039570828E+04  0.17039570829E+04  0.50400001928E-02 0. -1.
    10030    2    1    2    0    0  0.00000000000E+00  0.00000000000E+00 -0.35844343959E+03  0.30494707261E+04  0.30283312253E+04 0.  0.
        1    1    3    3  502    0  0.12090741164E+04 -0.20512252598E+03 -0.10735440874E+04  0.16298565511E+04  0.50400001928E-02 0. -1.
       -1    1    3    3    0  502 -0.12090741164E+04  0.20512252598E+03  0.71510064778E+03  0.14196141751E+04  0.50400001928E-02 0.  1.
</event>
<event>
 5   0  0.2226334E-06  0.3134767E+04  0.7818609E-02  0.8206261E-01
       -2   -1    0    0    0  501  0.00000000000E+00  0.00000000000E+00  0.15560841470E+04  0.15560841470E+04  0.25500000920E-02 0.  1.
        2   -1    0    0  501    0  0.00000000000E+00  0.00000000000E+00 -0.15787648654E+04  0.15787648654E+04  0.25500000920E-02 0. -1.
    10030    2    1    2    0    0  0.00000000000E+00  0.00000000000E+00 -0.22680718421E+02  0.31348490124E+04  0.31347669635E+04 0.  0.
        5    1    3    3  502    0 -0.14729730426E+04  0.53452174435E+03 -0.47477288632E+02  0.15676859579E+04  0.46999998093E+01 0. -1.
       -5    1    3    3    0  502  0.14729730426E+04 -0.53452174435E+03  0.24796570211E+02  0.15671630545E+04  0.46999998093E+01 0.  1.
</event>
<event>
 5   0  0.2094135E-06  0.3099933E+04  0.7818609E-02  0.8215756E-01
       -2   -1    0    0    0  501  0.00000000000E+00  0.00000000000E+00  0.10129912936E+04  0.10129912936E+04  0.25500000920E-02 0. -1.
        2   -1    0    0  501    0  0.00000000000E+00  0.00000000000E+00 -0.23715862517E+04  0.23715862517E+04  0.25500000920E-02 0.  1.
    10030    2    1    2    0    0  0.00000000000E+00  0.00000000000E+00 -0.13585949581E+04  0.33845775453E+04  0.30999330477E+04 0.  0.
        4    1    3    3  502    0 -0.13629045707E+04 -0.64218544844E+03 -0.28189259150E+03  0.15327674530E+04  0.12699999809E+01 0.  1.
       -4    1    3    3    0  502  0.13629045707E+04  0.64218544844E+03 -0.10767023665E+04  0.18518100923E+04  0.12699999809E+01 0. -1.
</event>
<event>
 5   0  0.2226334E-06  0.3089401E+04  0.7818609E-02  0.8218653E-01
        2   -1    0    0  501    0  0.00000000000E+00  0.00000000000E+00  0.18767915565E+04  0.18767915566E+04  0.25500000920E-02 0.  1.
       -2   -1    0    0    0  501  0.00000000000E+00  0.00000000000E+00 -0.12713716226E+04  0.12713716226E+04  0.25500000920E-02 0. -1.
    10030    2    1    2    0    0  0.00000000000E+00  0.00000000000E+00  0.60541993395E+03  0.31481631792E+04  0.30894009300E+04 0.  0.
        5    1    3    3  502    0 -0.12523188523E+04  0.36780402136E+03  0.11445561376E+04  0.17359761370E+04  0.46999998093E+01 0.  1.
       -5    1    3    3    0  502  0.12523188523E+04 -0.36780402136E+03 -0.53913620366E+03  0.14121870422E+04  0.46999998093E+01 0. -1.
</event>
<event>
 5   0  0.2226334E-06  0.2878564E+04  0.7818609E-02  0.8279284E-01
        2   -1    0    0  501    0  0.00000000000E+00  0.00000000000E+00  0.22382575608E+04  0.22382575608E+04  0.25500000920E-02 0. -1.
       -2   -1    0    0    0  501  0.00000000000E+00  0.00000000000E+00 -0.92551103121E+03  0.92551103122E+03  0.25500000920E-02 0.  1.
    10030    2    1    2    0    0  0.00000000000E+00  0.00000000000E+00  0.13127465295E+04  0.31637685920E+04  0.28785635746E+04 0.  0.
        5    1    3    3  502    0  0.45052396539E+03  0.12278425262E+04  0.13166817977E+04  0.18558669562E+04  0.46999998093E+01 0.  1.
       -5    1    3    3    0  502 -0.45052396539E+03 -0.12278425262E+04 -0.39352682011E+01  0.13079016358E+04  0.46999998093E+01 0. -1.
</event>
<event>
 5   0  0.6979625E-07  0.3114402E+04  0.7818609E-02  0.8211797E-01
        4   -1    0    0  501    0  0.00000000000E+00  0.00000000000E+00  0.13239034263E+04  0.13239040354E+04  0.12699999809E+01 0.  1.
       -4   -1    0    0    0  501  0.00000000000E+00  0.00000000000E+00 -0.18316087741E+04  0.18316092144E+04  0.12699999809E+01 0. -1.
    10030    2    1    2    0    0  0.00000000000E+00  0.00000000000E+00 -0.50770534784E+03  0.31555132498E+04  0.31144018927E+04 0.  0.
        3    1    3    3  502    0 -0.79217803265E+03  0.90940312046E+03 -0.12519012061E+04  0.17383373410E+04  0.10100000352E+00 0. -1.
       -3    1    3    3    0  502  0.79217803265E+03 -0.90940312046E+03  0.74419585827E+03  0.14171759088E+04  0.10100000352E+00 0.  1.
</event>
<event>
 5   0  0.2067926E-06  0.3094163E+04  0.7818609E-02  0.8217342E-01
       -2   -1    0    0    0  501  0.00000000000E+00  0.00000000000E+00  0.28457498985E+04  0.28457498985E+04  0.25500000920E-02 0. -1.
        2   -1    0    0  501    0  0.00000000000E+00  0.00000000000E+00 -0.84106495109E+03  0.84106495109E+03  0.25500000920E-02 0.  1.
    10030    2    1    2    0    0  0.00000000000E+00  0.00000000000E+00  0.20046849474E+04  0.36868148496E+04  0.30941625679E+04 0.  0.
        1    1    3    3  502    0  0.11867807886E+03  0.86167109070E+03  0.25268133588E+04  0.26723299394E+04  0.50400001928E-02 0. -1.
       -1    1    3    3    0  502 -0.11867807886E+03 -0.86167109070E+03 -0.52212841139E+03  0.10144849102E+04  0.50400001928E-02 0.  1.
</event>
<event>
 5   0  0.7656332E-07  0.3107592E+04  0.7818609E-02  0.8213657E-01
       -1   -1    0    0    0  501  0.00000000000E+00  0.00000000000E+00  0.87533428714E+03  0.87533428716E+03  0.50400001928E-02 0.  1.
        1   -1    0    0  501    0  0.00000000000E+00  0.00000000000E+00 -0.27581261394E+04  0.27581261394E+04  0.50400001928E-02 0. -1.
    10030    2    1    2    0    0  0.00000000000E+00  0.00000000000E+00 -0.18827918522E+04  0.36334604265E+04  0.31075922371E+04 0.  0.
        2    1    3    3  502    0 -0.14515806727E+03 -0.12501858913E+04  0.12397293490E+03  0.12646758145E+04  0.25500000920E-02 0.  1.
       -2    1    3    3    0  502  0.14515806727E+03  0.12501858913E+04 -0.20067647871E+04  0.23687846120E+04  0.25500000920E-02 0. -1.
</event>
<event>
 5   0  0.2094135E-06  0.3372507E+04  0.7818609E-02  0.8144687E-01
       -2   -1    0    0    0  501  0.00000000000E+00  0.00000000000E+00  0.15070392088E+04  0.15070392088E+04  0.25500000920E-02 0.  1.
        2   -1    0    0  501    0  0.00000000000E+00  0.00000000000E+00 -0.18867796856E+04  0.18867796856E+04  0.25500000920E-02 0. -1.
    10030    2    1    2    0    0  0.00000000000E+00  0.00000000000E+00 -0.37974047680E+03  0.33938188944E+04  0.33725070583E+04 0.  0.
        4    1    3    3  502    0  0.12345426793E+04  0.50099593869E+03  0.85027492513E+03  0.15805257412E+04  0.12699999809E+01 0.  1.
       -4    1    3    3    0  502 -0.12345426793E+04 -0.50099593869E+03 -0.12300154019E+04  0.18132931532E+04  0.12699999809E+01 0. -1.
</event>
<event>
 5   0  0.7561815E-07  0.3080811E+04  0.7818609E-02  0.8221024E-01
       -1   -1    0    0    0  501  0.00000000000E+00  0.00000000000E+00  0.15466891726E+04  0.15466891727E+04  0.50400001928E-02 0.  1.
        1   -1    0    0  501    0  0.00000000000E+00  0.00000000000E+00 -0.15341478305E+04  0.15341478305E+04  0.50400001928E-02 0. -1.
    10030    2    1    2    0    0  0.00000000000E+00  0.00000000000E+00  0.12541342136E+02  0.30808370032E+04  0.30808114767E+04 0.  0.
        3    1    3    3  502    0 -0.75865545911E+03 -0.12438954163E+04 -0.49374938774E+03  0.15383830409E+04  0.10100000352E+00 0. -1.
       -3    1    3    3    0  502  0.75865545911E+03  0.12438954163E+04  0.50629072988E+03  0.15424539623E+04  0.10100000352E+00 0.  1.
</event>
<event>
 5   0  0.2078009E-06  0.3129430E+04  0.7818609E-02  0.8207707E-01
       -2   -1    0    0    0  501  0.00000000000E+00  0.00000000000E+00  0.11952053795E+04  0.11952053795E+04  0.25500000920E-02 0. -1.
        2   -1    0    0  501    0  0.00000000000E+00  0.00000000000E+00 -0.20484620006E+04  0.20484620006E+04  0.25500000920E-02 0.  1.
    10030    2    1    2    0    0  0.00000000000E+00  0.00000000000E+00 -0.85325662106E+03  0.32436673801E+04  0.31294298541E+04 0.  0.
        3    1    3    3  502    0  0.12373242944E+04 -0.33098022079E+03 -0.13582222170E+04  0.18668923153E+04  0.10100000352E+00 0.  1.
       -3    1    3    3    0  502 -0.12373242944E+04  0.33098022079E+03  0.50496559589E+03  0.13767750649E+04  0.10100000352E+00 0. -1.
</event>
<event>
 5   0  0.7519202E-07  0.3063594E+04  0.7818609E-02  0.8225801E-01
        1   -1    0    0  501    0  0.00000000000E+00  0.00000000000E+00  0.16117998785E+04  0.16117998785E+04  0.50400001928E-02 0.  1.
       -1   -1    0    0    0  501  0.00000000000E+00  0.00000000000E+00 -0.14557650426E+04  0.14557650426E+04  0.50400001928E-02 0. -1.
    10030    2    1    2    0    0  0.00000000000E+00  0.00000000000E+00  0.15603483593E+03  0.30675649211E+04  0.30635939148E+04 0.  0.
        4    1    3    3  502    0 -0.93390149481E+02 -0.32415683268E+03  0.15741432295E+04  0.16098844344E+04  0.12699999809E+01 0.  1.
       -4    1    3    3    0  502  0.93390149481E+02  0.32415683268E+03 -0.14181083936E+04  0.14576804866E+04  0.12699999809E+01 0. -1.
</event>
<event>
 5   0  0.2067926E-06  0.3058244E+04  0.7818609E-02  0.8227292E-01
       -2   -1    0    0    0  501  0.00000000000E+00  0.00000000000E+00  0.12504132483E+04  0.12504132484E+04  0.25500000920E-02 0. -1.
        2   -1    0    0  501    0  0.00000000000E+00  0.00000000000E+00 -0.18699526134E+04  0.18699526134E+04  0.25500000920E-02 0.  1.
    10030    2    1    2    0    0  0.00000000000E+00  0.00000000000E+00 -0.61953936502E+03  0.31203658617E+04  0.30582436277E+04 0.  0.
        1    1    3    3  502    0 -0.35475420249E+03  0.82338896864E+02  0.12055182658E+04  0.12593270137E+04  0.50400001928E-02 0. -1.
       -1    1    3    3    0  502  0.35475420249E+03 -0.82338896864E+02 -0.18250576308E+04  0.18610388481E+04  0.50400001928E-02 0.  1.
</event>
<event>
 5   0  0.7413481E-07  0.3102180E+04  0.7818609E-02  0.8215140E-01
       -1   -1    0    0    0  501  0.00000000000E+00  0.00000000000E+00  0.21998551794E+04  0.21998551794E+04  0.50400001928E-02 0. -1.
        1   -1    0    0  501    0  0.00000000000E+00  0.00000000000E+00 -0.10936541697E+04  0.10936541697E+04  0.50400001928E-02 0.  1.
    10030    2    1    2    0    0  0.00000000000E+00  0.00000000000E+00  0.11062010097E+04  0.32935093492E+04  0.31021803879E+04 0.  0.
        5    1    3    3  502    0  0.59372296432E+03 -0.88357137366E+03 -0.64459637586E+03  0.12444805778E+04  0.46999998093E+01 0.  1.
       -5    1    3    3    0  502 -0.59372296432E+03  0.88357137366E+03  0.17507973856E+04  0.20490287714E+04  0.46999998093E+01 0. -1.
</event>
<event>
 5   0  0.7519202E-07  0.3109297E+04  0.7818609E-02  0.8213191E-01
        1   -1    0    0  501    0  0.00000000000E+00  0.00000000000E+00  0.19732522123E+04  0.19732522123E+04  0.50400001928E-02 0.  1.
       -1   -1    0    0    0  501  0.00000000000E+00  0.00000000000E+00 -0.12248467805E+04  0.12248467805E+04  0.50400001928E-02 0. -1.
    10030    2    1    2    0    0  0.00000000000E+00  0.00000000000E+00  0.74840543180E+03  0.31980989928E+04  0.31092967818E+04 0.  0.
        4    1    3    3  502    0 -0.12679357557E+04  0.89911811867E+03  0.40428760894E+03  0.16060898342E+04  0.12699999809E+01 0. -1.
       -4    1    3    3    0  502  0.12679357557E+04 -0.89911811867E+03  0.34411782286E+03  0.15920091585E+04  0.12699999809E+01 0.  1.
</event>
<event>
 5   0  0.2078009E-06  0.3092824E+04  0.7818609E-02  0.8217710E-01
        2   -1    0    0  501    0  0.00000000000E+00  0.00000000000E+00  0.15028968803E+04  0.15028968803E+04  0.25500000920E-02 0. -1.
       -2   -1    0    0    0  501  0.00000000000E+00  0.00000000000E+00 -0.15911865546E+04  0.15911865546E+04  0.25500000920E-02 0.  1.
    10030    2    1    2    0    0  0.00000000000E+00  0.00000000000E+00 -0.88289674345E+02  0.30940834349E+04  0.30928235054E+04 0.  0.
        3    1    3    3  502    0  0.12950410398E+04 -0.69834540628E+03  0.43204455042E+03  0.15334536527E+04  0.10100000352E+00 0. -1.
       -3    1    3    3    0  502 -0.12950410398E+04  0.69834540628E+03 -0.52033422477E+03  0.15606297822E+04  0.10100000352E+00 0.  1.
</event>
<event>
 5   0  0.7413481E-07  0.3087686E+04  0.7818609E-02  0.8219125E-01
        1   -1    0    0  501    0  0.00000000000E+00  0.00000000000E+00  0.27385369690E+04  0.27385369690E+04  0.50400001928E-02 0.  1.
       -1   -1    0    0    0  501  0.00000000000E+00  0.00000000000E+00 -0.87033750892E+03  0.87033750894E+03  0.50400001928E-02 0. -1.
    10030    2    1    2    0    0  0.00000000000E+00  0.00000000000E+00  0.18681994601E+04  0.36088744779E+04  0.30876861523E+04 0.  0.
        5    1    3    3  502    0 -0.56490971995E+03 -0.14241037641E+04  0.11565852485E+04  0.19196109110E+04  0.46999998093E+01 0.  1.
       -5    1    3    3    0  502  0.56490971995E+03  0.14241037641E+04  0.71161421157E+03  0.16892635670E+04  0.46999998093E+01 0. -1.
</event>
<event>
 5   0  0.7561815E-07  0.3122272E+04  0.7818609E-02  0.8209652E-01
       -1   -1    0    0    0  501  0.00000000000E+00  0.00000000000E+00  0.20072748439E+04  0.20072748440E+04  0.50400001928E-02 0. -1.
        1   -1    0    0  501    0  0.00000000000E+00  0.00000000000E+00 -0.12141562193E+04  0.12141562193E+04  0.50400001928E-02 0.  1.
    10030    2    1    2    0    0  0.00000000000E+00  0.00000000000E+00  0.79311862467E+03  0.32214310632E+04  0.31222717599E+04 0.  0.
        3    1    3    3  502    0  0.12045364351E+03  0.31390840923E+03  0.19694745781E+04  0.19979683916E+04  0.10100000352E+00 0. -1.
       -3    1    3    3    0  502 -0.12045364351E+03 -0.31390840923E+03 -0.11763559534E+04  0.12234626717E+04  0.10100000352E+00 0.  1.
</event>
<event>
 5   0  0.7656332E-07  0.3113210E+04  0.7818609E-02  0.8212122E-01
       -1   -1    0    0    0  501  0.00000000000E+00  0.00000000000E+00  0.16899056671E+04  0.16899056671E+04  0.50400001928E-02 0. -1.
        1   -1    0    0  501    0  0.00000000000E+00  0.00000000000E+00 -0.14338189224E+04  0.14338189224E+04  0.50400001928E-02 0.  1.
    10030    2    1    2    0    0  0.00000000000E+00  0.00000000000E+00  0.25608674470E+03  0.31237245894E+04  0.31132097407E+04 0.  0.
        2    1    3    3  502    0  0.77246224194E+03 -0.46158662711E+03  0.14024744376E+04  0.16663417050E+04  0.25500000920E-02 0. -1.
       -2    1    3    3    0  502 -0.77246224194E+03  0.46158662711E+03 -0.11463876929E+04  0.14573828845E+04  0.25500000920E-02 0.  1.
</event>
<event>
 5   0  0.2133385E-06  0.2970953E+04  0.7818609E-02  0.8252074E-01
       -2   -1    0    0    0  501  0.00000000000E+00  0.00000000000E+00  0.10586026084E+04  0.10586026084E+04  0.25500000920E-02 0.  1.
        2   -1    0    0  501    0  0.00000000000E+00  0.00000000000E+00 -0.20844841667E+04  0.20844841667E+04  0.25500000920E-02 0. -1.
    10030    2    1    2    0    0  0.00000000000E+00  0.00000000000E+00 -0.10258815583E+04  0.31430867751E+04  0.29709529623E+04 0.  0.
        2    1    3    3  502    0 -0.66101355842E+03  0.17256480610E+03 -0.19084271199E+04  0.20270203770E+04  0.25500000920E-02 0. -1.
       -2    1    3    3    0  502  0.66101355842E+03 -0.17256480610E+03  0.88254556157E+03  0.11160663981E+04  0.25500000920E-02 0.  1.
</event>
<event>
 5   0  0.7656332E-07  0.3078730E+04  0.7818609E-02  0.8221600E-01
        1   -1    0    0  501    0  0.00000000000E+00  0.00000000000E+00  0.20390225349E+04  0.20390225349E+04  0.50400001928E-02 0.  1.
       -1   -1    0    0    0  501  0.00000000000E+00  0.00000000000E+00 -0.11621474288E+04  0.11621474288E+04  0.50400001928E-02 0. -1.
    10030    2    1    2    0    0  0.00000000000E+00  0.00000000000E+00  0.87687510609E+03  0.32011699637E+04  0.30787301253E+04 0.  0.
        2    1    3    3  502    0 -0.81222538460E+03  0.36307529587E+02  0.17975625748E+04  0.19728810208E+04  0.25500000920E-02 0.  1.
       -2    1    3    3    0  502  0.81222538460E+03 -0.36307529587E+02 -0.92068746870E+03  0.12282889428E+04  0.25500000920E-02 0. -1.
</event>
<event>
 5   0  0.7656332E-07  0.2770418E+04  0.7818609E-02  0.8312512E-01
        1   -1    0    0  501    0  0.00000000000E+00  0.00000000000E+00  0.84848674438E+03  0.84848674439E+03  0.50400001928E-02 0. -1.
       -1   -1    0    0    0  501  0.00000000000E+00  0.00000000000E+00 -0.22614419678E+04  0.22614419678E+04  0.50400001928E-02 0.  1.
    10030    2    1    2    0    0  0.00000000000E+00  0.00000000000E+00 -0.14129552234E+04  0.31099287122E+04  0.27704176818E+04 0.  0.
        2    1    3    3  502    0 -0.92748628726E+03  0.70693063061E+03  0.13267674721E+03  0.11737056057E+04  0.25500000920E-02 0. -1.
       -2    1    3    3    0  502  0.92748628726E+03 -0.70693063061E+03 -0.15456319707E+04  0.19362231065E+04  0.25500000920E-02 0.  1.
</event>
<event>
 5   0  0.7561815E-07  0.3089393E+04  0.7818609E-02  0.8218655E-01
       -1   -1    0    0    0  501  0.00000000000E+00  0.00000000000E+00  0.20436947073E+04  0.20436947073E+04  0.50400001928E-02 0. -1.
        1   -1    0    0  501    0  0.00000000000E+00  0.00000000000E+00 -0.11675358991E+04  0.11675358991E+04  0.50400001928E-02 0.  1.
    10030    2    1    2    0    0  0.00000000000E+00  0.00000000000E+00  0.87615880826E+03  0.32112306064E+04  0.30893927802E+04 0.  0.
        3    1    3    3  502    0 -0.79635280840E+03 -0.53529196043E+02 -0.93659138567E+03  0.12305472783E+04  0.10100000352E+00 0.  1.
       -3    1    3    3    0  502  0.79635280840E+03  0.53529196043E+02  0.18127501939E+04  0.19806833281E+04  0.10100000352E+00 0. -1.
</event>
<event>
 5   0  0.2067926E-06  0.3143866E+04  0.7818609E-02  0.8203801E-01
       -2   -1    0    0    0  501  0.00000000000E+00  0.00000000000E+00  0.12935047376E+04  0.12935047376E+04  0.25500000920E-02 0.  1.
        2   -1    0    0  501    0  0.00000000000E+00  0.00000000000E+00 -0.19102936707E+04  0.19102936707E+04  0.25500000920E-02 0. -1.
    10030    2    1    2    0    0  0.00000000000E+00  0.00000000000E+00 -0.61678893316E+03  0.32037984083E+04  0.31438663542E+04 0.  0.
        1    1    3    3  502    0 -0.66818157916E+03 -0.37084459665E+03 -0.17082555342E+04  0.18713976883E+04  0.50400001928E-02 0. -1.
       -1    1    3    3    0  502  0.66818157916E+03  0.37084459665E+03  0.10914666010E+04  0.13324007200E+04  0.50400001928E-02 0.  1.
</event>
<event>
 5   0  0.2094135E-06  0.3079247E+04  0.7818609E-02  0.8221456E-01
       -2   -1    0    0    0  501  0.00000000000E+00  0.00000000000E+00  0.11247116905E+04  0.11247116905E+04  0.25500000920E-02 0. -1.
        2   -1    0    0  501    0  0.00000000000E+00  0.00000000000E+00 -0.21075987551E+04  0.21075987551E+04  0.25500000920E-02 0.  1.
    10030    2    1    2    0    0  0.00000000000E+00  0.00000000000E+00 -0.98288706464E+03  0.32323104456E+04  0.30792472838E+04 0.  0.
        4    1    3    3  502    0  0.14673769117E+04  0.26867649926E+01 -0.98069881438E+03  0.17649288930E+04  0.12699999809E+01 0.  1.
       -4    1    3    3    0  502 -0.14673769117E+04 -0.26867649926E+01 -0.21882502638E+01  0.14673815527E+04  0.12699999809E+01 0. -1.
</event>
<event>
 5   0  0.7726743E-07  0.3090707E+04  0.7818609E-02  0.8218293E-01
        1   -1    0    0  501    0  0.00000000000E+00  0.00000000000E+00  0.16865502010E+04  0.16865502010E+04  0.50400001928E-02 0. -1.
       -1   -1    0    0    0  501  0.00000000000E+00  0.00000000000E+00 -0.14159779586E+04  0.14159779586E+04  0.50400001928E-02 0.  1.
    10030    2    1    2    0    0  0.00000000000E+00  0.00000000000E+00  0.27057224237E+03  0.31025281596E+04  0.30907073046E+04 0.  0.
        1    1    3    3  502    0  0.13334699556E+04  0.60378679187E+03 -0.36200469466E+03  0.15078952257E+04  0.50400001928E-02 0.  1.
       -1    1    3    3    0  502 -0.13334699556E+04 -0.60378679187E+03  0.63257693703E+03  0.15946329339E+04  0.50400001928E-02 0. -1.
</event>
<event>
 5   0  0.2067926E-06  0.3097382E+04  0.7818609E-02  0.8216457E-01
        2   -1    0    0  501    0  0.00000000000E+00  0.00000000000E+00  0.15497443712E+04  0.15497443712E+04  0.25500000920E-02 0. -1.
       -2   -1    0    0    0  501  0.00000000000E+00  0.00000000000E+00 -0.15476386517E+04  0.15476386517E+04  0.25500000920E-02 0.  1.
    10030    2    1    2    0    0  0.00000000000E+00  0.00000000000E+00  0.21057194772E+01  0.30973830230E+04  0.30973823072E+04 0.  0.
        1    1    3    3  502    0  0.49605221456E+03  0.50212392161E+03 -0.13774423108E+04  0.15477543577E+04  0.50400001928E-02 0.  1.
       -1    1    3    3    0  502 -0.49605221456E+03 -0.50212392161E+03  0.13795480303E+04  0.15496286652E+04  0.50400001928E-02 0. -1.
</event>
<event>
 5   0  0.2094135E-06  0.3117707E+04  0.7818609E-02  0.8210895E-01
       -2   -1    0    0    0  501  0.00000000000E+00  0.00000000000E+00  0.15525812649E+04  0.15525812649E+04  0.25500000920E-02 0.  1.
        2   -1    0    0  501    0  0.00000000000E+00  0.00000000000E+00 -0.15651508194E+04  0.15651508194E+04  0.25500000920E-02 0. -1.
    10030    2    1    2    0    0  0.00000000000E+00  0.00000000000E+00 -0.12569554462E+02  0.31177320843E+04  0.31177067463E+04 0.  0.
        4    1    3    3  502    0 -0.12376256448E+04  0.12157217077E+03 -0.94625262667E+03  0.15626556485E+04  0.12699999809E+01 0. -1.
       -4    1    3    3    0  502  0.12376256448E+04 -0.12157217077E+03  0.93368307220E+03  0.15550764359E+04  0.12699999809E+01 0.  1.
</event>
<event>
 5   0  0.2226334E-06  0.3099566E+04  0.7818609E-02  0.8215857E-01
        2   -1    0    0  501    0  0.00000000000E+00  0.00000000000E+00  0.19159872493E+04  0.19159872493E+04  0.25500000920E-02 0. -1.
       -2   -1    0    0    0  501  0.00000000000E+00  0.00000000000E+00 -0.12535716154E+04  0.12535716154E+04  0.25500000920E-02 0.  1.
    10030    2    1    2    0    0  0.00000000000E+00  0.00000000000E+00  0.66241563394E+03  0.31695588647E+04  0.30995659252E+04 0.  0.
        5    1    3    3  502    0 -0.14354797874E+04 -0.58211745948E+03  0.28171883745E+03  0.15744365818E+04  0.46999998093E+01 0. -1.
       -5    1    3    3    0  502  0.14354797874E+04  0.58211745948E+03  0.38069679649E+03  0.15951222829E+04  0.46999998093E+01 0.  1.
</event>
<event>
 5   0  0.2067926E-06  0.3096028E+04  0.7818609E-02  0.8216829E-01
        2   -1    0    0  501    0  0.00000000000E+00  0.00000000000E+00  0.21770816091E+04  0.21770816091E+04  0.25500000920E-02 0. -1.
       -2   -1    0    0    0  501  0.00000000000E+00  0.00000000000E+00 -0.11007152759E+04  0.11007152759E+04  0.25500000920E-02 0.  1.
    10030    2    1    2    0    0  0.00000000000E+00  0.00000000000E+00  0.10763663332E+04  0.32777968851E+04  0.30960277674E+04 0.  0.
        1    1    3    3  502    0  0.67064746819E+03 -0.87553834392E+03  0.16882427019E+04  0.20165561829E+04  0.50400001928E-02 0. -1.
       -1    1    3    3    0  502 -0.67064746819E+03  0.87553834392E+03 -0.61187636869E+03  0.12612407022E+04  0.50400001928E-02 0.  1.
</event>
<event>
 5   0  0.2226334E-06  0.3086340E+04  0.7818609E-02  0.8219497E-01
        2   -1    0    0  501    0  0.00000000000E+00  0.00000000000E+00  0.15446618338E+04  0.15446618338E+04  0.25500000920E-02 0.  1.
       -2   -1    0    0    0  501  0.00000000000E+00  0.00000000000E+00 -0.15416796512E+04  0.15416796512E+04  0.25500000920E-02 0. -1.
    10030    2    1    2    0    0  0.00000000000E+00  0.00000000000E+00  0.29821826021E+01  0.30863414850E+04  0.30863400443E+04 0.  0.
        5    1    3    3  502    0  0.12203039063E+03 -0.98273577827E+02  0.15366799120E+04  0.15446541213E+04  0.46999998093E+01 0.  1.
       -5    1    3    3    0  502 -0.12203039063E+03  0.98273577827E+02 -0.15336977294E+04  0.15416873638E+04  0.46999998093E+01 0. -1.
</event>
<event>
 5   0  0.2067926E-06  0.3066774E+04  0.7818609E-02  0.8224916E-01
        2   -1    0    0  501    0  0.00000000000E+00  0.00000000000E+00  0.18866618156E+04  0.18866618156E+04  0.25500000920E-02 0.  1.
       -2   -1    0    0    0  501  0.00000000000E+00  0.00000000000E+00 -0.12462627385E+04  0.12462627385E+04  0.25500000920E-02 0. -1.
    10030    2    1    2    0    0  0.00000000000E+00  0.00000000000E+00  0.64039907703E+03  0.31329245541E+04  0.30667744104E+04 0.  0.
        1    1    3    3  502    0 -0.72927580034E+03 -0.11114789036E+04 -0.46051504609E+03  0.14068769150E+04  0.50400001928E-02 0. -1.
       -1    1    3    3    0  502  0.72927580034E+03  0.11114789036E+04  0.11009141231E+04  0.17260476392E+04  0.50400001928E-02 0.  1.
</event>
<event>
 5   0  0.7519202E-07  0.3105026E+04  0.7818609E-02  0.8214360E-01
       -1   -1    0    0    0  501  0.00000000000E+00  0.00000000000E+00  0.83633856708E+03  0.83633856710E+03  0.50400001928E-02 0. -1.
        1   -1    0    0  501    0  0.00000000000E+00  0.00000000000E+00 -0.28819627622E+04  0.28819627622E+04  0.50400001928E-02 0.  1.
    10030    2    1    2    0    0  0.00000000000E+00  0.00000000000E+00 -0.20456241951E+04  0.37183013293E+04  0.31050259947E+04 0.  0.
        4    1    3    3  502    0 -0.83062525792E+03 -0.12326941169E+04 -0.48616984290E+03  0.15639168245E+04  0.12699999809E+01 0.  1.
       -4    1    3    3    0  502  0.83062525792E+03  0.12326941169E+04 -0.15594543522E+04  0.21543845048E+04  0.12699999809E+01 0. -1.
</event>
<event>
 5   0  0.7561815E-07  0.3112578E+04  0.7818609E-02  0.8212294E-01
        1   -1    0    0  501    0  0.00000000000E+00  0.00000000000E+00  0.19749526128E+04  0.19749526128E+04  0.50400001928E-02 0.  1.
       -1   -1    0    0    0  501  0.00000000000E+00  0.00000000000E+00 -0.12263767501E+04  0.12263767501E+04  0.50400001928E-02 0. -1.
    10030    2    1    2    0    0  0.00000000000E+00  0.00000000000E+00  0.74857586269E+03  0.32013293629E+04  0.31125783311E+04 0.  0.
        3    1    3    3  502    0  0.14745108507E+04  0.30206712863E+03  0.78131064457E+03  0.16958399490E+04  0.10100000352E+00 0.  1.
       -3    1    3    3    0  502 -0.14745108507E+04 -0.30206712863E+03 -0.32734781876E+02  0.15054894139E+04  0.10100000352E+00 0. -1.
</event>
<event>
 5   0  0.2067926E-06  0.3115700E+04  0.7818609E-02  0.8211442E-01
        2   -1    0    0  501    0  0.00000000000E+00  0.00000000000E+00  0.17679513059E+04  0.17679513059E+04  0.25500000920E-02 0.  1.
       -2   -1    0    0    0  501  0.00000000000E+00  0.00000000000E+00 -0.13727169992E+04  0.13727169992E+04  0.25500000920E-02 0. -1.
    10030    2    1    2    0    0  0.00000000000E+00  0.00000000000E+00  0.39523430663E+03  0.31406683051E+04  0.31157001213E+04 0.  0.
        1    1    3    3  502    0 -0.88973748187E+03  0.95207844053E+03 -0.66292823392E+03  0.14620396667E+04  0.50400001928E-02 0. -1.
       -1    1    3    3    0  502  0.88973748187E+03 -0.95207844053E+03  0.10581625406E+04  0.16786286384E+04  0.50400001928E-02 0.  1.
</event>
<event>
 5   0  0.7656332E-07  0.3125345E+04  0.7818609E-02  0.8208816E-01
        1   -1    0    0  501    0  0.00000000000E+00  0.00000000000E+00  0.24548172800E+04  0.24548172800E+04  0.50400001928E-02 0. -1.
       -1   -1    0    0    0  501  0.00000000000E+00  0.00000000000E+00 -0.99475641202E+03  0.99475641204E+03  0.50400001928E-02 0.  1.
    10030    2    1    2    0    0  0.00000000000E+00  0.00000000000E+00  0.14600608680E+04  0.34495736920E+04  0.31253449279E+04 0.  0.
        2    1    3    3  502    0  0.83176660155E+03  0.12663822663E+04  0.30773487822E+03  0.15460467260E+04  0.25500000920E-02 0.  1.
       -2    1    3    3    0  502 -0.83176660155E+03 -0.12663822663E+04  0.11523259897E+04  0.19035269660E+04  0.25500000920E-02 0. -1.
</event>
<event>
 5   0  0.2133385E-06  0.2828805E+04  0.7818609E-02  0.8294381E-01
        2   -1    0    0  501    0  0.00000000000E+00  0.00000000000E+00  0.15653519614E+04  0.15653519614E+04  0.25500000920E-02 0. -1.
       -2   -1    0    0    0  501  0.00000000000E+00  0.00000000000E+00 -0.12780094497E+04  0.12780094497E+04  0.25500000920E-02 0.  1.
    10030    2    1    2    0    0  0.00000000000E+00  0.00000000000E+00  0.28734251173E+03  0.28433614111E+04  0.28288051179E+04 0.  0.
        2    1    3    3  502    0 -0.11906619404E+04 -0.51576913295E+03 -0.42211147194E+03  0.13645042139E+04  0.25500000920E-02 0.  1.
       -2    1    3    3    0  502  0.11906619404E+04  0.51576913295E+03  0.70945398367E+03  0.14788571972E+04  0.25500000920E-02 0. -1.
</event>
<event>
 5   0  0.7519202E-07  0.2891917E+04  0.7818609E-02  0.8275286E-01
        1   -1    0    0  501    0  0.00000000000E+00  0.00000000000E+00  0.13662654887E+04  0.13662654887E+04  0.50400001928E-02 0. -1.
       -1   -1    0    0    0  501  0.00000000000E+00  0.00000000000E+00 -0.15302999980E+04  0.15302999980E+04  0.50400001928E-02 0.  1.
    10030    2    1    2    0    0  0.00000000000E+00  0.00000000000E+00 -0.16403450929E+03  0.28965654867E+04  0.28919170628E+04 0.  0.
        4    1    3    3  502    0 -0.26467966828E+03  0.14081667016E+04 -0.27676660569E+03  0.14593115339E+04  0.12699999809E+01 0.  1.
       -4    1    3    3    0  502  0.26467966828E+03 -0.14081667016E+04  0.11273209640E+03  0.14372539527E+04  0.12699999809E+01 0. -1.
</event>
<event>
 5   0  0.2226334E-06  0.3093860E+04  0.7818609E-02  0.8217425E-01
       -2   -1    0    0    0  501  0.00000000000E+00  0.00000000000E+00  0.12500127452E+04  0.12500127452E+04  0.25500000920E-02 0. -1.
        2   -1    0    0  501    0  0.00000000000E+00  0.00000000000E+00 -0.19143749717E+04  0.19143749717E+04  0.25500000920E-02 0.  1.
    10030    2    1    2    0    0  0.00000000000E+00  0.00000000000E+00 -0.66436222655E+03  0.31643877169E+04  0.30938604453E+04 0.  0.
        5    1    3    3  502    0  0.11098216006E+04 -0.54785405797E+03 -0.12813020570E+04  0.17814615083E+04  0.46999998093E+01 0.  1.
       -5    1    3    3    0  502 -0.11098216006E+04  0.54785405797E+03  0.61693983050E+03  0.13829262086E+04  0.46999998093E+01 0. -1.
</event>
<event>
 5   0  0.7519202E-07  0.3065929E+04  0.7818609E-02  0.8225151E-01
       -1   -1    0    0    0  501  0.00000000000E+00  0.00000000000E+00  0.11952825918E+04  0.11952825918E+04  0.50400001928E-02 0. -1.
        1   -1    0    0  501    0  0.00000000000E+00  0.00000000000E+00 -0.19660452544E+04  0.19660452544E+04  0.50400001928E-02 0.  1.
    10030    2    1    2    0    0  0.00000000000E+00  0.00000000000E+00 -0.77076266256E+03  0.31613278462E+04  0.30659286797E+04 0.  0.
        4    1    3    3  502    0  0.15934306439E+03 -0.72740499572E+03 -0.17670265640E+04  0.19175225503E+04  0.12699999809E+01 0.  1.
       -4    1    3    3    0  502 -0.15934306439E+03  0.72740499572E+03  0.99626390145E+03  0.12438052959E+04  0.12699999809E+01 0. -1.
</event>
<event>
 5   0  0.2067926E-06  0.3114837E+04  0.7818609E-02  0.8211678E-01
       -2   -1    0    0    0  501  0.00000000000E+00  0.00000000000E+00  0.15607841019E+04  0.15607841019E+04  0.25500000920E-02 0.  1.
        2   -1    0    0  501    0  0.00000000000E+00  0.00000000000E+00 -0.15540600014E+04  0.15540600014E+04  0.25500000920E-02 0. -1.
    10030    2    1    2    0    0  0.00000000000E+00  0.00000000000E+00  0.67241005206E+01  0.31148441034E+04  0.31148368456E+04 0.  0.
        1    1    3    3  502    0  0.72048379997E+03 -0.12353132115E+03  0.13785726027E+04  0.15603907569E+04  0.50400001928E-02 0.  1.
       -1    1    3    3    0  502 -0.72048379997E+03  0.12353132115E+03 -0.13718485022E+04  0.15544533465E+04  0.50400001928E-02 0. -1.
</event>
<event>
 5   0  0.7656332E-07  0.3105209E+04  0.7818609E-02  0.8214310E-01
        1   -1    0    0  501    0  0.00000000000E+00  0.00000000000E+00  0.20436484774E+04  0.20436484774E+04  0.50400001928E-02 0.  1.
       -1   -1    0    0    0  501  0.00000000000E+00  0.00000000000E+00 -0.11795478697E+04  0.11795478697E+04  0.50400001928E-02 0. -1.
    10030    2    1    2    0    0  0.00000000000E+00  0.00000000000E+00  0.86410060768E+03  0.32231963470E+04  0.31052093056E+04 0.  0.
        2    1    3    3  502    0 -0.31617411893E+03 -0.11578806132E+04  0.14543201403E+04  0.18856565590E+04  0.25500000920E-02 0.  1.
       -2    1    3    3    0  502  0.31617411893E+03  0.11578806132E+04 -0.59021953262E+03  0.13375397881E+04  0.25500000920E-02 0. -1.
</event>
<event>
 5   0  0.7656332E-07  0.3093116E+04  0.7818609E-02  0.8217630E-01
        1   -1    0    0  501    0  0.00000000000E+00  0.00000000000E+00  0.25578020240E+04  0.25578020240E+04  0.50400001928E-02 0. -1.
       -1   -1    0    0    0  501  0.00000000000E+00  0.00000000000E+00 -0.93511587406E+03  0.93511587407E+03  0.50400001928E-02 0.  1.
    10030    2    1    2    0    0  0.00000000000E+00  0.00000000000E+00  0.16226861499E+04  0.34929178981E+04  0.30931157595E+04 0.  0.
        2    1    3    3  502    0  0.62383380928E+03  0.91937400411E+03 -0.40355113783E+03  0.11820620550E+04  0.25500000920E-02 0.  1.
       -2    1    3    3    0  502 -0.62383380928E+03 -0.91937400411E+03  0.20262372878E+04  0.23108558430E+04  0.25500000920E-02 0. -1.
</event>
<event>
 5   0  0.7561815E-07  0.3264271E+04  0.7818609E-02  0.8172047E-01
       -1   -1    0    0    0  501  0.00000000000E+00  0.00000000000E+00  0.14760307093E+04  0.14760307093E+04  0.50400001928E-02 0.  1.
        1   -1    0    0  501    0  0.00000000000E+00  0.00000000000E+00 -0.18047499185E+04  0.18047499185E+04  0.50400001928E-02 0. -1.
    10030    2    1    2    0    0  0.00000000000E+00  0.00000000000E+00 -0.32871920925E+03  0.32807806278E+04  0.32642710073E+04 0.  0.
        3    1    3    3  502    0  0.15261645982E+04 -0.48738355886E+03 -0.47761719852E+03  0.16717772916E+04  0.10100000352E+00 0. -1.
       -3    1    3    3    0  502 -0.15261645982E+04  0.48738355886E+03  0.14889798927E+03  0.16090033362E+04  0.10100000352E+00 0.  1.
</event>
<event>
 5   0  0.7413481E-07  0.3102207E+04  0.7818609E-02  0.8215133E-01
       -1   -1    0    0    0  501  0.00000000000E+00  0.00000000000E+00  0.12759877452E+04  0.12759877452E+04  0.50400001928E-02 0. -1.
        1   -1    0    0  501    0  0.00000000000E+00  0.00000000000E+00 -0.18855368448E+04  0.18855368448E+04  0.50400001928E-02 0.  1.
    10030    2    1    2    0    0  0.00000000000E+00  0.00000000000E+00 -0.60954909956E+03  0.31615245900E+04  0.31022068964E+04 0.  0.
        5    1    3    3  502    0 -0.21857780301E+03 -0.12054211134E+03 -0.18649265636E+04  0.18815631359E+04  0.46999998093E+01 0.  1.
       -5    1    3    3    0  502  0.21857780301E+03  0.12054211134E+03  0.12553774641E+04  0.12799614541E+04  0.46999998093E+01 0. -1.
</event>
<event>
 5   0  0.7519202E-07  0.3101811E+04  0.7818609E-02  0.8215241E-01
        1   -1    0    0  501    0  0.00000000000E+00  0.00000000000E+00  0.14882210729E+04  0.14882210729E+04  0.50400001928E-02 0. -1.
       -1   -1    0    0    0  501  0.00000000000E+00  0.00000000000E+00 -0.16162300539E+04  0.16162300539E+04  0.50400001928E-02 0.  1.
    10030    2    1    2    0    0  0.00000000000E+00  0.00000000000E+00 -0.12800898098E+03  0.31044511268E+04  0.31018108420E+04 0.  0.
        4    1    3    3  502    0  0.70546524153E+03  0.14146070562E+03 -0.14390785043E+04  0.16089253844E+04  0.12699999809E+01 0.  1.
       -4    1    3    3    0  502 -0.70546524153E+03 -0.14146070562E+03  0.13110695233E+04  0.14955257424E+04  0.12699999809E+01 0. -1.
</event>
<event>
 5   0  0.2094135E-06  0.3165910E+04  0.7818609E-02  0.8197879E-01
        2   -1    0    0  501    0  0.00000000000E+00  0.00000000000E+00  0.15331359923E+04  0.15331359923E+04  0.25500000920E-02 0. -1.
       -2   -1    0    0    0  501  0.00000000000E+00  0.00000000000E+00 -0.16343930644E+04  0.16343930644E+04  0.25500000920E-02 0.  1.
    10030    2    1    2    0    0  0.00000000000E+00  0.00000000000E+00 -0.10125707212E+03  0.31675290567E+04  0.31659101899E+04 0.  0.
        4    1    3    3  502    0 -0.13214001804E+02  0.15207425446E+04 -0.49007143626E+03  0.15978122926E+04  0.12699999809E+01 0.  1.
       -4    1    3    3    0  502  0.13214001804E+02 -0.15207425446E+04  0.38881436415E+03  0.15697167641E+04  0.12699999809E+01 0. -1.
</event>
<event>
 5   0  0.2067926E-06  0.3114577E+04  0.7818609E-02  0.8211749E-01
        2   -1    0    0  501    0  0.00000000000E+00  0.00000000000E+00  0.13275132999E+04  0.13275132999E+04  0.25500000920E-02 0.  1.
       -2   -1    0    0    0  501  0.00000000000E+00  0.00000000000E+00 -0.18268352126E+04  0.18268352126E+04  0.25500000920E-02 0. -1.
    10030    2    1    2    0    0  0.00000000000E+00  0.00000000000E+00 -0.49932191277E+03  0.31543485125E+04  0.31145773655E+04 0.  0.
        1    1    3    3  502    0 -0.81351710217E+03  0.11114237902E+04  0.48630615501E+03  0.14606733356E+04  0.50400001928E-02 0. -1.
       -1    1    3    3    0  502  0.81351710217E+03 -0.11114237902E+04 -0.98562806778E+03  0.16936751769E+04  0.50400001928E-02 0.  1.
</event>
<event>
 5   0  0.2226334E-06  0.3108077E+04  0.7818609E-02  0.8213525E-01
        2   -1    0    0  501    0  0.00000000000E+00  0.00000000000E+00  0.18207961690E+04  0.18207961690E+04  0.25500000920E-02 0.  1.
       -2   -1    0    0    0  501  0.00000000000E+00  0.00000000000E+00 -0.13263623441E+04  0.13263623441E+04  0.25500000920E-02 0. -1.
    10030    2    1    2    0    0  0.00000000000E+00  0.00000000000E+00  0.49443382485E+03  0.31471585131E+04  0.31080768812E+04 0.  0.
        5    1    3    3  502    0  0.14150680244E+03  0.14123129971E+04  0.88791416278E+03  0.16742358936E+04  0.46999998093E+01 0.  1.
       -5    1    3    3    0  502 -0.14150680244E+03 -0.14123129971E+04 -0.39348033793E+03  0.14729226195E+04  0.46999998093E+01 0. -1.
</event>
<event>
 5   0  0.2133385E-06  0.3106143E+04  0.7818609E-02  0.8214054E-01
       -2   -1    0    0    0  501  0.00000000000E+00  0.00000000000E+00  0.13287441867E+04  0.13287441867E+04  0.25500000920E-02 0. -1.
        2   -1    0    0  501    0  0.00000000000E+00  0.00000000000E+00 -0.18152717974E+04  0.18152717974E+04  0.25500000920E-02 0.  1.
    10030    2    1    2    0    0  0.00000000000E+00  0.00000000000E+00 -0.48652761075E+03  0.31440159841E+04  0.31061434919E+04 0.  0.
        2    1    3    3  502    0 -0.13289802918E+04 -0.65441546366E+03 -0.71540983564E+03  0.16450712593E+04  0.25500000920E-02 0. -1.
       -2    1    3    3    0  502  0.13289802918E+04  0.65441546366E+03  0.22888222488E+03  0.14989447248E+04  0.25500000920E-02 0.  1.
</event>
<event>
 5   0  0.7656332E-07  0.3105142E+04  0.7818609E-02  0.8214328E-01
       -1   -1    0    0    0  501  0.00000000000E+00  0.00000000000E+00  0.25944444569E+04  0.25944444569E+04  0.50400001928E-02 0. -1.
        1   -1    0    0  501    0  0.00000000000E+00  0.00000000000E+00 -0.92909172445E+03  0.92909172447E+03  0.50400001928E-02 0.  1.
    10030    2    1    2    0    0  0.00000000000E+00  0.00000000000E+00  0.16653527325E+04  0.35235361814E+04  0.31051421059E+04 0.  0.
        2    1    3    3  502    0  0.10628278717E+04 -0.32299431227E+03 -0.39816523244E+03  0.11800271026E+04  0.25500000920E-02 0.  1.
       -2    1    3    3    0  502 -0.10628278717E+04  0.32299431227E+03  0.20635179649E+04  0.23435090788E+04  0.25500000920E-02 0. -1.
</event>
<event>
 5   0  0.7726743E-07  0.3097363E+04  0.7818609E-02  0.8216462E-01
       -1   -1    0    0    0  501  0.00000000000E+00  0.00000000000E+00  0.13395339183E+04  0.13395339183E+04  0.50400001928E-02 0.  1.
        1   -1    0    0  501    0  0.00000000000E+00  0.00000000000E+00 -0.17904847690E+04  0.17904847690E+04  0.50400001928E-02 0. -1.
    10030    2    1    2    0    0  0.00000000000E+00  0.00000000000E+00 -0.45095085076E+03  0.31300186873E+04  0.30973634455E+04 0.  0.
        1    1    3    3  502    0 -0.93288389182E+03 -0.35752449684E+03  0.97035127452E+03  0.13927231302E+04  0.50400001928E-02 0.  1.
       -1    1    3    3    0  502  0.93288389182E+03  0.35752449684E+03 -0.14213021253E+04  0.17372955571E+04  0.50400001928E-02 0. -1.
</event>
<event>
 5   0  0.2226334E-06  0.3096208E+04  0.7818609E-02  0.8216779E-01
       -2   -1    0    0    0  501  0.00000000000E+00  0.00000000000E+00  0.99224467312E+03  0.99224467312E+03  0.25500000920E-02 0. -1.
        2   -1    0    0  501    0  0.00000000000E+00  0.00000000000E+00 -0.24153581596E+04  0.24153581596E+04  0.25500000920E-02 0.  1.
    10030    2    1    2    0    0  0.00000000000E+00  0.00000000000E+00 -0.14231134865E+04  0.34076028328E+04  0.30962081762E+04 0.  0.
        5    1    3    3  502    0  0.14876206993E+04  0.33037152123E+03 -0.41127275083E+03  0.15783941373E+04  0.46999998093E+01 0. -1.
       -5    1    3    3    0  502 -0.14876206993E+04 -0.33037152123E+03 -0.10118407357E+04  0.18292086955E+04  0.46999998093E+01 0.  1.
</event>
<event>
 5   0  0.2067926E-06  0.3087179E+04  0.7818609E-02  0.8219265E-01
       -2   -1    0    0    0  501  0.00000000000E+00  0.00000000000E+00  0.11394743884E+04  0.11394743884E+04  0.25500000920E-02 0. -1.
        2   -1    0    0  501    0  0.00000000000E+00  0.00000000000E+00 -0.20910240326E+04  0.20910240326E+04  0.25500000920E-02 0.  1.
    10030    2    1    2    0    0  0.00000000000E+00  0.00000000000E+00 -0.95154964427E+03  0.32304984210E+04  0.30871788615E+04 0.  0.
        1    1    3    3  502    0  0.16807710977E+03 -0.15343676163E+04 -0.46364198851E+03  0.16116754606E+04  0.50400001928E-02 0. -1.
       -1    1    3    3    0  502 -0.16807710977E+03  0.15343676163E+04 -0.48790765576E+03  0.16188229604E+04  0.50400001928E-02 0.  1.
</event>
<event>
 5   0  0.7413481E-07  0.3099696E+04  0.7818609E-02  0.8215821E-01
       -1   -1    0    0    0  501  0.00000000000E+00  0.00000000000E+00  0.14937337835E+04  0.14937337836E+04  0.50400001928E-02 0.  1.
        1   -1    0    0  501    0  0.00000000000E+00  0.00000000000E+00 -0.16080702796E+04  0.16080702796E+04  0.50400001928E-02 0. -1.
    10030    2    1    2    0    0  0.00000000000E+00  0.00000000000E+00 -0.11433649603E+03  0.31018040631E+04  0.30996960515E+04 0.  0.
        5    1    3    3  502    0  0.82696972626E+03  0.89868493383E+03  0.89767838611E+03  0.15157051538E+04  0.46999998093E+01 0.  1.
       -5    1    3    3    0  502 -0.82696972626E+03 -0.89868493383E+03 -0.10120148821E+04  0.15860989093E+04  0.46999998093E+01 0. -1.
</event>
<event>
 5   0  0.7561815E-07  0.3120457E+04  0.7818609E-02  0.8210146E-01
       -1   -1    0    0    0  501  0.00000000000E+00  0.00000000000E+00  0.28499571148E+04  0.28499571148E+04  0.50400001928E-02 0.  1.
        1   -1    0    0  501    0  0.00000000000E+00  0.00000000000E+00 -0.85415763549E+03  0.85415763550E+03  0.50400001928E-02 0. -1.
    10030    2    1    2    0    0  0.00000000000E+00  0.00000000000E+00  0.19957994793E+04  0.37041147503E+04  0.31204567810E+04 0.  0.
        3    1    3    3  502    0  0.42482370200E+03 -0.47463318511E+03  0.26885752930E+04  0.27630036110E+04  0.10100000352E+00 0.  1.
       -3    1    3    3    0  502 -0.42482370200E+03  0.47463318511E+03 -0.69277581370E+03  0.94111113927E+03  0.10100000352E+00 0. -1.
</event>
<event>
 5   0  0.2226334E-06  0.3091582E+04  0.7818609E-02  0.8218052E-01
        2   -1    0    0  501    0  0.00000000000E+00  0.00000000000E+00  0.15755471185E+04  0.15755471185E+04  0.25500000920E-02 0. -1.
       -2   -1    0    0    0  501  0.00000000000E+00  0.00000000000E+00 -0.15165972743E+04  0.15165972743E+04  0.25500000920E-02 0.  1.
    10030    2    1    2    0    0  0.00000000000E+00  0.00000000000E+00  0.58949844119E+02  0.30921443928E+04  0.30915824203E+04 0.  0.
        5    1    3    3  502    0 -0.29376132186E+03 -0.70754574869E+03  0.13723029247E+04  0.15716723920E+04  0.46999998093E+01 0. -1.
       -5    1    3    3    0  502  0.29376132186E+03  0.70754574869E+03 -0.13133530806E+04  0.15204720007E+04  0.46999998093E+01 0.  1.
</event>
<event>
 5   0  0.7561815E-07  0.3085428E+04  0.7818609E-02  0.8219749E-01
        1   -1    0    0  501    0  0.00000000000E+00  0.00000000000E+00  0.12130925226E+04  0.12130925226E+04  0.50400001928E-02 0. -1.
       -1   -1    0    0    0  501  0.00000000000E+00  0.00000000000E+00 -0.19619000088E+04  0.19619000088E+04  0.50400001928E-02 0.  1.
    10030    2    1    2    0    0  0.00000000000E+00  0.00000000000E+00 -0.74880748620E+03  0.31749925314E+04  0.30854278347E+04 0.  0.
        3    1    3    3  502    0  0.66392118005E+03 -0.98360135383E+03 -0.13887684860E+04  0.18267295570E+04  0.10100000352E+00 0.  1.
       -3    1    3    3    0  502 -0.66392118005E+03  0.98360135383E+03  0.63996099983E+03  0.13482629744E+04  0.10100000352E+00 0. -1.
</event>
<event>
 5   0  0.2078009E-06  0.3081664E+04  0.7818609E-02  0.8220788E-01
       -2   -1    0    0    0  501  0.00000000000E+00  0.00000000000E+00  0.20045454187E+04  0.20045454187E+04  0.25500000920E-02 0. -1.
        2   -1    0    0  501    0  0.00000000000E+00  0.00000000000E+00 -0.11843896123E+04  0.11843896123E+04  0.25500000920E-02 0.  1.
    10030    2    1    2    0    0  0.00000000000E+00  0.00000000000E+00  0.82015580637E+03  0.31889350310E+04  0.30816636879E+04 0.  0.
        3    1    3    3  502    0 -0.12522677323E+04 -0.33254036943E+03 -0.45285970035E+03  0.13725303236E+04  0.10100000352E+00 0.  1.
       -3    1    3    3    0  502  0.12522677323E+04  0.33254036943E+03  0.12730155067E+04  0.18164047075E+04  0.10100000352E+00 0. -1.
</event>
<event>
 5   0  0.7656332E-07  0.2958853E+04  0.7818609E-02  0.8255579E-01
        1   -1    0    0  501    0  0.00000000000E+00  0.00000000000E+00  0.20621180106E+04  0.20621180106E+04  0.50400001928E-02 0. -1.
       -1   -1    0    0    0  501  0.00000000000E+00  0.00000000000E+00 -0.10613855788E+04  0.10613855788E+04  0.50400001928E-02 0.  1.
    10030    2    1    2    0    0  0.00000000000E+00  0.00000000000E+00  0.10007324318E+04  0.31235035894E+04  0.29588526954E+04 0.  0.
        2    1    3    3  502    0 -0.13120533675E+03  0.10797252370E+04  0.15590073474E+04  0.19009274939E+04  0.25500000920E-02 0. -1.
       -2    1    3    3    0  502  0.13120533675E+03 -0.10797252370E+04 -0.55827491560E+03  0.12225760955E+04  0.25500000920E-02 0.  1.
</event>
<event>
 5   0  0.2067926E-06  0.3096264E+04  0.7818609E-02  0.8216764E-01
       -2   -1    0    0    0  501  0.00000000000E+00  0.00000000000E+00  0.14301585184E+04  0.14301585184E+04  0.25500000920E-02 0. -1.
        2   -1    0    0  501    0  0.00000000000E+00  0.00000000000E+00 -0.16758373257E+04  0.16758373257E+04  0.25500000920E-02 0.  1.
    10030    2    1    2    0    0  0.00000000000E+00  0.00000000000E+00 -0.24567880735E+03  0.31059958441E+04  0.30962642180E+04 0.  0.
        1    1    3    3  502    0  0.31946358764E+03 -0.13815454404E+04 -0.74607161646E+03  0.16022944937E+04  0.50400001928E-02 0.  1.
       -1    1    3    3    0  502 -0.31946358764E+03  0.13815454404E+04  0.50039280912E+03  0.15037013504E+04  0.50400001928E-02 0. -1.
</event>
<event>
 5   0  0.7656332E-07  0.3338570E+04  0.7818609E-02  0.8153150E-01
       -1   -1    0    0    0  501  0.00000000000E+00  0.00000000000E+00  0.15512701369E+04  0.15512701369E+04  0.50400001928E-02 0.  1.
        1   -1    0    0  501    0  0.00000000000E+00  0.00000000000E+00 -0.17962774775E+04  0.17962774775E+04  0.50400001928E-02 0. -1.
    10030    2    1    2    0    0  0.00000000000E+00  0.00000000000E+00 -0.24500734060E+03  0.33475476143E+04  0.33385695190E+04 0.  0.
        2    1    3    3  502    0  0.49995781060E+03  0.13734146823E+04 -0.93107531987E+03  0.17329532461E+04  0.25500000920E-02 0. -1.
       -2    1    3    3    0  502 -0.49995781060E+03 -0.13734146823E+04  0.68606797927E+03  0.16145943683E+04  0.25500000920E-02 0.  1.
</event>
<event>
 5   0  0.2094135E-06  0.3096262E+04  0.7818609E-02  0.8216765E-01
       -2   -1    0    0    0  501  0.00000000000E+00  0.00000000000E+00  0.15241988874E+04  0.15241988874E+04  0.25500000920E-02 0.  1.
        2   -1    0    0  501    0  0.00000000000E+00  0.00000000000E+00 -0.15724383824E+04  0.15724383824E+04  0.25500000920E-02 0. -1.
    10030    2    1    2    0    0  0.00000000000E+00  0.00000000000E+00 -0.48239495071E+02  0.30966372698E+04  0.30962615090E+04 0.  0.
        4    1    3    3  502    0  0.16274423762E+03 -0.10218611328E+04 -0.11757895043E+04  0.15662593760E+04  0.12699999809E+01 0. -1.
       -4    1    3    3    0  502 -0.16274423762E+03  0.10218611328E+04  0.11275500093E+04  0.15303778938E+04  0.12699999809E+01 0.  1.
</event>
<event>
 5   0  0.7519202E-07  0.3094230E+04  0.7818609E-02  0.8217323E-01
       -1   -1    0    0    0  501  0.00000000000E+00  0.00000000000E+00  0.11695690648E+04  0.11695690648E+04  0.50400001928E-02 0.  1.
        1   -1    0    0  501    0  0.00000000000E+00  0.00000000000E+00 -0.20465358595E+04  0.20465358595E+04  0.50400001928E-02 0. -1.
    10030    2    1    2    0    0  0.00000000000E+00  0.00000000000E+00 -0.87696679477E+03  0.32161049243E+04  0.30942301345E+04 0.  0.
        4    1    3    3  502    0 -0.72429241267E+03 -0.92182143190E+03 -0.14878065569E+04  0.18941816742E+04  0.12699999809E+01 0. -1.
       -4    1    3    3    0  502  0.72429241267E+03  0.92182143190E+03  0.61083976209E+03  0.13219232501E+04  0.12699999809E+01 0.  1.
</event>
<event>
 5   0  0.7656332E-07  0.3114081E+04  0.7818609E-02  0.8211884E-01
        1   -1    0    0  501    0  0.00000000000E+00  0.00000000000E+00  0.13222918231E+04  0.13222918231E+04  0.50400001928E-02 0.  1.
       -1   -1    0    0    0  501  0.00000000000E+00  0.00000000000E+00 -0.18334650707E+04  0.18334650707E+04  0.50400001928E-02 0. -1.
    10030    2    1    2    0    0  0.00000000000E+00  0.00000000000E+00 -0.51117324766E+03  0.31557568938E+04  0.31140814831E+04 0.  0.
        2    1    3    3  502    0  0.11952463531E+04  0.94461670044E+03  0.70372067666E+02  0.15250792711E+04  0.25500000920E-02 0. -1.
       -2    1    3    3    0  502 -0.11952463531E+04 -0.94461670044E+03 -0.58154531533E+03  0.16306776227E+04  0.25500000920E-02 0.  1.
</event>
<event>
 5   0  0.7413481E-07  0.3076178E+04  0.7818609E-02  0.8222306E-01
       -1   -1    0    0    0  501  0.00000000000E+00  0.00000000000E+00  0.98568269832E+03  0.98568269833E+03  0.50400001928E-02 0.  1.
        1   -1    0    0  501    0  0.00000000000E+00  0.00000000000E+00 -0.24000802372E+04  0.24000802372E+04  0.50400001928E-02 0. -1.
    10030    2    1    2    0    0  0.00000000000E+00  0.00000000000E+00 -0.14143975389E+04  0.33857629356E+04  0.30761778651E+04 0.  0.
        5    1    3    3  502    0  0.74468961416E+02 -0.26539591329E+03 -0.23726648981E+04  0.23886275192E+04  0.46999998093E+01 0. -1.
       -5    1    3    3    0  502 -0.74468961416E+02  0.26539591329E+03  0.95826735914E+03  0.99713541638E+03  0.46999998093E+01 0.  1.
</event>
<event>
 5   0  0.7656332E-07  0.3107799E+04  0.7818609E-02  0.8213601E-01
       -1   -1    0    0    0  501  0.00000000000E+00  0.00000000000E+00  0.18727873309E+04  0.18727873309E+04  0.50400001928E-02 0.  1.
        1   -1    0    0  501    0  0.00000000000E+00  0.00000000000E+00 -0.12893100259E+04  0.12893100259E+04  0.50400001928E-02 0. -1.
    10030    2    1    2    0    0  0.00000000000E+00  0.00000000000E+00  0.58347730502E+03  0.31620973569E+04  0.31077988881E+04 0.  0.
        2    1    3    3  502    0 -0.48492592906E+03 -0.74938446525E+03 -0.10024410292E+04  0.13422437374E+04  0.25500000920E-02 0. -1.
       -2    1    3    3    0  502  0.48492592906E+03  0.74938446525E+03  0.15859183343E+04  0.18198536195E+04  0.25500000920E-02 0.  1.
</event>
<event>
 5   0  0.7561815E-07  0.3103609E+04  0.7818609E-02  0.8214748E-01
       -1   -1    0    0    0  501  0.00000000000E+00  0.00000000000E+00  0.11821212745E+04  0.11821212745E+04  0.50400001928E-02 0.  1.
        1   -1    0    0  501    0  0.00000000000E+00  0.00000000000E+00 -0.20370980850E+04  0.20370980850E+04  0.50400001928E-02 0. -1.
    10030    2    1    2    0    0  0.00000000000E+00  0.00000000000E+00 -0.85497681052E+03  0.32192193596E+04  0.31036088572E+04 0.  0.
        3    1    3    3  502    0 -0.74076047123E+03  0.11359381205E+04  0.35494184152E+03  0.14018078365E+04  0.10100000352E+00 0.  1.
       -3    1    3    3    0  502  0.74076047123E+03 -0.11359381205E+04 -0.12099186520E+04  0.18174115231E+04  0.10100000352E+00 0. -1.
</event>
<event>
 5   0  0.7413481E-07  0.3092001E+04  0.7818609E-02  0.8217937E-01
       -1   -1    0    0    0  501  0.00000000000E+00  0.00000000000E+00  0.15389454328E+04  0.15389454328E+04  0.50400001928E-02 0.  1.
        1   -1    0    0  501    0  0.00000000000E+00  0.00000000000E+00 -0.15530877963E+04  0.15530877963E+04  0.50400001928E-02 0. -1.
    10030    2    1    2    0    0  0.00000000000E+00  0.00000000000E+00 -0.14142363506E+02  0.30920332292E+04  0.30920008868E+04 0.  0.
        5    1    3    3  502    0  0.11394378661E+04  0.94668912764E+03  0.43515095360E+03  0.15439939758E+04  0.46999998093E+01 0. -1.
       -5    1    3    3    0  502 -0.11394378661E+04 -0.94668912764E+03 -0.44929331711E+03  0.15480392533E+04  0.46999998093E+01 0.  1.
</event>
<event>
 5   0  0.7413481E-07  0.3091356E+04  0.7818609E-02  0.8218114E-01
       -1   -1    0    0    0  501  0.00000000000E+00  0.00000000000E+00  0.10069106596E+04  0.10069106596E+04  0.50400001928E-02 0. -1.
        1   -1    0    0  501    0  0.00000000000E+00  0.00000000000E+00 -0.23727240695E+04  0.23727240695E+04  0.50400001928E-02 0.  1.
    10030    2    1    2    0    0  0.00000000000E+00  0.00000000000E+00 -0.13658134099E+04  0.33796347291E+04  0.30913564388E+04 0.  0.
        5    1    3    3  502    0 -0.11506111346E+04  0.52379226565E+03  0.28931106083E+03  0.12969145309E+04  0.46999998093E+01 0. -1.
       -5    1    3    3    0  502  0.11506111346E+04 -0.52379226565E+03 -0.16551244707E+04  0.20827201982E+04  0.46999998093E+01 0.  1.
</event>
<event>
 5   0  0.7413481E-07  0.3098910E+04  0.7818609E-02  0.8216037E-01
        1   -1    0    0  501    0  0.00000000000E+00  0.00000000000E+00  0.14483080614E+04  0.14483080614E+04  0.50400001928E-02 0.  1.
       -1   -1    0    0    0  501  0.00000000000E+00  0.00000000000E+00 -0.16576659417E+04  0.16576659417E+04  0.50400001928E-02 0. -1.
    10030    2    1    2    0    0  0.00000000000E+00  0.00000000000E+00 -0.20935788029E+03  0.31059740031E+04  0.30989100965E+04 0.  0.
        5    1    3    3  502    0 -0.81212430563E+03  0.41057558357E+03 -0.13615992146E+04  0.16377095923E+04  0.46999998093E+01 0. -1.
       -5    1    3    3    0  502  0.81212430563E+03 -0.41057558357E+03  0.11522413343E+04  0.14682644108E+04  0.46999998093E+01 0.  1.
</event>
<event>
 5   0  0.2094135E-06  0.3090197E+04  0.7818609E-02  0.8218433E-01
       -2   -1    0    0    0  501  0.00000000000E+00  0.00000000000E+00  0.10157029026E+04  0.10157029026E+04  0.25500000920E-02 0.  1.
        2   -1    0    0  501    0  0.00000000000E+00  0.00000000000E+00 -0.23504207226E+04  0.23504207226E+04  0.25500000920E-02 0. -1.
    10030    2    1    2    0    0  0.00000000000E+00  0.00000000000E+00 -0.13347178201E+04  0.33661236252E+04  0.30901968547E+04 0.  0.
        4    1    3    3  502    0  0.18690513697E+03 -0.15832934407E+03 -0.23291350163E+04  0.23419806252E+04  0.12699999809E+01 0. -1.
       -4    1    3    3    0  502 -0.18690513697E+03  0.15832934407E+03  0.99441719627E+03  0.10241430001E+04  0.12699999809E+01 0.  1.
</event>
<event>
 5   0  0.7519202E-07  0.3117387E+04  0.7818609E-02  0.8210982E-01
        1   -1    0    0  501    0  0.00000000000E+00  0.00000000000E+00  0.14669356238E+04  0.14669356238E+04  0.50400001928E-02 0. -1.
       -1   -1    0    0    0  501  0.00000000000E+00  0.00000000000E+00 -0.16561907134E+04  0.16561907134E+04  0.50400001928E-02 0.  1.
    10030    2    1    2    0    0  0.00000000000E+00  0.00000000000E+00 -0.18925508961E+03  0.31231263372E+04  0.31173868270E+04 0.  0.
        4    1    3    3  502    0  0.55989262775E+02  0.32181034189E+03 -0.16215158742E+04  0.16540894888E+04  0.12699999809E+01 0.  1.
       -4    1    3    3    0  502 -0.55989262775E+02 -0.32181034189E+03  0.14322607846E+04  0.14690368483E+04  0.12699999809E+01 0. -1.
</event>
<event>
 5   0  0.2078009E-06  0.3099728E+04  0.7818609E-02  0.8215813E-01
        2   -1    0    0  501    0  0.00000000000E+00  0.00000000000E+00  0.18002900888E+04  0.18002900888E+04  0.25500000920E-02 0.  1.
       -2   -1    0    0    0  501  0.00000000000E+00  0.00000000000E+00 -0.13342729667E+04  0.13342729667E+04  0.25500000920E-02 0. -1.
    10030    2    1    2    0    0  0.00000000000E+00  0.00000000000E+00  0.46601712205E+03  0.31345630555E+04  0.30997279866E+04 0.  0.
        3    1    3    3  502    0 -0.99518185302E+03 -0.31320018753E+03  0.13920114493E+04  0.17395910908E+04  0.10100000352E+00 0.  1.
       -3    1    3    3    0  502  0.99518185302E+03  0.31320018753E+03 -0.92599432720E+03  0.13949719647E+04  0.10100000352E+00 0. -1.
</event>
<event>
 5   0  0.2067926E-06  0.3096022E+04  0.7818609E-02  0.8216830E-01
        2   -1    0    0  501    0  0.00000000000E+00  0.00000000000E+00  0.33986210503E+04  0.33986210503E+04  0.25500000920E-02 0.  1.
       -2   -1    0    0    0  501  0.00000000000E+00  0.00000000000E+00 -0.70509136114E+03  0.70509136114E+03  0.25500000920E-02 0. -1.
    10030    2    1    2    0    0  0.00000000000E+00  0.00000000000E+00  0.26935296892E+04  0.41037124115E+04  0.30960221849E+04 0.  0.
        1    1    3    3  502    0 -0.35823650452E+03  0.86595541431E+03 -0.28638783250E+03  0.97991334482E+03  0.50400001928E-02 0. -1.
       -1    1    3    3    0  502  0.35823650452E+03 -0.86595541431E+03  0.29799175217E+04  0.31237990667E+04  0.50400001928E-02 0.  1.
</event>
<event>
 5   0  0.7519202E-07  0.3133247E+04  0.7818609E-02  0.8206672E-01
        1   -1    0    0  501    0  0.00000000000E+00  0.00000000000E+00  0.15621191065E+04  0.15621191065E+04  0.50400001928E-02 0. -1.
       -1   -1    0    0    0  501  0.00000000000E+00  0.00000000000E+00 -0.15711410873E+04  0.15711410873E+04  0.50400001928E-02 0.  1.
    10030    2    1    2    0    0  0.00000000000E+00  0.00000000000E+00 -0.90219807456E+01  0.31332601938E+04  0.31332472047E+04 0.  0.
        4    1    3    3  502    0 -0.60744472453E+02 -0.14345173965E+04  0.62221151865E+03  0.15648254978E+04  0.12699999809E+01 0. -1.
       -4    1    3    3    0  502  0.60744472453E+02  0.14345173965E+04 -0.63123349939E+03  0.15684346960E+04  0.12699999809E+01 0.  1.
</event>
<event>
 5   0  0.2067926E-06  0.3120956E+04  0.7818609E-02  0.8210010E-01
       -2   -1    0    0    0  501  0.00000000000E+00  0.00000000000E+00  0.16419798056E+04  0.16419798056E+04  0.25500000920E-02 0. -1.
        2   -1    0    0  501    0  0.00000000000E+00  0.00000000000E+00 -0.14830219285E+04  0.14830219285E+04  0.25500000920E-02 0.  1.
    10030    2    1    2    0    0  0.00000000000E+00  0.00000000000E+00  0.15895787707E+03  0.31250017342E+04  0.31209563009E+04 0.  0.
        1    1    3    3  502    0  0.97845100018E+03 -0.52143058402E+03 -0.10200500140E+04  0.15065716859E+04  0.50400001928E-02 0.  1.
       -1    1    3    3    0  502 -0.97845100018E+03  0.52143058402E+03  0.11790078911E+04  0.16184300482E+04  0.50400001928E-02 0. -1.
</event>
<event>
 5   0  0.2067926E-06  0.3103434E+04  0.7818609E-02  0.8214796E-01
        2   -1    0    0  501    0  0.00000000000E+00  0.00000000000E+00  0.19295032928E+04  0.19295032928E+04  0.25500000920E-02 0.  1.
       -2   -1    0    0    0  501  0.00000000000E+00  0.00000000000E+00 -0.12478994410E+04  0.12478994410E+04  0.25500000920E-02 0. -1.
    10030    2    1    2    0    0  0.00000000000E+00  0.00000000000E+00  0.68160385171E+03  0.31774027338E+04  0.31034342787E+04 0.  0.
        1    1    3    3  502    0 -0.88201198970E+03 -0.79857805731E+03 -0.67900805859E+03  0.13699357676E+04  0.50400001928E-02 0. -1.
       -1    1    3    3    0  502  0.88201198970E+03  0.79857805731E+03  0.13606119103E+04  0.18074669662E+04  0.50400001928E-02 0.  1.
</event>
<event>
 5   0  0.7656332E-07  0.3100435E+04  0.7818609E-02  0.8215618E-01
        1   -1    0    0  501    0  0.00000000000E+00  0.00000000000E+00  0.18769413414E+04  0.18769413414E+04  0.50400001928E-02 0.  1.
       -1   -1    0    0    0  501  0.00000000000E+00  0.00000000000E+00 -0.12803674074E+04  0.12803674074E+04  0.50400001928E-02 0. -1.
    10030    2    1    2    0    0  0.00000000000E+00  0.00000000000E+00  0.59657393404E+03  0.31573087488E+04  0.31004351431E+04 0.  0.
        2    1    3    3  502    0 -0.11493870547E+04  0.13003460211E+03  0.13492921753E+04  0.17772419569E+04  0.25500000920E-02 0.  1.
       -2    1    3    3    0  502  0.11493870547E+04 -0.13003460211E+03 -0.75271824125E+03  0.13800667918E+04  0.25500000920E-02 0. -1.
</event>
<event>
 5   0  0.2067926E-06  0.3058430E+04  0.7818609E-02  0.8227240E-01
       -2   -1    0    0    0  501  0.00000000000E+00  0.00000000000E+00  0.86482144838E+03  0.86482144839E+03  0.25500000920E-02 0. -1.
        2   -1    0    0  501    0  0.00000000000E+00  0.00000000000E+00 -0.27040251495E+04  0.27040251495E+04  0.25500000920E-02 0.  1.
    10030    2    1    2    0    0  0.00000000000E+00  0.00000000000E+00 -0.18392037011E+04  0.35688465979E+04  0.30584302812E+04 0.  0.
        1    1    3    3  502    0  0.20631280003E+03 -0.73505346113E+03 -0.24657312563E+04  0.25812204847E+04  0.50400001928E-02 0.  1.
       -1    1    3    3    0  502 -0.20631280003E+03  0.73505346113E+03  0.62652755515E+03  0.98762611325E+03  0.50400001928E-02 0. -1.
</event>
<event>
 5   0  0.7519202E-07  0.3082904E+04  0.7818609E-02  0.8220445E-01
       -1   -1    0    0    0  501  0.00000000000E+00  0.00000000000E+00  0.13292882683E+04  0.13292882683E+04  0.50400001928E-02 0. -1.
        1   -1    0    0  501    0  0.00000000000E+00  0.00000000000E+00 -0.17874784137E+04  0.17874784137E+04  0.50400001928E-02 0.  1.
    10030    2    1    2    0    0  0.00000000000E+00  0.00000000000E+00 -0.45819014544E+03  0.31167666820E+04  0.30829038812E+04 0.  0.
        4    1    3    3  502    0  0.12265174355E+04 -0.76176435106E+03 -0.77487903452E+03  0.16386180388E+04  0.12699999809E+01 0.  1.
       -4    1    3    3    0  502 -0.12265174355E+04  0.76176435106E+03  0.31668888908E+03  0.14781486432E+04  0.12699999809E+01 0. -1.
</event>
<event>
 5   0  0.7656332E-07  0.3191390E+04  0.7818609E-02  0.8191095E-01
        1   -1    0    0  501    0  0.00000000000E+00  0.00000000000E+00  0.32186539385E+04  0.32186539385E+04  0.50400001928E-02 0. -1.
       -1   -1    0    0    0  501  0.00000000000E+00  0.00000000000E+00 -0.79108916412E+03  0.79108916413E+03  0.50400001928E-02 0.  1.
    10030    2    1    2    0    0  0.00000000000E+00  0.00000000000E+00  0.24275647744E+04  0.40097431027E+04  0.31913898250E+04 0.  0.
        2    1    3    3  502    0  0.23894745946E+03 -0.11982677077E+04 -0.75692574275E+02  0.12242020885E+04  0.25500000920E-02 0.  1.
       -2    1    3    3    0  502 -0.23894745946E+03  0.11982677077E+04  0.25032573487E+04  0.27855410141E+04  0.25500000920E-02 0. -1.
</event>
<event>
 5   0  0.7726743E-07  0.3099903E+04  0.7818609E-02  0.8215765E-01
       -1   -1    0    0    0  501  0.00000000000E+00  0.00000000000E+00  0.15887655931E+04  0.15887655931E+04  0.50400001928E-02 0.  1.
        1   -1    0    0  501    0  0.00000000000E+00  0.00000000000E+00 -0.15120852471E+04  0.15120852471E+04  0.50400001928E-02 0. -1.
    10030    2    1    2    0    0  0.00000000000E+00  0.00000000000E+00  0.76680345975E+02  0.31008508402E+04  0.30999025884E+04 0.  0.
        1    1    3    3  502    0 -0.11197891162E+04 -0.31766107667E+03  0.10621339758E+04  0.15757426208E+04  0.50400001928E-02 0.  1.
       -1    1    3    3    0  502  0.11197891162E+04  0.31766107667E+03 -0.98545362987E+03  0.15251082194E+04  0.50400001928E-02 0. -1.
</event>
<event>
 5   0  0.2067926E-06  0.3100057E+04  0.7818609E-02  0.8215722E-01
       -2   -1    0    0    0  501  0.00000000000E+00  0.00000000000E+00  0.82104814710E+03  0.82104814711E+03  0.25500000920E-02 0.  1.
        2   -1    0    0  501    0  0.00000000000E+00  0.00000000000E+00 -0.29262451863E+04  0.29262451863E+04  0.25500000920E-02 0. -1.
    10030    2    1    2    0    0  0.00000000000E+00  0.00000000000E+00 -0.21051970392E+04  0.37472933334E+04  0.31000568951E+04 0.  0.
        1    1    3    3  502    0  0.20425466347E+03 -0.92463840704E+03  0.43076579961E+03  0.10403054001E+04  0.50400001928E-02 0.  1.
       -1    1    3    3    0  502 -0.20425466347E+03  0.92463840704E+03 -0.25359628388E+04  0.27069879333E+04  0.50400001928E-02 0. -1.
</event>
<event>
 5   0  0.7726743E-07  0.3120163E+04  0.7818609E-02  0.8210226E-01
        1   -1    0    0  501    0  0.00000000000E+00  0.00000000000E+00  0.18927047843E+04  0.18927047843E+04  0.50400001928E-02 0.  1.
       -1   -1    0    0    0  501  0.00000000000E+00  0.00000000000E+00 -0.12859137226E+04  0.12859137226E+04  0.50400001928E-02 0. -1.
    10030    2    1    2    0    0  0.00000000000E+00  0.00000000000E+00  0.60679106171E+03  0.31786185069E+04  0.31201634925E+04 0.  0.
        1    1    3    3  502    0 -0.83347868368E+03 -0.81288098977E+03  0.13613075554E+04  0.17912622589E+04  0.50400001928E-02 0.  1.
       -1    1    3    3    0  502  0.83347868368E+03  0.81288098977E+03 -0.75451649372E+03  0.13873562480E+04  0.50400001928E-02 0. -1.
</event>
<event>
 5   0  0.7519202E-07  0.3107796E+04  0.7818609E-02  0.8213602E-01
       -1   -1    0    0    0  501  0.00000000000E+00  0.00000000000E+00  0.80158702813E+03  0.80158702814E+03  0.50400001928E-02 0.  1.
        1   -1    0    0  501    0  0.00000000000E+00  0.00000000000E+00 -0.30122735543E+04  0.30122735543E+04  0.50400001928E-02 0. -1.
    10030    2    1    2    0    0  0.00000000000E+00  0.00000000000E+00 -0.22106865261E+04  0.38138605824E+04  0.31077962651E+04 0.  0.
        4    1    3    3  502    0 -0.15313163973E+04 -0.24207524134E+03 -0.97624027369E+03  0.18320963446E+04  0.12699999809E+01 0. -1.
       -4    1    3    3    0  502  0.15313163973E+04  0.24207524134E+03 -0.12344462525E+04  0.19817642378E+04  0.12699999809E+01 0.  1.
</event>
<event>
 5   0  0.2133385E-06  0.3109965E+04  0.7818609E-02  0.8213008E-01
       -2   -1    0    0    0  501  0.00000000000E+00  0.00000000000E+00  0.10149500620E+04  0.10149500620E+04  0.25500000920E-02 0.  1.
        2   -1    0    0  501    0  0.00000000000E+00  0.00000000000E+00 -0.23823545052E+04  0.23823545052E+04  0.25500000920E-02 0. -1.
    10030    2    1    2    0    0  0.00000000000E+00  0.00000000000E+00 -0.13674044433E+04  0.33973045672E+04  0.31099651784E+04 0.  0.
        2    1    3    3  502    0  0.15046612528E+04  0.16839631257E+03 -0.29654470837E+03  0.15428225976E+04  0.25500000920E-02 0.  1.
       -2    1    3    3    0  502 -0.15046612528E+04 -0.16839631257E+03 -0.10708597349E+04  0.18544819696E+04  0.25500000920E-02 0. -1.
</event>
<event>
 5   0  0.2133385E-06  0.3097795E+04  0.7818609E-02  0.8216343E-01
       -2   -1    0    0    0  501  0.00000000000E+00  0.00000000000E+00  0.12369281189E+04  0.12369281189E+04  0.25500000920E-02 0.  1.
        2   -1    0    0  501    0  0.00000000000E+00  0.00000000000E+00 -0.19395494782E+04  0.19395494782E+04  0.25500000920E-02 0. -1.
    10030    2    1    2    0    0  0.00000000000E+00  0.00000000000E+00 -0.70262135929E+03  0.31764775971E+04  0.30977948851E+04 0.  0.
        2    1    3    3  502    0  0.43091461073E+03  0.56151400500E+03  0.10613974475E+04  0.12757546477E+04  0.25500000920E-02 0.  1.
       -2    1    3    3    0  502 -0.43091461073E+03 -0.56151400500E+03 -0.17640188068E+04  0.19007229494E+04  0.25500000920E-02 0. -1.
</event>
<event>
 5   0  0.2226334E-06  0.3113308E+04  0.7818609E-02  0.8212095E-01
        2   -1    0    0  501    0  0.00000000000E+00  0.00000000000E+00  0.11716448502E+04  0.11716448502E+04  0.25500000920E-02 0. -1.
       -2   -1    0    0    0  501  0.00000000000E+00  0.00000000000E+00 -0.20681793901E+04  0.20681793901E+04  0.25500000920E-02 0.  1.
    10030    2    1    2    0    0  0.00000000000E+00  0.00000000000E+00 -0.89653453995E+03  0.32398242403E+04  0.31133080359E+04 0.  0.
        5    1    3    3  502    0  0.31681482076E+03 -0.40382610823E+03  0.10810455243E+04  0.11967157858E+04  0.46999998093E+01 0. -1.
       -5    1    3    3    0  502 -0.31681482076E+03  0.40382610823E+03 -0.19775800642E+04  0.20431084545E+04  0.46999998093E+01 0.  1.
</event>
<event>
 5   0  0.2067926E-06  0.3134702E+04  0.7818609E-02  0.8206278E-01
        2   -1    0    0  501    0  0.00000000000E+00  0.00000000000E+00  0.14865332212E+04  0.14865332212E+04  0.25500000920E-02 0. -1.
       -2   -1    0    0    0  501  0.00000000000E+00  0.00000000000E+00 -0.16525625477E+04  0.16525625477E+04  0.25500000920E-02 0.  1.
    10030    2    1    2    0    0  0.00000000000E+00  0.00000000000E+00 -0.16602932644E+03  0.31390957689E+04  0.31347019809E+04 0.  0.
        1    1    3    3  502    0  0.38431966480E+03 -0.13734971547E+04 -0.73384338263E+03  0.16039707444E+04  0.50400001928E-02 0.  1.
       -1    1    3    3    0  502 -0.38431966480E+03  0.13734971547E+04  0.56781405619E+03  0.15351250246E+04  0.50400001928E-02 0. -1.
</event>
<event>
 5   0  0.7561815E-07  0.3097225E+04  0.7818609E-02  0.8216500E-01
        1   -1    0    0  501    0  0.00000000000E+00  0.00000000000E+00  0.10238897382E+04  0.10238897382E+04  0.50400001928E-02 0.  1.
       -1   -1    0    0    0  501  0.00000000000E+00  0.00000000000E+00 -0.23422448888E+04  0.23422448888E+04  0.50400001928E-02 0. -1.
    10030    2    1    2    0    0  0.00000000000E+00  0.00000000000E+00 -0.13183551506E+04  0.33661346270E+04  0.30972248908E+04 0.  0.
        3    1    3    3  502    0 -0.57375962668E+03  0.94213441784E+00  0.90411020562E+03  0.10708016954E+04  0.10100000352E+00 0.  1.
       -3    1    3    3    0  502  0.57375962668E+03 -0.94213441784E+00 -0.22224653562E+04  0.22953329316E+04  0.10100000352E+00 0. -1.
</event>
<event>
 5   0  0.2094135E-06  0.3076919E+04  0.7818609E-02  0.8222101E-01
       -2   -1    0    0    0  501  0.00000000000E+00  0.00000000000E+00  0.12631646561E+04  0.12631646561E+04  0.25500000920E-02 0. -1.
        2   -1    0    0  501    0  0.00000000000E+00  0.00000000000E+00 -0.18737525811E+04  0.18737525811E+04  0.25500000920E-02 0.  1.
    10030    2    1    2    0    0  0.00000000000E+00  0.00000000000E+00 -0.61058792505E+03  0.31369172372E+04  0.30769192610E+04 0.  0.
        4    1    3    3  502    0  0.23272676904E+03  0.17520154018E+03  0.12347910481E+04  0.12686874611E+04  0.12699999809E+01 0. -1.
       -4    1    3    3    0  502 -0.23272676904E+03 -0.17520154018E+03 -0.18453789731E+04  0.18682297760E+04  0.12699999809E+01 0.  1.
</event>
<event>
 5   0  0.2226334E-06  0.3166520E+04  0.7818609E-02  0.8197716E-01
        2   -1    0    0  501    0  0.00000000000E+00  0.00000000000E+00  0.21259049461E+04  0.21259049461E+04  0.25500000920E-02 0.  1.
       -2   -1    0    0    0  501  0.00000000000E+00  0.00000000000E+00 -0.11791267868E+04  0.11791267868E+04  0.25500000920E-02 0. -1.
    10030    2    1    2    0    0  0.00000000000E+00  0.00000000000E+00  0.94677815928E+03  0.33050317330E+04  0.31665195204E+04 0.  0.
        5    1    3    3  502    0  0.14843916169E+04 -0.45805230210E+03  0.79247233635E+03  0.17439222682E+04  0.46999998093E+01 0. -1.
       -5    1    3    3    0  502 -0.14843916169E+04  0.45805230210E+03  0.15430582293E+03  0.15611094647E+04  0.46999998093E+01 0.  1.
</event>
<event>
 5   0  0.2067926E-06  0.3076173E+04  0.7818609E-02  0.8222308E-01
        2   -1    0    0  501    0  0.00000000000E+00  0.00000000000E+00  0.21849582283E+04  0.21849582283E+04  0.25500000920E-02 0.  1.
       -2   -1    0    0    0  501  0.00000000000E+00  0.00000000000E+00 -0.10827252692E+04  0.10827252692E+04  0.25500000920E-02 0. -1.
    10030    2    1    2    0    0  0.00000000000E+00  0.00000000000E+00  0.11022329591E+04  0.32676834976E+04  0.30761726129E+04 0.  0.
        1    1    3    3  502    0  0.11785331285E+04  0.62996418176E+03 -0.25781397374E+03  0.13609787840E+04  0.50400001928E-02 0. -1.
       -1    1    3    3    0  502 -0.11785331285E+04 -0.62996418176E+03  0.13600469328E+04  0.19067047136E+04  0.50400001928E-02 0.  1.
</event>
<event>
 5   0  0.7726743E-07  0.3100111E+04  0.7818609E-02  0.8215707E-01
       -1   -1    0    0    0  501  0.00000000000E+00  0.00000000000E+00  0.14909582622E+04  0.14909582622E+04  0.50400001928E-02 0. -1.
        1   -1    0    0  501    0  0.00000000000E+00  0.00000000000E+00 -0.16114952874E+04  0.16114952875E+04  0.50400001928E-02 0.  1.
    10030    2    1    2    0    0  0.00000000000E+00  0.00000000000E+00 -0.12053702529E+03  0.31024535496E+04  0.31001111033E+04 0.  0.
        1    1    3    3  502    0  0.77279041892E+03 -0.68858052729E+03  0.10944334827E+04  0.15063641068E+04  0.50400001928E-02 0. -1.
       -1    1    3    3    0  502 -0.77279041892E+03  0.68858052729E+03 -0.12149705080E+04  0.15960894428E+04  0.50400001928E-02 0.  1.
</event>
<event>
 5   0  0.7656332E-07  0.3132840E+04  0.7818609E-02  0.8206783E-01
       -1   -1    0    0    0  501  0.00000000000E+00  0.00000000000E+00  0.13352800599E+04  0.13352800599E+04  0.50400001928E-02 0.  1.
        1   -1    0    0  501    0  0.00000000000E+00  0.00000000000E+00 -0.18375712444E+04  0.18375712444E+04  0.50400001928E-02 0. -1.
    10030    2    1    2    0    0  0.00000000000E+00  0.00000000000E+00 -0.50229118443E+03  0.31728513043E+04  0.31328403990E+04 0.  0.
        2    1    3    3  502    0  0.38439567357E+03  0.70337718377E+02  0.12851204731E+04  0.13432207782E+04  0.25500000920E-02 0.  1.
       -2    1    3    3    0  502 -0.38439567357E+03 -0.70337718377E+02 -0.17874116576E+04  0.18296305261E+04  0.25500000920E-02 0. -1.
</event>
<event>
 5   0  0.7656332E-07  0.3080709E+04  0.7818609E-02  0.8221052E-01
        1   -1    0    0  501    0  0.00000000000E+00  0.00000000000E+00  0.19067773843E+04  0.19067773843E+04  0.50400001928E-02 0.  1.
       -1   -1    0    0    0  501  0.00000000000E+00  0.00000000000E+00 -0.12443464934E+04  0.12443464934E+04  0.50400001928E-02 0. -1.
    10030    2    1    2    0    0  0.00000000000E+00  0.00000000000E+00  0.66243089090E+03  0.31511238777E+04  0.30807088483E+04 0.  0.
        2    1    3    3  502    0 -0.85336337413E+03 -0.63513401288E+03 -0.80827980730E+03  0.13360166577E+04  0.25500000920E-02 0. -1.
       -2    1    3    3    0  502  0.85336337413E+03  0.63513401288E+03  0.14707106982E+04  0.18151072201E+04  0.25500000920E-02 0.  1.
</event>
<event>
 5   0  0.2133385E-06  0.3103715E+04  0.7818609E-02  0.8214719E-01
       -2   -1    0    0    0  501  0.00000000000E+00  0.00000000000E+00  0.13058555998E+04  0.13058555998E+04  0.25500000920E-02 0. -1.
        2   -1    0    0  501    0  0.00000000000E+00  0.00000000000E+00 -0.18442026604E+04  0.18442026604E+04  0.25500000920E-02 0.  1.
    10030    2    1    2    0    0  0.00000000000E+00  0.00000000000E+00 -0.53834706058E+03  0.31500582601E+04  0.31037154323E+04 0.  0.
        2    1    3    3  502    0 -0.85916815173E+03 -0.72551623685E+03  0.81624265084E+03  0.13895307798E+04  0.25500000920E-02 0. -1.
       -2    1    3    3    0  502  0.85916815173E+03  0.72551623685E+03 -0.13545897114E+04  0.17605274804E+04  0.25500000920E-02 0.  1.
</event>
<event>
 5   0  0.2094135E-06  0.3089190E+04  0.7818609E-02  0.8218711E-01
        2   -1    0    0  501    0  0.00000000000E+00  0.00000000000E+00  0.20129861266E+04  0.20129861266E+04  0.25500000920E-02 0.  1.
       -2   -1    0    0    0  501  0.00000000000E+00  0.00000000000E+00 -0.11851912346E+04  0.11851912346E+04  0.25500000920E-02 0. -1.
    10030    2    1    2    0    0  0.00000000000E+00  0.00000000000E+00  0.82779489191E+03  0.31981773612E+04  0.30891898696E+04 0.  0.
        4    1    3    3  502    0 -0.47586553275E+03  0.25228428886E+03  0.19126159444E+04  0.19870069782E+04  0.12699999809E+01 0.  1.
       -4    1    3    3    0  502  0.47586553275E+03 -0.25228428886E+03 -0.10848210525E+04  0.12111703830E+04  0.12699999809E+01 0. -1.
</event>
<event>
 5   0  0.2226334E-06  0.3381748E+04  0.7818609E-02  0.8142401E-01
        2   -1    0    0  501    0  0.00000000000E+00  0.00000000000E+00  0.10653836668E+04  0.10653836668E+04  0.25500000920E-02 0.  1.
       -2   -1    0    0    0  501  0.00000000000E+00  0.00000000000E+00 -0.26835910606E+04  0.26835910606E+04  0.25500000920E-02 0. -1.
    10030    2    1    2    0    0  0.00000000000E+00  0.00000000000E+00 -0.16182073937E+04  0.37489747274E+04  0.33817475272E+04 0.  0.
        5    1    3    3  502    0  0.32930580888E+03  0.77749220861E+03 -0.24331404674E+04  0.25754865704E+04  0.46999998093E+01 0. -1.
       -5    1    3    3    0  502 -0.32930580888E+03 -0.77749220861E+03  0.81493307363E+03  0.11734881570E+04  0.46999998093E+01 0.  1.
</event>
<event>
 5   0  0.7726743E-07  0.3099132E+04  0.7818609E-02  0.8215976E-01
       -1   -1    0    0    0  501  0.00000000000E+00  0.00000000000E+00  0.16495728365E+04  0.16495728365E+04  0.50400001928E-02 0. -1.
        1   -1    0    0  501    0  0.00000000000E+00  0.00000000000E+00 -0.14556218382E+04  0.14556218382E+04  0.50400001928E-02 0.  1.
    10030    2    1    2    0    0  0.00000000000E+00  0.00000000000E+00  0.19395099829E+03  0.31051946747E+04  0.30991316491E+04 0.  0.
        1    1    3    3  502    0  0.61871744070E+03  0.11631729797E+04  0.91427443802E+03  0.16036459709E+04  0.50400001928E-02 0. -1.
       -1    1    3    3    0  502 -0.61871744070E+03 -0.11631729797E+04 -0.72032343973E+03  0.15015487038E+04  0.50400001928E-02 0.  1.
</event>
<event>
 5   0  0.7519202E-07  0.3105510E+04  0.7818609E-02  0.8214227E-01
       -1   -1    0    0    0  501  0.00000000000E+00  0.00000000000E+00  0.14251370048E+04  0.14251370048E+04  0.50400001928E-02 0. -1.
        1   -1    0    0  501    0  0.00000000000E+00  0.00000000000E+00 -0.16918014267E+04  0.16918014267E+04  0.50400001928E-02 0.  1.
    10030    2    1    2    0    0  0.00000000000E+00  0.00000000000E+00 -0.26666442189E+03  0.31169384315E+04  0.31055104688E+04 0.  0.
        4    1    3    3  502    0  0.15412674085E+04  0.18323328312E+03 -0.17785245109E+03  0.15622780700E+04  0.12699999809E+01 0.  1.
       -4    1    3    3    0  502 -0.15412674085E+04 -0.18323328312E+03 -0.88811970803E+02  0.15546603615E+04  0.12699999809E+01 0. -1.
</event>
<event>
 5   0  0.2133385E-06  0.3137869E+04  0.7818609E-02  0.8205421E-01
       -2   -1    0    0    0  501  0.00000000000E+00  0.00000000000E+00  0.11110235929E+04  0.11110235929E+04  0.25500000920E-02 0. -1.
        2   -1    0    0  501    0  0.00000000000E+00  0.00000000000E+00 -0.22155740990E+04  0.22155740990E+04  0.25500000920E-02 0.  1.
    10030    2    1    2    0    0  0.00000000000E+00  0.00000000000E+00 -0.11045505060E+04  0.33265976919E+04  0.31378687646E+04 0.  0.
        2    1    3    3  502    0 -0.76283800104E+03 -0.13674494360E+04 -0.65676990443E+03  0.16979948419E+04  0.25500000920E-02 0. -1.
       -2    1    3    3    0  502  0.76283800104E+03  0.13674494360E+04 -0.44778060161E+03  0.16286028500E+04  0.25500000920E-02 0.  1.
</event>
<event>
 5   0  0.2067926E-06  0.3088256E+04  0.7818609E-02  0.8218968E-01
       -2   -1    0    0    0  501  0.00000000000E+00  0.00000000000E+00  0.11823027682E+04  0.11823027682E+04  0.25500000920E-02 0.  1.
        2   -1    0    0  501    0  0.00000000000E+00  0.00000000000E+00 -0.20166845850E+04  0.20166845850E+04  0.25500000920E-02 0. -1.
    10030    2    1    2    0    0  0.00000000000E+00  0.00000000000E+00 -0.83438181685E+03  0.31989873532E+04  0.30882563154E+04 0.  0.
        1    1    3    3  502    0  0.14491022428E+04  0.44023426937E+03 -0.10535151928E+03  0.15181575889E+04  0.50400001928E-02 0.  1.
       -1    1    3    3    0  502 -0.14491022428E+04 -0.44023426937E+03 -0.72903029757E+03  0.16808297644E+04  0.50400001928E-02 0. -1.
</event>
<event>
 5   0  0.2067926E-06  0.3124342E+04  0.7818609E-02  0.8209089E-01
       -2   -1    0    0    0  501  0.00000000000E+00  0.00000000000E+00  0.12389058021E+04  0.12389058021E+04  0.25500000920E-02 0.  1.
        2   -1    0    0  501    0  0.00000000000E+00  0.00000000000E+00 -0.19697845671E+04  0.19697845671E+04  0.25500000920E-02 0. -1.
    10030    2    1    2    0    0  0.00000000000E+00  0.00000000000E+00 -0.73087876497E+03  0.32086903692E+04  0.31243415493E+04 0.  0.
        1    1    3    3  502    0 -0.11092271307E+04  0.94530383862E+03  0.21223483235E+03  0.14727619628E+04  0.50400001928E-02 0.  1.
       -1    1    3    3    0  502  0.11092271307E+04 -0.94530383862E+03 -0.94311359732E+03  0.17359284065E+04  0.50400001928E-02 0. -1.
</event>
<event>
 5   0  0.7656332E-07  0.3073394E+04  0.7818609E-02  0.8223078E-01
       -1   -1    0    0    0  501  0.00000000000E+00  0.00000000000E+00  0.17492860908E+04  0.17492860908E+04  0.50400001928E-02 0. -1.
        1   -1    0    0  501    0  0.00000000000E+00  0.00000000000E+00 -0.13499435780E+04  0.13499435780E+04  0.50400001928E-02 0.  1.
    10030    2    1    2    0    0  0.00000000000E+00  0.00000000000E+00  0.39934251281E+03  0.30992296689E+04  0.30733939054E+04 0.  0.
        2    1    3    3  502    0 -0.14748474552E+04  0.49953275841E+02  0.63195560241E+03  0.16053156167E+04  0.25500000920E-02 0. -1.
       -2    1    3    3    0  502  0.14748474552E+04 -0.49953275841E+02 -0.23261308960E+03  0.14939140522E+04  0.25500000920E-02 0.  1.
</event>
<event>
 5   0  0.2226334E-06  0.3166343E+04  0.7818609E-02  0.8197763E-01
        2   -1    0    0  501    0  0.00000000000E+00  0.00000000000E+00  0.27662415625E+04  0.27662415625E+04  0.25500000920E-02 0. -1.
       -2   -1    0    0    0  501  0.00000000000E+00  0.00000000000E+00 -0.90607858154E+03  0.90607858154E+03  0.25500000920E-02 0.  1.
    10030    2    1    2    0    0  0.00000000000E+00  0.00000000000E+00  0.18601629809E+04  0.36723201440E+04  0.31663431470E+04 0.  0.
        5    1    3    3  502    0 -0.10154727440E+04 -0.11779614422E+04  0.58674960681E+03  0.16622500546E+04  0.46999998093E+01 0. -1.
       -5    1    3    3    0  502  0.10154727440E+04  0.11779614422E+04  0.12734133741E+04  0.20100700894E+04  0.46999998093E+01 0.  1.
</event>
<event>
 5   0  0.7519202E-07  0.3097816E+04  0.7818609E-02  0.8216338E-01
       -1   -1    0    0    0  501  0.00000000000E+00  0.00000000000E+00  0.13269683154E+04  0.13269683154E+04  0.50400001928E-02 0. -1.
        1   -1    0    0  501    0  0.00000000000E+00  0.00000000000E+00 -0.18079679338E+04  0.18079679338E+04  0.50400001928E-02 0.  1.
    10030    2    1    2    0    0  0.00000000000E+00  0.00000000000E+00 -0.48099961839E+03  0.31349362492E+04  0.30978161104E+04 0.  0.
        4    1    3    3  502    0 -0.85579072821E+03 -0.88335286456E+03  0.71228309139E+03  0.14212807144E+04  0.12699999809E+01 0. -1.
       -4    1    3    3    0  502  0.85579072821E+03  0.88335286456E+03 -0.11932827098E+04  0.17136555349E+04  0.12699999809E+01 0.  1.
</event>
<event>
 5   0  0.7726743E-07  0.3124347E+04  0.7818609E-02  0.8209088E-01
        1   -1    0    0  501    0  0.00000000000E+00  0.00000000000E+00  0.19210566758E+04  0.19210566758E+04  0.50400001928E-02 0. -1.
       -1   -1    0    0    0  501  0.00000000000E+00  0.00000000000E+00 -0.12703356142E+04  0.12703356142E+04  0.50400001928E-02 0.  1.
    10030    2    1    2    0    0  0.00000000000E+00  0.00000000000E+00  0.65072106161E+03  0.31913922900E+04  0.31243474277E+04 0.  0.
        1    1    3    3  502    0  0.12124853325E+04 -0.69620620464E+03 -0.38641596256E+03  0.14505657714E+04  0.50400001928E-02 0.  1.
       -1    1    3    3    0  502 -0.12124853325E+04  0.69620620464E+03  0.10371370242E+04  0.17408265186E+04  0.50400001928E-02 0. -1.
</event>
<event>
 5   0  0.7726743E-07  0.3102429E+04  0.7818609E-02  0.8215072E-01
        1   -1    0    0  501    0  0.00000000000E+00  0.00000000000E+00  0.18049202446E+04  0.18049202446E+04  0.50400001928E-02 0.  1.
       -1   -1    0    0    0  501  0.00000000000E+00  0.00000000000E+00 -0.13331700821E+04  0.13331700821E+04  0.50400001928E-02 0. -1.
    10030    2    1    2    0    0  0.00000000000E+00  0.00000000000E+00  0.47175016258E+03  0.31380903267E+04  0.31024285137E+04 0.  0.
        1    1    3    3  502    0 -0.95389953754E+03  0.10953427714E+04  0.78671323206E+03  0.16518528458E+04  0.50400001928E-02 0.  1.
       -1    1    3    3    0  502  0.95389953754E+03 -0.10953427714E+04 -0.31496306948E+03  0.14862374809E+04  0.50400001928E-02 0. -1.
</event>
<event>
 5   0  0.7656332E-07  0.3124472E+04  0.7818609E-02  0.8209054E-01
        1   -1    0    0  501    0  0.00000000000E+00  0.00000000000E+00  0.23282853188E+04  0.23282853188E+04  0.50400001928E-02 0.  1.
       -1   -1    0    0    0  501  0.00000000000E+00  0.00000000000E+00 -0.10482310095E+04  0.10482310095E+04  0.50400001928E-02 0. -1.
    10030    2    1    2    0    0  0.00000000000E+00  0.00000000000E+00  0.12800543094E+04  0.33765163283E+04  0.31244717122E+04 0.  0.
        2    1    3    3  502    0 -0.97494868528E+03  0.55183225084E+03  0.18166840156E+04  0.21343346936E+04  0.25500000920E-02 0.  1.
       -2    1    3    3    0  502  0.97494868528E+03 -0.55183225084E+03 -0.53662970618E+03  0.12421816347E+04  0.25500000920E-02 0. -1.
</event>
<event>
 5   0  0.7561815E-07  0.3003458E+04  0.7818609E-02  0.8242744E-01
       -1   -1    0    0    0  501  0.00000000000E+00  0.00000000000E+00  0.13727335605E+04  0.13727335605E+04  0.50400001928E-02 0. -1.
        1   -1    0    0  501    0  0.00000000000E+00  0.00000000000E+00 -0.16428458950E+04  0.16428458950E+04  0.50400001928E-02 0.  1.
    10030    2    1    2    0    0  0.00000000000E+00  0.00000000000E+00 -0.27011233451E+03  0.30155794555E+04  0.30034578038E+04 0.  0.
        3    1    3    3  502    0  0.48326507993E+03 -0.72463165059E+03  0.10932181391E+04  0.13977703947E+04  0.10100000352E+00 0. -1.
       -3    1    3    3    0  502 -0.48326507993E+03  0.72463165059E+03 -0.13633304736E+04  0.16178090607E+04  0.10100000352E+00 0.  1.
</event>
<event>
 5   0  0.2067926E-06  0.3085117E+04  0.7818609E-02  0.8219834E-01
        2   -1    0    0  501    0  0.00000000000E+00  0.00000000000E+00  0.20787923363E+04  0.20787923363E+04  0.25500000920E-02 0. -1.
       -2   -1    0    0    0  501  0.00000000000E+00  0.00000000000E+00 -0.11446489327E+04  0.11446489327E+04  0.25500000920E-02 0.  1.
    10030    2    1    2    0    0  0.00000000000E+00  0.00000000000E+00  0.93414340362E+03  0.32234412691E+04  0.30851174559E+04 0.  0.
        1    1    3    3  502    0 -0.52708751878E+03 -0.76867579900E+03 -0.81718570037E+03  0.12395467742E+04  0.50400001928E-02 0.  1.
       -1    1    3    3    0  502  0.52708751878E+03  0.76867579900E+03  0.17513291040E+04  0.19838944949E+04  0.50400001928E-02 0. -1.
</event>
<event>
 5   0  0.7561815E-07  0.3064533E+04  0.7818609E-02  0.8225540E-01
        1   -1    0    0  501    0  0.00000000000E+00  0.00000000000E+00  0.16490966281E+04  0.16490966281E+04  0.50400001928E-02 0. -1.
       -1   -1    0    0    0  501  0.00000000000E+00  0.00000000000E+00 -0.14237127745E+04  0.14237127745E+04  0.50400001928E-02 0.  1.
    10030    2    1    2    0    0  0.00000000000E+00  0.00000000000E+00  0.22538385361E+03  0.30728094026E+04  0.30645325489E+04 0.  0.
        3    1    3    3  502    0  0.13031396953E+04 -0.79041286346E+03  0.27096108786E+03  0.15480133983E+04  0.10100000352E+00 0. -1.
       -3    1    3    3    0  502 -0.13031396953E+04  0.79041286346E+03 -0.45577234257E+02  0.15247960043E+04  0.10100000352E+00 0.  1.
</event>
<event>
 5   0  0.2094135E-06  0.3088815E+04  0.7818609E-02  0.8218814E-01
        2   -1    0    0  501    0  0.00000000000E+00  0.00000000000E+00  0.11278820322E+04  0.11278820322E+04  0.25500000920E-02 0.  1.
       -2   -1    0    0    0  501  0.00000000000E+00  0.00000000000E+00 -0.21147553326E+04  0.21147553326E+04  0.25500000920E-02 0. -1.
    10030    2    1    2    0    0  0.00000000000E+00  0.00000000000E+00 -0.98687330047E+03  0.32426373648E+04  0.30888150104E+04 0.  0.
        4    1    3    3  502    0 -0.98581894495E+03  0.11204878409E+04 -0.91054013638E+03  0.17482611208E+04  0.12699999809E+01 0. -1.
       -4    1    3    3    0  502  0.98581894495E+03 -0.11204878409E+04 -0.76333164084E+02  0.14943762440E+04  0.12699999809E+01 0.  1.
</event>
<event>
 5   0  0.2078009E-06  0.3088662E+04  0.7818609E-02  0.8218856E-01
       -2   -1    0    0    0  501  0.00000000000E+00  0.00000000000E+00  0.16522494928E+04  0.16522494928E+04  0.25500000920E-02 0.  1.
        2   -1    0    0  501    0  0.00000000000E+00  0.00000000000E+00 -0.14434612986E+04  0.14434612986E+04  0.25500000920E-02 0. -1.
    10030    2    1    2    0    0  0.00000000000E+00  0.00000000000E+00  0.20878819418E+03  0.30957107915E+04  0.30886619748E+04 0.  0.
        3    1    3    3  502    0  0.11286473680E+04  0.79273480201E+03  0.80073487677E+03  0.15948196452E+04  0.10100000352E+00 0.  1.
       -3    1    3    3    0  502 -0.11286473680E+04 -0.79273480201E+03 -0.59194668259E+03  0.15008911462E+04  0.10100000352E+00 0. -1.
</event>
<event>
 5   0  0.2133385E-06  0.3092563E+04  0.7818609E-02  0.8217782E-01
        2   -1    0    0  501    0  0.00000000000E+00  0.00000000000E+00  0.20107944267E+04  0.20107944267E+04  0.25500000920E-02 0. -1.
       -2   -1    0    0    0  501  0.00000000000E+00  0.00000000000E+00 -0.11890759210E+04  0.11890759210E+04  0.25500000920E-02 0.  1.
    10030    2    1    2    0    0  0.00000000000E+00  0.00000000000E+00  0.82171850562E+03  0.31998703477E+04  0.30925634900E+04 0.  0.
        2    1    3    3  502    0 -0.10544683726E+04  0.10858837209E+04  0.83756701674E+02  0.15159360769E+04  0.25500000920E-02 0.  1.
       -2    1    3    3    0  502  0.10544683726E+04 -0.10858837209E+04  0.73796180394E+03  0.16839342708E+04  0.25500000920E-02 0. -1.
</event>
<event>
 5   0  0.7413481E-07  0.3113903E+04  0.7818609E-02  0.8211933E-01
       -1   -1    0    0    0  501  0.00000000000E+00  0.00000000000E+00  0.12176262440E+04  0.12176262440E+04  0.50400001928E-02 0.  1.
        1   -1    0    0  501    0  0.00000000000E+00  0.00000000000E+00 -0.19908397277E+04  0.19908397277E+04  0.50400001928E-02 0. -1.
    10030    2    1    2    0    0  0.00000000000E+00  0.00000000000E+00 -0.77321348372E+03  0.32084659717E+04  0.31139034667E+04 0.  0.
        5    1    3    3  502    0 -0.19633354744E+03 -0.15383212888E+04 -0.24421691336E+03  0.15699182272E+04  0.46999998093E+01 0.  1.
       -5    1    3    3    0  502  0.19633354744E+03  0.15383212888E+04 -0.52899657036E+03  0.16385477445E+04  0.46999998093E+01 0. -1.
</event>
<event>
 5   0  0.7726743E-07  0.3085959E+04  0.7818609E-02  0.8219602E-01
        1   -1    0    0  501    0  0.00000000000E+00  0.00000000000E+00  0.25039888475E+04  0.25039888475E+04  0.50400001928E-02 0.  1.
       -1   -1    0    0    0  501  0.00000000000E+00  0.00000000000E+00 -0.95079740412E+03  0.95079740414E+03  0.50400001928E-02 0. -1.
    10030    2    1    2    0    0  0.00000000000E+00  0.00000000000E+00  0.15531914434E+04  0.34547862516E+04  0.30859592325E+04 0.  0.
        1    1    3    3  502    0 -0.84674160981E+02 -0.80946083058E+03 -0.69095056956E+03  0.10676184896E+04  0.50400001928E-02 0. -1.
       -1    1    3    3    0  502  0.84674160981E+02  0.80946083058E+03  0.22441420129E+04  0.23871677620E+04  0.50400001928E-02 0.  1.
</event>
<event>
 5   0  0.2094135E-06  0.3089711E+04  0.7818609E-02  0.8218567E-01
        2   -1    0    0  501    0  0.00000000000E+00  0.00000000000E+00  0.15084997398E+04  0.15084997398E+04  0.25500000920E-02 0.  1.
       -2   -1    0    0    0  501  0.00000000000E+00  0.00000000000E+00 -0.15820872598E+04  0.15820872598E+04  0.25500000920E-02 0. -1.
    10030    2    1    2    0    0  0.00000000000E+00  0.00000000000E+00 -0.73587519997E+02  0.30905869995E+04  0.30897108082E+04 0.  0.
        4    1    3    3  502    0  0.69551751751E+02  0.82817748713E+03  0.12658278979E+04  0.15142778068E+04  0.12699999809E+01 0.  1.
       -4    1    3    3    0  502 -0.69551751751E+02 -0.82817748713E+03 -0.13394154179E+04  0.15763091927E+04  0.12699999809E+01 0. -1.
</event>
<event>
 5   0  0.2094135E-06  0.3096392E+04  0.7818609E-02  0.8216729E-01
        2   -1    0    0  501    0  0.00000000000E+00  0.00000000000E+00  0.23657269208E+04  0.23657269208E+04  0.25500000920E-02 0. -1.
       -2   -1    0    0    0  501  0.00000000000E+00  0.00000000000E+00 -0.10131817643E+04  0.10131817643E+04  0.25500000920E-02 0.  1.
    10030    2    1    2    0    0  0.00000000000E+00  0.00000000000E+00  0.13525451565E+04  0.33789086851E+04  0.30963923366E+04 0.  0.
        4    1    3    3  502    0  0.37169977028E+03  0.15028862521E+04  0.68615156078E+03  0.16934088057E+04  0.12699999809E+01 0.  1.
       -4    1    3    3    0  502 -0.37169977028E+03 -0.15028862521E+04  0.66639359571E+03  0.16854998794E+04  0.12699999809E+01 0. -1.
</event>
<event>
 5   0  0.2226334E-06  0.3091105E+04  0.7818609E-02  0.8218183E-01
       -2   -1    0    0    0  501  0.00000000000E+00  0.00000000000E+00  0.12259005181E+04  0.12259005181E+04  0.25500000920E-02 0. -1.
        2   -1    0    0  501    0  0.00000000000E+00  0.00000000000E+00 -0.19485528634E+04  0.19485528634E+04  0.25500000920E-02 0.  1.
    10030    2    1    2    0    0  0.00000000000E+00  0.00000000000E+00 -0.72265234528E+03  0.31744533815E+04  0.30911046341E+04 0.  0.
        5    1    3    3  502    0 -0.54669218983E+02 -0.58740407888E+03  0.11057154847E+04  0.12532601879E+04  0.46999998093E+01 0. -1.
       -5    1    3    3    0  502  0.54669218983E+02  0.58740407888E+03 -0.18283678300E+04  0.19211931936E+04  0.46999998093E+01 0.  1.
</event>
<event>
 5   0  0.2078009E-06  0.3139949E+04  0.7818609E-02  0.8204859E-01
        2   -1    0    0  501    0  0.00000000000E+00  0.00000000000E+00  0.18668572488E+04  0.18668572488E+04  0.25500000920E-02 0. -1.
       -2   -1    0    0    0  501  0.00000000000E+00  0.00000000000E+00 -0.13203045275E+04  0.13203045275E+04  0.25500000920E-02 0.  1.
    10030    2    1    2    0    0  0.00000000000E+00  0.00000000000E+00  0.54655272132E+03  0.31871617763E+04  0.31399490937E+04 0.  0.
        3    1    3    3  502    0  0.21217502237E+03 -0.57486711535E+02  0.18511587925E+04  0.18641651878E+04  0.10100000352E+00 0. -1.
       -3    1    3    3    0  502 -0.21217502237E+03  0.57486711535E+02 -0.13046060711E+04  0.13229965885E+04  0.10100000352E+00 0.  1.
</event>
<event>
 5   0  0.2094135E-06  0.3133057E+04  0.7818609E-02  0.8206724E-01
       -2   -1    0    0    0  501  0.00000000000E+00  0.00000000000E+00  0.14136670258E+04  0.14136670258E+04  0.25500000920E-02 0. -1.
        2   -1    0    0  501    0  0.00000000000E+00  0.00000000000E+00 -0.17359187800E+04  0.17359187800E+04  0.25500000920E-02 0.  1.
    10030    2    1    2    0    0  0.00000000000E+00  0.00000000000E+00 -0.32225175422E+03  0.31495858058E+04  0.31330567431E+04 0.  0.
        4    1    3    3  502    0  0.12351712092E+04  0.88759053959E+03 -0.53799654200E+03  0.16133526503E+04  0.12699999809E+01 0. -1.
       -4    1    3    3    0  502 -0.12351712092E+04 -0.88759053959E+03  0.21574478778E+03  0.15362331556E+04  0.12699999809E+01 0.  1.
</event>
<event>
 5   0  0.7413481E-07  0.3135044E+04  0.7818609E-02  0.8206186E-01
        1   -1    0    0  501    0  0.00000000000E+00  0.00000000000E+00  0.11455043761E+04  0.11455043761E+04  0.50400001928E-02 0.  1.
       -1   -1    0    0    0  501  0.00000000000E+00  0.00000000000E+00 -0.21450163942E+04  0.21450163942E+04  0.50400001928E-02 0. -1.
    10030    2    1    2    0    0  0.00000000000E+00  0.00000000000E+00 -0.99951201807E+03  0.32905207704E+04  0.31350442845E+04 0.  0.
        5    1    3    3  502    0 -0.19016350141E+03  0.48932002316E+03  0.10504852643E+04  0.11743669030E+04  0.46999998093E+01 0. -1.
       -5    1    3    3    0  502  0.19016350141E+03 -0.48932002316E+03 -0.20499972824E+04  0.21161538673E+04  0.46999998093E+01 0.  1.
</event>
<event>
 5   0  0.7656332E-07  0.3100300E+04  0.7818609E-02  0.8215656E-01
       -1   -1    0    0    0  501  0.00000000000E+00  0.00000000000E+00  0.24154793354E+04  0.24154793354E+04  0.50400001928E-02 0.  1.
        1   -1    0    0  501    0  0.00000000000E+00  0.00000000000E+00 -0.99481896908E+03  0.99481896909E+03  0.50400001928E-02 0. -1.
    10030    2    1    2    0    0  0.00000000000E+00  0.00000000000E+00  0.14206603663E+04  0.34102983045E+04  0.31002997676E+04 0.  0.
        2    1    3    3  502    0 -0.45257783506E+03 -0.11570112696E+04 -0.30943984938E+03  0.12803338608E+04  0.25500000920E-02 0. -1.
       -2    1    3    3    0  502  0.45257783506E+03  0.11570112696E+04  0.17301002157E+04  0.21299644436E+04  0.25500000920E-02 0.  1.
</event>
<event>
 5   0  0.2094135E-06  0.3160231E+04  0.7818609E-02  0.8199400E-01
        2   -1    0    0  501    0  0.00000000000E+00  0.00000000000E+00  0.16674439815E+04  0.16674439815E+04  0.25500000920E-02 0. -1.
       -2   -1    0    0    0  501  0.00000000000E+00  0.00000000000E+00 -0.14973609571E+04  0.14973609571E+04  0.25500000920E-02 0.  1.
    10030    2    1    2    0    0  0.00000000000E+00  0.00000000000E+00  0.17008302434E+03  0.31648049386E+04  0.31602313308E+04 0.  0.
        4    1    3    3  502    0  0.16818198529E+03 -0.15471364139E+04 -0.18893739458E+03  0.15676782882E+04  0.12699999809E+01 0. -1.
       -4    1    3    3    0  502 -0.16818198529E+03  0.15471364139E+04  0.35902041892E+03  0.15971266504E+04  0.12699999809E+01 0.  1.
</event>
<event>
 5   0  0.2078009E-06  0.3056626E+04  0.7818609E-02  0.8227743E-01
       -2   -1    0    0    0  501  0.00000000000E+00  0.00000000000E+00  0.16505656398E+04  0.16505656398E+04  0.25500000920E-02 0. -1.
        2   -1    0    0  501    0  0.00000000000E+00  0.00000000000E+00 -0.14151151915E+04  0.14151151915E+04  0.25500000920E-02 0.  1.
    10030    2    1    2    0    0  0.00000000000E+00  0.00000000000E+00  0.23545044833E+03  0.30656808312E+04  0.30566259250E+04 0.  0.
        3    1    3    3  502    0  0.34464696262E+03  0.14210976100E+04  0.56338437439E+03  0.15670679339E+04  0.10100000352E+00 0. -1.
       -3    1    3    3    0  502 -0.34464696262E+03 -0.14210976100E+04 -0.32793392607E+03  0.14986128973E+04  0.10100000352E+00 0.  1.
</event>
<event>
 5   0  0.6979625E-07  0.3088659E+04  0.7818609E-02  0.8218857E-01
        3   -1    0    0  501    0  0.00000000000E+00  0.00000000000E+00  0.89734173480E+03  0.89734174049E+03  0.10100000352E+00 0.  1.
       -3   -1    0    0    0  501  0.00000000000E+00  0.00000000000E+00 -0.26577989817E+04  0.26577989836E+04  0.10100000352E+00 0. -1.
    10030    2    1    2    0    0  0.00000000000E+00  0.00000000000E+00 -0.17604572469E+04  0.35551407241E+04  0.30886592318E+04 0.  0.
        1    1    3    3  502    0 -0.97806703838E+01 -0.83702233549E+03  0.61356404933E+03  0.10378645838E+04  0.50400001928E-02 0.  1.
       -1    1    3    3    0  502  0.97806703838E+01  0.83702233549E+03 -0.23740212962E+04  0.25172761403E+04  0.50400001928E-02 0. -1.
</event>
<event>
 5   0  0.2133385E-06  0.3077089E+04  0.7818609E-02  0.8222054E-01
       -2   -1    0    0    0  501  0.00000000000E+00  0.00000000000E+00  0.15863288471E+04  0.15863288471E+04  0.25500000920E-02 0.  1.
        2   -1    0    0  501    0  0.00000000000E+00  0.00000000000E+00 -0.14921999075E+04  0.14921999075E+04  0.25500000920E-02 0. -1.
    10030    2    1    2    0    0  0.00000000000E+00  0.00000000000E+00  0.94128939625E+02  0.30785287546E+04  0.30770893773E+04 0.  0.
        2    1    3    3  502    0 -0.10970186377E+04  0.43108097932E+03  0.10363844801E+04  0.15695137760E+04  0.25500000920E-02 0.  1.
       -2    1    3    3    0  502  0.10970186377E+04 -0.43108097932E+03 -0.94225554050E+03  0.15090149787E+04  0.25500000920E-02 0. -1.
</event>
<event>
 5   0  0.2094135E-06  0.3113131E+04  0.7818609E-02  0.8212143E-01
        2   -1    0    0  501    0  0.00000000000E+00  0.00000000000E+00  0.14959162017E+04  0.14959162017E+04  0.25500000920E-02 0.  1.
       -2   -1    0    0    0  501  0.00000000000E+00  0.00000000000E+00 -0.16196736368E+04  0.16196736368E+04  0.25500000920E-02 0. -1.
    10030    2    1    2    0    0  0.00000000000E+00  0.00000000000E+00 -0.12375743503E+03  0.31155898385E+04  0.31131309222E+04 0.  0.
        4    1    3    3  502    0  0.42681584693E+03  0.98067634184E+03 -0.11936992881E+04  0.16027530870E+04  0.12699999809E+01 0. -1.
       -4    1    3    3    0  502 -0.42681584693E+03 -0.98067634184E+03  0.10699418531E+04  0.15128367514E+04  0.12699999809E+01 0.  1.
</event>
<event>
 5   0  0.7726743E-07  0.3090897E+04  0.7818609E-02  0.8218241E-01
        1   -1    0    0  501    0  0.00000000000E+00  0.00000000000E+00  0.14417681604E+04  0.14417681604E+04  0.50400001928E-02 0.  1.
       -1   -1    0    0    0  501  0.00000000000E+00  0.00000000000E+00 -0.16565843871E+04  0.16565843871E+04  0.50400001928E-02 0. -1.
    10030    2    1    2    0    0  0.00000000000E+00  0.00000000000E+00 -0.21481622665E+03  0.30983525475E+04  0.30908967141E+04 0.  0.
        1    1    3    3  502    0  0.33090860152E+03 -0.68442430513E+03 -0.14561921741E+04  0.16426907135E+04  0.50400001928E-02 0. -1.
       -1    1    3    3    0  502 -0.33090860152E+03  0.68442430513E+03  0.12413759475E+04  0.14556618340E+04  0.50400001928E-02 0.  1.
</event>
<event>
 5   0  0.2133385E-06  0.3086045E+04  0.7818609E-02  0.8219578E-01
       -2   -1    0    0    0  501  0.00000000000E+00  0.00000000000E+00  0.12457694009E+04  0.12457694009E+04  0.25500000920E-02 0.  1.
        2   -1    0    0  501    0  0.00000000000E+00  0.00000000000E+00 -0.19112028321E+04  0.19112028321E+04  0.25500000920E-02 0. -1.
    10030    2    1    2    0    0  0.00000000000E+00  0.00000000000E+00 -0.66543343117E+03  0.31569722330E+04  0.30860447224E+04 0.  0.
        2    1    3    3  502    0  0.13314679955E+04  0.17198864608E+03 -0.11108102790E+04  0.17424943597E+04  0.25500000920E-02 0. -1.
       -2    1    3    3    0  502 -0.13314679955E+04 -0.17198864608E+03  0.44537684786E+03  0.14144778733E+04  0.25500000920E-02 0.  1.
</event>
<event>
 5   0  0.7413481E-07  0.2986248E+04  0.7818609E-02  0.8247669E-01
       -1   -1    0    0    0  501  0.00000000000E+00  0.00000000000E+00  0.11552569894E+04  0.11552569895E+04  0.50400001928E-02 0.  1.
        1   -1    0    0  501    0  0.00000000000E+00  0.00000000000E+00 -0.19298043040E+04  0.19298043040E+04  0.50400001928E-02 0. -1.
    10030    2    1    2    0    0  0.00000000000E+00  0.00000000000E+00 -0.77454731457E+03  0.30850612935E+04  0.29862484227E+04 0.  0.
        5    1    3    3  502    0  0.95630286090E+03  0.11343741655E+04 -0.56038290262E+03  0.15859921175E+04  0.46999998093E+01 0. -1.
       -5    1    3    3    0  502 -0.95630286090E+03 -0.11343741655E+04 -0.21416441195E+03  0.14990691760E+04  0.46999998093E+01 0.  1.
</event>
<event>
 5   0  0.7561815E-07  0.3123383E+04  0.7818609E-02  0.8209350E-01
        1   -1    0    0  501    0  0.00000000000E+00  0.00000000000E+00  0.90835581578E+03  0.90835581580E+03  0.50400001928E-02 0. -1.
       -1   -1    0    0    0  501  0.00000000000E+00  0.00000000000E+00 -0.26849400583E+04  0.26849400583E+04  0.50400001928E-02 0.  1.
    10030    2    1    2    0    0  0.00000000000E+00  0.00000000000E+00 -0.17765842425E+04  0.35932958741E+04  0.31233833687E+04 0.  0.
        3    1    3    3  502    0  0.79948722606E+03 -0.13021800457E+04 -0.12593513604E+04  0.19801056929E+04  0.10100000352E+00 0. -1.
       -3    1    3    3    0  502 -0.79948722606E+03  0.13021800457E+04 -0.51723288210E+03  0.16131901812E+04  0.10100000352E+00 0.  1.
</event>
<event>
 5   0  0.2226334E-06  0.3089930E+04  0.7818609E-02  0.8218507E-01
       -2   -1    0    0    0  501  0.00000000000E+00  0.00000000000E+00  0.14628392736E+04  0.14628392736E+04  0.25500000920E-02 0. -1.
        2   -1    0    0  501    0  0.00000000000E+00  0.00000000000E+00 -0.16317012259E+04  0.16317012259E+04  0.25500000920E-02 0.  1.
    10030    2    1    2    0    0  0.00000000000E+00  0.00000000000E+00 -0.16886195221E+03  0.30945404995E+04  0.30899298607E+04 0.  0.
        5    1    3    3  502    0 -0.49348900979E+03  0.31253897258E+03 -0.15168387459E+04  0.16254334447E+04  0.46999998093E+01 0.  1.
       -5    1    3    3    0  502  0.49348900979E+03 -0.31253897258E+03  0.13479767937E+04  0.14691070548E+04  0.46999998093E+01 0. -1.
</event>
<event>
 5   0  0.7413481E-07  0.3122502E+04  0.7818609E-02  0.8209589E-01
        1   -1    0    0  501    0  0.00000000000E+00  0.00000000000E+00  0.10911325975E+04  0.10911325975E+04  0.50400001928E-02 0.  1.
       -1   -1    0    0    0  501  0.00000000000E+00  0.00000000000E+00 -0.22339217333E+04  0.22339217333E+04  0.50400001928E-02 0. -1.
    10030    2    1    2    0    0  0.00000000000E+00  0.00000000000E+00 -0.11427891358E+04  0.33250543309E+04  0.31225020888E+04 0.  0.
        5    1    3    3  502    0 -0.32112515201E+03  0.89496498968E+02 -0.21955728502E+04  0.22207415917E+04  0.46999998093E+01 0. -1.
       -5    1    3    3    0  502  0.32112515201E+03 -0.89496498968E+02  0.10527837144E+04  0.11043127392E+04  0.46999998093E+01 0.  1.
</event>
<event>
 5   0  0.2078009E-06  0.3189433E+04  0.7818609E-02  0.8191613E-01
        2   -1    0    0  501    0  0.00000000000E+00  0.00000000000E+00  0.22196898288E+04  0.22196898288E+04  0.25500000920E-02 0.  1.
       -2   -1    0    0    0  501  0.00000000000E+00  0.00000000000E+00 -0.11457102640E+04  0.11457102640E+04  0.25500000920E-02 0. -1.
    10030    2    1    2    0    0  0.00000000000E+00  0.00000000000E+00  0.10739795649E+04  0.33654000928E+04  0.31894334417E+04 0.  0.
        3    1    3    3  502    0  0.74477698611E+03 -0.20768954030E+02  0.20247435339E+04  0.21574778091E+04  0.10100000352E+00 0.  1.
       -3    1    3    3    0  502 -0.74477698611E+03  0.20768954030E+02 -0.95076396901E+03  0.12079222837E+04  0.10100000352E+00 0. -1.
</event>
<event>
 5   0  0.7726743E-07  0.3129888E+04  0.7818609E-02  0.8207583E-01
        1   -1    0    0  501    0  0.00000000000E+00  0.00000000000E+00  0.18914470652E+04  0.18914470652E+04  0.50400001928E-02 0.  1.
       -1   -1    0    0    0  501  0.00000000000E+00  0.00000000000E+00 -0.12948024425E+04  0.12948024425E+04  0.50400001928E-02 0. -1.
    10030    2    1    2    0    0  0.00000000000E+00  0.00000000000E+00  0.59664462273E+03  0.31862495077E+04  0.31298883557E+04 0.  0.
        1    1    3    3  502    0 -0.16528749942E+03  0.42874880353E+03 -0.12245789189E+04  0.13079522249E+04  0.50400001928E-02 0. -1.
       -1    1    3    3    0  502  0.16528749942E+03 -0.42874880353E+03  0.18212235416E+04  0.18782972828E+04  0.50400001928E-02 0.  1.
</event>
<event>
 5   0  0.7413481E-07  0.3086266E+04  0.7818609E-02  0.8219517E-01
       -1   -1    0    0    0  501  0.00000000000E+00  0.00000000000E+00  0.13883162347E+04  0.13883162347E+04  0.50400001928E-02 0.  1.
        1   -1    0    0  501    0  0.00000000000E+00  0.00000000000E+00 -0.17152144954E+04  0.17152144954E+04  0.50400001928E-02 0. -1.
    10030    2    1    2    0    0  0.00000000000E+00  0.00000000000E+00 -0.32689826071E+03  0.31035307301E+04  0.30862664370E+04 0.  0.
        5    1    3    3  502    0  0.13592406799E+04 -0.72057097756E+03 -0.28445630432E+03  0.15645111821E+04  0.46999998093E+01 0. -1.
       -5    1    3    3    0  502 -0.13592406799E+04  0.72057097756E+03 -0.42441956383E+02  0.15390195481E+04  0.46999998093E+01 0.  1.
</event>
<event>
 5   0  0.2078009E-06  0.3099910E+04  0.7818609E-02  0.8215763E-01
       -2   -1    0    0    0  501  0.00000000000E+00  0.00000000000E+00  0.95185476974E+03  0.95185476975E+03  0.25500000920E-02 0. -1.
        2   -1    0    0  501    0  0.00000000000E+00  0.00000000000E+00 -0.25238728352E+04  0.25238728352E+04  0.25500000920E-02 0.  1.
    10030    2    1    2    0    0  0.00000000000E+00  0.00000000000E+00 -0.15720180655E+04  0.34757276049E+04  0.30999099319E+04 0.  0.
        3    1    3    3  502    0 -0.23507497422E+03 -0.91982836789E+03 -0.21597008343E+04  0.23591634479E+04  0.10100000352E+00 0.  1.
       -3    1    3    3    0  502  0.23507497422E+03  0.91982836789E+03  0.58768276884E+03  0.11165641571E+04  0.10100000352E+00 0. -1.
</event>
<event>
 5   0  0.2226334E-06  0.3093208E+04  0.7818609E-02  0.8217604E-01
        2   -1    0    0  501    0  0.00000000000E+00  0.00000000000E+00  0.15518589381E+04  0.15518589381E+04  0.25500000920E-02 0.  1.
       -2   -1    0    0    0  501  0.00000000000E+00  0.00000000000E+00 -0.15413670756E+04  0.15413670756E+04  0.25500000920E-02 0. -1.
    10030    2    1    2    0    0  0.00000000000E+00  0.00000000000E+00  0.10491862433E+02  0.30932260137E+04  0.30932082201E+04 0.  0.
        5    1    3    3  502    0  0.33918906215E+02 -0.95956816119E+03  0.12177052286E+04  0.15507255276E+04  0.46999998093E+01 0.  1.
       -5    1    3    3    0  502 -0.33918906215E+02  0.95956816119E+03 -0.12072133662E+04  0.15425004861E+04  0.46999998093E+01 0. -1.
</event>
<event>
 5   0  0.2226334E-06  0.3066097E+04  0.7818609E-02  0.8225104E-01
        2   -1    0    0  501    0  0.00000000000E+00  0.00000000000E+00  0.21504781423E+04  0.21504781423E+04  0.25500000920E-02 0.  1.
       -2   -1    0    0    0  501  0.00000000000E+00  0.00000000000E+00 -0.10928909718E+04  0.10928909718E+04  0.25500000920E-02 0. -1.
    10030    2    1    2    0    0  0.00000000000E+00  0.00000000000E+00  0.10575871705E+04  0.32433691142E+04  0.30660972893E+04 0.  0.
        5    1    3    3  502    0  0.16948681405E+03 -0.77273866652E+03  0.19178665989E+04  0.20746289326E+04  0.46999998093E+01 0.  1.
       -5    1    3    3    0  502 -0.16948681405E+03  0.77273866652E+03 -0.86027942846E+03  0.11687401815E+04  0.46999998093E+01 0. -1.
</event>
<event>
 5   0  0.7519202E-07  0.3102124E+04  0.7818609E-02  0.8215155E-01
       -1   -1    0    0    0  501  0.00000000000E+00  0.00000000000E+00  0.12307938573E+04  0.12307938573E+04  0.50400001928E-02 0.  1.
        1   -1    0    0  501    0  0.00000000000E+00  0.00000000000E+00 -0.19546681784E+04  0.19546681784E+04  0.50400001928E-02 0. -1.
    10030    2    1    2    0    0  0.00000000000E+00  0.00000000000E+00 -0.72387432106E+03  0.31854620357E+04  0.31021241671E+04 0.  0.
        4    1    3    3  502    0 -0.79034342568E+03  0.13157601950E+04 -0.13249697864E+03  0.15405923158E+04  0.12699999809E+01 0. -1.
       -4    1    3    3    0  502  0.79034342568E+03 -0.13157601950E+04 -0.59137734242E+03  0.16448697199E+04  0.12699999809E+01 0.  1.
</event>
<event>
 5   0  0.6979625E-07  0.3103049E+04  0.7818609E-02  0.8214902E-01
        3   -1    0    0  501    0  0.00000000000E+00  0.00000000000E+00  0.18859130265E+04  0.18859130292E+04  0.10100000352E+00 0.  1.
       -3   -1    0    0    0  501  0.00000000000E+00  0.00000000000E+00 -0.12764257617E+04  0.12764257657E+04  0.10100000352E+00 0. -1.
    10030    2    1    2    0    0  0.00000000000E+00  0.00000000000E+00  0.60948726477E+03  0.31623387949E+04  0.31030488117E+04 0.  0.
        2    1    3    3  502    0  0.10829795114E+04  0.30446968987E+03 -0.78416711309E+03  0.13713002864E+04  0.25500000920E-02 0. -1.
       -2    1    3    3    0  502 -0.10829795114E+04 -0.30446968987E+03  0.13936543779E+04  0.17910385085E+04  0.25500000920E-02 0.  1.
</event>
<event>
 5   0  0.7519202E-07  0.3083680E+04  0.7818609E-02  0.8220231E-01
       -1   -1    0    0    0  501  0.00000000000E+00  0.00000000000E+00  0.18756305135E+04  0.18756305135E+04  0.50400001928E-02 0.  1.
        1   -1    0    0  501    0  0.00000000000E+00  0.00000000000E+00 -0.12674517958E+04  0.12674517958E+04  0.50400001928E-02 0. -1.
    10030    2    1    2    0    0  0.00000000000E+00  0.00000000000E+00  0.60817871775E+03  0.31430823093E+04  0.30836804391E+04 0.  0.
        4    1    3    3  502    0  0.13845736033E+04 -0.61404478383E+03  0.59804494878E+03  0.16284208403E+04  0.12699999809E+01 0. -1.
       -4    1    3    3    0  502 -0.13845736033E+04  0.61404478383E+03  0.10133768970E+02  0.15146614690E+04  0.12699999809E+01 0.  1.
</event>
<event>
 5   0  0.7561815E-07  0.3084781E+04  0.7818609E-02  0.8219927E-01
       -1   -1    0    0    0  501  0.00000000000E+00  0.00000000000E+00  0.96501840049E+03  0.96501840050E+03  0.50400001928E-02 0. -1.
        1   -1    0    0  501    0  0.00000000000E+00  0.00000000000E+00 -0.24652052490E+04  0.24652052490E+04  0.50400001928E-02 0.  1.
    10030    2    1    2    0    0  0.00000000000E+00  0.00000000000E+00 -0.15001868485E+04  0.34302236495E+04  0.30847809817E+04 0.  0.
        3    1    3    3  502    0  0.79271892807E+03 -0.73326547727E+03 -0.19747328788E+04  0.22507002270E+04  0.10100000352E+00 0. -1.
       -3    1    3    3    0  502 -0.79271892807E+03  0.73326547727E+03  0.47454603031E+03  0.11795234225E+04  0.10100000352E+00 0.  1.
</event>
<event>
 5   0  0.7519202E-07  0.3102329E+04  0.7818609E-02  0.8215099E-01
       -1   -1    0    0    0  501  0.00000000000E+00  0.00000000000E+00  0.10779112350E+04  0.10779112350E+04  0.50400001928E-02 0. -1.
        1   -1    0    0  501    0  0.00000000000E+00  0.00000000000E+00 -0.22321982337E+04  0.22321982337E+04  0.50400001928E-02 0.  1.
    10030    2    1    2    0    0  0.00000000000E+00  0.00000000000E+00 -0.11542869987E+04  0.33101094687E+04  0.31023291604E+04 0.  0.
        4    1    3    3  502    0 -0.15803711058E+03 -0.15426229388E+04 -0.53653274457E+03  0.16408931283E+04  0.12699999809E+01 0.  1.
       -4    1    3    3    0  502  0.15803711058E+03  0.15426229388E+04 -0.61775425415E+03  0.16692163404E+04  0.12699999809E+01 0. -1.
</event>
<event>
 5   0  0.2078009E-06  0.3223145E+04  0.7818609E-02  0.8182731E-01
        2   -1    0    0  501    0  0.00000000000E+00  0.00000000000E+00  0.19748670081E+04  0.19748670081E+04  0.25500000920E-02 0. -1.
       -2   -1    0    0    0  501  0.00000000000E+00  0.00000000000E+00 -0.13151095278E+04  0.13151095278E+04  0.25500000920E-02 0.  1.
    10030    2    1    2    0    0  0.00000000000E+00  0.00000000000E+00  0.65975748036E+03  0.32899765359E+04  0.32231453076E+04 0.  0.
        3    1    3    3  502    0 -0.28671035341E+03 -0.84815884667E+03 -0.10379021224E+04  0.13706994863E+04  0.10100000352E+00 0.  1.
       -3    1    3    3    0  502  0.28671035341E+03  0.84815884667E+03  0.16976596028E+04  0.19192770496E+04  0.10100000352E+00 0. -1.
</event>
<event>
 5   0  0.2226334E-06  0.3103285E+04  0.7818609E-02  0.8214837E-01
        2   -1    0    0  501    0  0.00000000000E+00  0.00000000000E+00  0.17002134550E+04  0.17002134550E+04  0.25500000920E-02 0.  1.
       -2   -1    0    0    0  501  0.00000000000E+00  0.00000000000E+00 -0.14160539815E+04  0.14160539815E+04  0.25500000920E-02 0. -1.
    10030    2    1    2    0    0  0.00000000000E+00  0.00000000000E+00  0.28415947348E+03  0.31162674364E+04  0.31032847322E+04 0.  0.
        5    1    3    3  502    0 -0.12425776391E+03 -0.62225225128E+03 -0.12798009212E+04  0.14284783316E+04  0.46999998093E+01 0. -1.
       -5    1    3    3    0  502  0.12425776391E+03  0.62225225128E+03  0.15639603947E+04  0.16877891048E+04  0.46999998093E+01 0.  1.
</event>
<event>
 5   0  0.2226334E-06  0.3097474E+04  0.7818609E-02  0.8216432E-01
       -2   -1    0    0    0  501  0.00000000000E+00  0.00000000000E+00  0.11656673313E+04  0.11656673313E+04  0.25500000920E-02 0.  1.
        2   -1    0    0  501    0  0.00000000000E+00  0.00000000000E+00 -0.20576931423E+04  0.20576931423E+04  0.25500000920E-02 0. -1.
    10030    2    1    2    0    0  0.00000000000E+00  0.00000000000E+00 -0.89202581095E+03  0.32233604736E+04  0.30974735988E+04 0.  0.
        5    1    3    3  502    0 -0.28833408464E+03  0.14878807941E+04 -0.11424921580E+03  0.15198686703E+04  0.46999998093E+01 0.  1.
       -5    1    3    3    0  502  0.28833408464E+03 -0.14878807941E+04 -0.77777659515E+03  0.17034918032E+04  0.46999998093E+01 0. -1.
</event>
<event>
 5   0  0.7726743E-07  0.3124038E+04  0.7818609E-02  0.8209172E-01
       -1   -1    0    0    0  501  0.00000000000E+00  0.00000000000E+00  0.90184291902E+03  0.90184291903E+03  0.50400001928E-02 0.  1.
        1   -1    0    0  501    0  0.00000000000E+00  0.00000000000E+00 -0.27054639494E+04  0.27054639494E+04  0.50400001928E-02 0. -1.
    10030    2    1    2    0    0  0.00000000000E+00  0.00000000000E+00 -0.18036210304E+04  0.36073068685E+04  0.31240380955E+04 0.  0.
        1    1    3    3  502    0  0.93454292615E+03  0.12022838429E+04 -0.13035486320E+04  0.20045188839E+04  0.50400001928E-02 0. -1.
       -1    1    3    3    0  502 -0.93454292615E+03 -0.12022838429E+04 -0.50007239838E+03  0.16027879846E+04  0.50400001928E-02 0.  1.
</event>
<event>
 5   0  0.2067926E-06  0.3077591E+04  0.7818609E-02  0.8221915E-01
        2   -1    0    0  501    0  0.00000000000E+00  0.00000000000E+00  0.17530523231E+04  0.17530523231E+04  0.25500000920E-02 0. -1.
       -2   -1    0    0    0  501  0.00000000000E+00  0.00000000000E+00 -0.13507245728E+04  0.13507245728E+04  0.25500000920E-02 0.  1.
    10030    2    1    2    0    0  0.00000000000E+00  0.00000000000E+00  0.40232775025E+03  0.31037768959E+04  0.30775905187E+04 0.  0.
        1    1    3    3  502    0  0.10595756522E+04  0.29852208964E+03  0.12855217486E+04  0.16924485714E+04  0.50400001928E-02 0. -1.
       -1    1    3    3    0  502 -0.10595756522E+04 -0.29852208964E+03 -0.88319399831E+03  0.14113283245E+04  0.50400001928E-02 0.  1.
</event>
<event>
 5   0  0.2067926E-06  0.3086765E+04  0.7818609E-02  0.8219380E-01
        2   -1    0    0  501    0  0.00000000000E+00  0.00000000000E+00  0.29471470373E+04  0.29471470373E+04  0.25500000920E-02 0.  1.
       -2   -1    0    0    0  501  0.00000000000E+00  0.00000000000E+00 -0.80824912705E+03  0.80824912705E+03  0.25500000920E-02 0. -1.
    10030    2    1    2    0    0  0.00000000000E+00  0.00000000000E+00  0.21388979103E+04  0.37553961644E+04  0.30867646624E+04 0.  0.
        1    1    3    3  502    0  0.34357989545E+03  0.14397197642E+04  0.53748335575E+03  0.15747153717E+04  0.50400001928E-02 0. -1.
       -1    1    3    3    0  502 -0.34357989545E+03 -0.14397197642E+04  0.16014145545E+04  0.21806807927E+04  0.50400001928E-02 0.  1.
</event>
<event>
 5   0  0.7561815E-07  0.3084764E+04  0.7818609E-02  0.8219932E-01
        1   -1    0    0  501    0  0.00000000000E+00  0.00000000000E+00  0.13797050193E+04  0.13797050193E+04  0.50400001928E-02 0.  1.
       -1   -1    0    0    0  501  0.00000000000E+00  0.00000000000E+00 -0.17242398285E+04  0.17242398285E+04  0.50400001928E-02 0. -1.
    10030    2    1    2    0    0  0.00000000000E+00  0.00000000000E+00 -0.34453480926E+03  0.31039448478E+04  0.30847640726E+04 0.  0.
        3    1    3    3  502    0 -0.15372192761E+04 -0.12102810886E+03 -0.20786292086E+03  0.15559234910E+04  0.10100000352E+00 0. -1.
       -3    1    3    3    0  502  0.15372192761E+04  0.12102810886E+03 -0.13667188840E+03  0.15480213568E+04  0.10100000352E+00 0.  1.
</event>
<event>
 5   0  0.2094135E-06  0.3087947E+04  0.7818609E-02  0.8219054E-01
        2   -1    0    0  501    0  0.00000000000E+00  0.00000000000E+00  0.28021517784E+04  0.28021517784E+04  0.25500000920E-02 0. -1.
       -2   -1    0    0    0  501  0.00000000000E+00  0.00000000000E+00 -0.85072270832E+03  0.85072270833E+03  0.25500000920E-02 0.  1.
    10030    2    1    2    0    0  0.00000000000E+00  0.00000000000E+00  0.19514290701E+04  0.36528744867E+04  0.30879469879E+04 0.  0.
        4    1    3    3  502    0  0.15212008950E+03  0.14189877370E+04  0.27869347190E+03  0.14540764710E+04  0.12699999809E+01 0.  1.
       -4    1    3    3    0  502 -0.15212008950E+03 -0.14189877370E+04  0.16727355982E+04  0.21987980157E+04  0.12699999809E+01 0. -1.
</event>
<event>
 5   0  0.7656332E-07  0.3115502E+04  0.7818609E-02  0.8211496E-01
        1   -1    0    0  501    0  0.00000000000E+00  0.00000000000E+00  0.14466100071E+04  0.14466100071E+04  0.50400001928E-02 0. -1.
       -1   -1    0    0    0  501  0.00000000000E+00  0.00000000000E+00 -0.16774312261E+04  0.16774312261E+04  0.50400001928E-02 0.  1.
    10030    2    1    2    0    0  0.00000000000E+00  0.00000000000E+00 -0.23082121901E+03  0.31240412332E+04  0.31155023979E+04 0.  0.
        2    1    3    3  502    0 -0.25226113068E+03 -0.96524332745E+03  0.10842204393E+04  0.14733853265E+04  0.25500000920E-02 0. -1.
       -2    1    3    3    0  502  0.25226113068E+03  0.96524332745E+03 -0.13150416583E+04  0.16506559067E+04  0.25500000920E-02 0.  1.
</event>
<event>
 5   0  0.2133385E-06  0.3098518E+04  0.7818609E-02  0.8216145E-01
        2   -1    0    0  501    0  0.00000000000E+00  0.00000000000E+00  0.25641229585E+04  0.25641229585E+04  0.25500000920E-02 0.  1.
       -2   -1    0    0    0  501  0.00000000000E+00  0.00000000000E+00 -0.93607212325E+03  0.93607212326E+03  0.25500000920E-02 0. -1.
    10030    2    1    2    0    0  0.00000000000E+00  0.00000000000E+00  0.16280508353E+04  0.35001950818E+04  0.30985183699E+04 0.  0.
        2    1    3    3  502    0 -0.10669699994E+04 -0.50381229606E+03 -0.32009232886E+03  0.12225837020E+04  0.25500000920E-02 0. -1.
       -2    1    3    3    0  502  0.10669699994E+04  0.50381229606E+03  0.19481431641E+04  0.22776113798E+04  0.25500000920E-02 0.  1.
</event>
<event>
 5   0  0.7726743E-07  0.3096765E+04  0.7818609E-02  0.8216626E-01
       -1   -1    0    0    0  501  0.00000000000E+00  0.00000000000E+00  0.10850790166E+04  0.10850790166E+04  0.50400001928E-02 0. -1.
        1   -1    0    0  501    0  0.00000000000E+00  0.00000000000E+00 -0.22095059989E+04  0.22095059989E+04  0.50400001928E-02 0.  1.
    10030    2    1    2    0    0  0.00000000000E+00  0.00000000000E+00 -0.11244269823E+04  0.32945850155E+04  0.30967651486E+04 0.  0.
        1    1    3    3  502    0  0.15122570818E+03  0.72496803243E+03  0.88444389045E+03  0.11535548787E+04  0.50400001928E-02 0. -1.
       -1    1    3    3    0  502 -0.15122570818E+03 -0.72496803243E+03 -0.20088708728E+04  0.21410301367E+04  0.50400001928E-02 0.  1.
</event>
<event>
 5   0  0.2133385E-06  0.3180718E+04  0.7818609E-02  0.8193928E-01
        2   -1    0    0  501    0  0.00000000000E+00  0.00000000000E+00  0.10563892251E+04  0.10563892251E+04  0.25500000920E-02 0. -1.
       -2   -1    0    0    0  501  0.00000000000E+00  0.00000000000E+00 -0.23942323213E+04  0.23942323213E+04  0.25500000920E-02 0.  1.
    10030    2    1    2    0    0  0.00000000000E+00  0.00000000000E+00 -0.13378430962E+04  0.34506215464E+04  0.31807176716E+04 0.  0.
        2    1    3    3  502    0  0.64385663270E+03 -0.72696918464E+03  0.69739697704E+03  0.11955743818E+04  0.25500000920E-02 0. -1.
       -2    1    3    3    0  502 -0.64385663270E+03  0.72696918464E+03 -0.20352400732E+04  0.22550471646E+04  0.25500000920E-02 0.  1.
</event>
<event>
 5   0  0.2226334E-06  0.3089735E+04  0.7818609E-02  0.8218561E-01
        2   -1    0    0  501    0  0.00000000000E+00  0.00000000000E+00  0.19055487550E+04  0.19055487550E+04  0.25500000920E-02 0.  1.
       -2   -1    0    0    0  501  0.00000000000E+00  0.00000000000E+00 -0.12524557809E+04  0.12524557809E+04  0.25500000920E-02 0. -1.
    10030    2    1    2    0    0  0.00000000000E+00  0.00000000000E+00  0.65309297405E+03  0.31580045359E+04  0.30897349750E+04 0.  0.
        5    1    3    3  502    0  0.13124138099E+04 -0.24649060360E+03 -0.46740921897E+03  0.14148077941E+04  0.46999998093E+01 0. -1.
       -5    1    3    3    0  502 -0.13124138099E+04  0.24649060360E+03  0.11205021930E+04  0.17431967418E+04  0.46999998093E+01 0.  1.
</event>
<event>
 5   0  0.2226334E-06  0.3068938E+04  0.7818609E-02  0.8224315E-01
       -2   -1    0    0    0  501  0.00000000000E+00  0.00000000000E+00  0.11596174282E+04  0.11596174282E+04  0.25500000920E-02 0. -1.
        2   -1    0    0  501    0  0.00000000000E+00  0.00000000000E+00 -0.20304935948E+04  0.20304935948E+04  0.25500000920E-02 0.  1.
    10030    2    1    2    0    0  0.00000000000E+00  0.00000000000E+00 -0.87087616663E+03  0.31901110230E+04  0.30689384226E+04 0.  0.
        5    1    3    3  502    0  0.18882339239E+03  0.59240301719E+01 -0.20183515124E+04  0.20271788982E+04  0.46999998093E+01 0.  1.
       -5    1    3    3    0  502 -0.18882339239E+03 -0.59240301719E+01  0.11474753458E+04  0.11629321248E+04  0.46999998093E+01 0. -1.
</event>
<event>
 5   0  0.2226334E-06  0.3079551E+04  0.7818609E-02  0.8221373E-01
        2   -1    0    0  501    0  0.00000000000E+00  0.00000000000E+00  0.24132563833E+04  0.24132563833E+04  0.25500000920E-02 0.  1.
       -2   -1    0    0    0  501  0.00000000000E+00  0.00000000000E+00 -0.98245172453E+03  0.98245172453E+03  0.25500000920E-02 0. -1.
    10030    2    1    2    0    0  0.00000000000E+00  0.00000000000E+00  0.14308046588E+04  0.33957081078E+04  0.30795505487E+04 0.  0.
        5    1    3    3  502    0  0.14033177002E+04  0.59633929212E+03  0.95180651691E+03  0.17974645629E+04  0.46999998093E+01 0. -1.
       -5    1    3    3    0  502 -0.14033177002E+04 -0.59633929212E+03  0.47899814184E+03  0.15982435450E+04  0.46999998093E+01 0.  1.
</event>
<event>
 5   0  0.7726743E-07  0.3185158E+04  0.7818609E-02  0.8192748E-01
       -1   -1    0    0    0  501  0.00000000000E+00  0.00000000000E+00  0.20613109862E+04  0.20613109863E+04  0.50400001928E-02 0. -1.
        1   -1    0    0  501    0  0.00000000000E+00  0.00000000000E+00 -0.12304342155E+04  0.12304342155E+04  0.50400001928E-02 0.  1.
    10030    2    1    2    0    0  0.00000000000E+00  0.00000000000E+00  0.83087677074E+03  0.32917452018E+04  0.31851578085E+04 0.  0.
        1    1    3    3  502    0  0.29294978841E+03  0.99265387193E+03 -0.83549097475E+03  0.13301227225E+04  0.50400001928E-02 0.  1.
       -1    1    3    3    0  502 -0.29294978841E+03 -0.99265387193E+03  0.16663677455E+04  0.19616224793E+04  0.50400001928E-02 0. -1.
</event>
<event>
 5   0  0.7561815E-07  0.3012343E+04  0.7818609E-02  0.8240215E-01
       -1   -1    0    0    0  501  0.00000000000E+00  0.00000000000E+00  0.11815230349E+04  0.11815230349E+04  0.50400001928E-02 0. -1.
        1   -1    0    0  501    0  0.00000000000E+00  0.00000000000E+00 -0.19200235507E+04  0.19200235507E+04  0.50400001928E-02 0.  1.
    10030    2    1    2    0    0  0.00000000000E+00  0.00000000000E+00 -0.73850051574E+03  0.31015465856E+04  0.30123426450E+04 0.  0.
        3    1    3    3  502    0  0.78542675448E+03 -0.72398107658E+03 -0.14625363014E+04  0.18110925512E+04  0.10100000352E+00 0.  1.
       -3    1    3    3    0  502 -0.78542675448E+03  0.72398107658E+03  0.72403578562E+03  0.12904540344E+04  0.10100000352E+00 0. -1.
</event>
<event>
 5   0  0.7561815E-07  0.3144843E+04  0.7818609E-02  0.8203538E-01
       -1   -1    0    0    0  501  0.00000000000E+00  0.00000000000E+00  0.15752810380E+04  0.15752810380E+04  0.50400001928E-02 0. -1.
        1   -1    0    0  501    0  0.00000000000E+00  0.00000000000E+00 -0.15695667594E+04  0.15695667594E+04  0.50400001928E-02 0.  1.
    10030    2    1    2    0    0  0.00000000000E+00  0.00000000000E+00  0.57142786142E+01  0.31448477974E+04  0.31448426059E+04 0.  0.
        3    1    3    3  502    0 -0.27452877279E+03 -0.12009180106E+04  0.98006836579E+03  0.15741995195E+04  0.10100000352E+00 0. -1.
       -3    1    3    3    0  502  0.27452877279E+03  0.12009180106E+04 -0.97435408717E+03  0.15706482779E+04  0.10100000352E+00 0.  1.
</event>
<event>
 5   0  0.2067926E-06  0.3123287E+04  0.7818609E-02  0.8209376E-01
       -2   -1    0    0    0  501  0.00000000000E+00  0.00000000000E+00  0.14495692118E+04  0.14495692118E+04  0.25500000920E-02 0.  1.
        2   -1    0    0  501    0  0.00000000000E+00  0.00000000000E+00 -0.16823826526E+04  0.16823826526E+04  0.25500000920E-02 0. -1.
    10030    2    1    2    0    0  0.00000000000E+00  0.00000000000E+00 -0.23281344082E+03  0.31319518644E+04  0.31232867916E+04 0.  0.
        1    1    3    3  502    0  0.50774749745E+03  0.61694795687E+03 -0.14618809645E+04  0.16659916738E+04  0.50400001928E-02 0. -1.
       -1    1    3    3    0  502 -0.50774749745E+03 -0.61694795687E+03  0.12290675237E+04  0.14659601906E+04  0.50400001928E-02 0.  1.
</event>
<event>
 5   0  0.7413481E-07  0.3095532E+04  0.7818609E-02  0.8216965E-01
       -1   -1    0    0    0  501  0.00000000000E+00  0.00000000000E+00  0.12225648952E+04  0.12225648952E+04  0.50400001928E-02 0. -1.
        1   -1    0    0  501    0  0.00000000000E+00  0.00000000000E+00 -0.19594704519E+04  0.19594704520E+04  0.50400001928E-02 0.  1.
    10030    2    1    2    0    0  0.00000000000E+00  0.00000000000E+00 -0.73690555679E+03  0.31820353471E+04  0.30955321272E+04 0.  0.
        5    1    3    3  502    0 -0.43100403288E+03 -0.12301851862E+04 -0.12263016770E+04  0.17896809665E+04  0.46999998093E+01 0.  1.
       -5    1    3    3    0  502  0.43100403288E+03  0.12301851862E+04  0.48939612024E+03  0.13923543806E+04  0.46999998093E+01 0. -1.
</event>
<event>
 5   0  0.2067926E-06  0.3091017E+04  0.7818609E-02  0.8218207E-01
       -2   -1    0    0    0  501  0.00000000000E+00  0.00000000000E+00  0.11085971433E+04  0.11085971434E+04  0.25500000920E-02 0.  1.
        2   -1    0    0  501    0  0.00000000000E+00  0.00000000000E+00 -0.21546121074E+04  0.21546121074E+04  0.25500000920E-02 0. -1.
    10030    2    1    2    0    0  0.00000000000E+00  0.00000000000E+00 -0.10460149641E+04  0.32632092508E+04  0.30910171966E+04 0.  0.
        1    1    3    3  502    0  0.15156861877E+04  0.26826350328E+03 -0.66977319487E+03  0.16786500706E+04  0.50400001928E-02 0.  1.
       -1    1    3    3    0  502 -0.15156861877E+04 -0.26826350328E+03 -0.37624176922E+03  0.15845591802E+04  0.50400001928E-02 0. -1.
</event>
<event>
 5   0  0.2078009E-06  0.3094751E+04  0.7818609E-02  0.8217180E-01
        2   -1    0    0  501    0  0.00000000000E+00  0.00000000000E+00  0.18093332452E+04  0.18093332452E+04  0.25500000920E-02 0.  1.
       -2   -1    0    0    0  501  0.00000000000E+00  0.00000000000E+00 -0.13233444555E+04  0.13233444555E+04  0.25500000920E-02 0. -1.
    10030    2    1    2    0    0  0.00000000000E+00  0.00000000000E+00  0.48598878972E+03  0.31326777007E+04  0.30947511165E+04 0.  0.
        3    1    3    3  502    0  0.85296229334E+03 -0.66201039384E+03 -0.87899746447E+03  0.13922783444E+04  0.10100000352E+00 0. -1.
       -3    1    3    3    0  502 -0.85296229334E+03  0.66201039384E+03  0.13649862542E+04  0.17403993564E+04  0.10100000352E+00 0.  1.
</event>
<event>
 5   0  0.2133385E-06  0.3108639E+04  0.7818609E-02  0.8213371E-01
        2   -1    0    0  501    0  0.00000000000E+00  0.00000000000E+00  0.18863953288E+04  0.18863953288E+04  0.25500000920E-02 0. -1.
       -2   -1    0    0    0  501  0.00000000000E+00  0.00000000000E+00 -0.12807014303E+04  0.12807014303E+04  0.25500000920E-02 0.  1.
    10030    2    1    2    0    0  0.00000000000E+00  0.00000000000E+00  0.60569389854E+03  0.31670967591E+04  0.31086390564E+04 0.  0.
        2    1    3    3  502    0  0.97044859245E+03 -0.53631707695E+03  0.14125975824E+04  0.17957835080E+04  0.25500000920E-02 0. -1.
       -2    1    3    3    0  502 -0.97044859245E+03  0.53631707695E+03 -0.80690368389E+03  0.13713132511E+04  0.25500000920E-02 0.  1.
</event>
<event>
 5   0  0.7656332E-07  0.3072362E+04  0.7818609E-02  0.8223364E-01
       -1   -1    0    0    0  501  0.00000000000E+00  0.00000000000E+00  0.15887132840E+04  0.15887132840E+04  0.50400001928E-02 0.  1.
        1   -1    0    0  501    0  0.00000000000E+00  0.00000000000E+00 -0.14853859750E+04  0.14853859750E+04  0.50400001928E-02 0. -1.
    10030    2    1    2    0    0  0.00000000000E+00  0.00000000000E+00  0.10332730900E+03  0.30740992590E+04  0.30723622380E+04 0.  0.
        2    1    3    3  502    0  0.12414374106E+04  0.89756147441E+03  0.16604795172E+03  0.15408943400E+04  0.25500000920E-02 0. -1.
       -2    1    3    3    0  502 -0.12414374106E+04 -0.89756147441E+03 -0.62720642725E+02  0.15332049190E+04  0.25500000920E-02 0.  1.
</event>
<event>
 5   0  0.2226334E-06  0.3127518E+04  0.7818609E-02  0.8208226E-01
       -2   -1    0    0    0  501  0.00000000000E+00  0.00000000000E+00  0.15925561579E+04  0.15925561579E+04  0.25500000920E-02 0.  1.
        2   -1    0    0  501    0  0.00000000000E+00  0.00000000000E+00 -0.15354824497E+04  0.15354824497E+04  0.25500000920E-02 0. -1.
    10030    2    1    2    0    0  0.00000000000E+00  0.00000000000E+00  0.57073708190E+02  0.31280386076E+04  0.31275178852E+04 0.  0.
        5    1    3    3  502    0  0.12184912778E+04 -0.97993727624E+03  0.10592821798E+02  0.15636918998E+04  0.46999998093E+01 0.  1.
       -5    1    3    3    0  502 -0.12184912778E+04  0.97993727624E+03  0.46480886391E+02  0.15643467078E+04  0.46999998093E+01 0. -1.
</event>
<event>
 5   0  0.6979625E-07  0.3050018E+04  0.7818609E-02  0.8229591E-01
        3   -1    0    0  501    0  0.00000000000E+00  0.00000000000E+00  0.13033385050E+04  0.13033385089E+04  0.10100000352E+00 0. -1.
       -3   -1    0    0    0  501  0.00000000000E+00  0.00000000000E+00 -0.17843807130E+04  0.17843807159E+04  0.10100000352E+00 0.  1.
    10030    2    1    2    0    0  0.00000000000E+00  0.00000000000E+00 -0.48104220797E+03  0.30877192248E+04  0.30500177713E+04 0.  0.
        5    1    3    3  502    0  0.10029779037E+04  0.11449049991E+04 -0.14524142049E+03  0.15290157921E+04  0.46999998093E+01 0. -1.
       -5    1    3    3    0  502 -0.10029779037E+04 -0.11449049991E+04 -0.33580078748E+03  0.15587034327E+04  0.46999998093E+01 0.  1.
</event>
<event>
 5   0  0.2226334E-06  0.3102071E+04  0.7818609E-02  0.8215170E-01
        2   -1    0    0  501    0  0.00000000000E+00  0.00000000000E+00  0.23156658712E+04  0.23156658712E+04  0.25500000920E-02 0. -1.
       -2   -1    0    0    0  501  0.00000000000E+00  0.00000000000E+00 -0.10388854074E+04  0.10388854074E+04  0.25500000920E-02 0.  1.
    10030    2    1    2    0    0  0.00000000000E+00  0.00000000000E+00  0.12767804638E+04  0.33545512786E+04  0.31020712320E+04 0.  0.
        5    1    3    3  502    0  0.67612850655E+03 -0.17078691348E+03 -0.85978352642E+03  0.11070536254E+04  0.46999998093E+01 0.  1.
       -5    1    3    3    0  502 -0.67612850655E+03  0.17078691348E+03  0.21365639902E+04  0.22474976532E+04  0.46999998093E+01 0. -1.
</event>
<event>
 5   0  0.2067926E-06  0.3152296E+04  0.7818609E-02  0.8201530E-01
        2   -1    0    0  501    0  0.00000000000E+00  0.00000000000E+00  0.71864753941E+03  0.71864753942E+03  0.25500000920E-02 0.  1.
       -2   -1    0    0    0  501  0.00000000000E+00  0.00000000000E+00 -0.34568305413E+04  0.34568305413E+04  0.25500000920E-02 0. -1.
    10030    2    1    2    0    0  0.00000000000E+00  0.00000000000E+00 -0.27381830019E+04  0.41754780807E+04  0.31522961553E+04 0.  0.
        1    1    3    3  502    0 -0.22924854649E+03  0.20202360841E+02  0.69627277394E+03  0.73332039874E+03  0.50400001928E-02 0.  1.
       -1    1    3    3    0  502  0.22924854649E+03 -0.20202360841E+02 -0.34344557758E+04  0.34421576820E+04  0.50400001928E-02 0. -1.
</event>
<event>
 5   0  0.2094135E-06  0.3127546E+04  0.7818609E-02  0.8208219E-01
       -2   -1    0    0    0  501  0.00000000000E+00  0.00000000000E+00  0.11502064368E+04  0.11502064368E+04  0.25500000920E-02 0. -1.
        2   -1    0    0  501    0  0.00000000000E+00  0.00000000000E+00 -0.21260406307E+04  0.21260406307E+04  0.25500000920E-02 0.  1.
    10030    2    1    2    0    0  0.00000000000E+00  0.00000000000E+00 -0.97583419391E+03  0.32762470676E+04  0.31275457589E+04 0.  0.
        4    1    3    3  502    0  0.78353507459E+03 -0.13194215311E+04 -0.17263609762E+03  0.15442167027E+04  0.12699999809E+01 0. -1.
       -4    1    3    3    0  502 -0.78353507459E+03  0.13194215311E+04 -0.80319809630E+03  0.17320303648E+04  0.12699999809E+01 0.  1.
</event>
<event>
 5   0  0.7656332E-07  0.3078197E+04  0.7818609E-02  0.8221747E-01
        1   -1    0    0  501    0  0.00000000000E+00  0.00000000000E+00  0.12711361154E+04  0.12711361154E+04  0.50400001928E-02 0. -1.
       -1   -1    0    0    0  501  0.00000000000E+00  0.00000000000E+00 -0.18635485941E+04  0.18635485941E+04  0.50400001928E-02 0.  1.
    10030    2    1    2    0    0  0.00000000000E+00  0.00000000000E+00 -0.59241247869E+03  0.31346847095E+04  0.30781968233E+04 0.  0.
        2    1    3    3  502    0  0.14282228290E+04  0.54581476685E+03 -0.11664779758E+03  0.15334082684E+04  0.25500000920E-02 0.  1.
       -2    1    3    3    0  502 -0.14282228290E+04 -0.54581476685E+03 -0.47576468111E+03  0.16012764411E+04  0.25500000920E-02 0. -1.
</event>
<event>
 5   0  0.7656332E-07  0.3130911E+04  0.7818609E-02  0.8207306E-01
        1   -1    0    0  501    0  0.00000000000E+00  0.00000000000E+00  0.24473640606E+04  0.24473640606E+04  0.50400001928E-02 0. -1.
       -1   -1    0    0    0  501  0.00000000000E+00  0.00000000000E+00 -0.10013427278E+04  0.10013427278E+04  0.50400001928E-02 0.  1.
    10030    2    1    2    0    0  0.00000000000E+00  0.00000000000E+00  0.14460213328E+04  0.34487067884E+04  0.31309105413E+04 0.  0.
        2    1    3    3  502    0  0.14303347264E+04  0.56753676338E+03  0.10397665612E+04  0.18571671732E+04  0.25500000920E-02 0. -1.
       -2    1    3    3    0  502 -0.14303347264E+04 -0.56753676338E+03  0.40625477153E+03  0.15915396152E+04  0.25500000920E-02 0.  1.
</event>
<event>
 5   0  0.2226334E-06  0.3095781E+04  0.7818609E-02  0.8216897E-01
        2   -1    0    0  501    0  0.00000000000E+00  0.00000000000E+00  0.25636729485E+04  0.25636729485E+04  0.25500000920E-02 0.  1.
       -2   -1    0    0    0  501  0.00000000000E+00  0.00000000000E+00 -0.93458271313E+03  0.93458271314E+03  0.25500000920E-02 0. -1.
    10030    2    1    2    0    0  0.00000000000E+00  0.00000000000E+00  0.16290902353E+04  0.34982556616E+04  0.30957806252E+04 0.  0.
        5    1    3    3  502    0  0.29068388939E+03  0.89204406387E+02 -0.90049516089E+03  0.95045682409E+03  0.46999998093E+01 0. -1.
       -5    1    3    3    0  502 -0.29068388939E+03 -0.89204406387E+02  0.25295853962E+04  0.25477988375E+04  0.46999998093E+01 0.  1.
</event>
<event>
 5   0  0.2078009E-06  0.3091114E+04  0.7818609E-02  0.8218181E-01
        2   -1    0    0  501    0  0.00000000000E+00  0.00000000000E+00  0.18558299863E+04  0.18558299863E+04  0.25500000920E-02 0.  1.
       -2   -1    0    0    0  501  0.00000000000E+00  0.00000000000E+00 -0.12871577496E+04  0.12871577497E+04  0.25500000920E-02 0. -1.
    10030    2    1    2    0    0  0.00000000000E+00  0.00000000000E+00  0.56867223667E+03  0.31429877360E+04  0.30911136821E+04 0.  0.
        3    1    3    3  502    0 -0.72767897638E+03  0.58933513108E+03  0.15345696993E+04  0.17977031906E+04  0.10100000352E+00 0.  1.
       -3    1    3    3    0  502  0.72767897638E+03 -0.58933513108E+03 -0.96589746263E+03  0.13452845453E+04  0.10100000352E+00 0. -1.
</event>
<event>
 5   0  0.7656332E-07  0.3103112E+04  0.7818609E-02  0.8214884E-01
        1   -1    0    0  501    0  0.00000000000E+00  0.00000000000E+00  0.18147607599E+04  0.18147607600E+04  0.50400001928E-02 0.  1.
       -1   -1    0    0    0  501  0.00000000000E+00  0.00000000000E+00 -0.13265254252E+04  0.13265254252E+04  0.50400001928E-02 0. -1.
    10030    2    1    2    0    0  0.00000000000E+00  0.00000000000E+00  0.48823533472E+03  0.31412861852E+04  0.31031121725E+04 0.  0.
        2    1    3    3  502    0  0.86690848296E+03 -0.48529966749E+03 -0.96229821588E+03  0.13831355470E+04  0.25500000920E-02 0. -1.
       -2    1    3    3    0  502 -0.86690848296E+03  0.48529966749E+03  0.14505335506E+04  0.17581506382E+04  0.25500000920E-02 0.  1.
</event>
<event>
 5   0  0.2094135E-06  0.3317151E+04  0.7818609E-02  0.8158545E-01
        2   -1    0    0  501    0  0.00000000000E+00  0.00000000000E+00  0.20741744043E+04  0.20741744043E+04  0.25500000920E-02 0.  1.
       -2   -1    0    0    0  501  0.00000000000E+00  0.00000000000E+00 -0.13262498226E+04  0.13262498226E+04  0.25500000920E-02 0. -1.
    10030    2    1    2    0    0  0.00000000000E+00  0.00000000000E+00  0.74792458174E+03  0.34004242269E+04  0.33171514501E+04 0.  0.
        4    1    3    3  502    0 -0.66228859870E+03  0.15099523501E+04  0.55816613912E+03  0.17407278188E+04  0.12699999809E+01 0.  1.
       -4    1    3    3    0  502  0.66228859870E+03 -0.15099523501E+04  0.18975844262E+03  0.16596964081E+04  0.12699999809E+01 0. -1.
</event>
<event>
 5   0  0.7519202E-07  0.3114929E+04  0.7818609E-02  0.8211653E-01
       -1   -1    0    0    0  501  0.00000000000E+00  0.00000000000E+00  0.11531452973E+04  0.11531452973E+04  0.50400001928E-02 0. -1.
        1   -1    0    0  501    0  0.00000000000E+00  0.00000000000E+00 -0.21035476335E+04  0.21035476335E+04  0.50400001928E-02 0.  1.
    10030    2    1    2    0    0  0.00000000000E+00  0.00000000000E+00 -0.95040233617E+03  0.32566929308E+04  0.31149292520E+04 0.  0.
        4    1    3    3  502    0  0.15088003187E+04 -0.33240996373E+03 -0.26947269343E+03  0.15683086212E+04  0.12699999809E+01 0. -1.
       -4    1    3    3    0  502 -0.15088003187E+04  0.33240996373E+03 -0.68092964274E+03  0.16883843097E+04  0.12699999809E+01 0.  1.
</event>
<event>
 5   0  0.7561815E-07  0.2764837E+04  0.7818609E-02  0.8314269E-01
       -1   -1    0    0    0  501  0.00000000000E+00  0.00000000000E+00  0.14491546383E+04  0.14491546383E+04  0.50400001928E-02 0. -1.
        1   -1    0    0  501    0  0.00000000000E+00  0.00000000000E+00 -0.13187556889E+04  0.13187556889E+04  0.50400001928E-02 0.  1.
    10030    2    1    2    0    0  0.00000000000E+00  0.00000000000E+00  0.13039894940E+03  0.27679103272E+04  0.27648370102E+04 0.  0.
        3    1    3    3  502    0  0.11576488317E+04 -0.53307614200E+02 -0.68935472387E+03  0.13484073809E+04  0.10100000352E+00 0.  1.
       -3    1    3    3    0  502 -0.11576488317E+04  0.53307614200E+02  0.81975367328E+03  0.14195029462E+04  0.10100000352E+00 0. -1.
</event>
<event>
 5   0  0.2067926E-06  0.3080806E+04  0.7818609E-02  0.8221025E-01
       -2   -1    0    0    0  501  0.00000000000E+00  0.00000000000E+00  0.88056719588E+03  0.88056719588E+03  0.25500000920E-02 0. -1.
        2   -1    0    0  501    0  0.00000000000E+00  0.00000000000E+00 -0.26946735621E+04  0.26946735621E+04  0.25500000920E-02 0.  1.
    10030    2    1    2    0    0  0.00000000000E+00  0.00000000000E+00 -0.18141063662E+04  0.35752407580E+04  0.30808058312E+04 0.  0.
        1    1    3    3  502    0 -0.11142168822E+04  0.10347188536E+04 -0.62109503964E+03  0.16425228810E+04  0.50400001928E-02 0. -1.
       -1    1    3    3    0  502  0.11142168822E+04 -0.10347188536E+04 -0.11930113266E+04  0.19327178769E+04  0.50400001928E-02 0.  1.
</event>
<event>
 5   0  0.7656332E-07  0.3052527E+04  0.7818609E-02  0.8228889E-01
        1   -1    0    0  501    0  0.00000000000E+00  0.00000000000E+00  0.17236162260E+04  0.17236162260E+04  0.50400001928E-02 0. -1.
       -1   -1    0    0    0  501  0.00000000000E+00  0.00000000000E+00 -0.13515073612E+04  0.13515073613E+04  0.50400001928E-02 0.  1.
    10030    2    1    2    0    0  0.00000000000E+00  0.00000000000E+00  0.37210886474E+03  0.30751235872E+04  0.30525268336E+04 0.  0.
        2    1    3    3  502    0  0.20894515356E+03  0.12725172453E+03 -0.13316266273E+04  0.13539130523E+04  0.25500000920E-02 0.  1.
       -2    1    3    3    0  502 -0.20894515356E+03 -0.12725172453E+03  0.17037354921E+04  0.17212105349E+04  0.25500000920E-02 0. -1.
</event>
<event>
 5   0  0.2067926E-06  0.3098657E+04  0.7818609E-02  0.8216106E-01
       -2   -1    0    0    0  501  0.00000000000E+00  0.00000000000E+00  0.92935243327E+03  0.92935243327E+03  0.25500000920E-02 0. -1.
        2   -1    0    0  501    0  0.00000000000E+00  0.00000000000E+00 -0.25828944716E+04  0.25828944716E+04  0.25500000920E-02 0.  1.
    10030    2    1    2    0    0  0.00000000000E+00  0.00000000000E+00 -0.16535420383E+04  0.35122469048E+04  0.30986572976E+04 0.  0.
        1    1    3    3  502    0  0.32852332517E+02  0.85795492799E+03  0.63503818406E+03  0.10679135871E+04  0.50400001928E-02 0. -1.
       -1    1    3    3    0  502 -0.32852332517E+02 -0.85795492799E+03 -0.22885802224E+04  0.24443333178E+04  0.50400001928E-02 0.  1.
</event>
<event>
 5   0  0.2078009E-06  0.3107263E+04  0.7818609E-02  0.8213747E-01
       -2   -1    0    0    0  501  0.00000000000E+00  0.00000000000E+00  0.86813476900E+03  0.86813476901E+03  0.25500000920E-02 0.  1.
        2   -1    0    0  501    0  0.00000000000E+00  0.00000000000E+00 -0.27804105173E+04  0.27804105173E+04  0.25500000920E-02 0. -1.
    10030    2    1    2    0    0  0.00000000000E+00  0.00000000000E+00 -0.19122757483E+04  0.36485452863E+04  0.31072631315E+04 0.  0.
        3    1    3    3  502    0  0.72837369535E+03  0.28670807081E+03  0.61967099999E+03  0.99835961275E+03  0.10100000352E+00 0.  1.
       -3    1    3    3    0  502 -0.72837369535E+03 -0.28670807081E+03 -0.25319467483E+04  0.26501856735E+04  0.10100000352E+00 0. -1.
</event>
<event>
 5   0  0.7726743E-07  0.2940410E+04  0.7818609E-02  0.8260955E-01
        1   -1    0    0  501    0  0.00000000000E+00  0.00000000000E+00  0.23572745262E+04  0.23572745262E+04  0.50400001928E-02 0.  1.
       -1   -1    0    0    0  501  0.00000000000E+00  0.00000000000E+00 -0.91694990876E+03  0.91694990877E+03  0.50400001928E-02 0. -1.
    10030    2    1    2    0    0  0.00000000000E+00  0.00000000000E+00  0.14403246174E+04  0.32742244349E+04  0.29404099454E+04 0.  0.
        1    1    3    3  502    0 -0.69211071415E+03  0.11628275363E+04  0.13601422781E+04  0.19186380942E+04  0.50400001928E-02 0.  1.
       -1    1    3    3    0  502  0.69211071415E+03 -0.11628275363E+04  0.80182339306E+02  0.13555863408E+04  0.50400001928E-02 0. -1.
</event>
<event>
 5   0  0.7726743E-07  0.3109155E+04  0.7818609E-02  0.8213230E-01
       -1   -1    0    0    0  501  0.00000000000E+00  0.00000000000E+00  0.12861528440E+04  0.12861528440E+04  0.50400001928E-02 0. -1.
        1   -1    0    0  501    0  0.00000000000E+00  0.00000000000E+00 -0.18790236988E+04  0.18790236988E+04  0.50400001928E-02 0.  1.
    10030    2    1    2    0    0  0.00000000000E+00  0.00000000000E+00 -0.59287085480E+03  0.31651765428E+04  0.31091553027E+04 0.  0.
        1    1    3    3  502    0 -0.57018181843E+03 -0.13306676484E+04  0.28027700313E+03  0.14745639678E+04  0.50400001928E-02 0. -1.
       -1    1    3    3    0  502  0.57018181843E+03  0.13306676484E+04 -0.87314785793E+03  0.16906125749E+04  0.50400001928E-02 0.  1.
</event>
<event>
 5   0  0.2067926E-06  0.3087881E+04  0.7818609E-02  0.8219072E-01
       -2   -1    0    0    0  501  0.00000000000E+00  0.00000000000E+00  0.16120259437E+04  0.16120259437E+04  0.25500000920E-02 0. -1.
        2   -1    0    0  501    0  0.00000000000E+00  0.00000000000E+00 -0.14787307660E+04  0.14787307660E+04  0.25500000920E-02 0.  1.
    10030    2    1    2    0    0  0.00000000000E+00  0.00000000000E+00  0.13329517769E+03  0.30907567096E+04  0.30878810589E+04 0.  0.
        1    1    3    3  502    0  0.89127194280E+03  0.10888067493E+04 -0.56946494058E+03  0.15179447065E+04  0.50400001928E-02 0.  1.
       -1    1    3    3    0  502 -0.89127194280E+03 -0.10888067493E+04  0.70276011827E+03  0.15728120031E+04  0.50400001928E-02 0. -1.
</event>
<event>
 5   0  0.7656332E-07  0.3102141E+04  0.7818609E-02  0.8215151E-01
       -1   -1    0    0    0  501  0.00000000000E+00  0.00000000000E+00  0.11770360938E+04  0.11770360938E+04  0.50400001928E-02 0.  1.
        1   -1    0    0  501    0  0.00000000000E+00  0.00000000000E+00 -0.20439642847E+04  0.20439642847E+04  0.50400001928E-02 0. -1.
    10030    2    1    2    0    0  0.00000000000E+00  0.00000000000E+00 -0.86692819089E+03  0.32210003786E+04  0.31021410269E+04 0.  0.
        2    1    3    3  502    0  0.12184836841E+04  0.54893320367E+03 -0.12508956083E+04  0.18305108504E+04  0.25500000920E-02 0. -1.
       -2    1    3    3    0  502 -0.12184836841E+04 -0.54893320367E+03  0.38396741744E+03  0.13904895282E+04  0.25500000920E-02 0.  1.
</event>
<event>
 5   0  0.7726743E-07  0.3081084E+04  0.7818609E-02  0.8220949E-01
        1   -1    0    0  501    0  0.00000000000E+00  0.00000000000E+00  0.16509466095E+04  0.16509466095E+04  0.50400001928E-02 0.  1.
       -1   -1    0    0    0  501  0.00000000000E+00  0.00000000000E+00 -0.14375203424E+04  0.14375203424E+04  0.50400001928E-02 0. -1.
    10030    2    1    2    0    0  0.00000000000E+00  0.00000000000E+00  0.21342626712E+03  0.30884669520E+04  0.30810837934E+04 0.  0.
        1    1    3    3  502    0  0.12007210854E+04 -0.18713379475E+02  0.10740063430E+04  0.16110775712E+04  0.50400001928E-02 0.  1.
       -1    1    3    3    0  502 -0.12007210854E+04  0.18713379475E+02 -0.86058007592E+03  0.14773893808E+04  0.50400001928E-02 0. -1.
</event>
<event>
 5   0  0.2078009E-06  0.3077043E+04  0.7818609E-02  0.8222067E-01
        2   -1    0    0  501    0  0.00000000000E+00  0.00000000000E+00  0.91699153125E+03  0.91699153125E+03  0.25500000920E-02 0.  1.
       -2   -1    0    0    0  501  0.00000000000E+00  0.00000000000E+00 -0.25813195732E+04  0.25813195732E+04  0.25500000920E-02 0. -1.
    10030    2    1    2    0    0  0.00000000000E+00  0.00000000000E+00 -0.16643280420E+04  0.34983111045E+04  0.30770428584E+04 0.  0.
        3    1    3    3  502    0 -0.11485646823E+04 -0.11205201470E+03  0.32463056732E+03  0.11988083662E+04  0.10100000352E+00 0.  1.
       -3    1    3    3    0  502  0.11485646823E+04  0.11205201470E+03 -0.19889586093E+04  0.22995027383E+04  0.10100000352E+00 0. -1.
</event>
<event>
 5   0  0.7519202E-07  0.3124321E+04  0.7818609E-02  0.8209095E-01
       -1   -1    0    0    0  501  0.00000000000E+00  0.00000000000E+00  0.19072396801E+04  0.19072396801E+04  0.50400001928E-02 0.  1.
        1   -1    0    0  501    0  0.00000000000E+00  0.00000000000E+00 -0.12795168520E+04  0.12795168520E+04  0.50400001928E-02 0. -1.
    10030    2    1    2    0    0  0.00000000000E+00  0.00000000000E+00  0.62772282810E+03  0.31867565321E+04  0.31243209256E+04 0.  0.
        4    1    3    3  502    0  0.11606225312E+04  0.40586058394E+03 -0.66902204657E+03  0.13997712618E+04  0.12699999809E+01 0. -1.
       -4    1    3    3    0  502 -0.11606225312E+04 -0.40586058394E+03  0.12967448747E+04  0.17869852703E+04  0.12699999809E+01 0.  1.
</event>
<event>
 5   0  0.7726743E-07  0.3085633E+04  0.7818609E-02  0.8219692E-01
        1   -1    0    0  501    0  0.00000000000E+00  0.00000000000E+00  0.19677072240E+04  0.19677072240E+04  0.50400001928E-02 0. -1.
       -1   -1    0    0    0  501  0.00000000000E+00  0.00000000000E+00 -0.12096731022E+04  0.12096731022E+04  0.50400001928E-02 0.  1.
    10030    2    1    2    0    0  0.00000000000E+00  0.00000000000E+00  0.75803412174E+03  0.31773803262E+04  0.30856328375E+04 0.  0.
        1    1    3    3  502    0  0.10132022220E+04 -0.80224331275E+03 -0.48871889479E+03  0.13816726218E+04  0.50400001928E-02 0.  1.
       -1    1    3    3    0  502 -0.10132022220E+04  0.80224331275E+03  0.12467530165E+04  0.17957077045E+04  0.50400001928E-02 0. -1.
</event>
<event>
 5   0  0.7519202E-07  0.3085118E+04  0.7818609E-02  0.8219834E-01
        1   -1    0    0  501    0  0.00000000000E+00  0.00000000000E+00  0.19576900577E+04  0.19576900577E+04  0.50400001928E-02 0. -1.
       -1   -1    0    0    0  501  0.00000000000E+00  0.00000000000E+00 -0.12154569874E+04  0.12154569874E+04  0.50400001928E-02 0.  1.
    10030    2    1    2    0    0  0.00000000000E+00  0.00000000000E+00  0.74223307026E+03  0.31731470451E+04  0.30851178647E+04 0.  0.
        4    1    3    3  502    0  0.11292983500E+04 -0.92815378364E+01  0.14518529816E+04  0.18393693493E+04  0.12699999809E+01 0. -1.
       -4    1    3    3    0  502 -0.11292983500E+04  0.92815378364E+01 -0.70961991135E+03  0.13337776957E+04  0.12699999809E+01 0.  1.
</event>
<event>
 5   0  0.2133385E-06  0.3127838E+04  0.7818609E-02  0.8208139E-01
       -2   -1    0    0    0  501  0.00000000000E+00  0.00000000000E+00  0.11674451162E+04  0.11674451162E+04  0.25500000920E-02 0. -1.
        2   -1    0    0  501    0  0.00000000000E+00  0.00000000000E+00 -0.20950392609E+04  0.20950392609E+04  0.25500000920E-02 0.  1.
    10030    2    1    2    0    0  0.00000000000E+00  0.00000000000E+00 -0.92759414473E+03  0.32624843771E+04  0.31278384570E+04 0.  0.
        2    1    3    3  502    0  0.49044393939E+03  0.13246004987E+04 -0.11640709942E+04  0.18303450545E+04  0.25500000920E-02 0.  1.
       -2    1    3    3    0  502 -0.49044393939E+03 -0.13246004987E+04  0.23647684951E+03  0.14321393226E+04  0.25500000920E-02 0. -1.
</event>
<event>
 5   0  0.2094135E-06  0.3102735E+04  0.7818609E-02  0.8214988E-01
       -2   -1    0    0    0  501  0.00000000000E+00  0.00000000000E+00  0.11187891823E+04  0.11187891823E+04  0.25500000920E-02 0.  1.
        2   -1    0    0  501    0  0.00000000000E+00  0.00000000000E+00 -0.21512017387E+04  0.21512017387E+04  0.25500000920E-02 0. -1.
    10030    2    1    2    0    0  0.00000000000E+00  0.00000000000E+00 -0.10324125565E+04  0.32699909210E+04  0.31027350736E+04 0.  0.
        4    1    3    3  502    0 -0.34746110486E+03 -0.55905358670E+03  0.96432320390E+03  0.11675577016E+04  0.12699999809E+01 0.  1.
       -4    1    3    3    0  502  0.34746110486E+03  0.55905358670E+03 -0.19967357604E+04  0.21024332194E+04  0.12699999809E+01 0. -1.
</event>
<event>
 5   0  0.2078009E-06  0.3101155E+04  0.7818609E-02  0.8215421E-01
       -2   -1    0    0    0  501  0.00000000000E+00  0.00000000000E+00  0.11714105482E+04  0.11714105482E+04  0.25500000920E-02 0. -1.
        2   -1    0    0  501    0  0.00000000000E+00  0.00000000000E+00 -0.20524753823E+04  0.20524753824E+04  0.25500000920E-02 0.  1.
    10030    2    1    2    0    0  0.00000000000E+00  0.00000000000E+00 -0.88106483418E+03  0.32238859305E+04  0.31011554703E+04 0.  0.
        3    1    3    3  502    0  0.90481542046E+01 -0.19391683505E+03 -0.20397924364E+04  0.20490092245E+04  0.10100000352E+00 0.  1.
       -3    1    3    3    0  502 -0.90481542046E+01  0.19391683505E+03  0.11587276023E+04  0.11748767061E+04  0.10100000352E+00 0. -1.
</event>
<event>
 5   0  0.7561815E-07  0.3090246E+04  0.7818609E-02  0.8218420E-01
       -1   -1    0    0    0  501  0.00000000000E+00  0.00000000000E+00  0.97492239296E+03  0.97492239298E+03  0.50400001928E-02 0. -1.
        1   -1    0    0  501    0  0.00000000000E+00  0.00000000000E+00 -0.24488151370E+04  0.24488151370E+04  0.50400001928E-02 0.  1.
    10030    2    1    2    0    0  0.00000000000E+00  0.00000000000E+00 -0.14738927440E+04  0.34237375300E+04  0.30902457594E+04 0.  0.
        3    1    3    3  502    0  0.79571605506E+03  0.13240862171E+04 -0.77261292958E+03  0.17272229444E+04  0.10100000352E+00 0.  1.
       -3    1    3    3    0  502 -0.79571605506E+03 -0.13240862171E+04 -0.70127981446E+03  0.16965145856E+04  0.10100000352E+00 0. -1.
</event>
<event>
 5   0  0.2078009E-06  0.3035215E+04  0.7818609E-02  0.8233746E-01
        2   -1    0    0  501    0  0.00000000000E+00  0.00000000000E+00  0.19788061907E+04  0.19788061907E+04  0.25500000920E-02 0. -1.
       -2   -1    0    0    0  501  0.00000000000E+00  0.00000000000E+00 -0.11639002937E+04  0.11639002937E+04  0.25500000920E-02 0.  1.
    10030    2    1    2    0    0  0.00000000000E+00  0.00000000000E+00  0.81490589707E+03  0.31427064844E+04  0.30352153838E+04 0.  0.
        3    1    3    3  502    0  0.41310115940E+03 -0.14096686697E+03 -0.10975032374E+04  0.11811170948E+04  0.10100000352E+00 0.  1.
       -3    1    3    3    0  502 -0.41310115940E+03  0.14096686697E+03  0.19124091345E+04  0.19615893896E+04  0.10100000352E+00 0. -1.
</event>
<event>
 5   0  0.2133385E-06  0.3068877E+04  0.7818609E-02  0.8224332E-01
       -2   -1    0    0    0  501  0.00000000000E+00  0.00000000000E+00  0.12972774750E+04  0.12972774750E+04  0.25500000920E-02 0. -1.
        2   -1    0    0  501    0  0.00000000000E+00  0.00000000000E+00 -0.18149563839E+04  0.18149563839E+04  0.25500000920E-02 0.  1.
    10030    2    1    2    0    0  0.00000000000E+00  0.00000000000E+00 -0.51767890888E+03  0.31122338589E+04  0.30688773420E+04 0.  0.
        2    1    3    3  502    0  0.96662732770E+03  0.11808918299E+04 -0.42118902875E+03  0.15831216323E+04  0.25500000920E-02 0. -1.
       -2    1    3    3    0  502 -0.96662732770E+03 -0.11808918299E+04 -0.96489880129E+02  0.15291122266E+04  0.25500000920E-02 0.  1.
</event>
<event>
 5   0  0.7561815E-07  0.3046825E+04  0.7818609E-02  0.8230485E-01
       -1   -1    0    0    0  501  0.00000000000E+00  0.00000000000E+00  0.15297837042E+04  0.15297837042E+04  0.50400001928E-02 0.  1.
        1   -1    0    0  501    0  0.00000000000E+00  0.00000000000E+00 -0.15170682654E+04  0.15170682654E+04  0.50400001928E-02 0. -1.
    10030    2    1    2    0    0  0.00000000000E+00  0.00000000000E+00  0.12715438728E+02  0.30468519696E+04  0.30468254368E+04 0.  0.
        3    1    3    3  502    0 -0.12913633880E+04  0.18821242469E+03 -0.77961539906E+03  0.15201458802E+04  0.10100000352E+00 0. -1.
       -3    1    3    3    0  502  0.12913633880E+04 -0.18821242469E+03  0.79233083779E+03  0.15267060894E+04  0.10100000352E+00 0.  1.
</event>
<event>
 5   0  0.2226334E-06  0.3096389E+04  0.7818609E-02  0.8216729E-01
        2   -1    0    0  501    0  0.00000000000E+00  0.00000000000E+00  0.19201213760E+04  0.19201213760E+04  0.25500000920E-02 0.  1.
       -2   -1    0    0    0  501  0.00000000000E+00  0.00000000000E+00 -0.12483101001E+04  0.12483101001E+04  0.25500000920E-02 0. -1.
    10030    2    1    2    0    0  0.00000000000E+00  0.00000000000E+00  0.67181127585E+03  0.31684314761E+04  0.30963894504E+04 0.  0.
        5    1    3    3  502    0  0.41325960511E+03  0.14352758597E+04  0.75292221676E+03  0.16726369149E+04  0.46999998093E+01 0.  1.
       -5    1    3    3    0  502 -0.41325960511E+03 -0.14352758597E+04 -0.81110940908E+02  0.14957945612E+04  0.46999998093E+01 0. -1.
</event>
<event>
 5   0  0.6979625E-07  0.3081409E+04  0.7818609E-02  0.8220859E-01
        3   -1    0    0  501    0  0.00000000000E+00  0.00000000000E+00  0.14492238069E+04  0.14492238104E+04  0.10100000352E+00 0.  1.
       -3   -1    0    0    0  501  0.00000000000E+00  0.00000000000E+00 -0.16379602573E+04  0.16379602604E+04  0.10100000352E+00 0. -1.
    10030    2    1    2    0    0  0.00000000000E+00  0.00000000000E+00 -0.18873645041E+03  0.30871840708E+04  0.30814094242E+04 0.  0.
        4    1    3    3  502    0 -0.63179513497E+03  0.52901689975E+03  0.12098953125E+04  0.14638552705E+04  0.12699999809E+01 0.  1.
       -4    1    3    3    0  502  0.63179513497E+03 -0.52901689975E+03 -0.13986317629E+04  0.16233288003E+04  0.12699999809E+01 0. -1.
</event>
<event>
 5   0  0.2226334E-06  0.3098885E+04  0.7818609E-02  0.8216044E-01
       -2   -1    0    0    0  501  0.00000000000E+00  0.00000000000E+00  0.93442820092E+03  0.93442820092E+03  0.25500000920E-02 0.  1.
        2   -1    0    0  501    0  0.00000000000E+00  0.00000000000E+00 -0.25692410460E+04  0.25692410460E+04  0.25500000920E-02 0. -1.
    10030    2    1    2    0    0  0.00000000000E+00  0.00000000000E+00 -0.16348128451E+04  0.35036692470E+04  0.30988845015E+04 0.  0.
        5    1    3    3  502    0  0.89726699259E+02 -0.33136536657E+03 -0.25256929247E+04  0.25489214830E+04  0.46999998093E+01 0. -1.
       -5    1    3    3    0  502 -0.89726699259E+02  0.33136536657E+03  0.89088007954E+03  0.95474776399E+03  0.46999998093E+01 0.  1.
</event>
<event>
 5   0  0.2067926E-06  0.3097023E+04  0.7818609E-02  0.8216555E-01
       -2   -1    0    0    0  501  0.00000000000E+00  0.00000000000E+00  0.14102845774E+04  0.14102845775E+04  0.25500000920E-02 0. -1.
        2   -1    0    0  501    0  0.00000000000E+00  0.00000000000E+00 -0.17002867547E+04  0.17002867547E+04  0.25500000920E-02 0.  1.
    10030    2    1    2    0    0  0.00000000000E+00  0.00000000000E+00 -0.29000217724E+03  0.31105713321E+04  0.30970232078E+04 0.  0.
        1    1    3    3  502    0  0.98755256473E+03 -0.69899442966E+03 -0.11156837200E+04  0.16457835349E+04  0.50400001928E-02 0.  1.
       -1    1    3    3    0  502 -0.98755256473E+03  0.69899442966E+03  0.82568154273E+03  0.14647877972E+04  0.50400001928E-02 0. -1.
</event>
<event>
 5   0  0.2094135E-06  0.3103631E+04  0.7818609E-02  0.8214742E-01
       -2   -1    0    0    0  501  0.00000000000E+00  0.00000000000E+00  0.96553745668E+03  0.96553745668E+03  0.25500000920E-02 0. -1.
        2   -1    0    0  501    0  0.00000000000E+00  0.00000000000E+00 -0.24940831804E+04  0.24940831804E+04  0.25500000920E-02 0.  1.
    10030    2    1    2    0    0  0.00000000000E+00  0.00000000000E+00 -0.15285457238E+04  0.34596206371E+04  0.31036306035E+04 0.  0.
        4    1    3    3  502    0  0.73104135333E+03  0.98789688374E+03  0.29191304974E+03  0.12631613336E+04  0.12699999809E+01 0. -1.
       -4    1    3    3    0  502 -0.73104135333E+03 -0.98789688374E+03 -0.18204587735E+04  0.21964593035E+04  0.12699999809E+01 0.  1.
</event>
<event>
 5   0  0.7561815E-07  0.3108582E+04  0.7818609E-02  0.8213387E-01
       -1   -1    0    0    0  501  0.00000000000E+00  0.00000000000E+00  0.11483995345E+04  0.11483995345E+04  0.50400001928E-02 0.  1.
        1   -1    0    0  501    0  0.00000000000E+00  0.00000000000E+00 -0.21036414526E+04  0.21036414526E+04  0.50400001928E-02 0. -1.
    10030    2    1    2    0    0  0.00000000000E+00  0.00000000000E+00 -0.95524191811E+03  0.32520409870E+04  0.31085822266E+04 0.  0.
        3    1    3    3  502    0  0.10511338867E+04  0.78818476768E+03 -0.13464308667E+04  0.18812213492E+04  0.10100000352E+00 0. -1.
       -3    1    3    3    0  502 -0.10511338867E+04 -0.78818476768E+03  0.39118894863E+03  0.13708196378E+04  0.10100000352E+00 0.  1.
</event>
<event>
 5   0  0.7519202E-07  0.3080965E+04  0.7818609E-02  0.8220981E-01
       -1   -1    0    0    0  501  0.00000000000E+00  0.00000000000E+00  0.15566033983E+04  0.15566033983E+04  0.50400001928E-02 0.  1.
        1   -1    0    0  501    0  0.00000000000E+00  0.00000000000E+00 -0.15245281725E+04  0.15245281725E+04  0.50400001928E-02 0. -1.
    10030    2    1    2    0    0  0.00000000000E+00  0.00000000000E+00  0.32075225788E+02  0.30811315709E+04  0.30809646114E+04 0.  0.
        4    1    3    3  502    0  0.51188982498E+03  0.10654603099E+04 -0.97186573406E+03  0.15302815044E+04  0.12699999809E+01 0. -1.
       -4    1    3    3    0  502 -0.51188982498E+03 -0.10654603099E+04  0.10039409598E+04  0.15508500664E+04  0.12699999809E+01 0.  1.
</event>
<event>
 5   0  0.2067926E-06  0.3107809E+04  0.7818609E-02  0.8213598E-01
        2   -1    0    0  501    0  0.00000000000E+00  0.00000000000E+00  0.11558107438E+04  0.11558107438E+04  0.25500000920E-02 0.  1.
       -2   -1    0    0    0  501  0.00000000000E+00  0.00000000000E+00 -0.20891125797E+04  0.20891125797E+04  0.25500000920E-02 0. -1.
    10030    2    1    2    0    0  0.00000000000E+00  0.00000000000E+00 -0.93330183592E+03  0.32449233235E+04  0.31078087229E+04 0.  0.
        1    1    3    3  502    0 -0.62897138537E+03 -0.10312846268E+04 -0.14872559993E+04  0.19160071484E+04  0.50400001928E-02 0. -1.
       -1    1    3    3    0  502  0.62897138537E+03  0.10312846268E+04  0.55395416339E+03  0.13289161751E+04  0.50400001928E-02 0.  1.
</event>
<event>
 5   0  0.7726743E-07  0.3107745E+04  0.7818609E-02  0.8213616E-01
       -1   -1    0    0    0  501  0.00000000000E+00  0.00000000000E+00  0.17342738167E+04  0.17342738167E+04  0.50400001928E-02 0.  1.
        1   -1    0    0  501    0  0.00000000000E+00  0.00000000000E+00 -0.13922364654E+04  0.13922364654E+04  0.50400001928E-02 0. -1.
    10030    2    1    2    0    0  0.00000000000E+00  0.00000000000E+00  0.34203735129E+03  0.31265102820E+04  0.31077446797E+04 0.  0.
        1    1    3    3  502    0 -0.66529953679E+03  0.10762784262E+04  0.10784187002E+04  0.16625238697E+04  0.50400001928E-02 0.  1.
       -1    1    3    3    0  502  0.66529953679E+03 -0.10762784262E+04 -0.73638134895E+03  0.14639864123E+04  0.50400001928E-02 0. -1.
</event>
<event>
 5   0  0.2094135E-06  0.3082264E+04  0.7818609E-02  0.8220622E-01
        2   -1    0    0  501    0  0.00000000000E+00  0.00000000000E+00  0.19778696620E+04  0.19778696620E+04  0.25500000920E-02 0. -1.
       -2   -1    0    0    0  501  0.00000000000E+00  0.00000000000E+00 -0.12008314588E+04  0.12008314588E+04  0.25500000920E-02 0.  1.
    10030    2    1    2    0    0  0.00000000000E+00  0.00000000000E+00  0.77703820315E+03  0.31787011208E+04  0.30822641753E+04 0.  0.
        4    1    3    3  502    0  0.54716545713E+03 -0.13088663897E+04  0.10094923855E+04  0.17411484006E+04  0.12699999809E+01 0.  1.
       -4    1    3    3    0  502 -0.54716545713E+03  0.13088663897E+04 -0.23245418233E+03  0.14375527202E+04  0.12699999809E+01 0. -1.
</event>
<event>
 5   0  0.2078009E-06  0.3110157E+04  0.7818609E-02  0.8212956E-01
       -2   -1    0    0    0  501  0.00000000000E+00  0.00000000000E+00  0.16810535799E+04  0.16810535799E+04  0.25500000920E-02 0.  1.
        2   -1    0    0  501    0  0.00000000000E+00  0.00000000000E+00 -0.14385440592E+04  0.14385440592E+04  0.25500000920E-02 0. -1.
    10030    2    1    2    0    0  0.00000000000E+00  0.00000000000E+00  0.24250952066E+03  0.31195976391E+04  0.31101573211E+04 0.  0.
        3    1    3    3  502    0 -0.78287150846E+02 -0.51826288469E+02  0.16782081675E+04  0.16808323848E+04  0.10100000352E+00 0.  1.
       -3    1    3    3    0  502  0.78287150846E+02  0.51826288469E+02 -0.14356986468E+04  0.14387652543E+04  0.10100000352E+00 0. -1.
</event>
<event>
 5   0  0.2226334E-06  0.3098365E+04  0.7818609E-02  0.8216187E-01
        2   -1    0    0  501    0  0.00000000000E+00  0.00000000000E+00  0.19309420441E+04  0.19309420441E+04  0.25500000920E-02 0. -1.
       -2   -1    0    0    0  501  0.00000000000E+00  0.00000000000E+00 -0.12428990436E+04  0.12428990436E+04  0.25500000920E-02 0.  1.
    10030    2    1    2    0    0  0.00000000000E+00  0.00000000000E+00  0.68804300052E+03  0.31738410876E+04  0.30983647427E+04 0.  0.
        5    1    3    3  502    0 -0.54440051424E+03 -0.13250910768E+04  0.94805149992E+03  0.17178655413E+04  0.46999998093E+01 0. -1.
       -5    1    3    3    0  502  0.54440051424E+03  0.13250910768E+04 -0.26000849940E+03  0.14559755463E+04  0.46999998093E+01 0.  1.
</event>
<event>
 5   0  0.7519202E-07  0.3067176E+04  0.7818609E-02  0.8224804E-01
       -1   -1    0    0    0  501  0.00000000000E+00  0.00000000000E+00  0.73512090253E+03  0.73512090255E+03  0.50400001928E-02 0. -1.
        1   -1    0    0  501    0  0.00000000000E+00  0.00000000000E+00 -0.31993278652E+04  0.31993278652E+04  0.50400001928E-02 0.  1.
    10030    2    1    2    0    0  0.00000000000E+00  0.00000000000E+00 -0.24642069627E+04  0.39344487678E+04  0.30671764135E+04 0.  0.
        4    1    3    3  502    0 -0.88414607299E+03 -0.47206411186E+03  0.25685473573E+03  0.10346665029E+04  0.12699999809E+01 0. -1.
       -4    1    3    3    0  502  0.88414607299E+03  0.47206411186E+03 -0.27210616984E+04  0.28997822648E+04  0.12699999809E+01 0.  1.
</event>
<event>
 5   0  0.7519202E-07  0.3082102E+04  0.7818609E-02  0.8220667E-01
       -1   -1    0    0    0  501  0.00000000000E+00  0.00000000000E+00  0.88975884808E+03  0.88975884809E+03  0.50400001928E-02 0. -1.
        1   -1    0    0  501    0  0.00000000000E+00  0.00000000000E+00 -0.26690800746E+04  0.26690800746E+04  0.50400001928E-02 0.  1.
    10030    2    1    2    0    0  0.00000000000E+00  0.00000000000E+00 -0.17793212265E+04  0.35588389227E+04  0.30821016288E+04 0.  0.
        4    1    3    3  502    0  0.32473144239E+03 -0.54340091655E+03 -0.25120162190E+04  0.25905524822E+04  0.12699999809E+01 0.  1.
       -4    1    3    3    0  502 -0.32473144239E+03  0.54340091655E+03  0.73269499251E+03  0.96828644043E+03  0.12699999809E+01 0. -1.
</event>
<event>
 5   0  0.7726743E-07  0.3111830E+04  0.7818609E-02  0.8212499E-01
       -1   -1    0    0    0  501  0.00000000000E+00  0.00000000000E+00  0.27955872019E+04  0.27955872019E+04  0.50400001928E-02 0. -1.
        1   -1    0    0  501    0  0.00000000000E+00  0.00000000000E+00 -0.86596158024E+03  0.86596158026E+03  0.50400001928E-02 0.  1.
    10030    2    1    2    0    0  0.00000000000E+00  0.00000000000E+00  0.19296256216E+04  0.36615487821E+04  0.31118297582E+04 0.  0.
        1    1    3    3  502    0  0.21918528541E+02  0.13124239342E+04 -0.18193273033E+02  0.13127330270E+04  0.50400001928E-02 0.  1.
       -1    1    3    3    0  502 -0.21918528541E+02 -0.13124239342E+04  0.19478188947E+04  0.23488157551E+04  0.50400001928E-02 0. -1.
</event>
<event>
 5   0  0.2226334E-06  0.3129859E+04  0.7818609E-02  0.8207591E-01
       -2   -1    0    0    0  501  0.00000000000E+00  0.00000000000E+00  0.29978914603E+04  0.29978914603E+04  0.25500000920E-02 0. -1.
        2   -1    0    0  501    0  0.00000000000E+00  0.00000000000E+00 -0.81690879744E+03  0.81690879744E+03  0.25500000920E-02 0.  1.
    10030    2    1    2    0    0  0.00000000000E+00  0.00000000000E+00  0.21809826629E+04  0.38148002577E+04  0.31298587238E+04 0.  0.
        5    1    3    3  502    0 -0.26234824856E+03  0.13460993057E+04  0.20092192921E+04  0.24326516804E+04  0.46999998093E+01 0. -1.
       -5    1    3    3    0  502  0.26234824856E+03 -0.13460993057E+04  0.17176337075E+03  0.13821485773E+04  0.46999998093E+01 0.  1.
</event>
<event>
 5   0  0.2094135E-06  0.3195897E+04  0.7818609E-02  0.8189902E-01
       -2   -1    0    0    0  501  0.00000000000E+00  0.00000000000E+00  0.20844436083E+04  0.20844436083E+04  0.25500000920E-02 0.  1.
        2   -1    0    0  501    0  0.00000000000E+00  0.00000000000E+00 -0.12249978861E+04  0.12249978861E+04  0.25500000920E-02 0. -1.
    10030    2    1    2    0    0  0.00000000000E+00  0.00000000000E+00  0.85944572223E+03  0.33094414945E+04  0.31958967530E+04 0.  0.
        4    1    3    3  502    0 -0.10887073881E+04 -0.36528056274E+03  0.15803824624E+04  0.19535414013E+04  0.12699999809E+01 0.  1.
       -4    1    3    3    0  502  0.10887073881E+04  0.36528056274E+03 -0.72093674013E+03  0.13559000931E+04  0.12699999809E+01 0. -1.
</event>
<event>
 5   0  0.2067926E-06  0.3047408E+04  0.7818609E-02  0.8230321E-01
        2   -1    0    0  501    0  0.00000000000E+00  0.00000000000E+00  0.13647352366E+04  0.13647352366E+04  0.25500000920E-02 0. -1.
       -2   -1    0    0    0  501  0.00000000000E+00  0.00000000000E+00 -0.17011901590E+04  0.17011901590E+04  0.25500000920E-02 0.  1.
    10030    2    1    2    0    0  0.00000000000E+00  0.00000000000E+00 -0.33645492238E+03  0.30659253956E+04  0.30474081801E+04 0.  0.
        1    1    3    3  502    0  0.29362055425E+03  0.64592299931E+03  0.11883890778E+04  0.13840874796E+04  0.50400001928E-02 0. -1.
       -1    1    3    3    0  502 -0.29362055425E+03 -0.64592299931E+03 -0.15248440001E+04  0.16818379160E+04  0.50400001928E-02 0.  1.
</event>
<event>
 5   0  0.2067926E-06  0.3105263E+04  0.7818609E-02  0.8214295E-01
        2   -1    0    0  501    0  0.00000000000E+00  0.00000000000E+00  0.18185713627E+04  0.18185713627E+04  0.25500000920E-02 0.  1.
       -2   -1    0    0    0  501  0.00000000000E+00  0.00000000000E+00 -0.13255818568E+04  0.13255818568E+04  0.25500000920E-02 0. -1.
    10030    2    1    2    0    0  0.00000000000E+00  0.00000000000E+00  0.49298950584E+03  0.31441532195E+04  0.31052634051E+04 0.  0.
        1    1    3    3  502    0 -0.43956244879E+03 -0.38814767163E+02  0.17537423325E+04  0.18084064536E+04  0.50400001928E-02 0.  1.
       -1    1    3    3    0  502  0.43956244879E+03  0.38814767163E+02 -0.12607528267E+04  0.13357467659E+04  0.50400001928E-02 0. -1.
</event>
<event>
 5   0  0.7656332E-07  0.3083697E+04  0.7818609E-02  0.8220226E-01
        1   -1    0    0  501    0  0.00000000000E+00  0.00000000000E+00  0.17539813324E+04  0.17539813324E+04  0.50400001928E-02 0. -1.
       -1   -1    0    0    0  501  0.00000000000E+00  0.00000000000E+00 -0.13553716767E+04  0.13553716768E+04  0.50400001928E-02 0.  1.
    10030    2    1    2    0    0  0.00000000000E+00  0.00000000000E+00  0.39860965562E+03  0.31093530091E+04  0.30836968849E+04 0.  0.
        2    1    3    3  502    0 -0.36117586296E+03  0.31841432097E+03 -0.12776208953E+04  0.13653390919E+04  0.25500000920E-02 0.  1.
       -2    1    3    3    0  502  0.36117586296E+03 -0.31841432097E+03  0.16762305509E+04  0.17440139172E+04  0.25500000920E-02 0. -1.
</event>
<event>
 5   0  0.7413481E-07  0.3069286E+04  0.7818609E-02  0.8224218E-01
       -1   -1    0    0    0  501  0.00000000000E+00  0.00000000000E+00  0.78748973953E+03  0.78748973955E+03  0.50400001928E-02 0. -1.
        1   -1    0    0  501    0  0.00000000000E+00  0.00000000000E+00 -0.29906796378E+04  0.29906796378E+04  0.50400001928E-02 0.  1.
    10030    2    1    2    0    0  0.00000000000E+00  0.00000000000E+00 -0.22031898983E+04  0.37781693774E+04  0.30692862552E+04 0.  0.
        5    1    3    3  502    0  0.63709043021E+02 -0.36308849266E+03  0.73217035905E+03  0.81974851042E+03  0.46999998093E+01 0. -1.
       -5    1    3    3    0  502 -0.63709043021E+02  0.36308849266E+03 -0.29353602574E+04  0.29584208670E+04  0.46999998093E+01 0.  1.
</event>
<event>
 5   0  0.2226334E-06  0.3090178E+04  0.7818609E-02  0.8218439E-01
        2   -1    0    0  501    0  0.00000000000E+00  0.00000000000E+00  0.16095539730E+04  0.16095539730E+04  0.25500000920E-02 0.  1.
       -2   -1    0    0    0  501  0.00000000000E+00  0.00000000000E+00 -0.14832062847E+04  0.14832062847E+04  0.25500000920E-02 0. -1.
    10030    2    1    2    0    0  0.00000000000E+00  0.00000000000E+00  0.12634768827E+03  0.30927602578E+04  0.30901783563E+04 0.  0.
        5    1    3    3  502    0 -0.38151648795E+03  0.41188356895E+03  0.15038471365E+04  0.16052355606E+04  0.46999998093E+01 0.  1.
       -5    1    3    3    0  502  0.38151648795E+03 -0.41188356895E+03 -0.13774994482E+04  0.14875246972E+04  0.46999998093E+01 0. -1.
</event>
<event>
 5   0  0.7519202E-07  0.2953680E+04  0.7818609E-02  0.8257083E-01
        1   -1    0    0  501    0  0.00000000000E+00  0.00000000000E+00  0.15255586886E+04  0.15255586886E+04  0.50400001928E-02 0.  1.
       -1   -1    0    0    0  501  0.00000000000E+00  0.00000000000E+00 -0.14296773598E+04  0.14296773598E+04  0.50400001928E-02 0. -1.
    10030    2    1    2    0    0  0.00000000000E+00  0.00000000000E+00  0.95881328857E+02  0.29552360484E+04  0.29536802251E+04 0.  0.
        4    1    3    3  502    0 -0.58302237292E+03 -0.12285536051E+04  0.62426148683E+03  0.14963164988E+04  0.12699999809E+01 0.  1.
       -4    1    3    3    0  502  0.58302237292E+03  0.12285536051E+04 -0.52838015798E+03  0.14589195496E+04  0.12699999809E+01 0. -1.
</event>
<event>
 5   0  0.2133385E-06  0.3078167E+04  0.7818609E-02  0.8221755E-01
        2   -1    0    0  501    0  0.00000000000E+00  0.00000000000E+00  0.19009340785E+04  0.19009340785E+04  0.25500000920E-02 0. -1.
       -2   -1    0    0    0  501  0.00000000000E+00  0.00000000000E+00 -0.12461124806E+04  0.12461124806E+04  0.25500000920E-02 0.  1.
    10030    2    1    2    0    0  0.00000000000E+00  0.00000000000E+00  0.65482159785E+03  0.31470465591E+04  0.30781667791E+04 0.  0.
        2    1    3    3  502    0 -0.14907983322E+04  0.38028367201E+03  0.28547662178E+03  0.15647978272E+04  0.25500000920E-02 0.  1.
       -2    1    3    3    0  502  0.14907983322E+04 -0.38028367201E+03  0.36934497607E+03  0.15822487319E+04  0.25500000920E-02 0. -1.
</event>
<event>
 5   0  0.7726743E-07  0.3179673E+04  0.7818609E-02  0.8194206E-01
       -1   -1    0    0    0  501  0.00000000000E+00  0.00000000000E+00  0.12488127276E+04  0.12488127276E+04  0.50400001928E-02 0.  1.
        1   -1    0    0  501    0  0.00000000000E+00  0.00000000000E+00 -0.20239861090E+04  0.20239861090E+04  0.50400001928E-02 0. -1.
    10030    2    1    2    0    0  0.00000000000E+00  0.00000000000E+00 -0.77517338142E+03  0.32727988366E+04  0.31796726960E+04 0.  0.
        1    1    3    3  502    0  0.28799389284E+03 -0.30787297889E+03 -0.19654060313E+04  0.20101112211E+04  0.50400001928E-02 0. -1.
       -1    1    3    3    0  502 -0.28799389284E+03  0.30787297889E+03  0.11902326499E+04  0.12626876155E+04  0.50400001928E-02 0.  1.
</event>
<event>
 5   0  0.2078009E-06  0.3028093E+04  0.7818609E-02  0.8235754E-01
        2   -1    0    0  501    0  0.00000000000E+00  0.00000000000E+00  0.23673846352E+04  0.23673846352E+04  0.25500000920E-02 0. -1.
       -2   -1    0    0    0  501  0.00000000000E+00  0.00000000000E+00 -0.96829899007E+03  0.96829899007E+03  0.25500000920E-02 0.  1.
    10030    2    1    2    0    0  0.00000000000E+00  0.00000000000E+00  0.13990856452E+04  0.33356836253E+04  0.30280925689E+04 0.  0.
        3    1    3    3  502    0 -0.14933602889E+03  0.61639364909E+03  0.22140013324E+04  0.23030510829E+04  0.10100000352E+00 0. -1.
       -3    1    3    3    0  502  0.14933602889E+03 -0.61639364909E+03 -0.81491568725E+03  0.10326325424E+04  0.10100000352E+00 0.  1.
</event>
<event>
 5   0  0.2226334E-06  0.3092156E+04  0.7818609E-02  0.8217894E-01
        2   -1    0    0  501    0  0.00000000000E+00  0.00000000000E+00  0.19130433671E+04  0.19130433671E+04  0.25500000920E-02 0.  1.
       -2   -1    0    0    0  501  0.00000000000E+00  0.00000000000E+00 -0.12495052592E+04  0.12495052592E+04  0.25500000920E-02 0. -1.
    10030    2    1    2    0    0  0.00000000000E+00  0.00000000000E+00  0.66353810797E+03  0.31625486263E+04  0.30921563662E+04 0.  0.
        5    1    3    3  502    0 -0.13740150342E+04 -0.22723262859E+03  0.10184576815E+04  0.17253492750E+04  0.46999998093E+01 0.  1.
       -5    1    3    3    0  502  0.13740150342E+04  0.22723262859E+03 -0.35491957351E+03  0.14371993513E+04  0.46999998093E+01 0. -1.
</event>
<event>
 5   0  0.7726743E-07  0.3090852E+04  0.7818609E-02  0.8218253E-01
        1   -1    0    0  501    0  0.00000000000E+00  0.00000000000E+00  0.27483003598E+04  0.27483003598E+04  0.50400001928E-02 0. -1.
       -1   -1    0    0    0  501  0.00000000000E+00  0.00000000000E+00 -0.86902514932E+03  0.86902514933E+03  0.50400001928E-02 0.  1.
    10030    2    1    2    0    0  0.00000000000E+00  0.00000000000E+00  0.18792752105E+04  0.36173255091E+04  0.30908523941E+04 0.  0.
        1    1    3    3  502    0 -0.11125388408E+04 -0.87670027123E+03  0.16629714495E+04  0.21844496057E+04  0.50400001928E-02 0. -1.
       -1    1    3    3    0  502  0.11125388408E+04  0.87670027123E+03  0.21630376098E+03  0.14328759035E+04  0.50400001928E-02 0.  1.
</event>
<event>
 5   0  0.7519202E-07  0.3089773E+04  0.7818609E-02  0.8218550E-01
        1   -1    0    0  501    0  0.00000000000E+00  0.00000000000E+00  0.16588556613E+04  0.16588556613E+04  0.50400001928E-02 0.  1.
       -1   -1    0    0    0  501  0.00000000000E+00  0.00000000000E+00 -0.14387471935E+04  0.14387471935E+04  0.50400001928E-02 0. -1.
    10030    2    1    2    0    0  0.00000000000E+00  0.00000000000E+00  0.22010846781E+03  0.30976028548E+04  0.30897727600E+04 0.  0.
        4    1    3    3  502    0 -0.74841131666E+02  0.53747346553E+03 -0.13400529665E+04  0.14457601762E+04  0.12699999809E+01 0. -1.
       -4    1    3    3    0  502  0.74841131666E+02 -0.53747346553E+03  0.15601614343E+04  0.16518426787E+04  0.12699999809E+01 0.  1.
</event>
<event>
 5   0  0.6979625E-07  0.3102663E+04  0.7818609E-02  0.8215007E-01
       -3   -1    0    0    0  501  0.00000000000E+00  0.00000000000E+00  0.15303823174E+04  0.15303823207E+04  0.10100000352E+00 0. -1.
        3   -1    0    0  501    0  0.00000000000E+00  0.00000000000E+00 -0.15725676671E+04  0.15725676704E+04  0.10100000352E+00 0.  1.
    10030    2    1    2    0    0  0.00000000000E+00  0.00000000000E+00 -0.42185349762E+02  0.31029499911E+04  0.31026632179E+04 0.  0.
        2    1    3    3  502    0 -0.10336424492E+04  0.36098030429E+03  0.10780567995E+04  0.15365317947E+04  0.25500000920E-02 0. -1.
       -2    1    3    3    0  502  0.10336424492E+04 -0.36098030429E+03 -0.11202421493E+04  0.15664181964E+04  0.25500000920E-02 0.  1.
</event>
<event>
 5   0  0.7413481E-07  0.3063039E+04  0.7818609E-02  0.8225955E-01
       -1   -1    0    0    0  501  0.00000000000E+00  0.00000000000E+00  0.17815447291E+04  0.17815447291E+04  0.50400001928E-02 0.  1.
        1   -1    0    0  501    0  0.00000000000E+00  0.00000000000E+00 -0.13165829641E+04  0.13165829642E+04  0.50400001928E-02 0. -1.
    10030    2    1    2    0    0  0.00000000000E+00  0.00000000000E+00  0.46496176493E+03  0.30981276932E+04  0.30630386483E+04 0.  0.
        5    1    3    3  502    0 -0.17883089899E+03 -0.41685976655E+03 -0.12470739810E+04  0.13270147548E+04  0.46999998093E+01 0. -1.
       -5    1    3    3    0  502  0.17883089899E+03  0.41685976655E+03  0.17120357459E+04  0.17711129384E+04  0.46999998093E+01 0.  1.
</event>
<event>
 5   0  0.2226334E-06  0.3114063E+04  0.7818609E-02  0.8211889E-01
       -2   -1    0    0    0  501  0.00000000000E+00  0.00000000000E+00  0.20495815045E+04  0.20495815045E+04  0.25500000920E-02 0.  1.
        2   -1    0    0  501    0  0.00000000000E+00  0.00000000000E+00 -0.11828495443E+04  0.11828495443E+04  0.25500000920E-02 0. -1.
    10030    2    1    2    0    0  0.00000000000E+00  0.00000000000E+00  0.86673196018E+03  0.32324310489E+04  0.31140626511E+04 0.  0.
        5    1    3    3  502    0  0.63812559142E+03  0.87303835898E+03 -0.72944914774E+03  0.13044226293E+04  0.46999998093E+01 0. -1.
       -5    1    3    3    0  502 -0.63812559142E+03 -0.87303835898E+03  0.15961811079E+04  0.19280084196E+04  0.46999998093E+01 0.  1.
</event>
<event>
 5   0  0.2226334E-06  0.3058349E+04  0.7818609E-02  0.8227262E-01
        2   -1    0    0  501    0  0.00000000000E+00  0.00000000000E+00  0.15821208135E+04  0.15821208135E+04  0.25500000920E-02 0.  1.
       -2   -1    0    0    0  501  0.00000000000E+00  0.00000000000E+00 -0.14780003964E+04  0.14780003964E+04  0.25500000920E-02 0. -1.
    10030    2    1    2    0    0  0.00000000000E+00  0.00000000000E+00  0.10412041715E+03  0.30601212099E+04  0.30583493519E+04 0.  0.
        5    1    3    3  502    0  0.17032259695E+03 -0.14000424802E+04 -0.53923424450E+03  0.15099418512E+04  0.46999998093E+01 0. -1.
       -5    1    3    3    0  502 -0.17032259695E+03  0.14000424802E+04  0.64335466165E+03  0.15501793587E+04  0.46999998093E+01 0.  1.
</event>
<event>
 5   0  0.2078009E-06  0.3096053E+04  0.7818609E-02  0.8216822E-01
        2   -1    0    0  501    0  0.00000000000E+00  0.00000000000E+00  0.21401647659E+04  0.21401647659E+04  0.25500000920E-02 0. -1.
       -2   -1    0    0    0  501  0.00000000000E+00  0.00000000000E+00 -0.11197202413E+04  0.11197202413E+04  0.25500000920E-02 0.  1.
    10030    2    1    2    0    0  0.00000000000E+00  0.00000000000E+00  0.10204445246E+04  0.32598850072E+04  0.30960528472E+04 0.  0.
        3    1    3    3  502    0  0.12686016148E+04  0.84251791409E+03  0.21767191942E+03  0.15383652256E+04  0.10100000352E+00 0. -1.
       -3    1    3    3    0  502 -0.12686016148E+04 -0.84251791409E+03  0.80277260514E+03  0.17215197816E+04  0.10100000352E+00 0.  1.
</event>
<event>
 5   0  0.2226334E-06  0.3144018E+04  0.7818609E-02  0.8203760E-01
        2   -1    0    0  501    0  0.00000000000E+00  0.00000000000E+00  0.15593430836E+04  0.15593430836E+04  0.25500000920E-02 0.  1.
       -2   -1    0    0    0  501  0.00000000000E+00  0.00000000000E+00 -0.15847782429E+04  0.15847782429E+04  0.25500000920E-02 0. -1.
    10030    2    1    2    0    0  0.00000000000E+00  0.00000000000E+00 -0.25435159303E+02  0.31441213265E+04  0.31440184428E+04 0.  0.
        5    1    3    3  502    0 -0.61507842666E+03 -0.73985621121E+03 -0.12559325117E+04  0.15821179628E+04  0.46999998093E+01 0. -1.
       -5    1    3    3    0  502  0.61507842666E+03  0.73985621121E+03  0.12304973524E+04  0.15620033638E+04  0.46999998093E+01 0.  1.
</event>
<event>
 5   0  0.7656332E-07  0.3124550E+04  0.7818609E-02  0.8209033E-01
        1   -1    0    0  501    0  0.00000000000E+00  0.00000000000E+00  0.16574517052E+04  0.16574517052E+04  0.50400001928E-02 0.  1.
       -1   -1    0    0    0  501  0.00000000000E+00  0.00000000000E+00 -0.14725632793E+04  0.14725632793E+04  0.50400001928E-02 0. -1.
    10030    2    1    2    0    0  0.00000000000E+00  0.00000000000E+00  0.18488842596E+03  0.31300149845E+04  0.31245495792E+04 0.  0.
        2    1    3    3  502    0 -0.45177912663E+03 -0.14934342791E+04  0.17165333273E+03  0.15696863355E+04  0.25500000920E-02 0.  1.
       -2    1    3    3    0  502  0.45177912663E+03  0.14934342791E+04  0.13235093228E+02  0.15603286490E+04  0.25500000920E-02 0. -1.
</event>
<event>
 5   0  0.2078009E-06  0.3023774E+04  0.7818609E-02  0.8236975E-01
        2   -1    0    0  501    0  0.00000000000E+00  0.00000000000E+00  0.25072703703E+04  0.25072703703E+04  0.25500000920E-02 0. -1.
       -2   -1    0    0    0  501  0.00000000000E+00  0.00000000000E+00 -0.91166939401E+03  0.91166939402E+03  0.25500000920E-02 0.  1.
    10030    2    1    2    0    0  0.00000000000E+00  0.00000000000E+00  0.15956009763E+04  0.34189397643E+04  0.30237735756E+04 0.  0.
        3    1    3    3  502    0 -0.17219367666E+03 -0.98837300640E+02 -0.89686507372E+03  0.91857849144E+03  0.10100000352E+00 0.  1.
       -3    1    3    3    0  502  0.17219367666E+03  0.98837300640E+02  0.24924660500E+04  0.25003612729E+04  0.10100000352E+00 0. -1.
</event>
<event>
 5   0  0.2094135E-06  0.3195147E+04  0.7818609E-02  0.8190100E-01
        2   -1    0    0  501    0  0.00000000000E+00  0.00000000000E+00  0.12308539191E+04  0.12308539191E+04  0.25500000920E-02 0.  1.
       -2   -1    0    0    0  501  0.00000000000E+00  0.00000000000E+00 -0.20735525697E+04  0.20735525697E+04  0.25500000920E-02 0. -1.
    10030    2    1    2    0    0  0.00000000000E+00  0.00000000000E+00 -0.84269865057E+03  0.33044064888E+04  0.31951465111E+04 0.  0.
        4    1    3    3  502    0  0.14998791144E+04 -0.53745002014E+03 -0.54261427107E+03  0.16831285578E+04  0.12699999809E+01 0. -1.
       -4    1    3    3    0  502 -0.14998791144E+04  0.53745002014E+03 -0.30008437950E+03  0.16212779310E+04  0.12699999809E+01 0.  1.
</event>
<event>
 5   0  0.2078009E-06  0.3103141E+04  0.7818609E-02  0.8214877E-01
        2   -1    0    0  501    0  0.00000000000E+00  0.00000000000E+00  0.19700674776E+04  0.19700674776E+04  0.25500000920E-02 0. -1.
       -2   -1    0    0    0  501  0.00000000000E+00  0.00000000000E+00 -0.12219736120E+04  0.12219736120E+04  0.25500000920E-02 0.  1.
    10030    2    1    2    0    0  0.00000000000E+00  0.00000000000E+00  0.74809386563E+03  0.31920410897E+04  0.31031406488E+04 0.  0.
        3    1    3    3  502    0 -0.71092512927E+03  0.13779794042E+04  0.43158401565E+03  0.16095050638E+04  0.10100000352E+00 0.  1.
       -3    1    3    3    0  502  0.71092512927E+03 -0.13779794042E+04  0.31650984998E+03  0.15825360258E+04  0.10100000352E+00 0. -1.
</event>
<event>
 5   0  0.7656332E-07  0.3102928E+04  0.7818609E-02  0.8214935E-01
        1   -1    0    0  501    0  0.00000000000E+00  0.00000000000E+00  0.11621091256E+04  0.11621091256E+04  0.50400001928E-02 0. -1.
       -1   -1    0    0    0  501  0.00000000000E+00  0.00000000000E+00 -0.20712690189E+04  0.20712690189E+04  0.50400001928E-02 0.  1.
    10030    2    1    2    0    0  0.00000000000E+00  0.00000000000E+00 -0.90915989332E+03  0.32333781446E+04  0.31029280549E+04 0.  0.
        2    1    3    3  502    0 -0.62408576250E+03  0.51345987772E+03 -0.18346122573E+04  0.20047259712E+04  0.25500000920E-02 0.  1.
       -2    1    3    3    0  502  0.62408576250E+03 -0.51345987772E+03  0.92545236401E+03  0.12286521733E+04  0.25500000920E-02 0. -1.
</event>
<event>
 5   0  0.2133385E-06  0.3077895E+04  0.7818609E-02  0.8221831E-01
       -2   -1    0    0    0  501  0.00000000000E+00  0.00000000000E+00  0.20886738493E+04  0.20886738493E+04  0.25500000920E-02 0.  1.
        2   -1    0    0  501    0  0.00000000000E+00  0.00000000000E+00 -0.11339056910E+04  0.11339056910E+04  0.25500000920E-02 0. -1.
    10030    2    1    2    0    0  0.00000000000E+00  0.00000000000E+00  0.95476815829E+03  0.32225795402E+04  0.30778948418E+04 0.  0.
        2    1    3    3  502    0 -0.24607122462E+02  0.13953277340E+04  0.11565799619E+04  0.18125181941E+04  0.25500000920E-02 0.  1.
       -2    1    3    3    0  502  0.24607122462E+02 -0.13953277340E+04 -0.20181180366E+03  0.14100613461E+04  0.25500000920E-02 0. -1.
</event>
<event>
 5   0  0.7519202E-07  0.3114073E+04  0.7818609E-02  0.8211886E-01
        1   -1    0    0  501    0  0.00000000000E+00  0.00000000000E+00  0.16671655789E+04  0.16671655789E+04  0.50400001928E-02 0.  1.
       -1   -1    0    0    0  501  0.00000000000E+00  0.00000000000E+00 -0.14541819374E+04  0.14541819374E+04  0.50400001928E-02 0. -1.
    10030    2    1    2    0    0  0.00000000000E+00  0.00000000000E+00  0.21298364154E+03  0.31213475163E+04  0.31140726205E+04 0.  0.
        4    1    3    3  502    0 -0.96997325790E+03 -0.17645064574E+03 -0.11014698239E+04  0.14782490782E+04  0.12699999809E+01 0. -1.
       -4    1    3    3    0  502  0.96997325790E+03  0.17645064574E+03  0.13144534655E+04  0.16430984381E+04  0.12699999809E+01 0.  1.
</event>
<event>
 5   0  0.7519202E-07  0.3115788E+04  0.7818609E-02  0.8211418E-01
        1   -1    0    0  501    0  0.00000000000E+00  0.00000000000E+00  0.22805537557E+04  0.22805537557E+04  0.50400001928E-02 0.  1.
       -1   -1    0    0    0  501  0.00000000000E+00  0.00000000000E+00 -0.10642298558E+04  0.10642298559E+04  0.50400001928E-02 0. -1.
    10030    2    1    2    0    0  0.00000000000E+00  0.00000000000E+00  0.12163238999E+04  0.33447836116E+04  0.31157877943E+04 0.  0.
        4    1    3    3  502    0  0.10012572352E+04 -0.23675126522E+03  0.18639516994E+04  0.21290572475E+04  0.12699999809E+01 0.  1.
       -4    1    3    3    0  502 -0.10012572352E+04  0.23675126522E+03 -0.64762779957E+03  0.12157263640E+04  0.12699999809E+01 0. -1.
</event>
<event>
 5   0  0.2094135E-06  0.2855246E+04  0.7818609E-02  0.8286319E-01
        2   -1    0    0  501    0  0.00000000000E+00  0.00000000000E+00  0.23935385120E+04  0.23935385120E+04  0.25500000920E-02 0.  1.
       -2   -1    0    0    0  501  0.00000000000E+00  0.00000000000E+00 -0.85150366053E+03  0.85150366053E+03  0.25500000920E-02 0. -1.
    10030    2    1    2    0    0  0.00000000000E+00  0.00000000000E+00  0.15420348515E+04  0.32450421725E+04  0.28552455618E+04 0.  0.
        4    1    3    3  502    0 -0.89132067345E+03  0.10460330774E+04  0.12104074499E+04  0.18313179815E+04  0.12699999809E+01 0.  1.
       -4    1    3    3    0  502  0.89132067345E+03 -0.10460330774E+04  0.33162740160E+03  0.14137241910E+04  0.12699999809E+01 0. -1.
</event>
<event>
 5   0  0.7561815E-07  0.3103709E+04  0.7818609E-02  0.8214721E-01
       -1   -1    0    0    0  501  0.00000000000E+00  0.00000000000E+00  0.13244225582E+04  0.13244225582E+04  0.50400001928E-02 0. -1.
        1   -1    0    0  501    0  0.00000000000E+00  0.00000000000E+00 -0.18183415321E+04  0.18183415321E+04  0.50400001928E-02 0.  1.
    10030    2    1    2    0    0  0.00000000000E+00  0.00000000000E+00 -0.49391897386E+03  0.31427640903E+04  0.31037090995E+04 0.  0.
        3    1    3    3  502    0  0.99447601745E+03  0.14811262369E+03  0.95000336943E+03  0.13832665364E+04  0.10100000352E+00 0. -1.
       -3    1    3    3    0  502 -0.99447601745E+03 -0.14811262369E+03 -0.14439223433E+04  0.17594975539E+04  0.10100000352E+00 0.  1.
</event>
<event>
 5   0  0.7656332E-07  0.3090525E+04  0.7818609E-02  0.8218343E-01
       -1   -1    0    0    0  501  0.00000000000E+00  0.00000000000E+00  0.12621773606E+04  0.12621773606E+04  0.50400001928E-02 0.  1.
        1   -1    0    0  501    0  0.00000000000E+00  0.00000000000E+00 -0.18918391139E+04  0.18918391139E+04  0.50400001928E-02 0. -1.
    10030    2    1    2    0    0  0.00000000000E+00  0.00000000000E+00 -0.62966175335E+03  0.31540164745E+04  0.30905251977E+04 0.  0.
        2    1    3    3  502    0 -0.13729408005E+04  0.64954543242E+03 -0.24449316423E+02  0.15190370238E+04  0.25500000920E-02 0.  1.
       -2    1    3    3    0  502  0.13729408005E+04 -0.64954543242E+03 -0.60521243693E+03  0.16349794507E+04  0.25500000920E-02 0. -1.
</event>
<event>
 5   0  0.2067926E-06  0.3099008E+04  0.7818609E-02  0.8216010E-01
       -2   -1    0    0    0  501  0.00000000000E+00  0.00000000000E+00  0.11359530323E+04  0.11359530323E+04  0.25500000920E-02 0. -1.
        2   -1    0    0  501    0  0.00000000000E+00  0.00000000000E+00 -0.21136111736E+04  0.21136111736E+04  0.25500000920E-02 0.  1.
    10030    2    1    2    0    0  0.00000000000E+00  0.00000000000E+00 -0.97765814129E+03  0.32495642060E+04  0.30990082426E+04 0.  0.
        1    1    3    3  502    0 -0.10643404657E+02 -0.27296527851E+03 -0.20881622855E+04  0.21059546661E+04  0.50400001928E-02 0.  1.
       -1    1    3    3    0  502  0.10643404657E+02  0.27296527851E+03  0.11105041442E+04  0.11436095398E+04  0.50400001928E-02 0. -1.
</event>
<event>
 5   0  0.2078009E-06  0.3093573E+04  0.7818609E-02  0.8217504E-01
        2   -1    0    0  501    0  0.00000000000E+00  0.00000000000E+00  0.10653054555E+04  0.10653054555E+04  0.25500000920E-02 0. -1.
       -2   -1    0    0    0  501  0.00000000000E+00  0.00000000000E+00 -0.22458807607E+04  0.22458807607E+04  0.25500000920E-02 0.  1.
    10030    2    1    2    0    0  0.00000000000E+00  0.00000000000E+00 -0.11805753053E+04  0.33111862162E+04  0.30935733557E+04 0.  0.
        3    1    3    3  502    0  0.35185728117E+02 -0.13787083142E+04  0.15931539560E+03  0.13883285118E+04  0.10100000352E+00 0. -1.
       -3    1    3    3    0  502 -0.35185728117E+02  0.13787083142E+04 -0.13398907009E+04  0.19228577044E+04  0.10100000352E+00 0.  1.
</event>
<event>
 5   0  0.2094135E-06  0.3108906E+04  0.7818609E-02  0.8213298E-01
        2   -1    0    0  501    0  0.00000000000E+00  0.00000000000E+00  0.17090297223E+04  0.17090297223E+04  0.25500000920E-02 0. -1.
       -2   -1    0    0    0  501  0.00000000000E+00  0.00000000000E+00 -0.14138571911E+04  0.14138571911E+04  0.25500000920E-02 0.  1.
    10030    2    1    2    0    0  0.00000000000E+00  0.00000000000E+00  0.29517253116E+03  0.31228869134E+04  0.31089058928E+04 0.  0.
        4    1    3    3  502    0 -0.24303771041E+03  0.78643689379E+03 -0.11769687602E+04  0.14362476778E+04  0.12699999809E+01 0.  1.
       -4    1    3    3    0  502  0.24303771041E+03 -0.78643689379E+03  0.14721412913E+04  0.16866392356E+04  0.12699999809E+01 0. -1.
</event>
<event>
 5   0  0.7726743E-07  0.3083980E+04  0.7818609E-02  0.8220148E-01
        1   -1    0    0  501    0  0.00000000000E+00  0.00000000000E+00  0.23084974156E+04  0.23084974156E+04  0.50400001928E-02 0. -1.
       -1   -1    0    0    0  501  0.00000000000E+00  0.00000000000E+00 -0.10299914140E+04  0.10299914140E+04  0.50400001928E-02 0.  1.
    10030    2    1    2    0    0  0.00000000000E+00  0.00000000000E+00  0.12785060016E+04  0.33384888296E+04  0.30839795831E+04 0.  0.
        1    1    3    3  502    0  0.10460275040E+04 -0.65883652848E+03  0.16369954264E+04  0.20513393518E+04  0.50400001928E-02 0. -1.
       -1    1    3    3    0  502 -0.10460275040E+04  0.65883652848E+03 -0.35848942481E+03  0.12871494777E+04  0.50400001928E-02 0.  1.
</event>
<event>
 5   0  0.2094135E-06  0.3091425E+04  0.7818609E-02  0.8218095E-01
       -2   -1    0    0    0  501  0.00000000000E+00  0.00000000000E+00  0.10611801096E+04  0.10611801096E+04  0.25500000920E-02 0.  1.
        2   -1    0    0  501    0  0.00000000000E+00  0.00000000000E+00 -0.22514815108E+04  0.22514815108E+04  0.25500000920E-02 0. -1.
    10030    2    1    2    0    0  0.00000000000E+00  0.00000000000E+00 -0.11903014013E+04  0.33126616204E+04  0.30914251706E+04 0.  0.
        4    1    3    3  502    0  0.13033756712E+04  0.73506402048E+03 -0.17997159656E+03  0.15071491774E+04  0.12699999809E+01 0.  1.
       -4    1    3    3    0  502 -0.13033756712E+04 -0.73506402048E+03 -0.10103298047E+04  0.18055124430E+04  0.12699999809E+01 0. -1.
</event>
<event>
 5   0  0.7561815E-07  0.3111791E+04  0.7818609E-02  0.8212509E-01
       -1   -1    0    0    0  501  0.00000000000E+00  0.00000000000E+00  0.18905387939E+04  0.18905387939E+04  0.50400001928E-02 0. -1.
        1   -1    0    0  501    0  0.00000000000E+00  0.00000000000E+00 -0.12804873571E+04  0.12804873572E+04  0.50400001928E-02 0.  1.
    10030    2    1    2    0    0  0.00000000000E+00  0.00000000000E+00  0.61005143676E+03  0.31710261511E+04  0.31117911394E+04 0.  0.
        3    1    3    3  502    0  0.99110256472E+03 -0.92708558667E+03  0.10804569783E+04  0.17346928463E+04  0.10100000352E+00 0. -1.
       -3    1    3    3    0  502 -0.99110256472E+03  0.92708558667E+03 -0.47040554150E+03  0.14363333048E+04  0.10100000352E+00 0.  1.
</event>
<event>
 5   0  0.2078009E-06  0.3105410E+04  0.7818609E-02  0.8214255E-01
       -2   -1    0    0    0  501  0.00000000000E+00  0.00000000000E+00  0.11342583673E+04  0.11342583673E+04  0.25500000920E-02 0. -1.
        2   -1    0    0  501    0  0.00000000000E+00  0.00000000000E+00 -0.21255231720E+04  0.21255231720E+04  0.25500000920E-02 0.  1.
    10030    2    1    2    0    0  0.00000000000E+00  0.00000000000E+00 -0.99126480469E+03  0.32597815392E+04  0.31054097589E+04 0.  0.
        3    1    3    3  502    0  0.58723184339E+03 -0.15439092015E+03 -0.19957326228E+04  0.20860552500E+04  0.10100000352E+00 0.  1.
       -3    1    3    3    0  502 -0.58723184339E+03  0.15439092015E+03  0.10044678181E+04  0.11737262892E+04  0.10100000352E+00 0. -1.
</event>
<event>
 5   0  0.2078009E-06  0.3102426E+04  0.7818609E-02  0.8215072E-01
       -2   -1    0    0    0  501  0.00000000000E+00  0.00000000000E+00  0.30421196633E+04  0.30421196633E+04  0.25500000920E-02 0.  1.
        2   -1    0    0  501    0  0.00000000000E+00  0.00000000000E+00 -0.79098199560E+03  0.79098199560E+03  0.25500000920E-02 0. -1.
    10030    2    1    2    0    0  0.00000000000E+00  0.00000000000E+00  0.22511376677E+04  0.38331016589E+04  0.31024260714E+04 0.  0.
        3    1    3    3  502    0  0.67870604464E+03  0.13648608489E+04  0.77010283072E+03  0.17077896276E+04  0.10100000352E+00 0.  1.
       -3    1    3    3    0  502 -0.67870604464E+03 -0.13648608489E+04  0.14810348370E+04  0.21253120314E+04  0.10100000352E+00 0. -1.
</event>
<event>
 5   0  0.7519202E-07  0.3100426E+04  0.7818609E-02  0.8215621E-01
        1   -1    0    0  501    0  0.00000000000E+00  0.00000000000E+00  0.19714738287E+04  0.19714738287E+04  0.50400001928E-02 0.  1.
       -1   -1    0    0    0  501  0.00000000000E+00  0.00000000000E+00 -0.12189661128E+04  0.12189661128E+04  0.50400001928E-02 0. -1.
    10030    2    1    2    0    0  0.00000000000E+00  0.00000000000E+00  0.75250771595E+03  0.31904399415E+04  0.31004256414E+04 0.  0.
        4    1    3    3  502    0  0.14046151279E+04  0.63832806904E+03  0.22103764301E+03  0.15586101610E+04  0.12699999809E+01 0. -1.
       -4    1    3    3    0  502 -0.14046151279E+04 -0.63832806904E+03  0.53147007294E+03  0.16318297805E+04  0.12699999809E+01 0.  1.
</event>
<event>
 5   0  0.7726743E-07  0.3090627E+04  0.7818609E-02  0.8218315E-01
        1   -1    0    0  501    0  0.00000000000E+00  0.00000000000E+00  0.24260195167E+04  0.24260195167E+04  0.50400001928E-02 0. -1.
       -1   -1    0    0    0  501  0.00000000000E+00  0.00000000000E+00 -0.98432592508E+03  0.98432592509E+03  0.50400001928E-02 0.  1.
    10030    2    1    2    0    0  0.00000000000E+00  0.00000000000E+00  0.14416935916E+04  0.34103454418E+04  0.30906270594E+04 0.  0.
        1    1    3    3  502    0  0.19572263897E+03  0.71532684251E+03  0.22168200231E+04  0.23375822676E+04  0.50400001928E-02 0. -1.
       -1    1    3    3    0  502 -0.19572263897E+03 -0.71532684251E+03 -0.77512643150E+03  0.10727631742E+04  0.50400001928E-02 0.  1.
</event>
<event>
 5   0  0.2067926E-06  0.3073486E+04  0.7818609E-02  0.8223052E-01
        2   -1    0    0  501    0  0.00000000000E+00  0.00000000000E+00  0.88387494750E+03  0.88387494750E+03  0.25500000920E-02 0. -1.
       -2   -1    0    0    0  501  0.00000000000E+00  0.00000000000E+00 -0.26718474952E+04  0.26718474952E+04  0.25500000920E-02 0.  1.
    10030    2    1    2    0    0  0.00000000000E+00  0.00000000000E+00 -0.17879725477E+04  0.35557224427E+04  0.30734860108E+04 0.  0.
        1    1    3    3  502    0 -0.57645000841E+03 -0.51379534279E+03 -0.24310990238E+04  0.25507886486E+04  0.50400001928E-02 0.  1.
       -1    1    3    3    0  502  0.57645000841E+03  0.51379534279E+03  0.64312647601E+03  0.10049337942E+04  0.50400001928E-02 0. -1.
</event>
<event>
 5   0  0.7519202E-07  0.3068081E+04  0.7818609E-02  0.8224553E-01
        1   -1    0    0  501    0  0.00000000000E+00  0.00000000000E+00  0.16687109967E+04  0.16687109967E+04  0.50400001928E-02 0.  1.
       -1   -1    0    0    0  501  0.00000000000E+00  0.00000000000E+00 -0.14102381714E+04  0.14102381714E+04  0.50400001928E-02 0. -1.
    10030    2    1    2    0    0  0.00000000000E+00  0.00000000000E+00  0.25847282531E+03  0.30789491681E+04  0.30680807972E+04 0.  0.
        4    1    3    3  502    0  0.45285531631E+03  0.74999425052E+03  0.13929465651E+04  0.16455610167E+04  0.12699999809E+01 0.  1.
       -4    1    3    3    0  502 -0.45285531631E+03 -0.74999425052E+03 -0.11344737398E+04  0.14333881514E+04  0.12699999809E+01 0. -1.
</event>
<event>
 5   0  0.2226334E-06  0.3103991E+04  0.7818609E-02  0.8214643E-01
        2   -1    0    0  501    0  0.00000000000E+00  0.00000000000E+00  0.16637552878E+04  0.16637552878E+04  0.25500000920E-02 0. -1.
       -2   -1    0    0    0  501  0.00000000000E+00  0.00000000000E+00 -0.14477432682E+04  0.14477432682E+04  0.25500000920E-02 0.  1.
    10030    2    1    2    0    0  0.00000000000E+00  0.00000000000E+00  0.21601201960E+03  0.31114985561E+04  0.31039913131E+04 0.  0.
        5    1    3    3  502    0 -0.86406363185E+02  0.27092268892E+03 -0.14213980656E+04  0.14495722520E+04  0.46999998093E+01 0.  1.
       -5    1    3    3    0  502  0.86406363185E+02 -0.27092268892E+03  0.16374100852E+04  0.16619263040E+04  0.46999998093E+01 0. -1.
</event>
<event>
 5   0  0.7656332E-07  0.3103272E+04  0.7818609E-02  0.8214840E-01
        1   -1    0    0  501    0  0.00000000000E+00  0.00000000000E+00  0.18096222327E+04  0.18096222327E+04  0.50400001928E-02 0. -1.
       -1   -1    0    0    0  501  0.00000000000E+00  0.00000000000E+00 -0.13304293205E+04  0.13304293205E+04  0.50400001928E-02 0.  1.
    10030    2    1    2    0    0  0.00000000000E+00  0.00000000000E+00  0.47919291220E+03  0.31400515531E+04  0.31032721294E+04 0.  0.
        2    1    3    3  502    0 -0.27506970150E+02  0.80538330292E+03 -0.11020807423E+04  0.13652768439E+04  0.25500000920E-02 0.  1.
       -2    1    3    3    0  502  0.27506970150E+02 -0.80538330292E+03  0.15812736545E+04  0.17747747092E+04  0.25500000920E-02 0. -1.
</event>
<event>
 5   0  0.7413481E-07  0.3112203E+04  0.7818609E-02  0.8212397E-01
       -1   -1    0    0    0  501  0.00000000000E+00  0.00000000000E+00  0.26145701143E+04  0.26145701143E+04  0.50400001928E-02 0. -1.
        1   -1    0    0  501    0  0.00000000000E+00  0.00000000000E+00 -0.92613752412E+03  0.92613752414E+03  0.50400001928E-02 0.  1.
    10030    2    1    2    0    0  0.00000000000E+00  0.00000000000E+00  0.16884325902E+04  0.35407076385E+04  0.31122027520E+04 0.  0.
        5    1    3    3  502    0  0.23274332379E+03  0.15227875195E+03 -0.89762097313E+03  0.93973601318E+03  0.46999998093E+01 0.  1.
       -5    1    3    3    0  502 -0.23274332379E+03 -0.15227875195E+03  0.25860535634E+04  0.26009716253E+04  0.46999998093E+01 0. -1.
</event>
<event>
 5   0  0.7726743E-07  0.3089223E+04  0.7818609E-02  0.8218702E-01
       -1   -1    0    0    0  501  0.00000000000E+00  0.00000000000E+00  0.32974665826E+04  0.32974665826E+04  0.50400001928E-02 0. -1.
        1   -1    0    0  501    0  0.00000000000E+00  0.00000000000E+00 -0.72353242092E+03  0.72353242094E+03  0.50400001928E-02 0.  1.
    10030    2    1    2    0    0  0.00000000000E+00  0.00000000000E+00  0.25739341617E+04  0.40209990035E+04  0.30892225426E+04 0.  0.
        1    1    3    3  502    0 -0.34521261804E+03 -0.57003515090E+03  0.31007161174E+04  0.31715220740E+04  0.50400001928E-02 0. -1.
       -1    1    3    3    0  502  0.34521261804E+03  0.57003515090E+03 -0.52678195575E+03  0.84947692955E+03  0.50400001928E-02 0.  1.
</event>
<event>
 5   0  0.2226334E-06  0.3086474E+04  0.7818609E-02  0.8219460E-01
        2   -1    0    0  501    0  0.00000000000E+00  0.00000000000E+00  0.12557604056E+04  0.12557604056E+04  0.25500000920E-02 0. -1.
       -2   -1    0    0    0  501  0.00000000000E+00  0.00000000000E+00 -0.18965243704E+04  0.18965243704E+04  0.25500000920E-02 0.  1.
    10030    2    1    2    0    0  0.00000000000E+00  0.00000000000E+00 -0.64076396485E+03  0.31522847760E+04  0.30864738538E+04 0.  0.
        5    1    3    3  502    0  0.10038454234E+03 -0.12493396378E+04 -0.12399303754E+04  0.17630587094E+04  0.46999998093E+01 0. -1.
       -5    1    3    3    0  502 -0.10038454234E+03  0.12493396378E+04  0.59916641054E+03  0.13892260667E+04  0.46999998093E+01 0.  1.
</event>
<event>
 5   0  0.7656332E-07  0.3131669E+04  0.7818609E-02  0.8207100E-01
        1   -1    0    0  501    0  0.00000000000E+00  0.00000000000E+00  0.13908439580E+04  0.13908439580E+04  0.50400001928E-02 0.  1.
       -1   -1    0    0    0  501  0.00000000000E+00  0.00000000000E+00 -0.17628412609E+04  0.17628412609E+04  0.50400001928E-02 0. -1.
    10030    2    1    2    0    0  0.00000000000E+00  0.00000000000E+00 -0.37199730295E+03  0.31536852189E+04  0.31316686393E+04 0.  0.
        2    1    3    3  502    0 -0.82810837214E+03  0.68819778583E+03  0.95885682549E+03  0.14417995978E+04  0.25500000920E-02 0.  1.
       -2    1    3    3    0  502  0.82810837214E+03 -0.68819778583E+03 -0.13308541284E+04  0.17118856211E+04  0.25500000920E-02 0. -1.
</event>
<event>
 5   0  0.7561815E-07  0.3089210E+04  0.7818609E-02  0.8218705E-01
        1   -1    0    0  501    0  0.00000000000E+00  0.00000000000E+00  0.10446984641E+04  0.10446984641E+04  0.50400001928E-02 0. -1.
       -1   -1    0    0    0  501  0.00000000000E+00  0.00000000000E+00 -0.22837250322E+04  0.22837250322E+04  0.50400001928E-02 0.  1.
    10030    2    1    2    0    0  0.00000000000E+00  0.00000000000E+00 -0.12390265681E+04  0.33284234963E+04  0.30892096294E+04 0.  0.
        3    1    3    3  502    0 -0.42300944759E+03  0.40173096207E+03 -0.21604639680E+04  0.22378403263E+04  0.10100000352E+00 0.  1.
       -3    1    3    3    0  502  0.42300944759E+03 -0.40173096207E+03  0.92143739990E+03  0.10905831700E+04  0.10100000352E+00 0. -1.
</event>
<event>
 5   0  0.2078009E-06  0.3100630E+04  0.7818609E-02  0.8215565E-01
        2   -1    0    0  501    0  0.00000000000E+00  0.00000000000E+00  0.16856370238E+04  0.16856370238E+04  0.25500000920E-02 0.  1.
       -2   -1    0    0    0  501  0.00000000000E+00  0.00000000000E+00 -0.14258562382E+04  0.14258562383E+04  0.25500000920E-02 0. -1.
    10030    2    1    2    0    0  0.00000000000E+00  0.00000000000E+00  0.25978078558E+03  0.31114932621E+04  0.31006296560E+04 0.  0.
        3    1    3    3  502    0  0.15453142935E+04  0.12114000222E+03  0.10142041001E+03  0.15533696519E+04  0.10100000352E+00 0. -1.
       -3    1    3    3    0  502 -0.15453142935E+04 -0.12114000222E+03  0.15836037556E+03  0.15581236102E+04  0.10100000352E+00 0.  1.
</event>
<event>
 5   0  0.2226334E-06  0.3109779E+04  0.7818609E-02  0.8213059E-01
       -2   -1    0    0    0  501  0.00000000000E+00  0.00000000000E+00  0.14305476003E+04  0.14305476003E+04  0.25500000920E-02 0.  1.
        2   -1    0    0  501    0  0.00000000000E+00  0.00000000000E+00 -0.16900386323E+04  0.16900386323E+04  0.25500000920E-02 0. -1.
    10030    2    1    2    0    0  0.00000000000E+00  0.00000000000E+00 -0.25949103202E+03  0.31205862326E+04  0.31097785836E+04 0.  0.
        5    1    3    3  502    0 -0.48813334624E+03 -0.10521127138E+04 -0.11689329551E+04  0.16467063095E+04  0.46999998093E+01 0. -1.
       -5    1    3    3    0  502  0.48813334624E+03  0.10521127138E+04  0.90944192304E+03  0.14738799231E+04  0.46999998093E+01 0.  1.
</event>
<event>
 5   0  0.2067926E-06  0.3100008E+04  0.7818609E-02  0.8215736E-01
       -2   -1    0    0    0  501  0.00000000000E+00  0.00000000000E+00  0.13227190212E+04  0.13227190212E+04  0.25500000920E-02 0.  1.
        2   -1    0    0  501    0  0.00000000000E+00  0.00000000000E+00 -0.18163442895E+04  0.18163442895E+04  0.25500000920E-02 0. -1.
    10030    2    1    2    0    0  0.00000000000E+00  0.00000000000E+00 -0.49362526829E+03  0.31390633107E+04  0.31000084780E+04 0.  0.
        1    1    3    3  502    0  0.36467663306E+03 -0.31125506113E+03  0.12457463974E+04  0.13348231518E+04  0.50400001928E-02 0.  1.
       -1    1    3    3    0  502 -0.36467663306E+03  0.31125506113E+03 -0.17393716657E+04  0.18042401590E+04  0.50400001928E-02 0. -1.
</event>
<event>
 5   0  0.7519202E-07  0.3110247E+04  0.7818609E-02  0.8212931E-01
       -1   -1    0    0    0  501  0.00000000000E+00  0.00000000000E+00  0.15590688681E+04  0.15590688681E+04  0.50400001928E-02 0.  1.
        1   -1    0    0  501    0  0.00000000000E+00  0.00000000000E+00 -0.15511885125E+04  0.15511885125E+04  0.50400001928E-02 0. -1.
    10030    2    1    2    0    0  0.00000000000E+00  0.00000000000E+00  0.78803556599E+01  0.31102573806E+04  0.31102473975E+04 0.  0.
        4    1    3    3  502    0 -0.37818627206E+03  0.54582846212E+03  0.14101646384E+04  0.15586915944E+04  0.12699999809E+01 0.  1.
       -4    1    3    3    0  502  0.37818627206E+03 -0.54582846212E+03 -0.14022842827E+04  0.15515657862E+04  0.12699999809E+01 0. -1.
</event>
<event>
 5   0  0.7413481E-07  0.3109732E+04  0.7818609E-02  0.8213072E-01
        1   -1    0    0  501    0  0.00000000000E+00  0.00000000000E+00  0.20942397886E+04  0.20942397886E+04  0.50400001928E-02 0. -1.
       -1   -1    0    0    0  501  0.00000000000E+00  0.00000000000E+00 -0.11544084398E+04  0.11544084398E+04  0.50400001928E-02 0.  1.
    10030    2    1    2    0    0  0.00000000000E+00  0.00000000000E+00  0.93983134876E+03  0.32486482284E+04  0.31097318772E+04 0.  0.
        5    1    3    3  502    0  0.12553974065E+04 -0.14518391575E+03  0.14161856474E+04  0.18980792648E+04  0.46999998093E+01 0. -1.
       -5    1    3    3    0  502 -0.12553974065E+04  0.14518391575E+03 -0.47635429868E+03  0.13505689636E+04  0.46999998093E+01 0.  1.
</event>
<event>
 5   0  0.7726743E-07  0.3102375E+04  0.7818609E-02  0.8215086E-01
        1   -1    0    0  501    0  0.00000000000E+00  0.00000000000E+00  0.16338517475E+04  0.16338517475E+04  0.50400001928E-02 0. -1.
       -1   -1    0    0    0  501  0.00000000000E+00  0.00000000000E+00 -0.14727054124E+04  0.14727054124E+04  0.50400001928E-02 0.  1.
    10030    2    1    2    0    0  0.00000000000E+00  0.00000000000E+00  0.16114633509E+03  0.31065571599E+04  0.31023747753E+04 0.  0.
        1    1    3    3  502    0  0.97213262499E+03  0.71478266262E+03  0.10566827864E+04  0.16039122814E+04  0.50400001928E-02 0. -1.
       -1    1    3    3    0  502 -0.97213262499E+03 -0.71478266262E+03 -0.89553645130E+03  0.15026448785E+04  0.50400001928E-02 0.  1.
</event>
<event>
 5   0  0.2133385E-06  0.3108999E+04  0.7818609E-02  0.8213272E-01
       -2   -1    0    0    0  501  0.00000000000E+00  0.00000000000E+00  0.10416709923E+04  0.10416709923E+04  0.25500000920E-02 0. -1.
        2   -1    0    0  501    0  0.00000000000E+00  0.00000000000E+00 -0.23198010196E+04  0.23198010196E+04  0.25500000920E-02 0.  1.
    10030    2    1    2    0    0  0.00000000000E+00  0.00000000000E+00 -0.12781300274E+04  0.33614720119E+04  0.31089994725E+04 0.  0.
        2    1    3    3  502    0  0.12462782079E+04  0.57547010895E+03 -0.14277491741E+04  0.19806168034E+04  0.25500000920E-02 0.  1.
       -2    1    3    3    0  502 -0.12462782079E+04 -0.57547010895E+03  0.14961914676E+03  0.13808552085E+04  0.25500000920E-02 0. -1.
</event>
<event>
 5   0  0.7561815E-07  0.3091167E+04  0.7818609E-02  0.8218166E-01
        1   -1    0    0  501    0  0.00000000000E+00  0.00000000000E+00  0.22812007162E+04  0.22812007162E+04  0.50400001928E-02 0. -1.
       -1   -1    0    0    0  501  0.00000000000E+00  0.00000000000E+00 -0.10471803538E+04  0.10471803538E+04  0.50400001928E-02 0.  1.
    10030    2    1    2    0    0  0.00000000000E+00  0.00000000000E+00  0.12340203625E+04  0.33283810700E+04  0.30911671408E+04 0.  0.
        3    1    3    3  502    0  0.11934205476E+04 -0.91903422659E+02  0.16698661514E+04  0.20545441870E+04  0.10100000352E+00 0. -1.
       -3    1    3    3    0  502 -0.11934205476E+04  0.91903422659E+02 -0.43584578892E+03  0.12738368830E+04  0.10100000352E+00 0.  1.
</event>
<event>
 5   0  0.6979625E-07  0.3086133E+04  0.7818609E-02  0.8219554E-01
        4   -1    0    0  501    0  0.00000000000E+00  0.00000000000E+00  0.24121843974E+04  0.24121847317E+04  0.12699999809E+01 0.  1.
       -4   -1    0    0    0  501  0.00000000000E+00  0.00000000000E+00 -0.98709406569E+03  0.98709488268E+03  0.12699999809E+01 0. -1.
    10030    2    1    2    0    0  0.00000000000E+00  0.00000000000E+00  0.14250903317E+04  0.33992796144E+04  0.30861334131E+04 0.  0.
        5    1    3    3  502    0 -0.13567510081E+04  0.26759337650E+01  0.15221451860E+04  0.20390508861E+04  0.46999998093E+01 0.  1.
       -5    1    3    3    0  502  0.13567510081E+04 -0.26759337650E+01 -0.97054854282E+02  0.13602287283E+04  0.46999998093E+01 0. -1.
</event>
<event>
 5   0  0.7519202E-07  0.3099504E+04  0.7818609E-02  0.8215874E-01
        1   -1    0    0  501    0  0.00000000000E+00  0.00000000000E+00  0.17491703415E+04  0.17491703415E+04  0.50400001928E-02 0. -1.
       -1   -1    0    0    0  501  0.00000000000E+00  0.00000000000E+00 -0.13730684230E+04  0.13730684230E+04  0.50400001928E-02 0.  1.
    10030    2    1    2    0    0  0.00000000000E+00  0.00000000000E+00  0.37610191850E+03  0.31222387645E+04  0.30995035489E+04 0.  0.
        4    1    3    3  502    0  0.98585363910E+03 -0.10749829541E+04 -0.33946303996E+03  0.14975755466E+04  0.12699999809E+01 0.  1.
       -4    1    3    3    0  502 -0.98585363910E+03  0.10749829541E+04  0.71556495846E+03  0.16246632180E+04  0.12699999809E+01 0. -1.
</event>
<event>
 5   0  0.2067926E-06  0.3120878E+04  0.7818609E-02  0.8210031E-01
       -2   -1    0    0    0  501  0.00000000000E+00  0.00000000000E+00  0.13546570355E+04  0.13546570356E+04  0.25500000920E-02 0. -1.
        2   -1    0    0  501    0  0.00000000000E+00  0.00000000000E+00 -0.17974805226E+04  0.17974805226E+04  0.25500000920E-02 0.  1.
    10030    2    1    2    0    0  0.00000000000E+00  0.00000000000E+00 -0.44282348706E+03  0.31521375582E+04  0.31208778484E+04 0.  0.
        1    1    3    3  502    0 -0.16355986770E+03 -0.15503141021E+04 -0.29097826763E+03  0.15858417316E+04  0.50400001928E-02 0.  1.
       -1    1    3    3    0  502  0.16355986770E+03  0.15503141021E+04 -0.15184521943E+03  0.15662958265E+04  0.50400001928E-02 0. -1.
</event>
<event>
 5   0  0.2078009E-06  0.3086803E+04  0.7818609E-02  0.8219369E-01
        2   -1    0    0  501    0  0.00000000000E+00  0.00000000000E+00  0.20663737968E+04  0.20663737968E+04  0.25500000920E-02 0.  1.
       -2   -1    0    0    0  501  0.00000000000E+00  0.00000000000E+00 -0.11527867933E+04  0.11527867933E+04  0.25500000920E-02 0. -1.
    10030    2    1    2    0    0  0.00000000000E+00  0.00000000000E+00  0.91358700343E+03  0.32191605901E+04  0.30868031509E+04 0.  0.
        3    1    3    3  502    0 -0.99063548646E+03  0.10087268951E+04 -0.18878096114E+03  0.14263684227E+04  0.10100000352E+00 0.  1.
       -3    1    3    3    0  502  0.99063548646E+03 -0.10087268951E+04  0.11023679646E+04  0.17927921674E+04  0.10100000352E+00 0. -1.
</event>
<event>
 5   0  0.7656332E-07  0.3085583E+04  0.7818609E-02  0.8219706E-01
       -1   -1    0    0    0  501  0.00000000000E+00  0.00000000000E+00  0.13433516628E+04  0.13433516628E+04  0.50400001928E-02 0. -1.
        1   -1    0    0  501    0  0.00000000000E+00  0.00000000000E+00 -0.17718414321E+04  0.17718414321E+04  0.50400001928E-02 0.  1.
    10030    2    1    2    0    0  0.00000000000E+00  0.00000000000E+00 -0.42848976932E+03  0.31151930950E+04  0.30855833381E+04 0.  0.
        2    1    3    3  502    0 -0.68395428991E+03  0.12103035099E+04 -0.88967760259E+03  0.16505012249E+04  0.25500000920E-02 0. -1.
       -2    1    3    3    0  502  0.68395428991E+03 -0.12103035099E+04  0.46118783327E+03  0.14646918701E+04  0.25500000920E-02 0.  1.
</event>
<event>
 5   0  0.7413481E-07  0.3139498E+04  0.7818609E-02  0.8204981E-01
        1   -1    0    0  501    0  0.00000000000E+00  0.00000000000E+00  0.15450262677E+04  0.15450262677E+04  0.50400001928E-02 0. -1.
       -1   -1    0    0    0  501  0.00000000000E+00  0.00000000000E+00 -0.15948678330E+04  0.15948678330E+04  0.50400001928E-02 0.  1.
    10030    2    1    2    0    0  0.00000000000E+00  0.00000000000E+00 -0.49841565216E+02  0.31398941007E+04  0.31394984921E+04 0.  0.
        5    1    3    3  502    0  0.14728051381E+04 -0.13242491612E+03  0.50183265785E+03  0.15615855531E+04  0.46999998093E+01 0.  1.
       -5    1    3    3    0  502 -0.14728051381E+04  0.13242491612E+03 -0.55167422307E+03  0.15783085476E+04  0.46999998093E+01 0. -1.
</event>
<event>
 5   0  0.2226334E-06  0.3080954E+04  0.7818609E-02  0.8220984E-01
        2   -1    0    0  501    0  0.00000000000E+00  0.00000000000E+00  0.15305918407E+04  0.15305918407E+04  0.25500000920E-02 0. -1.
       -2   -1    0    0    0  501  0.00000000000E+00  0.00000000000E+00 -0.15504263374E+04  0.15504263374E+04  0.25500000920E-02 0.  1.
    10030    2    1    2    0    0  0.00000000000E+00  0.00000000000E+00 -0.19834496702E+02  0.30810181782E+04  0.30809543338E+04 0.  0.
        5    1    3    3  502    0 -0.12602259263E+03  0.12395343010E+04 -0.91587246212E+03  0.15463413058E+04  0.46999998093E+01 0.  1.
       -5    1    3    3    0  502  0.12602259263E+03 -0.12395343010E+04  0.89603796542E+03  0.15346768724E+04  0.46999998093E+01 0. -1.
</event>
<event>
 5   0  0.2067926E-06  0.2903777E+04  0.7818609E-02  0.8271754E-01
        2   -1    0    0  501    0  0.00000000000E+00  0.00000000000E+00  0.16949101108E+04  0.16949101108E+04  0.25500000920E-02 0. -1.
       -2   -1    0    0    0  501  0.00000000000E+00  0.00000000000E+00 -0.12437124232E+04  0.12437124232E+04  0.25500000920E-02 0.  1.
    10030    2    1    2    0    0  0.00000000000E+00  0.00000000000E+00  0.45119768765E+03  0.29386225340E+04  0.29037773751E+04 0.  0.
        1    1    3    3  502    0  0.47121193200E+03 -0.11013208342E+04  0.10558290006E+04  0.15967852527E+04  0.50400001928E-02 0. -1.
       -1    1    3    3    0  502 -0.47121193200E+03  0.11013208342E+04 -0.60463131297E+03  0.13418372813E+04  0.50400001928E-02 0.  1.
</event>
<event>
 5   0  0.6979625E-07  0.3068924E+04  0.7818609E-02  0.8224318E-01
       -3   -1    0    0    0  501  0.00000000000E+00  0.00000000000E+00  0.21907440399E+04  0.21907440422E+04  0.10100000352E+00 0.  1.
        3   -1    0    0  501    0  0.00000000000E+00  0.00000000000E+00 -0.10747829160E+04  0.10747829208E+04  0.10100000352E+00 0. -1.
    10030    2    1    2    0    0  0.00000000000E+00  0.00000000000E+00  0.11159611238E+04  0.32655269629E+04  0.30689244233E+04 0.  0.
        2    1    3    3  502    0 -0.63507894289E+03 -0.98867037555E+03 -0.49203922801E+03  0.12739297379E+04  0.25500000920E-02 0. -1.
       -2    1    3    3    0  502  0.63507894289E+03  0.98867037555E+03  0.16080003519E+04  0.19915972250E+04  0.25500000920E-02 0.  1.
</event>
<event>
 5   0  0.7519202E-07  0.3087714E+04  0.7818609E-02  0.8219118E-01
       -1   -1    0    0    0  501  0.00000000000E+00  0.00000000000E+00  0.21605664361E+04  0.21605664361E+04  0.50400001928E-02 0. -1.
        1   -1    0    0  501    0  0.00000000000E+00  0.00000000000E+00 -0.11031800655E+04  0.11031800656E+04  0.50400001928E-02 0.  1.
    10030    2    1    2    0    0  0.00000000000E+00  0.00000000000E+00  0.10573863705E+04  0.32637465016E+04  0.30877136024E+04 0.  0.
        4    1    3    3  502    0 -0.10286851124E+04  0.11511652419E+04  0.54016235928E+03  0.16355890260E+04  0.12699999809E+01 0. -1.
       -4    1    3    3    0  502  0.10286851124E+04 -0.11511652419E+04  0.51722401125E+03  0.16281574756E+04  0.12699999809E+01 0.  1.
</event>
<event>
 5   0  0.2094135E-06  0.3087659E+04  0.7818609E-02  0.8219133E-01
       -2   -1    0    0    0  501  0.00000000000E+00  0.00000000000E+00  0.13519237780E+04  0.13519237780E+04  0.25500000920E-02 0.  1.
        2   -1    0    0  501    0  0.00000000000E+00  0.00000000000E+00 -0.17629756910E+04  0.17629756910E+04  0.25500000920E-02 0. -1.
    10030    2    1    2    0    0  0.00000000000E+00  0.00000000000E+00 -0.41105191300E+03  0.31148994690E+04  0.30876585023E+04 0.  0.
        4    1    3    3  502    0  0.35088669347E+03  0.93754069462E+03 -0.13911835029E+04  0.17139128266E+04  0.12699999809E+01 0. -1.
       -4    1    3    3    0  502 -0.35088669347E+03 -0.93754069462E+03  0.98013158986E+03  0.14009866424E+04  0.12699999809E+01 0.  1.
</event>
<event>
 5   0  0.2067926E-06  0.3130728E+04  0.7818609E-02  0.8207355E-01
        2   -1    0    0  501    0  0.00000000000E+00  0.00000000000E+00  0.12117485703E+04  0.12117485703E+04  0.25500000920E-02 0.  1.
       -2   -1    0    0    0  501  0.00000000000E+00  0.00000000000E+00 -0.20221728793E+04  0.20221728793E+04  0.25500000920E-02 0. -1.
    10030    2    1    2    0    0  0.00000000000E+00  0.00000000000E+00 -0.81042430894E+03  0.32339214496E+04  0.31307284107E+04 0.  0.
        1    1    3    3  502    0  0.10616678641E+04  0.88602792935E+03 -0.11630010433E+04  0.18068634624E+04  0.50400001928E-02 0. -1.
       -1    1    3    3    0  502 -0.10616678641E+04 -0.88602792935E+03  0.35257673432E+03  0.14270579872E+04  0.50400001928E-02 0.  1.
</event>
<event>
 5   0  0.2226334E-06  0.3086680E+04  0.7818609E-02  0.8219403E-01
       -2   -1    0    0    0  501  0.00000000000E+00  0.00000000000E+00  0.12223487491E+04  0.12223487491E+04  0.25500000920E-02 0. -1.
        2   -1    0    0  501    0  0.00000000000E+00  0.00000000000E+00 -0.19486248028E+04  0.19486248028E+04  0.25500000920E-02 0.  1.
    10030    2    1    2    0    0  0.00000000000E+00  0.00000000000E+00 -0.72627605369E+03  0.31709735519E+04  0.30866804759E+04 0.  0.
        5    1    3    3  502    0  0.25775866240E+03  0.15003719002E+04 -0.10259498675E+03  0.15258123044E+04  0.46999998093E+01 0. -1.
       -5    1    3    3    0  502 -0.25775866240E+03 -0.15003719002E+04 -0.62368106694E+03  0.16451612475E+04  0.46999998093E+01 0.  1.
</event>
<event>
 5   0  0.2226334E-06  0.3089735E+04  0.7818609E-02  0.8218561E-01
        2   -1    0    0  501    0  0.00000000000E+00  0.00000000000E+00  0.24890757981E+04  0.24890757981E+04  0.25500000920E-02 0. -1.
       -2   -1    0    0    0  501  0.00000000000E+00  0.00000000000E+00 -0.95883605830E+03  0.95883605830E+03  0.25500000920E-02 0.  1.
    10030    2    1    2    0    0  0.00000000000E+00  0.00000000000E+00  0.15302397398E+04  0.34479118564E+04  0.30897350223E+04 0.  0.
        5    1    3    3  502    0  0.60473900847E+03 -0.88700488500E+03 -0.47456487545E+03  0.11737635390E+04  0.46999998093E+01 0.  1.
       -5    1    3    3    0  502 -0.60473900847E+03  0.88700488500E+03  0.20048046152E+04  0.22741483174E+04  0.46999998093E+01 0. -1.
</event>
<event>
 5   0  0.2226334E-06  0.3176020E+04  0.7818609E-02  0.8195179E-01
        2   -1    0    0  501    0  0.00000000000E+00  0.00000000000E+00  0.13099957492E+04  0.13099957492E+04  0.25500000920E-02 0. -1.
       -2   -1    0    0    0  501  0.00000000000E+00  0.00000000000E+00 -0.19250256799E+04  0.19250256799E+04  0.25500000920E-02 0.  1.
    10030    2    1    2    0    0  0.00000000000E+00  0.00000000000E+00 -0.61502993072E+03  0.32350214291E+04  0.31760198096E+04 0.  0.
        5    1    3    3  502    0  0.13579029294E+04  0.65601628327E+02  0.52843194176E+03  0.14585836782E+04  0.46999998093E+01 0. -1.
       -5    1    3    3    0  502 -0.13579029294E+04 -0.65601628327E+02 -0.11434618725E+04  0.17764377510E+04  0.46999998093E+01 0.  1.
</event>
<event>
 5   0  0.7413481E-07  0.3099998E+04  0.7818609E-02  0.8215738E-01
        1   -1    0    0  501    0  0.00000000000E+00  0.00000000000E+00  0.26179324159E+04  0.26179324159E+04  0.50400001928E-02 0.  1.
       -1   -1    0    0    0  501  0.00000000000E+00  0.00000000000E+00 -0.91770786782E+03  0.91770786783E+03  0.50400001928E-02 0. -1.
    10030    2    1    2    0    0  0.00000000000E+00  0.00000000000E+00  0.17002245480E+04  0.35356402837E+04  0.30999981777E+04 0.  0.
        5    1    3    3  502    0 -0.85373408487E+03  0.54337886869E+03 -0.48890691335E+03  0.11239103801E+04  0.46999998093E+01 0. -1.
       -5    1    3    3    0  502  0.85373408487E+03 -0.54337886869E+03  0.21891314614E+04  0.24117299036E+04  0.46999998093E+01 0.  1.
</event>
<event>
 5   0  0.2067926E-06  0.3112223E+04  0.7818609E-02  0.8212391E-01
        2   -1    0    0  501    0  0.00000000000E+00  0.00000000000E+00  0.22669861202E+04  0.22669861202E+04  0.25500000920E-02 0.  1.
       -2   -1    0    0    0  501  0.00000000000E+00  0.00000000000E+00 -0.10681509843E+04  0.10681509843E+04  0.25500000920E-02 0. -1.
    10030    2    1    2    0    0  0.00000000000E+00  0.00000000000E+00  0.11988351359E+04  0.33351371045E+04  0.31122232925E+04 0.  0.
        1    1    3    3  502    0 -0.60491367357E+02  0.15342631776E+04  0.32861052376E+03  0.15702253278E+04  0.50400001928E-02 0. -1.
       -1    1    3    3    0  502  0.60491367357E+02 -0.15342631776E+04  0.87022461218E+03  0.17649117767E+04  0.50400001928E-02 0.  1.
</event>
<event>
 5   0  0.7656332E-07  0.3088370E+04  0.7818609E-02  0.8218937E-01
        1   -1    0    0  501    0  0.00000000000E+00  0.00000000000E+00  0.14507446097E+04  0.14507446097E+04  0.50400001928E-02 0. -1.
       -1   -1    0    0    0  501  0.00000000000E+00  0.00000000000E+00 -0.16436438925E+04  0.16436438925E+04  0.50400001928E-02 0.  1.
    10030    2    1    2    0    0  0.00000000000E+00  0.00000000000E+00 -0.19289928287E+03  0.30943885022E+04  0.30883701315E+04 0.  0.
        2    1    3    3  502    0 -0.96051999279E+03  0.65255398548E+03  0.92341513430E+03  0.14836174948E+04  0.25500000920E-02 0. -1.
       -2    1    3    3    0  502  0.96051999279E+03 -0.65255398548E+03 -0.11163144172E+04  0.16107710075E+04  0.25500000920E-02 0.  1.
</event>
<event>
 5   0  0.7656332E-07  0.3091776E+04  0.7818609E-02  0.8217999E-01
       -1   -1    0    0    0  501  0.00000000000E+00  0.00000000000E+00  0.21117825887E+04  0.21117825887E+04  0.50400001928E-02 0. -1.
        1   -1    0    0  501    0  0.00000000000E+00  0.00000000000E+00 -0.11316361002E+04  0.11316361002E+04  0.50400001928E-02 0.  1.
    10030    2    1    2    0    0  0.00000000000E+00  0.00000000000E+00  0.98014648857E+03  0.32434186889E+04  0.30917758089E+04 0.  0.
        2    1    3    3  502    0  0.14506213823E+04  0.42168770983E+03  0.14588584675E+03  0.15176974664E+04  0.25500000920E-02 0. -1.
       -2    1    3    3    0  502 -0.14506213823E+04 -0.42168770983E+03  0.83426064181E+03  0.17257212225E+04  0.25500000920E-02 0.  1.
</event>
<event>
 5   0  0.7561815E-07  0.3150997E+04  0.7818609E-02  0.8201880E-01
       -1   -1    0    0    0  501  0.00000000000E+00  0.00000000000E+00  0.11675770492E+04  0.11675770492E+04  0.50400001928E-02 0.  1.
        1   -1    0    0  501    0  0.00000000000E+00  0.00000000000E+00 -0.21259367269E+04  0.21259367269E+04  0.50400001928E-02 0. -1.
    10030    2    1    2    0    0  0.00000000000E+00  0.00000000000E+00 -0.95835967778E+03  0.32935137761E+04  0.31509966235E+04 0.  0.
        3    1    3    3  502    0 -0.99756411065E+03  0.10856807774E+04 -0.10595955599E+04  0.18156485525E+04  0.10100000352E+00 0.  1.
       -3    1    3    3    0  502  0.99756411065E+03 -0.10856807774E+04  0.10123588211E+03  0.14778652237E+04  0.10100000352E+00 0. -1.
</event>
<event>
 5   0  0.2067926E-06  0.3034080E+04  0.7818609E-02  0.8234065E-01
        2   -1    0    0  501    0  0.00000000000E+00  0.00000000000E+00  0.22358019299E+04  0.22358019299E+04  0.25500000920E-02 0. -1.
       -2   -1    0    0    0  501  0.00000000000E+00  0.00000000000E+00 -0.10293447242E+04  0.10293447243E+04  0.25500000920E-02 0.  1.
    10030    2    1    2    0    0  0.00000000000E+00  0.00000000000E+00  0.12064572056E+04  0.32651466541E+04  0.30340803687E+04 0.  0.
        1    1    3    3  502    0 -0.19998616407E+03  0.44519603559E+03  0.21490099411E+04  0.22037326750E+04  0.50400001928E-02 0. -1.
       -1    1    3    3    0  502  0.19998616407E+03 -0.44519603559E+03 -0.94255273547E+03  0.10614139791E+04  0.50400001928E-02 0.  1.
</event>
<event>
 5   0  0.7519202E-07  0.3113686E+04  0.7818609E-02  0.8211992E-01
       -1   -1    0    0    0  501  0.00000000000E+00  0.00000000000E+00  0.86537566698E+03  0.86537566700E+03  0.50400001928E-02 0.  1.
        1   -1    0    0  501    0  0.00000000000E+00  0.00000000000E+00 -0.28008179672E+04  0.28008179672E+04  0.50400001928E-02 0. -1.
    10030    2    1    2    0    0  0.00000000000E+00  0.00000000000E+00 -0.19354423002E+04  0.36661936342E+04  0.31136857366E+04 0.  0.
        4    1    3    3  502    0 -0.44064826402E+03 -0.14714235862E+04 -0.66868758174E+03  0.16752322101E+04  0.12699999809E+01 0. -1.
       -4    1    3    3    0  502  0.44064826402E+03  0.14714235862E+04 -0.12667547185E+04  0.19909614242E+04  0.12699999809E+01 0.  1.
</event>
<event>
 5   0  0.7519202E-07  0.3123102E+04  0.7818609E-02  0.8209426E-01
       -1   -1    0    0    0  501  0.00000000000E+00  0.00000000000E+00  0.11332827614E+04  0.11332827614E+04  0.50400001928E-02 0.  1.
        1   -1    0    0  501    0  0.00000000000E+00  0.00000000000E+00 -0.21516614297E+04  0.21516614298E+04  0.50400001928E-02 0. -1.
    10030    2    1    2    0    0  0.00000000000E+00  0.00000000000E+00 -0.10183786683E+04  0.32849441912E+04  0.31231015397E+04 0.  0.
        4    1    3    3  502    0 -0.42516012722E+03  0.14619435537E+04 -0.87415627043E+03  0.17556169531E+04  0.12699999809E+01 0. -1.
       -4    1    3    3    0  502  0.42516012722E+03 -0.14619435537E+04 -0.14422239788E+03  0.15293272381E+04  0.12699999809E+01 0.  1.
</event>
<event>
 5   0  0.7413481E-07  0.2846861E+04  0.7818609E-02  0.8288866E-01
       -1   -1    0    0    0  501  0.00000000000E+00  0.00000000000E+00  0.23809427640E+04  0.23809427640E+04  0.50400001928E-02 0. -1.
        1   -1    0    0  501    0  0.00000000000E+00  0.00000000000E+00 -0.85098834825E+03  0.85098834827E+03  0.50400001928E-02 0.  1.
    10030    2    1    2    0    0  0.00000000000E+00  0.00000000000E+00  0.15299544158E+04  0.32319311123E+04  0.28468611136E+04 0.  0.
        5    1    3    3  502    0  0.85044083490E+03  0.10729969989E+04  0.32301155025E+03  0.14067447262E+04  0.46999998093E+01 0.  1.
       -5    1    3    3    0  502 -0.85044083490E+03 -0.10729969989E+04  0.12069428655E+04  0.18251863860E+04  0.46999998093E+01 0. -1.
</event>
<event>
 5   0  0.2133385E-06  0.3103593E+04  0.7818609E-02  0.8214752E-01
        2   -1    0    0  501    0  0.00000000000E+00  0.00000000000E+00  0.14718622837E+04  0.14718622837E+04  0.25500000920E-02 0. -1.
       -2   -1    0    0    0  501  0.00000000000E+00  0.00000000000E+00 -0.16360721304E+04  0.16360721304E+04  0.25500000920E-02 0.  1.
    10030    2    1    2    0    0  0.00000000000E+00  0.00000000000E+00 -0.16420984668E+03  0.31079344141E+04  0.31035933123E+04 0.  0.
        2    1    3    3  502    0  0.14819006759E+02 -0.15436036123E+04 -0.24088630801E+03  0.15623565304E+04  0.25500000920E-02 0.  1.
       -2    1    3    3    0  502 -0.14819006759E+02  0.15436036123E+04  0.76676461337E+02  0.15455778837E+04  0.25500000920E-02 0. -1.
</event>
<event>
 5   0  0.2094135E-06  0.3173193E+04  0.7818609E-02  0.8195933E-01
       -2   -1    0    0    0  501  0.00000000000E+00  0.00000000000E+00  0.20184150734E+04  0.20184150734E+04  0.25500000920E-02 0. -1.
        2   -1    0    0  501    0  0.00000000000E+00  0.00000000000E+00 -0.12471611313E+04  0.12471611313E+04  0.25500000920E-02 0.  1.
    10030    2    1    2    0    0  0.00000000000E+00  0.00000000000E+00  0.77125394201E+03  0.32655762047E+04  0.31731932348E+04 0.  0.
        4    1    3    3  502    0 -0.72350327267E+03 -0.25107154622E+03  0.18156110276E+04  0.19705174253E+04  0.12699999809E+01 0. -1.
       -4    1    3    3    0  502  0.72350327267E+03  0.25107154622E+03 -0.10443570856E+04  0.12950587794E+04  0.12699999809E+01 0.  1.
</event>
<event>
 5   0  0.2226334E-06  0.3101522E+04  0.7818609E-02  0.8215320E-01
       -2   -1    0    0    0  501  0.00000000000E+00  0.00000000000E+00  0.13613215649E+04  0.13613215649E+04  0.25500000920E-02 0. -1.
        2   -1    0    0  501    0  0.00000000000E+00  0.00000000000E+00 -0.17665629320E+04  0.17665629320E+04  0.25500000920E-02 0.  1.
    10030    2    1    2    0    0  0.00000000000E+00  0.00000000000E+00 -0.40524136713E+03  0.31278844969E+04  0.31015223456E+04 0.  0.
        5    1    3    3  502    0  0.62558307952E+03  0.12703292423E+04  0.43500925365E+03  0.14813324118E+04  0.46999998093E+01 0.  1.
       -5    1    3    3    0  502 -0.62558307952E+03 -0.12703292423E+04 -0.84025062079E+03  0.16465520851E+04  0.46999998093E+01 0. -1.
</event>
<event>
 5   0  0.2078009E-06  0.3095931E+04  0.7818609E-02  0.8216856E-01
       -2   -1    0    0    0  501  0.00000000000E+00  0.00000000000E+00  0.24318775167E+04  0.24318775167E+04  0.25500000920E-02 0.  1.
        2   -1    0    0  501    0  0.00000000000E+00  0.00000000000E+00 -0.98532785348E+03  0.98532785348E+03  0.25500000920E-02 0. -1.
    10030    2    1    2    0    0  0.00000000000E+00  0.00000000000E+00  0.14465496632E+04  0.34172053701E+04  0.30959306539E+04 0.  0.
        3    1    3    3  502    0  0.67583184765E+03 -0.11568556678E+04 -0.13251103974E+03  0.13463368480E+04  0.10100000352E+00 0. -1.
       -3    1    3    3    0  502 -0.67583184765E+03  0.11568556678E+04  0.15790607029E+04  0.20708685222E+04  0.10100000352E+00 0.  1.
</event>
<event>
 5   0  0.2226334E-06  0.3099847E+04  0.7818609E-02  0.8215780E-01
        2   -1    0    0  501    0  0.00000000000E+00  0.00000000000E+00  0.13783188795E+04  0.13783188795E+04  0.25500000920E-02 0. -1.
       -2   -1    0    0    0  501  0.00000000000E+00  0.00000000000E+00 -0.17428935405E+04  0.17428935405E+04  0.25500000920E-02 0.  1.
    10030    2    1    2    0    0  0.00000000000E+00  0.00000000000E+00 -0.36457466099E+03  0.31212124199E+04  0.30998471393E+04 0.  0.
        5    1    3    3  502    0 -0.11149742682E+04 -0.70623395565E+03  0.63590609712E+03  0.14650367481E+04  0.46999998093E+01 0. -1.
       -5    1    3    3    0  502  0.11149742682E+04  0.70623395565E+03 -0.10004807581E+04  0.16561756719E+04  0.46999998093E+01 0.  1.
</event>
<event>
 5   0  0.2133385E-06  0.2894052E+04  0.7818609E-02  0.8274649E-01
        2   -1    0    0  501    0  0.00000000000E+00  0.00000000000E+00  0.13626998098E+04  0.13626998098E+04  0.25500000920E-02 0. -1.
       -2   -1    0    0    0  501  0.00000000000E+00  0.00000000000E+00 -0.15365699913E+04  0.15365699913E+04  0.25500000920E-02 0.  1.
    10030    2    1    2    0    0  0.00000000000E+00  0.00000000000E+00 -0.17387018150E+03  0.28992698011E+04  0.28940515786E+04 0.  0.
        2    1    3    3  502    0  0.52370928543E+03 -0.10034233405E+04  0.81621904374E+03  0.13954724445E+04  0.25500000920E-02 0. -1.
       -2    1    3    3    0  502 -0.52370928543E+03  0.10034233405E+04 -0.99008922525E+03  0.15037973566E+04  0.25500000920E-02 0.  1.
</event>
<event>
 5   0  0.7726743E-07  0.3089068E+04  0.7818609E-02  0.8218745E-01
        1   -1    0    0  501    0  0.00000000000E+00  0.00000000000E+00  0.18642961443E+04  0.18642961444E+04  0.50400001928E-02 0.  1.
       -1   -1    0    0    0  501  0.00000000000E+00  0.00000000000E+00 -0.12796171367E+04  0.12796171367E+04  0.50400001928E-02 0. -1.
    10030    2    1    2    0    0  0.00000000000E+00  0.00000000000E+00  0.58467900764E+03  0.31439132811E+04  0.30890680111E+04 0.  0.
        1    1    3    3  502    0 -0.13664722996E+04 -0.42167985214E+02  0.10238216513E+04  0.17079916446E+04  0.50400001928E-02 0.  1.
       -1    1    3    3    0  502  0.13664722996E+04  0.42167985214E+02 -0.43914264363E+03  0.14359216364E+04  0.50400001928E-02 0. -1.
</event>
<event>
 5   0  0.7519202E-07  0.3083162E+04  0.7818609E-02  0.8220374E-01
       -1   -1    0    0    0  501  0.00000000000E+00  0.00000000000E+00  0.10620678542E+04  0.10620678542E+04  0.50400001928E-02 0. -1.
        1   -1    0    0  501    0  0.00000000000E+00  0.00000000000E+00 -0.22375896979E+04  0.22375896979E+04  0.50400001928E-02 0.  1.
    10030    2    1    2    0    0  0.00000000000E+00  0.00000000000E+00 -0.11755218438E+04  0.32996575521E+04  0.30831620710E+04 0.  0.
        4    1    3    3  502    0  0.63638302498E+03  0.62034153158E+02  0.91346209209E+03  0.11150095054E+04  0.12699999809E+01 0. -1.
       -4    1    3    3    0  502 -0.63638302498E+03 -0.62034153158E+02 -0.20889839359E+04  0.21846480467E+04  0.12699999809E+01 0.  1.
</event>
<event>
 5   0  0.2094135E-06  0.3050688E+04  0.7818609E-02  0.8229403E-01
        2   -1    0    0  501    0  0.00000000000E+00  0.00000000000E+00  0.99037760479E+03  0.99037760480E+03  0.25500000920E-02 0. -1.
       -2   -1    0    0    0  501  0.00000000000E+00  0.00000000000E+00 -0.23492805540E+04  0.23492805540E+04  0.25500000920E-02 0.  1.
    10030    2    1    2    0    0  0.00000000000E+00  0.00000000000E+00 -0.13589029493E+04  0.33396581588E+04  0.30506883473E+04 0.  0.
        4    1    3    3  502    0  0.20123957502E+03  0.29613529339E+03 -0.23026267091E+04  0.23302971598E+04  0.12699999809E+01 0.  1.
       -4    1    3    3    0  502 -0.20123957502E+03 -0.29613529339E+03  0.94372375987E+03  0.10093609990E+04  0.12699999809E+01 0. -1.
</event>
<event>
 5   0  0.2094135E-06  0.3110283E+04  0.7818609E-02  0.8212921E-01
       -2   -1    0    0    0  501  0.00000000000E+00  0.00000000000E+00  0.26897493999E+04  0.26897493999E+04  0.25500000920E-02 0.  1.
        2   -1    0    0  501    0  0.00000000000E+00  0.00000000000E+00 -0.89914159695E+03  0.89914159695E+03  0.25500000920E-02 0. -1.
    10030    2    1    2    0    0  0.00000000000E+00  0.00000000000E+00  0.17906078030E+04  0.35888909969E+04  0.31102833124E+04 0.  0.
        4    1    3    3  502    0  0.26898929627E+03 -0.10595690551E+04  0.21715913094E+04  0.24312244347E+04  0.12699999809E+01 0.  1.
       -4    1    3    3    0  502 -0.26898929627E+03  0.10595690551E+04 -0.38098350643E+03  0.11576665621E+04  0.12699999809E+01 0. -1.
</event>
<event>
 5   0  0.7656332E-07  0.3121618E+04  0.7818609E-02  0.8209830E-01
        1   -1    0    0  501    0  0.00000000000E+00  0.00000000000E+00  0.16709750601E+04  0.16709750601E+04  0.50400001928E-02 0.  1.
       -1   -1    0    0    0  501  0.00000000000E+00  0.00000000000E+00 -0.14579061856E+04  0.14579061856E+04  0.50400001928E-02 0. -1.
    10030    2    1    2    0    0  0.00000000000E+00  0.00000000000E+00  0.21306887450E+03  0.31288812457E+04  0.31216180907E+04 0.  0.
        2    1    3    3  502    0 -0.10448908448E+04 -0.34742670865E+03 -0.10022141268E+04  0.14889376587E+04  0.25500000920E-02 0. -1.
       -2    1    3    3    0  502  0.10448908448E+04  0.34742670865E+03  0.12152830013E+04  0.16399435870E+04  0.25500000920E-02 0.  1.
</event>
<event>
 5   0  0.7656332E-07  0.3135107E+04  0.7818609E-02  0.8206169E-01
        1   -1    0    0  501    0  0.00000000000E+00  0.00000000000E+00  0.15471082824E+04  0.15471082824E+04  0.50400001928E-02 0. -1.
       -1   -1    0    0    0  501  0.00000000000E+00  0.00000000000E+00 -0.15882689746E+04  0.15882689746E+04  0.50400001928E-02 0.  1.
    10030    2    1    2    0    0  0.00000000000E+00  0.00000000000E+00 -0.41160692229E+02  0.31353772570E+04  0.31351070701E+04 0.  0.
        2    1    3    3  502    0 -0.11261590772E+04 -0.44877539193E+03 -0.10144418536E+04  0.15807358711E+04  0.25500000920E-02 0.  1.
       -2    1    3    3    0  502  0.11261590772E+04  0.44877539193E+03  0.97328116140E+03  0.15546413859E+04  0.25500000920E-02 0. -1.
</event>
<event>
 5   0  0.2133385E-06  0.2924775E+04  0.7818609E-02  0.8265544E-01
       -2   -1    0    0    0  501  0.00000000000E+00  0.00000000000E+00  0.14436695747E+04  0.14436695747E+04  0.25500000920E-02 0.  1.
        2   -1    0    0  501    0  0.00000000000E+00  0.00000000000E+00 -0.14813484906E+04  0.14813484906E+04  0.25500000920E-02 0. -1.
    10030    2    1    2    0    0  0.00000000000E+00  0.00000000000E+00 -0.37678915953E+02  0.29250180653E+04  0.29247753729E+04 0.  0.
        2    1    3    3  502    0  0.53497690634E+03 -0.50127206821E+03 -0.12842917459E+04  0.14788100843E+04  0.25500000920E-02 0. -1.
       -2    1    3    3    0  502 -0.53497690634E+03  0.50127206821E+03  0.12466128300E+04  0.14462079811E+04  0.25500000920E-02 0.  1.
</event>
<event>
 5   0  0.2078009E-06  0.3091737E+04  0.7818609E-02  0.8218009E-01
        2   -1    0    0  501    0  0.00000000000E+00  0.00000000000E+00  0.12604494580E+04  0.12604494580E+04  0.25500000920E-02 0.  1.
       -2   -1    0    0    0  501  0.00000000000E+00  0.00000000000E+00 -0.18959179131E+04  0.18959179131E+04  0.25500000920E-02 0. -1.
    10030    2    1    2    0    0  0.00000000000E+00  0.00000000000E+00 -0.63546845510E+03  0.31563673712E+04  0.30917365387E+04 0.  0.
        3    1    3    3  502    0 -0.23714691899E+03  0.57511404378E+03  0.11270218153E+04  0.12873123191E+04  0.10100000352E+00 0.  1.
       -3    1    3    3    0  502  0.23714691899E+03 -0.57511404378E+03 -0.17624902704E+04  0.18690550521E+04  0.10100000352E+00 0. -1.
</event>
<event>
 5   0  0.2133385E-06  0.3092116E+04  0.7818609E-02  0.8217905E-01
       -2   -1    0    0    0  501  0.00000000000E+00  0.00000000000E+00  0.12125927187E+04  0.12125927187E+04  0.25500000920E-02 0. -1.
        2   -1    0    0  501    0  0.00000000000E+00  0.00000000000E+00 -0.19712272974E+04  0.19712272974E+04  0.25500000920E-02 0.  1.
    10030    2    1    2    0    0  0.00000000000E+00  0.00000000000E+00 -0.75863457870E+03  0.31838200160E+04  0.30921163417E+04 0.  0.
        2    1    3    3  502    0 -0.65230183220E+02  0.52861735978E+03 -0.18737769422E+04  0.19480070121E+04  0.25500000920E-02 0.  1.
       -2    1    3    3    0  502  0.65230183220E+02 -0.52861735978E+03  0.11151423635E+04  0.12358130040E+04  0.25500000920E-02 0. -1.
</event>
<event>
 5   0  0.2067926E-06  0.3035774E+04  0.7818609E-02  0.8233589E-01
        2   -1    0    0  501    0  0.00000000000E+00  0.00000000000E+00  0.13777745521E+04  0.13777745521E+04  0.25500000920E-02 0. -1.
       -2   -1    0    0    0  501  0.00000000000E+00  0.00000000000E+00 -0.16722482230E+04  0.16722482230E+04  0.25500000920E-02 0.  1.
    10030    2    1    2    0    0  0.00000000000E+00  0.00000000000E+00 -0.29447367083E+03  0.30500227751E+04  0.30357740670E+04 0.  0.
        1    1    3    3  502    0  0.97780806506E+03  0.10507631864E+04 -0.64328405123E+03  0.15729037658E+04  0.50400001928E-02 0. -1.
       -1    1    3    3    0  502 -0.97780806506E+03 -0.10507631864E+04  0.34881038040E+03  0.14771190093E+04  0.50400001928E-02 0.  1.
</event>
<event>
 5   0  0.7413481E-07  0.3091083E+04  0.7818609E-02  0.8218189E-01
        1   -1    0    0  501    0  0.00000000000E+00  0.00000000000E+00  0.15310690632E+04  0.15310690632E+04  0.50400001928E-02 0.  1.
       -1   -1    0    0    0  501  0.00000000000E+00  0.00000000000E+00 -0.15601509428E+04  0.15601509428E+04  0.50400001928E-02 0. -1.
    10030    2    1    2    0    0  0.00000000000E+00  0.00000000000E+00 -0.29081879595E+02  0.30912200061E+04  0.30910832034E+04 0.  0.
        5    1    3    3  502    0  0.88719776448E+01  0.33162081933E+03  0.14950376002E+04  0.15314080435E+04  0.46999998093E+01 0.  1.
       -5    1    3    3    0  502 -0.88719776448E+01 -0.33162081933E+03 -0.15241194798E+04  0.15598119625E+04  0.46999998093E+01 0. -1.
</event>
<event>
 5   0  0.2226334E-06  0.3109383E+04  0.7818609E-02  0.8213167E-01
       -2   -1    0    0    0  501  0.00000000000E+00  0.00000000000E+00  0.11676619770E+04  0.11676619770E+04  0.25500000920E-02 0. -1.
        2   -1    0    0  501    0  0.00000000000E+00  0.00000000000E+00 -0.20700048557E+04  0.20700048557E+04  0.25500000920E-02 0.  1.
    10030    2    1    2    0    0  0.00000000000E+00  0.00000000000E+00 -0.90234287862E+03  0.32376668327E+04  0.31093831943E+04 0.  0.
        5    1    3    3  502    0 -0.77581346193E+03 -0.13445900828E+04 -0.36260426490E+03  0.15941496045E+04  0.46999998093E+01 0.  1.
       -5    1    3    3    0  502  0.77581346193E+03  0.13445900828E+04 -0.53973861373E+03  0.16435172283E+04  0.46999998093E+01 0. -1.
</event>
<event>
 5   0  0.2094135E-06  0.3099268E+04  0.7818609E-02  0.8215939E-01
        2   -1    0    0  501    0  0.00000000000E+00  0.00000000000E+00  0.20636930649E+04  0.20636930649E+04  0.25500000920E-02 0. -1.
       -2   -1    0    0    0  501  0.00000000000E+00  0.00000000000E+00 -0.11636250929E+04  0.11636250929E+04  0.25500000920E-02 0.  1.
    10030    2    1    2    0    0  0.00000000000E+00  0.00000000000E+00  0.90006797206E+03  0.32273181578E+04  0.30992676776E+04 0.  0.
        4    1    3    3  502    0  0.38277059731E+03 -0.10069576511E+03 -0.11101034536E+04  0.11785517629E+04  0.12699999809E+01 0.  1.
       -4    1    3    3    0  502 -0.38277059731E+03  0.10069576511E+03  0.20101714257E+04  0.20487663949E+04  0.12699999809E+01 0. -1.
</event>
<event>
 5   0  0.2133385E-06  0.3101355E+04  0.7818609E-02  0.8215366E-01
        2   -1    0    0  501    0  0.00000000000E+00  0.00000000000E+00  0.15373320929E+04  0.15373320929E+04  0.25500000920E-02 0.  1.
       -2   -1    0    0    0  501  0.00000000000E+00  0.00000000000E+00 -0.15641390258E+04  0.15641390258E+04  0.25500000920E-02 0. -1.
    10030    2    1    2    0    0  0.00000000000E+00  0.00000000000E+00 -0.26806932948E+02  0.31014711187E+04  0.31013552664E+04 0.  0.
        2    1    3    3  502    0  0.62255422525E+03 -0.11786058484E+04  0.77903739939E+03  0.15438862584E+04  0.25500000920E-02 0.  1.
       -2    1    3    3    0  502 -0.62255422525E+03  0.11786058484E+04 -0.80584433234E+03  0.15575848603E+04  0.25500000920E-02 0. -1.
</event>
<event>
 5   0  0.7413481E-07  0.3108737E+04  0.7818609E-02  0.8213344E-01
       -1   -1    0    0    0  501  0.00000000000E+00  0.00000000000E+00  0.20899344489E+04  0.20899344489E+04  0.50400001928E-02 0. -1.
        1   -1    0    0  501    0  0.00000000000E+00  0.00000000000E+00 -0.11560464374E+04  0.11560464374E+04  0.50400001928E-02 0.  1.
    10030    2    1    2    0    0  0.00000000000E+00  0.00000000000E+00  0.93388801145E+03  0.32459808863E+04  0.31087368972E+04 0.  0.
        5    1    3    3  502    0 -0.91479697154E+03 -0.12355900450E+04  0.70619499523E+03  0.16918243761E+04  0.46999998093E+01 0. -1.
       -5    1    3    3    0  502  0.91479697154E+03  0.12355900450E+04  0.22769301622E+03  0.15541565102E+04  0.46999998093E+01 0.  1.
</event>
<event>
 5   0  0.7413481E-07  0.3088161E+04  0.7818609E-02  0.8218995E-01
       -1   -1    0    0    0  501  0.00000000000E+00  0.00000000000E+00  0.11348472951E+04  0.11348472951E+04  0.50400001928E-02 0.  1.
        1   -1    0    0  501    0  0.00000000000E+00  0.00000000000E+00 -0.21008853784E+04  0.21008853784E+04  0.50400001928E-02 0. -1.
    10030    2    1    2    0    0  0.00000000000E+00  0.00000000000E+00 -0.96603808334E+03  0.32357326735E+04  0.30881606752E+04 0.  0.
        5    1    3    3  502    0 -0.98483845141E+03 -0.12666893176E+03  0.75594579232E+03  0.12479695207E+04  0.46999998093E+01 0.  1.
       -5    1    3    3    0  502  0.98483845141E+03  0.12666893176E+03 -0.17219838757E+04  0.19877631528E+04  0.46999998093E+01 0. -1.
</event>
<event>
 5   0  0.2067926E-06  0.3061580E+04  0.7818609E-02  0.8226362E-01
       -2   -1    0    0    0  501  0.00000000000E+00  0.00000000000E+00  0.11882200616E+04  0.11882200616E+04  0.25500000920E-02 0. -1.
        2   -1    0    0  501    0  0.00000000000E+00  0.00000000000E+00 -0.19721240652E+04  0.19721240652E+04  0.25500000920E-02 0.  1.
    10030    2    1    2    0    0  0.00000000000E+00  0.00000000000E+00 -0.78390400360E+03  0.31603441267E+04  0.30615795780E+04 0.  0.
        1    1    3    3  502    0  0.45902721280E+03 -0.83019585423E+03  0.84821480471E+03  0.12725562830E+04  0.50400001928E-02 0.  1.
       -1    1    3    3    0  502 -0.45902721280E+03  0.83019585423E+03 -0.16321188083E+04  0.18877878437E+04  0.50400001928E-02 0. -1.
</event>
<event>
 5   0  0.2226334E-06  0.3231484E+04  0.7818609E-02  0.8180552E-01
        2   -1    0    0  501    0  0.00000000000E+00  0.00000000000E+00  0.12388181269E+04  0.12388181269E+04  0.25500000920E-02 0. -1.
       -2   -1    0    0    0  501  0.00000000000E+00  0.00000000000E+00 -0.21073486213E+04  0.21073486213E+04  0.25500000920E-02 0.  1.
    10030    2    1    2    0    0  0.00000000000E+00  0.00000000000E+00 -0.86853049434E+03  0.33461667482E+04  0.32314836665E+04 0.  0.
        5    1    3    3  502    0 -0.14369358023E+04  0.62058553326E+03 -0.84935140656E+03  0.17808230698E+04  0.46999998093E+01 0.  1.
       -5    1    3    3    0  502  0.14369358023E+04 -0.62058553326E+03 -0.19179087775E+02  0.15653436784E+04  0.46999998093E+01 0. -1.
</event>
<event>
 5   0  0.2226334E-06  0.3085698E+04  0.7818609E-02  0.8219674E-01
        2   -1    0    0  501    0  0.00000000000E+00  0.00000000000E+00  0.16933282946E+04  0.16933282946E+04  0.25500000920E-02 0. -1.
       -2   -1    0    0    0  501  0.00000000000E+00  0.00000000000E+00 -0.14057424254E+04  0.14057424254E+04  0.25500000920E-02 0.  1.
    10030    2    1    2    0    0  0.00000000000E+00  0.00000000000E+00  0.28758586914E+03  0.30990707200E+04  0.30856982509E+04 0.  0.
        5    1    3    3  502    0 -0.31782087298E+03  0.13721747219E+04 -0.48860861360E+03  0.14908501071E+04  0.46999998093E+01 0.  1.
       -5    1    3    3    0  502  0.31782087298E+03 -0.13721747219E+04  0.77619448274E+03  0.16082206129E+04  0.46999998093E+01 0. -1.
</event>
<event>
 5   0  0.7519202E-07  0.3106918E+04  0.7818609E-02  0.8213842E-01
       -1   -1    0    0    0  501  0.00000000000E+00  0.00000000000E+00  0.77108786331E+03  0.77108786332E+03  0.50400001928E-02 0. -1.
        1   -1    0    0  501    0  0.00000000000E+00  0.00000000000E+00 -0.31296490798E+04  0.31296490798E+04  0.50400001928E-02 0.  1.
    10030    2    1    2    0    0  0.00000000000E+00  0.00000000000E+00 -0.23585612165E+04  0.39007369432E+04  0.31069177150E+04 0.  0.
        4    1    3    3  502    0 -0.13623489140E+04  0.52699113046E+03 -0.51550351103E+03  0.15490189469E+04  0.12699999809E+01 0.  1.
       -4    1    3    3    0  502  0.13623489140E+04 -0.52699113046E+03 -0.18430577055E+04  0.23517179962E+04  0.12699999809E+01 0. -1.
</event>
<event>
 5   0  0.7519202E-07  0.3062116E+04  0.7818609E-02  0.8226212E-01
       -1   -1    0    0    0  501  0.00000000000E+00  0.00000000000E+00  0.10420857573E+04  0.10420857573E+04  0.50400001928E-02 0.  1.
        1   -1    0    0  501    0  0.00000000000E+00  0.00000000000E+00 -0.22494674960E+04  0.22494674960E+04  0.50400001928E-02 0. -1.
    10030    2    1    2    0    0  0.00000000000E+00  0.00000000000E+00 -0.12073817387E+04  0.32915532533E+04  0.30621156341E+04 0.  0.
        4    1    3    3  502    0  0.74136498932E+03 -0.90846983716E+02  0.83296179281E+03  0.11187949692E+04  0.12699999809E+01 0.  1.
       -4    1    3    3    0  502 -0.74136498932E+03  0.90846983716E+02 -0.20403435315E+04  0.21727582842E+04  0.12699999809E+01 0. -1.
</event>
<event>
 5   0  0.7656332E-07  0.2863024E+04  0.7818609E-02  0.8283965E-01
       -1   -1    0    0    0  501  0.00000000000E+00  0.00000000000E+00  0.15100403675E+04  0.15100403675E+04  0.50400001928E-02 0. -1.
        1   -1    0    0  501    0  0.00000000000E+00  0.00000000000E+00 -0.13570669876E+04  0.13570669877E+04  0.50400001928E-02 0.  1.
    10030    2    1    2    0    0  0.00000000000E+00  0.00000000000E+00  0.15297337984E+03  0.28671073551E+04  0.28630235296E+04 0.  0.
        2    1    3    3  502    0  0.52570475393E+03 -0.10885959124E+04  0.84427410499E+03  0.14745186717E+04  0.25500000920E-02 0. -1.
       -2    1    3    3    0  502 -0.52570475393E+03  0.10885959124E+04 -0.69130072515E+03  0.13925886835E+04  0.25500000920E-02 0.  1.
</event>
<event>
 5   0  0.2067926E-06  0.3091650E+04  0.7818609E-02  0.8218033E-01
        2   -1    0    0  501    0  0.00000000000E+00  0.00000000000E+00  0.24412030316E+04  0.24412030316E+04  0.25500000920E-02 0. -1.
       -2   -1    0    0    0  501  0.00000000000E+00  0.00000000000E+00 -0.97885136139E+03  0.97885136139E+03  0.25500000920E-02 0.  1.
    10030    2    1    2    0    0  0.00000000000E+00  0.00000000000E+00  0.14623516702E+04  0.34200543930E+04  0.30916499872E+04 0.  0.
        1    1    3    3  502    0 -0.58111246314E+03  0.14202702364E+04  0.93728887996E+03  0.17981573023E+04  0.50400001928E-02 0. -1.
       -1    1    3    3    0  502  0.58111246314E+03 -0.14202702364E+04  0.52506279025E+03  0.16218970907E+04  0.50400001928E-02 0.  1.
</event>
<event>
 5   0  0.2226334E-06  0.3093173E+04  0.7818609E-02  0.8217614E-01
        2   -1    0    0  501    0  0.00000000000E+00  0.00000000000E+00  0.23505790625E+04  0.23505790625E+04  0.25500000920E-02 0.  1.
       -2   -1    0    0    0  501  0.00000000000E+00  0.00000000000E+00 -0.10175918120E+04  0.10175918120E+04  0.25500000920E-02 0. -1.
    10030    2    1    2    0    0  0.00000000000E+00  0.00000000000E+00  0.13329872505E+04  0.33681708745E+04  0.30931731328E+04 0.  0.
        5    1    3    3  502    0 -0.36233926359E+03 -0.54834433154E+03 -0.85794837649E+03  0.10807722954E+04  0.46999998093E+01 0. -1.
       -5    1    3    3    0  502  0.36233926359E+03  0.54834433154E+03  0.21909356269E+04  0.22873985790E+04  0.46999998093E+01 0.  1.
</event>
<event>
 5   0  0.2078009E-06  0.3088473E+04  0.7818609E-02  0.8218909E-01
        2   -1    0    0  501    0  0.00000000000E+00  0.00000000000E+00  0.75891277057E+03  0.75891277057E+03  0.25500000920E-02 0.  1.
       -2   -1    0    0    0  501  0.00000000000E+00  0.00000000000E+00 -0.31422132449E+04  0.31422132449E+04  0.25500000920E-02 0. -1.
    10030    2    1    2    0    0  0.00000000000E+00  0.00000000000E+00 -0.23833004744E+04  0.39011260155E+04  0.30884726060E+04 0.  0.
        3    1    3    3  502    0  0.74629102011E+03 -0.40483313994E+03  0.43764626674E+03  0.95518292640E+03  0.10100000352E+00 0.  1.
       -3    1    3    3    0  502 -0.74629102011E+03  0.40483313994E+03 -0.28209467411E+04  0.29459430891E+04  0.10100000352E+00 0. -1.
</event>
<event>
 5   0  0.7519202E-07  0.3122022E+04  0.7818609E-02  0.8209720E-01
        1   -1    0    0  501    0  0.00000000000E+00  0.00000000000E+00  0.38091521099E+04  0.38091521099E+04  0.50400001928E-02 0. -1.
       -1   -1    0    0    0  501  0.00000000000E+00  0.00000000000E+00 -0.63971057955E+03  0.63971057957E+03  0.50400001928E-02 0.  1.
    10030    2    1    2    0    0  0.00000000000E+00  0.00000000000E+00  0.31694415304E+04  0.44488626895E+04  0.31220217193E+04 0.  0.
        4    1    3    3  502    0 -0.14544156688E+04  0.48562620509E+03  0.11678142752E+04  0.19274204375E+04  0.12699999809E+01 0.  1.
       -4    1    3    3    0  502  0.14544156688E+04 -0.48562620509E+03  0.20016272552E+04  0.25214422520E+04  0.12699999809E+01 0. -1.
</event>
<event>
 5   0  0.2067926E-06  0.3070935E+04  0.7818609E-02  0.8223760E-01
       -2   -1    0    0    0  501  0.00000000000E+00  0.00000000000E+00  0.11653710665E+04  0.11653710665E+04  0.25500000920E-02 0.  1.
        2   -1    0    0  501    0  0.00000000000E+00  0.00000000000E+00 -0.20230990222E+04  0.20230990222E+04  0.25500000920E-02 0. -1.
    10030    2    1    2    0    0  0.00000000000E+00  0.00000000000E+00 -0.85772795572E+03  0.31884700887E+04  0.30709354048E+04 0.  0.
        1    1    3    3  502    0  0.83827114899E+03 -0.84380261318E+03  0.57936280728E+03  0.13230127103E+04  0.50400001928E-02 0.  1.
       -1    1    3    3    0  502 -0.83827114899E+03  0.84380261318E+03 -0.14370907630E+04  0.18654573783E+04  0.50400001928E-02 0. -1.
</event>
<event>
 5   0  0.7519202E-07  0.3103969E+04  0.7818609E-02  0.8214649E-01
       -1   -1    0    0    0  501  0.00000000000E+00  0.00000000000E+00  0.78610178056E+03  0.78610178057E+03  0.50400001928E-02 0. -1.
        1   -1    0    0  501    0  0.00000000000E+00  0.00000000000E+00 -0.30640511176E+04  0.30640511176E+04  0.50400001928E-02 0.  1.
    10030    2    1    2    0    0  0.00000000000E+00  0.00000000000E+00 -0.22779493371E+04  0.38501528982E+04  0.31039690973E+04 0.  0.
        4    1    3    3  502    0  0.11246829009E+04 -0.66603704683E+03 -0.10108248221E+03  0.13110058186E+04  0.12699999809E+01 0. -1.
       -4    1    3    3    0  502 -0.11246829009E+04  0.66603704683E+03 -0.21768668548E+04  0.25391470796E+04  0.12699999809E+01 0.  1.
</event>
<event>
 5   0  0.2078009E-06  0.3095206E+04  0.7818609E-02  0.8217055E-01
        2   -1    0    0  501    0  0.00000000000E+00  0.00000000000E+00  0.23715533830E+04  0.23715533830E+04  0.25500000920E-02 0. -1.
       -2   -1    0    0    0  501  0.00000000000E+00  0.00000000000E+00 -0.10099184594E+04  0.10099184594E+04  0.25500000920E-02 0.  1.
    10030    2    1    2    0    0  0.00000000000E+00  0.00000000000E+00  0.13616349236E+04  0.33814718424E+04  0.30952063188E+04 0.  0.
        3    1    3    3  502    0  0.37545672054E+03 -0.10482943595E+04  0.18550179729E+04  0.21635573723E+04  0.10100000352E+00 0. -1.
       -3    1    3    3    0  502 -0.37545672054E+03  0.10482943595E+04 -0.49338304930E+03  0.12179144702E+04  0.10100000352E+00 0.  1.
</event>
<event>
 5   0  0.2094135E-06  0.3116531E+04  0.7818609E-02  0.8211216E-01
        2   -1    0    0  501    0  0.00000000000E+00  0.00000000000E+00  0.13578019313E+04  0.13578019313E+04  0.25500000920E-02 0. -1.
       -2   -1    0    0    0  501  0.00000000000E+00  0.00000000000E+00 -0.17883250461E+04  0.17883250461E+04  0.25500000920E-02 0.  1.
    10030    2    1    2    0    0  0.00000000000E+00  0.00000000000E+00 -0.43052311479E+03  0.31461269774E+04  0.31165308928E+04 0.  0.
        4    1    3    3  502    0  0.48102973882E+02 -0.76053075484E+03  0.11568624114E+04  0.13852989486E+04  0.12699999809E+01 0. -1.
       -4    1    3    3    0  502 -0.48102973882E+02  0.76053075484E+03 -0.15873855262E+04  0.17608280288E+04  0.12699999809E+01 0.  1.
</event>
<event>
 5   0  0.7726743E-07  0.3115902E+04  0.7818609E-02  0.8211387E-01
        1   -1    0    0  501    0  0.00000000000E+00  0.00000000000E+00  0.10005497304E+04  0.10005497304E+04  0.50400001928E-02 0.  1.
       -1   -1    0    0    0  501  0.00000000000E+00  0.00000000000E+00 -0.24258778419E+04  0.24258778419E+04  0.50400001928E-02 0. -1.
    10030    2    1    2    0    0  0.00000000000E+00  0.00000000000E+00 -0.14253281115E+04  0.34264275724E+04  0.31159020657E+04 0.  0.
        1    1    3    3  502    0  0.64825980292E+03  0.88781972680E+03 -0.19266523466E+04  0.22182096168E+04  0.50400001928E-02 0. -1.
       -1    1    3    3    0  502 -0.64825980292E+03 -0.88781972680E+03  0.50132423513E+03  0.12082179556E+04  0.50400001928E-02 0.  1.
</event>
<event>
 5   0  0.2067926E-06  0.3100204E+04  0.7818609E-02  0.8215682E-01
       -2   -1    0    0    0  501  0.00000000000E+00  0.00000000000E+00  0.10793929113E+04  0.10793929113E+04  0.25500000920E-02 0. -1.
        2   -1    0    0  501    0  0.00000000000E+00  0.00000000000E+00 -0.22260809175E+04  0.22260809175E+04  0.25500000920E-02 0.  1.
    10030    2    1    2    0    0  0.00000000000E+00  0.00000000000E+00 -0.11466880061E+04  0.33054738288E+04  0.31002038400E+04 0.  0.
        1    1    3    3  502    0 -0.16450033929E+03  0.72862185059E+03 -0.20215350661E+04  0.21551227776E+04  0.50400001928E-02 0.  1.
       -1    1    3    3    0  502  0.16450033929E+03 -0.72862185059E+03  0.87484705998E+03  0.11503510513E+04  0.50400001928E-02 0. -1.
</event>
<event>
 5   0  0.7413481E-07  0.3098879E+04  0.7818609E-02  0.8216046E-01
       -1   -1    0    0    0  501  0.00000000000E+00  0.00000000000E+00  0.87925596995E+03  0.87925596996E+03  0.50400001928E-02 0.  1.
        1   -1    0    0  501    0  0.00000000000E+00  0.00000000000E+00 -0.27304480662E+04  0.27304480662E+04  0.50400001928E-02 0. -1.
    10030    2    1    2    0    0  0.00000000000E+00  0.00000000000E+00 -0.18511920962E+04  0.36097040361E+04  0.30988789991E+04 0.  0.
        5    1    3    3  502    0 -0.88561920251E+03 -0.85099185161E+03  0.17469078296E+03  0.12405835171E+04  0.46999998093E+01 0.  1.
       -5    1    3    3    0  502  0.88561920251E+03  0.85099185161E+03 -0.20258828792E+04  0.23691205190E+04  0.46999998093E+01 0. -1.
</event>
<event>
 5   0  0.7413481E-07  0.2931889E+04  0.7818609E-02  0.8263452E-01
        1   -1    0    0  501    0  0.00000000000E+00  0.00000000000E+00  0.24039226380E+04  0.24039226380E+04  0.50400001928E-02 0.  1.
       -1   -1    0    0    0  501  0.00000000000E+00  0.00000000000E+00 -0.89395245543E+03  0.89395245544E+03  0.50400001928E-02 0. -1.
    10030    2    1    2    0    0  0.00000000000E+00  0.00000000000E+00  0.15099701825E+04  0.32978750934E+04  0.29318885005E+04 0.  0.
        5    1    3    3  502    0  0.95371727385E+03 -0.71100108652E+03 -0.20861469746E+03  0.12077422595E+04  0.46999998093E+01 0. -1.
       -5    1    3    3    0  502 -0.95371727385E+03  0.71100108652E+03  0.17185848800E+04  0.20901328339E+04  0.46999998093E+01 0.  1.
</event>
<event>
 5   0  0.7519202E-07  0.3110916E+04  0.7818609E-02  0.8212749E-01
        1   -1    0    0  501    0  0.00000000000E+00  0.00000000000E+00  0.26018206930E+04  0.26018206930E+04  0.50400001928E-02 0.  1.
       -1   -1    0    0    0  501  0.00000000000E+00  0.00000000000E+00 -0.92990608197E+03  0.92990608198E+03  0.50400001928E-02 0. -1.
    10030    2    1    2    0    0  0.00000000000E+00  0.00000000000E+00  0.16719146110E+04  0.35317267750E+04  0.31109155480E+04 0.  0.
        4    1    3    3  502    0 -0.48290428081E+03 -0.84061061388E+03 -0.54498214614E+03  0.11121285452E+04  0.12699999809E+01 0. -1.
       -4    1    3    3    0  502  0.48290428081E+03  0.84061061388E+03  0.22168967572E+04  0.24195982298E+04  0.12699999809E+01 0.  1.
</event>
<event>
 5   0  0.7561815E-07  0.2986295E+04  0.7818609E-02  0.8247655E-01
       -1   -1    0    0    0  501  0.00000000000E+00  0.00000000000E+00  0.80159552924E+03  0.80159552925E+03  0.50400001928E-02 0. -1.
        1   -1    0    0  501    0  0.00000000000E+00  0.00000000000E+00 -0.27813146398E+04  0.27813146398E+04  0.50400001928E-02 0.  1.
    10030    2    1    2    0    0  0.00000000000E+00  0.00000000000E+00 -0.19797191105E+04  0.35829101690E+04  0.29862949490E+04 0.  0.
        3    1    3    3  502    0 -0.35663742022E+02  0.87233470880E+03 -0.24431593873E+04  0.25944686447E+04  0.10100000352E+00 0.  1.
       -3    1    3    3    0  502  0.35663742022E+02 -0.87233470880E+03  0.46344027673E+03  0.98844152430E+03  0.10100000352E+00 0. -1.
</event>
<event>
 5   0  0.7561815E-07  0.3101658E+04  0.7818609E-02  0.8215283E-01
       -1   -1    0    0    0  501  0.00000000000E+00  0.00000000000E+00  0.16243805486E+04  0.16243805486E+04  0.50400001928E-02 0.  1.
        1   -1    0    0  501    0  0.00000000000E+00  0.00000000000E+00 -0.14806079233E+04  0.14806079233E+04  0.50400001928E-02 0. -1.
    10030    2    1    2    0    0  0.00000000000E+00  0.00000000000E+00  0.14377262530E+03  0.31049884719E+04  0.31016580796E+04 0.  0.
        3    1    3    3  502    0  0.15275982407E+04  0.23713078333E+03  0.19564472914E+03  0.15582247153E+04  0.10100000352E+00 0. -1.
       -3    1    3    3    0  502 -0.15275982407E+04 -0.23713078333E+03 -0.51872103841E+02  0.15467637566E+04  0.10100000352E+00 0.  1.
</event>
<event>
 5   0  0.7519202E-07  0.3083896E+04  0.7818609E-02  0.8220171E-01
        1   -1    0    0  501    0  0.00000000000E+00  0.00000000000E+00  0.16540026532E+04  0.16540026532E+04  0.50400001928E-02 0. -1.
       -1   -1    0    0    0  501  0.00000000000E+00  0.00000000000E+00 -0.14374849204E+04  0.14374849204E+04  0.50400001928E-02 0.  1.
    10030    2    1    2    0    0  0.00000000000E+00  0.00000000000E+00  0.21651773281E+03  0.30914875736E+04  0.30838961541E+04 0.  0.
        4    1    3    3  502    0  0.14074792322E+04  0.10364453888E+03 -0.51444838468E+03  0.15021313967E+04  0.12699999809E+01 0. -1.
       -4    1    3    3    0  502 -0.14074792322E+04 -0.10364453888E+03  0.73096611749E+03  0.15893561770E+04  0.12699999809E+01 0.  1.
</event>
<event>
 5   0  0.7561815E-07  0.3085983E+04  0.7818609E-02  0.8219595E-01
        1   -1    0    0  501    0  0.00000000000E+00  0.00000000000E+00  0.16087784353E+04  0.16087784353E+04  0.50400001928E-02 0.  1.
       -1   -1    0    0    0  501  0.00000000000E+00  0.00000000000E+00 -0.14798952120E+04  0.14798952120E+04  0.50400001928E-02 0. -1.
    10030    2    1    2    0    0  0.00000000000E+00  0.00000000000E+00  0.12888322336E+03  0.30886736473E+04  0.30859834760E+04 0.  0.
        3    1    3    3  502    0 -0.12904697275E+04 -0.71045136511E+03 -0.39505579534E+03  0.15251630573E+04  0.10100000352E+00 0. -1.
       -3    1    3    3    0  502  0.12904697275E+04  0.71045136511E+03  0.52393901870E+03  0.15635105900E+04  0.10100000352E+00 0.  1.
</event>
<event>
 5   0  0.7726743E-07  0.2929383E+04  0.7818609E-02  0.8264188E-01
        1   -1    0    0  501    0  0.00000000000E+00  0.00000000000E+00  0.14620070907E+04  0.14620070907E+04  0.50400001928E-02 0.  1.
       -1   -1    0    0    0  501  0.00000000000E+00  0.00000000000E+00 -0.14673810379E+04  0.14673810379E+04  0.50400001928E-02 0. -1.
    10030    2    1    2    0    0  0.00000000000E+00  0.00000000000E+00 -0.53739471577E+01  0.29293881286E+04  0.29293831994E+04 0.  0.
        1    1    3    3  502    0  0.13984701527E+03  0.67192733808E+03  0.12912541307E+04  0.14623203361E+04  0.50400001928E-02 0.  1.
       -1    1    3    3    0  502 -0.13984701527E+03 -0.67192733808E+03 -0.12966280779E+04  0.14670677925E+04  0.50400001928E-02 0. -1.
</event>
<event>
 5   0  0.7413481E-07  0.3076430E+04  0.7818609E-02  0.8222237E-01
        1   -1    0    0  501    0  0.00000000000E+00  0.00000000000E+00  0.93763156632E+03  0.93763156633E+03  0.50400001928E-02 0.  1.
       -1   -1    0    0    0  501  0.00000000000E+00  0.00000000000E+00 -0.25234908718E+04  0.25234908718E+04  0.50400001928E-02 0. -1.
    10030    2    1    2    0    0  0.00000000000E+00  0.00000000000E+00 -0.15858593055E+04  0.34611224381E+04  0.30764295531E+04 0.  0.
        5    1    3    3  502    0 -0.31812130230E+03 -0.14373787277E+04 -0.12945835789E+04  0.19604151353E+04  0.46999998093E+01 0.  1.
       -5    1    3    3    0  502  0.31812130230E+03  0.14373787277E+04 -0.29127572662E+03  0.15007073029E+04  0.46999998093E+01 0. -1.
</event>
<event>
 5   0  0.2078009E-06  0.2990145E+04  0.7818609E-02  0.8246551E-01
       -2   -1    0    0    0  501  0.00000000000E+00  0.00000000000E+00  0.21319664216E+04  0.21319664216E+04  0.25500000920E-02 0. -1.
        2   -1    0    0  501    0  0.00000000000E+00  0.00000000000E+00 -0.10484412737E+04  0.10484412737E+04  0.25500000920E-02 0.  1.
    10030    2    1    2    0    0  0.00000000000E+00  0.00000000000E+00  0.10835251479E+04  0.31804076953E+04  0.29901448731E+04 0.  0.
        3    1    3    3  502    0  0.13351589387E+03 -0.12300184383E+04  0.14344958701E+04  0.18943469228E+04  0.10100000352E+00 0. -1.
       -3    1    3    3    0  502 -0.13351589387E+03  0.12300184383E+04 -0.35097072221E+03  0.12860607725E+04  0.10100000352E+00 0.  1.
</event>
<event>
 5   0  0.2133385E-06  0.3109087E+04  0.7818609E-02  0.8213249E-01
        2   -1    0    0  501    0  0.00000000000E+00  0.00000000000E+00  0.12914680200E+04  0.12914680200E+04  0.25500000920E-02 0. -1.
       -2   -1    0    0    0  501  0.00000000000E+00  0.00000000000E+00 -0.18712077069E+04  0.18712077069E+04  0.25500000920E-02 0.  1.
    10030    2    1    2    0    0  0.00000000000E+00  0.00000000000E+00 -0.57973968694E+03  0.31626757269E+04  0.31090866261E+04 0.  0.
        2    1    3    3  502    0  0.14027410290E+04  0.60827265773E+03 -0.57565149550E+03  0.16337235583E+04  0.25500000920E-02 0.  1.
       -2    1    3    3    0  502 -0.14027410290E+04 -0.60827265773E+03 -0.40881914416E+01  0.15289521686E+04  0.25500000920E-02 0. -1.
</event>
<event>
 5   0  0.7413481E-07  0.3145147E+04  0.7818609E-02  0.8203456E-01
        1   -1    0    0  501    0  0.00000000000E+00  0.00000000000E+00  0.18089205834E+04  0.18089205834E+04  0.50400001928E-02 0. -1.
       -1   -1    0    0    0  501  0.00000000000E+00  0.00000000000E+00 -0.13671063686E+04  0.13671063686E+04  0.50400001928E-02 0.  1.
    10030    2    1    2    0    0  0.00000000000E+00  0.00000000000E+00  0.44181421476E+03  0.31760269520E+04  0.31451466419E+04 0.  0.
        5    1    3    3  502    0  0.20247577895E+03  0.15340533281E+04 -0.62290166769E+02  0.15486181613E+04  0.46999998093E+01 0.  1.
       -5    1    3    3    0  502 -0.20247577895E+03 -0.15340533281E+04  0.50410438153E+03  0.16274087907E+04  0.46999998093E+01 0. -1.
</event>
<event>
 5   0  0.2078009E-06  0.3110160E+04  0.7818609E-02  0.8212955E-01
       -2   -1    0    0    0  501  0.00000000000E+00  0.00000000000E+00  0.15972690153E+04  0.15972690153E+04  0.25500000920E-02 0. -1.
        2   -1    0    0  501    0  0.00000000000E+00  0.00000000000E+00 -0.15140054282E+04  0.15140054282E+04  0.25500000920E-02 0.  1.
    10030    2    1    2    0    0  0.00000000000E+00  0.00000000000E+00  0.83263587069E+02  0.31112744435E+04  0.31101600985E+04 0.  0.
        3    1    3    3  502    0  0.11349430874E+04 -0.40419841680E+03  0.10252448760E+04  0.15819605677E+04  0.10100000352E+00 0. -1.
       -3    1    3    3    0  502 -0.11349430874E+04  0.40419841680E+03 -0.94198128895E+03  0.15293138758E+04  0.10100000352E+00 0.  1.
</event>
<event>
 5   0  0.2067926E-06  0.3114436E+04  0.7818609E-02  0.8211787E-01
        2   -1    0    0  501    0  0.00000000000E+00  0.00000000000E+00  0.12373334437E+04  0.12373334437E+04  0.25500000920E-02 0. -1.
       -2   -1    0    0    0  501  0.00000000000E+00  0.00000000000E+00 -0.19598014531E+04  0.19598014531E+04  0.25500000920E-02 0.  1.
    10030    2    1    2    0    0  0.00000000000E+00  0.00000000000E+00 -0.72246800935E+03  0.31971348968E+04  0.31144359881E+04 0.  0.
        1    1    3    3  502    0  0.88824291806E+02 -0.84484002151E+03 -0.17009878643E+04  0.19013164206E+04  0.50400001928E-02 0.  1.
       -1    1    3    3    0  502 -0.88824291806E+02  0.84484002151E+03  0.97851985495E+03  0.12958184762E+04  0.50400001928E-02 0. -1.
</event>
<event>
 5   0  0.2094135E-06  0.3117599E+04  0.7818609E-02  0.8210924E-01
       -2   -1    0    0    0  501  0.00000000000E+00  0.00000000000E+00  0.99260743949E+03  0.99260743950E+03  0.25500000920E-02 0.  1.
        2   -1    0    0  501    0  0.00000000000E+00  0.00000000000E+00 -0.24479529225E+04  0.24479529225E+04  0.25500000920E-02 0. -1.
    10030    2    1    2    0    0  0.00000000000E+00  0.00000000000E+00 -0.14553454830E+04  0.34405603620E+04  0.31175992574E+04 0.  0.
        4    1    3    3  502    0  0.95536307189E+03  0.31353101895E+03 -0.20422155770E+04  0.22763273875E+04  0.12699999809E+01 0. -1.
       -4    1    3    3    0  502 -0.95536307189E+03 -0.31353101895E+03  0.58687009398E+03  0.11642329746E+04  0.12699999809E+01 0.  1.
</event>
<event>
 5   0  0.2133385E-06  0.3094206E+04  0.7818609E-02  0.8217330E-01
       -2   -1    0    0    0  501  0.00000000000E+00  0.00000000000E+00  0.13360102929E+04  0.13360102929E+04  0.25500000920E-02 0. -1.
        2   -1    0    0  501    0  0.00000000000E+00  0.00000000000E+00 -0.17915491215E+04  0.17915491215E+04  0.25500000920E-02 0.  1.
    10030    2    1    2    0    0  0.00000000000E+00  0.00000000000E+00 -0.45553882862E+03  0.31275594144E+04  0.30942062417E+04 0.  0.
        2    1    3    3  502    0  0.13391200573E+04  0.44986179029E+03  0.40983114254E+03  0.14709111882E+04  0.25500000920E-02 0. -1.
       -2    1    3    3    0  502 -0.13391200573E+04 -0.44986179029E+03 -0.86536997116E+03  0.16566482261E+04  0.25500000920E-02 0.  1.
</event>
<event>
 5   0  0.7413481E-07  0.3101898E+04  0.7818609E-02  0.8215217E-01
        1   -1    0    0  501    0  0.00000000000E+00  0.00000000000E+00  0.17314785717E+04  0.17314785717E+04  0.50400001928E-02 0. -1.
       -1   -1    0    0    0  501  0.00000000000E+00  0.00000000000E+00 -0.13892417485E+04  0.13892417485E+04  0.50400001928E-02 0.  1.
    10030    2    1    2    0    0  0.00000000000E+00  0.00000000000E+00  0.34223682317E+03  0.31207203202E+04  0.31018976892E+04 0.  0.
        5    1    3    3  502    0  0.31483126910E+03 -0.14924215938E+04 -0.11161945943E+03  0.15293534370E+04  0.46999998093E+01 0.  1.
       -5    1    3    3    0  502 -0.31483126910E+03  0.14924215938E+04  0.45385628260E+03  0.15913668832E+04  0.46999998093E+01 0. -1.
</event>
<event>
 5   0  0.2133385E-06  0.2978419E+04  0.7818609E-02  0.8249921E-01
        2   -1    0    0  501    0  0.00000000000E+00  0.00000000000E+00  0.20836837928E+04  0.20836837928E+04  0.25500000920E-02 0. -1.
       -2   -1    0    0    0  501  0.00000000000E+00  0.00000000000E+00 -0.10643382485E+04  0.10643382485E+04  0.25500000920E-02 0.  1.
    10030    2    1    2    0    0  0.00000000000E+00  0.00000000000E+00  0.10193455442E+04  0.31480220413E+04  0.29784186130E+04 0.  0.
        2    1    3    3  502    0  0.59126235929E+03 -0.86900587297E+03 -0.60538172202E+03  0.12129507056E+04  0.25500000920E-02 0.  1.
       -2    1    3    3    0  502 -0.59126235929E+03  0.86900587297E+03  0.16247272662E+04  0.19350713358E+04  0.25500000920E-02 0. -1.
</event>
<event>
 5   0  0.7413481E-07  0.3109381E+04  0.7818609E-02  0.8213168E-01
        1   -1    0    0  501    0  0.00000000000E+00  0.00000000000E+00  0.17987104159E+04  0.17987104159E+04  0.50400001928E-02 0.  1.
       -1   -1    0    0    0  501  0.00000000000E+00  0.00000000000E+00 -0.13437752769E+04  0.13437752769E+04  0.50400001928E-02 0. -1.
    10030    2    1    2    0    0  0.00000000000E+00  0.00000000000E+00  0.45493513899E+03  0.31424856929E+04  0.31093810235E+04 0.  0.
        5    1    3    3  502    0  0.55923963037E+03 -0.10670813181E+04  0.12205939403E+04  0.17150169564E+04  0.46999998093E+01 0.  1.
       -5    1    3    3    0  502 -0.55923963037E+03  0.10670813181E+04 -0.76565880129E+03  0.14274687365E+04  0.46999998093E+01 0. -1.
</event>
<event>
 5   0  0.7519202E-07  0.3154192E+04  0.7818609E-02  0.8201021E-01
        1   -1    0    0  501    0  0.00000000000E+00  0.00000000000E+00  0.13957477499E+04  0.13957477499E+04  0.50400001928E-02 0. -1.
       -1   -1    0    0    0  501  0.00000000000E+00  0.00000000000E+00 -0.17820063393E+04  0.17820063393E+04  0.50400001928E-02 0.  1.
    10030    2    1    2    0    0  0.00000000000E+00  0.00000000000E+00 -0.38625858935E+03  0.31777540892E+04  0.31541917116E+04 0.  0.
        4    1    3    3  502    0  0.90526667373E+03 -0.86685313500E+03 -0.11575091031E+04  0.17060981932E+04  0.12699999809E+01 0.  1.
       -4    1    3    3    0  502 -0.90526667373E+03  0.86685313500E+03  0.77125051377E+03  0.14716558960E+04  0.12699999809E+01 0. -1.
</event>
<event>
 5   0  0.7656332E-07  0.3097315E+04  0.7818609E-02  0.8216475E-01
        1   -1    0    0  501    0  0.00000000000E+00  0.00000000000E+00  0.28051083138E+04  0.28051083139E+04  0.50400001928E-02 0.  1.
       -1   -1    0    0    0  501  0.00000000000E+00  0.00000000000E+00 -0.85499030650E+03  0.85499030651E+03  0.50400001928E-02 0. -1.
    10030    2    1    2    0    0  0.00000000000E+00  0.00000000000E+00  0.19501180073E+04  0.36600986204E+04  0.30973152355E+04 0.  0.
        2    1    3    3  502    0  0.46381629130E+03 -0.37039718724E+03 -0.71523557959E+03  0.92945229179E+03  0.25500000920E-02 0. -1.
       -2    1    3    3    0  502 -0.46381629130E+03  0.37039718724E+03  0.26653535869E+04  0.27306463286E+04  0.25500000920E-02 0.  1.
</event>
<event>
 5   0  0.7519202E-07  0.3092585E+04  0.7818609E-02  0.8217776E-01
        1   -1    0    0  501    0  0.00000000000E+00  0.00000000000E+00  0.26898869118E+04  0.26898869118E+04  0.50400001928E-02 0. -1.
       -1   -1    0    0    0  501  0.00000000000E+00  0.00000000000E+00 -0.88889257722E+03  0.88889257723E+03  0.50400001928E-02 0.  1.
    10030    2    1    2    0    0  0.00000000000E+00  0.00000000000E+00  0.18009943346E+04  0.35787794891E+04  0.30925850090E+04 0.  0.
        4    1    3    3  502    0  0.10373908597E+02  0.11395684611E+04  0.21099342107E+04  0.23980300002E+04  0.12699999809E+01 0. -1.
       -4    1    3    3    0  502 -0.10373908597E+02 -0.11395684611E+04 -0.30893987613E+03  0.11807494888E+04  0.12699999809E+01 0.  1.
</event>
<event>
 5   0  0.2067926E-06  0.3115317E+04  0.7818609E-02  0.8211547E-01
       -2   -1    0    0    0  501  0.00000000000E+00  0.00000000000E+00  0.12256619736E+04  0.12256619736E+04  0.25500000920E-02 0. -1.
        2   -1    0    0  501    0  0.00000000000E+00  0.00000000000E+00 -0.19795836196E+04  0.19795836196E+04  0.25500000920E-02 0.  1.
    10030    2    1    2    0    0  0.00000000000E+00  0.00000000000E+00 -0.75392164605E+03  0.32052455932E+04  0.31153172334E+04 0.  0.
        1    1    3    3  502    0  0.82909723139E+02  0.43093686006E+03 -0.19146670672E+04  0.19643142767E+04  0.50400001928E-02 0.  1.
       -1    1    3    3    0  502 -0.82909723139E+02 -0.43093686006E+03  0.11607454211E+04  0.12409313165E+04  0.50400001928E-02 0. -1.
</event>
<event>
 5   0  0.2094135E-06  0.3065438E+04  0.7818609E-02  0.8225288E-01
       -2   -1    0    0    0  501  0.00000000000E+00  0.00000000000E+00  0.16090385726E+04  0.16090385726E+04  0.25500000920E-02 0. -1.
        2   -1    0    0  501    0  0.00000000000E+00  0.00000000000E+00 -0.14600193179E+04  0.14600193179E+04  0.25500000920E-02 0.  1.
    10030    2    1    2    0    0  0.00000000000E+00  0.00000000000E+00  0.14901925467E+03  0.30690578905E+04  0.30654379127E+04 0.  0.
        4    1    3    3  502    0 -0.77750380074E+03 -0.17359768138E+03  0.13854746740E+04  0.15981833438E+04  0.12699999809E+01 0. -1.
       -4    1    3    3    0  502  0.77750380074E+03  0.17359768138E+03 -0.12364554193E+04  0.14708745467E+04  0.12699999809E+01 0.  1.
</event>
<event>
 5   0  0.7561815E-07  0.3074889E+04  0.7818609E-02  0.8222663E-01
        1   -1    0    0  501    0  0.00000000000E+00  0.00000000000E+00  0.17641867800E+04  0.17641867800E+04  0.50400001928E-02 0. -1.
       -1   -1    0    0    0  501  0.00000000000E+00  0.00000000000E+00 -0.13398440216E+04  0.13398440216E+04  0.50400001928E-02 0.  1.
    10030    2    1    2    0    0  0.00000000000E+00  0.00000000000E+00  0.42434275843E+03  0.31040308016E+04  0.30748886876E+04 0.  0.
        3    1    3    3  502    0  0.37790153147E+03 -0.41919297492E+03  0.16558310048E+04  0.17493737864E+04  0.10100000352E+00 0. -1.
       -3    1    3    3    0  502 -0.37790153147E+03  0.41919297492E+03 -0.12314882464E+04  0.13546570152E+04  0.10100000352E+00 0.  1.
</event>
<event>
 5   0  0.2078009E-06  0.3061597E+04  0.7818609E-02  0.8226357E-01
       -2   -1    0    0    0  501  0.00000000000E+00  0.00000000000E+00  0.18657128081E+04  0.18657128081E+04  0.25500000920E-02 0.  1.
        2   -1    0    0  501    0  0.00000000000E+00  0.00000000000E+00 -0.12560043267E+04  0.12560043267E+04  0.25500000920E-02 0. -1.
    10030    2    1    2    0    0  0.00000000000E+00  0.00000000000E+00  0.60970848138E+03  0.31217171348E+04  0.30615965504E+04 0.  0.
        3    1    3    3  502    0 -0.79430782023E+03  0.27765121880E+03  0.16087655619E+04  0.18155279552E+04  0.10100000352E+00 0.  1.
       -3    1    3    3    0  502  0.79430782023E+03 -0.27765121880E+03 -0.99905708054E+03  0.13061891796E+04  0.10100000352E+00 0. -1.
</event>
<event>
 5   0  0.7561815E-07  0.3107120E+04  0.7818609E-02  0.8213787E-01
        1   -1    0    0  501    0  0.00000000000E+00  0.00000000000E+00  0.23130239496E+04  0.23130239496E+04  0.50400001928E-02 0. -1.
       -1   -1    0    0    0  501  0.00000000000E+00  0.00000000000E+00 -0.10434601860E+04  0.10434601860E+04  0.50400001928E-02 0.  1.
    10030    2    1    2    0    0  0.00000000000E+00  0.00000000000E+00  0.12695637635E+04  0.33564841356E+04  0.31071198243E+04 0.  0.
        3    1    3    3  502    0 -0.57590787890E+03  0.14321624115E+03 -0.91619141719E+03  0.10915985983E+04  0.10100000352E+00 0.  1.
       -3    1    3    3    0  502  0.57590787890E+03 -0.14321624115E+03  0.21857551807E+04  0.22648855373E+04  0.10100000352E+00 0. -1.
</event>
<event>
 5   0  0.7656332E-07  0.3119227E+04  0.7818609E-02  0.8210481E-01
        1   -1    0    0  501    0  0.00000000000E+00  0.00000000000E+00  0.72512711467E+03  0.72512711469E+03  0.50400001928E-02 0. -1.
       -1   -1    0    0    0  501  0.00000000000E+00  0.00000000000E+00 -0.33544382297E+04  0.33544382297E+04  0.50400001928E-02 0.  1.
    10030    2    1    2    0    0  0.00000000000E+00  0.00000000000E+00 -0.26293111150E+04  0.40795653444E+04  0.31192269010E+04 0.  0.
        2    1    3    3  502    0  0.72554304577E+03  0.12073714250E+04 -0.21902845271E+04  0.26041322506E+04  0.25500000920E-02 0.  1.
       -2    1    3    3    0  502 -0.72554304577E+03 -0.12073714250E+04 -0.43902658797E+03  0.14754330938E+04  0.25500000920E-02 0. -1.
</event>
<event>
 5   0  0.2133385E-06  0.3105419E+04  0.7818609E-02  0.8214252E-01
       -2   -1    0    0    0  501  0.00000000000E+00  0.00000000000E+00  0.14865789407E+04  0.14865789407E+04  0.25500000920E-02 0. -1.
        2   -1    0    0  501    0  0.00000000000E+00  0.00000000000E+00 -0.16217820396E+04  0.16217820396E+04  0.25500000920E-02 0.  1.
    10030    2    1    2    0    0  0.00000000000E+00  0.00000000000E+00 -0.13520309892E+03  0.31083609803E+04  0.31054191514E+04 0.  0.
        2    1    3    3  502    0 -0.90755005932E+03  0.85550175736E+03 -0.99334344635E+03  0.15944471046E+04  0.25500000920E-02 0.  1.
       -2    1    3    3    0  502  0.90755005932E+03 -0.85550175736E+03  0.85814034743E+03  0.15139138757E+04  0.25500000920E-02 0. -1.
</event>
<event>
 5   0  0.7413481E-07  0.3110437E+04  0.7818609E-02  0.8212880E-01
        1   -1    0    0  501    0  0.00000000000E+00  0.00000000000E+00  0.13493281244E+04  0.13493281245E+04  0.50400001928E-02 0. -1.
       -1   -1    0    0    0  501  0.00000000000E+00  0.00000000000E+00 -0.17925246584E+04  0.17925246584E+04  0.50400001928E-02 0.  1.
    10030    2    1    2    0    0  0.00000000000E+00  0.00000000000E+00 -0.44319653397E+03  0.31418527829E+04  0.31104365838E+04 0.  0.
        5    1    3    3  502    0  0.11904338785E+04  0.89137146318E+03  0.23797619247E+03  0.15060978264E+04  0.46999998093E+01 0. -1.
       -5    1    3    3    0  502 -0.11904338785E+04 -0.89137146318E+03 -0.68117272645E+03  0.16357549565E+04  0.46999998093E+01 0.  1.
</event>
<event>
 5   0  0.7726743E-07  0.3111904E+04  0.7818609E-02  0.8212479E-01
       -1   -1    0    0    0  501  0.00000000000E+00  0.00000000000E+00  0.86615839115E+03  0.86615839116E+03  0.50400001928E-02 0.  1.
        1   -1    0    0  501    0  0.00000000000E+00  0.00000000000E+00 -0.27950846115E+04  0.27950846115E+04  0.50400001928E-02 0. -1.
    10030    2    1    2    0    0  0.00000000000E+00  0.00000000000E+00 -0.19289262204E+04  0.36612430027E+04  0.31119035912E+04 0.  0.
        1    1    3    3  502    0 -0.93786341382E+03 -0.10772407251E+04 -0.23829567776E+03  0.14480401213E+04  0.50400001928E-02 0. -1.
       -1    1    3    3    0  502  0.93786341382E+03  0.10772407251E+04 -0.16906305426E+04  0.22132028814E+04  0.50400001928E-02 0.  1.
</event>
<event>
 5   0  0.2094135E-06  0.3085606E+04  0.7818609E-02  0.8219699E-01
        2   -1    0    0  501    0  0.00000000000E+00  0.00000000000E+00  0.17566558236E+04  0.17566558236E+04  0.25500000920E-02 0.  1.
       -2   -1    0    0    0  501  0.00000000000E+00  0.00000000000E+00 -0.13549839240E+04  0.13549839240E+04  0.25500000920E-02 0. -1.
    10030    2    1    2    0    0  0.00000000000E+00  0.00000000000E+00  0.40167189960E+03  0.31116397476E+04  0.30856055490E+04 0.  0.
        4    1    3    3  502    0 -0.67014310356E+02  0.13645365379E+04 -0.52200182888E+03  0.14625109926E+04  0.12699999809E+01 0. -1.
       -4    1    3    3    0  502  0.67014310356E+02 -0.13645365379E+04  0.92367372848E+03  0.16491287550E+04  0.12699999809E+01 0.  1.
</event>
<event>
 5   0  0.7726743E-07  0.3026897E+04  0.7818609E-02  0.8236092E-01
       -1   -1    0    0    0  501  0.00000000000E+00  0.00000000000E+00  0.14783113382E+04  0.14783113383E+04  0.50400001928E-02 0. -1.
        1   -1    0    0  501    0  0.00000000000E+00  0.00000000000E+00 -0.15494207306E+04  0.15494207306E+04  0.50400001928E-02 0.  1.
    10030    2    1    2    0    0  0.00000000000E+00  0.00000000000E+00 -0.71109392370E+02  0.30277320689E+04  0.30268969152E+04 0.  0.
        1    1    3    3  502    0 -0.79251416101E+03 -0.11151113026E+03 -0.13204373541E+04  0.15440428212E+04  0.50400001928E-02 0.  1.
       -1    1    3    3    0  502  0.79251416101E+03  0.11151113026E+03  0.12493279618E+04  0.14836892477E+04  0.50400001928E-02 0. -1.
</event>
<event>
 5   0  0.2094135E-06  0.3113790E+04  0.7818609E-02  0.8211964E-01
        2   -1    0    0  501    0  0.00000000000E+00  0.00000000000E+00  0.17686639310E+04  0.17686639310E+04  0.25500000920E-02 0.  1.
       -2   -1    0    0    0  501  0.00000000000E+00  0.00000000000E+00 -0.13704818891E+04  0.13704818891E+04  0.25500000920E-02 0. -1.
    10030    2    1    2    0    0  0.00000000000E+00  0.00000000000E+00  0.39818204185E+03  0.31391458201E+04  0.31137899001E+04 0.  0.
        4    1    3    3  502    0 -0.55003387203E+03 -0.11849009715E+01 -0.12692657295E+04  0.13833205591E+04  0.12699999809E+01 0. -1.
       -4    1    3    3    0  502  0.55003387203E+03  0.11849009715E+01  0.16674477713E+04  0.17558252610E+04  0.12699999809E+01 0.  1.
</event>
<event>
 5   0  0.2226334E-06  0.3094047E+04  0.7818609E-02  0.8217373E-01
        2   -1    0    0  501    0  0.00000000000E+00  0.00000000000E+00  0.18319072095E+04  0.18319072095E+04  0.25500000920E-02 0.  1.
       -2   -1    0    0    0  501  0.00000000000E+00  0.00000000000E+00 -0.13064430461E+04  0.13064430461E+04  0.25500000920E-02 0. -1.
    10030    2    1    2    0    0  0.00000000000E+00  0.00000000000E+00  0.52546416339E+03  0.31383502557E+04  0.30940474690E+04 0.  0.
        5    1    3    3  502    0  0.21133507220E+03  0.28306499880E+03  0.17904429009E+04  0.18249647058E+04  0.46999998093E+01 0.  1.
       -5    1    3    3    0  502 -0.21133507220E+03 -0.28306499880E+03 -0.12649787375E+04  0.13133855498E+04  0.46999998093E+01 0. -1.
</event>
<event>
 5   0  0.7519202E-07  0.3106852E+04  0.7818609E-02  0.8213860E-01
       -1   -1    0    0    0  501  0.00000000000E+00  0.00000000000E+00  0.15542975735E+04  0.15542975735E+04  0.50400001928E-02 0.  1.
        1   -1    0    0  501    0  0.00000000000E+00  0.00000000000E+00 -0.15525550618E+04  0.15525550618E+04  0.50400001928E-02 0. -1.
    10030    2    1    2    0    0  0.00000000000E+00  0.00000000000E+00  0.17425117199E+01  0.31068526353E+04  0.31068521467E+04 0.  0.
        4    1    3    3  502    0 -0.19685488510E+03  0.23428833949E+03 -0.15221155498E+04  0.15525721341E+04  0.12699999809E+01 0. -1.
       -4    1    3    3    0  502  0.19685488510E+03 -0.23428833949E+03  0.15238580615E+04  0.15542805012E+04  0.12699999809E+01 0.  1.
</event>
<event>
 5   0  0.2226334E-06  0.3100857E+04  0.7818609E-02  0.8215503E-01
       -2   -1    0    0    0  501  0.00000000000E+00  0.00000000000E+00  0.12873993931E+04  0.12873993931E+04  0.25500000920E-02 0.  1.
        2   -1    0    0  501    0  0.00000000000E+00  0.00000000000E+00 -0.18671974142E+04  0.18671974142E+04  0.25500000920E-02 0. -1.
    10030    2    1    2    0    0  0.00000000000E+00  0.00000000000E+00 -0.57979802116E+03  0.31545968073E+04  0.31008571833E+04 0.  0.
        5    1    3    3  502    0 -0.79158832077E+03 -0.76915305813E+03 -0.13976212283E+04  0.17808918227E+04  0.46999998093E+01 0. -1.
       -5    1    3    3    0  502  0.79158832077E+03  0.76915305813E+03  0.81782320717E+03  0.13737049846E+04  0.46999998093E+01 0.  1.
</event>
<event>
 5   0  0.7656332E-07  0.2842505E+04  0.7818609E-02  0.8290192E-01
       -1   -1    0    0    0  501  0.00000000000E+00  0.00000000000E+00  0.17745216542E+04  0.17745216542E+04  0.50400001928E-02 0. -1.
        1   -1    0    0  501    0  0.00000000000E+00  0.00000000000E+00 -0.11383120078E+04  0.11383120078E+04  0.50400001928E-02 0.  1.
    10030    2    1    2    0    0  0.00000000000E+00  0.00000000000E+00  0.63620964641E+03  0.29128336620E+04  0.28425054491E+04 0.  0.
        2    1    3    3  502    0 -0.13378962920E+04  0.42031644863E+03  0.81465150754E+02  0.14047309266E+04  0.25500000920E-02 0. -1.
       -2    1    3    3    0  502  0.13378962920E+04 -0.42031644863E+03  0.55474449565E+03  0.15081027355E+04  0.25500000920E-02 0.  1.
</event>
<event>
 5   0  0.2133385E-06  0.3076563E+04  0.7818609E-02  0.8222200E-01
       -2   -1    0    0    0  501  0.00000000000E+00  0.00000000000E+00  0.26660500777E+04  0.26660500777E+04  0.25500000920E-02 0.  1.
        2   -1    0    0  501    0  0.00000000000E+00  0.00000000000E+00 -0.88757128042E+03  0.88757128043E+03  0.25500000920E-02 0. -1.
    10030    2    1    2    0    0  0.00000000000E+00  0.00000000000E+00  0.17784787973E+04  0.35536213582E+04  0.30765626801E+04 0.  0.
        2    1    3    3  502    0  0.12402088675E+04  0.84896348914E+03  0.12678680944E+04  0.19663027604E+04  0.25500000920E-02 0. -1.
       -2    1    3    3    0  502 -0.12402088675E+04 -0.84896348914E+03  0.51061070292E+03  0.15873185977E+04  0.25500000920E-02 0.  1.
</event>
<event>
 5   0  0.7413481E-07  0.3096451E+04  0.7818609E-02  0.8216712E-01
        1   -1    0    0  501    0  0.00000000000E+00  0.00000000000E+00  0.14730474081E+04  0.14730474081E+04  0.50400001928E-02 0.  1.
       -1   -1    0    0    0  501  0.00000000000E+00  0.00000000000E+00 -0.16272408857E+04  0.16272408857E+04  0.50400001928E-02 0. -1.
    10030    2    1    2    0    0  0.00000000000E+00  0.00000000000E+00 -0.15419347758E+03  0.31002882937E+04  0.30964514974E+04 0.  0.
        5    1    3    3  502    0 -0.50496793248E+03 -0.57705019489E+03 -0.14237545141E+04  0.16171204490E+04  0.46999998093E+01 0. -1.
       -5    1    3    3    0  502  0.50496793248E+03  0.57705019489E+03  0.12695610365E+04  0.14831678447E+04  0.46999998093E+01 0.  1.
</event>
</LesHouchesEvents>
